 Entering Gaussian System, Link 0=g09
 Input=opt_freq-conf-273.com
 Output=opt_freq-conf-273.log
 Initial command:
 /aerosol/software/g09/l1.exe "/scratch/nicole/10729/Gau-97736.inp" -scrdir="/scratch/nicole/10729/"
 Entering Link 1 = /aerosol/software/g09/l1.exe PID=     97741.
  
 Copyright (c) 1988,1990,1992,1993,1995,1998,2003,2009,2013,
            Gaussian, Inc.  All Rights Reserved.
  
 This is part of the Gaussian(R) 09 program.  It is based on
 the Gaussian(R) 03 system (copyright 2003, Gaussian, Inc.),
 the Gaussian(R) 98 system (copyright 1998, Gaussian, Inc.),
 the Gaussian(R) 94 system (copyright 1995, Gaussian, Inc.),
 the Gaussian 92(TM) system (copyright 1992, Gaussian, Inc.),
 the Gaussian 90(TM) system (copyright 1990, Gaussian, Inc.),
 the Gaussian 88(TM) system (copyright 1988, Gaussian, Inc.),
 the Gaussian 86(TM) system (copyright 1986, Carnegie Mellon
 University), and the Gaussian 82(TM) system (copyright 1983,
 Carnegie Mellon University). Gaussian is a federally registered
 trademark of Gaussian, Inc.
  
 This software contains proprietary and confidential information,
 including trade secrets, belonging to Gaussian, Inc.
  
 This software is provided under written license and may be
 used, copied, transmitted, or stored only in accord with that
 written license.
  
 The following legend is applicable only to US Government
 contracts under FAR:
  
                    RESTRICTED RIGHTS LEGEND
  
 Use, reproduction and disclosure by the US Government is
 subject to restrictions as set forth in subparagraphs (a)
 and (c) of the Commercial Computer Software - Restricted
 Rights clause in FAR 52.227-19.
  
 Gaussian, Inc.
 340 Quinnipiac St., Bldg. 40, Wallingford CT 06492
  
  
 ---------------------------------------------------------------
 Warning -- This program may not be used in any manner that
 competes with the business of Gaussian, Inc. or will provide
 assistance to any competitor of Gaussian, Inc.  The licensee
 of this program is prohibited from giving any competitor of
 Gaussian, Inc. access to this program.  By using this program,
 the user acknowledges that Gaussian, Inc. is engaged in the
 business of creating and licensing software in the field of
 computational chemistry and represents and warrants to the
 licensee that it is not a competitor of Gaussian, Inc. and that
 it will not use this program in any manner prohibited above.
 ---------------------------------------------------------------
  

 Cite this work as:
 Gaussian 09, Revision D.01,
 M. J. Frisch, G. W. Trucks, H. B. Schlegel, G. E. Scuseria, 
 M. A. Robb, J. R. Cheeseman, G. Scalmani, V. Barone, B. Mennucci, 
 G. A. Petersson, H. Nakatsuji, M. Caricato, X. Li, H. P. Hratchian, 
 A. F. Izmaylov, J. Bloino, G. Zheng, J. L. Sonnenberg, M. Hada, 
 M. Ehara, K. Toyota, R. Fukuda, J. Hasegawa, M. Ishida, T. Nakajima, 
 Y. Honda, O. Kitao, H. Nakai, T. Vreven, J. A. Montgomery, Jr., 
 J. E. Peralta, F. Ogliaro, M. Bearpark, J. J. Heyd, E. Brothers, 
 K. N. Kudin, V. N. Staroverov, T. Keith, R. Kobayashi, J. Normand, 
 K. Raghavachari, A. Rendell, J. C. Burant, S. S. Iyengar, J. Tomasi, 
 M. Cossi, N. Rega, J. M. Millam, M. Klene, J. E. Knox, J. B. Cross, 
 V. Bakken, C. Adamo, J. Jaramillo, R. Gomperts, R. E. Stratmann, 
 O. Yazyev, A. J. Austin, R. Cammi, C. Pomelli, J. W. Ochterski, 
 R. L. Martin, K. Morokuma, V. G. Zakrzewski, G. A. Voth, 
 P. Salvador, J. J. Dannenberg, S. Dapprich, A. D. Daniels, 
 O. Farkas, J. B. Foresman, J. V. Ortiz, J. Cioslowski, 
 and D. J. Fox, Gaussian, Inc., Wallingford CT, 2013.
 
 ******************************************
 Gaussian 09:  ES64L-G09RevD.01 24-Apr-2013
                29-Jul-2021 
 ******************************************
 %mem=2gb
 %nproc=4
 Will use up to    4 processors via shared memory.
 %chk=conf-273.chk
 ----------------------------------------------------------------------
 # B3LYP/6-311++G(2df,2pd) guess=read geom=checkpoint opt=readfc freq=n
 oraman nosymm integral(ultrafinegrid)
 ----------------------------------------------------------------------
 1/10=3,14=-1,18=20,19=15,26=4,29=2,38=1/1,3;
 2/9=110,12=2,15=1,40=1/2;
 3/5=4,6=6,7=1414,11=2,14=-4,16=1,25=1,30=1,71=1,74=-5,75=-5,116=-2/1,2,3;
 4/5=1/1;
 5/5=2,38=6/2;
 6/7=2,8=2,9=2,10=2,28=1/1;
 7/30=1/1,2,3,16;
 1/14=-1,18=20,19=15,26=4/3(2);
 2/9=110,15=1/2;
 99//99;
 2/9=110,15=1/2;
 3/5=4,6=6,7=1414,11=2,14=-2,16=1,25=1,30=1,71=1,74=-5,75=-5/1,2,3;
 4/5=5,16=3,69=1/1;
 5/5=2,38=5/2;
 7/30=1/1,2,3,16;
 1/14=-1,18=20,19=15,26=4/3(-5);
 2/9=110,15=1/2;
 6/7=2,8=2,9=2,10=2,19=2,28=1/1;
 99/9=1/99;
 ------------------------------------------------------------
 Candidate Structure: Conf:273 OPT and FREQ calc in gas phase
 ------------------------------------------------------------
 Structure from the checkpoint file:  "conf-273.chk"
 Charge =  0 Multiplicity = 1
 Redundant internal coordinates found in file.
 O,0,0.7225021846,-1.7321236483,1.5933129712
 C,0,0.8967268641,-0.673840341,0.9689240688
 N,0,0.2964286218,-0.4488877627,-0.2263634609
 C,0,-0.8002121307,-1.2844732483,-0.7411767034
 C,0,-0.280630098,-2.6404931249,-1.2950172624
 O,0,0.368633792,-3.4041298481,-0.418612431
 O,0,-0.4809765649,-2.9850424674,-2.4382343961
 C,0,-1.5707640794,-0.5419746578,-1.8351554074
 C,0,-2.1641674823,0.7623995753,-1.3937585688
 C,0,-2.3539090123,1.3670688594,-0.170379516
 N,0,-2.9924455279,2.5815779549,-0.3044146591
 C,0,-3.1941611982,2.7213612839,-1.5944129292
 N,0,-2.7103471975,1.6544793483,-2.3009703495
 C,0,1.7776211611,0.4351152257,1.5112266601
 C,0,2.9938383718,-0.106350139,2.270070567
 N,0,3.7140416725,0.9999245228,2.9033186476
 H,0,0.3964378847,0.4668607038,-0.6424236131
 H,0,-1.4669629345,-1.5143167032,0.1016694924
 H,0,0.4534849893,-2.9329457314,0.4537673369
 H,0,-2.3461832327,-1.2255267788,-2.1978461824
 H,0,-0.8989569178,-0.3961630402,-2.6910003503
 H,0,-2.0688900936,0.9932715772,0.8031539296
 H,0,-3.6752331688,3.5620654383,-2.0752115336
 H,0,-2.7592639686,1.5254973648,-3.300674385
 H,0,2.0901660779,1.1057151369,0.7009841053
 H,0,1.1783307101,1.0385306691,2.2045325748
 H,0,2.6324174341,-0.7814225505,3.0501166799
 H,0,3.6048708387,-0.7182148095,1.5843761031
 H,0,4.4211347228,0.6328965204,3.5348387604
 H,0,4.2164316916,1.5394429606,2.2013969808
 Recover connectivity data from disk.

 GradGradGradGradGradGradGradGradGradGradGradGradGradGradGradGradGradGrad
 Berny optimization.
 Initialization pass.
 Force constant matrix read from checkpoint file:
 "conf-273.chk"
                           ----------------------------
                           !    Initial Parameters    !
                           ! (Angstroms and Degrees)  !
 --------------------------                            --------------------------
 ! Name  Definition              Value          Derivative Info.                !
 --------------------------------------------------------------------------------
 ! R1    R(1,2)                  1.241          D2E/DX2 =    0.7321             !
 ! R2    R(2,3)                  1.3563         D2E/DX2 =    0.4724             !
 ! R3    R(2,14)                 1.5165         D2E/DX2 =    0.2804             !
 ! R4    R(3,4)                  1.4717         D2E/DX2 =    0.3316             !
 ! R5    R(3,17)                 1.0108         D2E/DX2 =    0.4673             !
 ! R6    R(4,5)                  1.5542         D2E/DX2 =    0.2569             !
 ! R7    R(4,8)                  1.5303         D2E/DX2 =    0.2861             !
 ! R8    R(4,18)                 1.099          D2E/DX2 =    0.3261             !
 ! R9    R(5,6)                  1.3315         D2E/DX2 =    0.4742             !
 ! R10   R(5,7)                  1.2107         D2E/DX2 =    0.8652             !
 ! R11   R(6,19)                 0.9951         D2E/DX2 =    0.3775             !
 ! R12   R(8,9)                  1.4995         D2E/DX2 =    0.3124             !
 ! R13   R(8,20)                 1.0955         D2E/DX2 =    0.3354             !
 ! R14   R(8,21)                 1.0978         D2E/DX2 =    0.3301             !
 ! R15   R(9,10)                 1.3778         D2E/DX2 =    0.4039             !
 ! R16   R(9,13)                 1.3846         D2E/DX2 =    0.3596             !
 ! R17   R(10,11)                1.3787         D2E/DX2 =    0.3332             !
 ! R18   R(10,22)                1.0811         D2E/DX2 =    0.3728             !
 ! R19   R(11,12)                1.3131         D2E/DX2 =    0.4686             !
 ! R20   R(12,13)                1.368          D2E/DX2 =    0.3594             !
 ! R21   R(12,23)                1.0814         D2E/DX2 =    0.3738             !
 ! R22   R(13,24)                1.0092         D2E/DX2 =    0.4754             !
 ! R23   R(14,15)                1.5324         D2E/DX2 =    0.2777             !
 ! R24   R(14,25)                1.0972         D2E/DX2 =    0.3313             !
 ! R25   R(14,26)                1.0972         D2E/DX2 =    0.3339             !
 ! R26   R(15,16)                1.4641         D2E/DX2 =    0.333              !
 ! R27   R(15,27)                1.0931         D2E/DX2 =    0.3422             !
 ! R28   R(15,28)                1.1036         D2E/DX2 =    0.3127             !
 ! R29   R(16,29)                1.0166         D2E/DX2 =    0.4486             !
 ! R30   R(16,30)                1.0179         D2E/DX2 =    0.4432             !
 ! A1    A(1,2,3)              121.5116         D2E/DX2 =    0.2542             !
 ! A2    A(1,2,14)             121.6815         D2E/DX2 =    0.1842             !
 ! A3    A(3,2,14)             116.8037         D2E/DX2 =    0.1781             !
 ! A4    A(2,3,4)              122.9498         D2E/DX2 =    0.2596             !
 ! A5    A(2,3,17)             117.9828         D2E/DX2 =    0.1331             !
 ! A6    A(4,3,17)             116.3674         D2E/DX2 =    0.1165             !
 ! A7    A(3,4,5)              111.7725         D2E/DX2 =    0.1228             !
 ! A8    A(3,4,8)              110.475          D2E/DX2 =    0.1102             !
 ! A9    A(3,4,18)             107.6108         D2E/DX2 =    0.0316             !
 ! A10   A(5,4,8)              109.6892         D2E/DX2 =    0.1233             !
 ! A11   A(5,4,18)             107.0765         D2E/DX2 =    0.0273             !
 ! A12   A(8,4,18)             110.1357         D2E/DX2 =    0.0312             !
 ! A13   A(4,5,6)              115.3956         D2E/DX2 =    0.2544             !
 ! A14   A(4,5,7)              121.9696         D2E/DX2 =    0.2098             !
 ! A15   A(6,5,7)              122.6166         D2E/DX2 =    0.2072             !
 ! A16   A(5,6,19)             110.3074         D2E/DX2 =    0.2673             !
 ! A17   A(4,8,9)              114.2615         D2E/DX2 =    0.1599             !
 ! A18   A(4,8,20)             106.8787         D2E/DX2 =    0.0613             !
 ! A19   A(4,8,21)             108.2786         D2E/DX2 =    0.0643             !
 ! A20   A(9,8,20)             111.1085         D2E/DX2 =    0.0529             !
 ! A21   A(9,8,21)             110.8638         D2E/DX2 =    0.0507             !
 ! A22   A(20,8,21)            104.9482         D2E/DX2 =    0.0205             !
 ! A23   A(8,9,10)             134.2395         D2E/DX2 =    0.1022             !
 ! A24   A(8,9,13)             121.5803         D2E/DX2 =    0.1079             !
 ! A25   A(10,9,13)            104.1643         D2E/DX2 =    0.1025             !
 ! A26   A(9,10,11)            111.3505         D2E/DX2 =    0.114              !
 ! A27   A(9,10,22)            127.7017         D2E/DX2 =    0.0825             !
 ! A28   A(11,10,22)           120.9474         D2E/DX2 =    0.0906             !
 ! A29   A(10,11,12)           105.0956         D2E/DX2 =    0.1306             !
 ! A30   A(11,12,13)           111.7175         D2E/DX2 =    0.1184             !
 ! A31   A(11,12,23)           126.0066         D2E/DX2 =    0.0894             !
 ! A32   A(13,12,23)           122.2754         D2E/DX2 =    0.0902             !
 ! A33   A(9,13,12)            107.6713         D2E/DX2 =    0.1026             !
 ! A34   A(9,13,24)            125.862          D2E/DX2 =    0.0781             !
 ! A35   A(12,13,24)           126.4526         D2E/DX2 =    0.0788             !
 ! A36   A(2,14,15)            112.316          D2E/DX2 =    0.1382             !
 ! A37   A(2,14,25)            110.3846         D2E/DX2 =    0.055              !
 ! A38   A(2,14,26)            108.1097         D2E/DX2 =    0.0432             !
 ! A39   A(15,14,25)           110.828          D2E/DX2 =    0.0574             !
 ! A40   A(15,14,26)           108.3553         D2E/DX2 =    0.0516             !
 ! A41   A(25,14,26)           106.6228         D2E/DX2 =    0.0207             !
 ! A42   A(14,15,16)           109.7315         D2E/DX2 =    0.1518             !
 ! A43   A(14,15,27)           108.0103         D2E/DX2 =    0.0559             !
 ! A44   A(14,15,28)           109.1268         D2E/DX2 =    0.0632             !
 ! A45   A(16,15,27)           108.702          D2E/DX2 =    0.0492             !
 ! A46   A(16,15,28)           114.5388         D2E/DX2 =    0.0574             !
 ! A47   A(27,15,28)           106.5024         D2E/DX2 =    0.0219             !
 ! A48   A(15,16,29)           109.7568         D2E/DX2 =    0.1427             !
 ! A49   A(15,16,30)           110.1828         D2E/DX2 =    0.1476             !
 ! A50   A(29,16,30)           106.0472         D2E/DX2 =    0.0568             !
 ! D1    D(1,2,3,4)             13.0022         D2E/DX2 =    0.0158             !
 ! D2    D(1,2,3,17)           173.6867         D2E/DX2 =    0.0192             !
 ! D3    D(14,2,3,4)          -166.3545         D2E/DX2 =    0.0111             !
 ! D4    D(14,2,3,17)           -5.6701         D2E/DX2 =    0.0104             !
 ! D5    D(1,2,14,15)           35.8055         D2E/DX2 =    0.0138             !
 ! D6    D(1,2,14,25)          160.0378         D2E/DX2 =    0.0156             !
 ! D7    D(1,2,14,26)          -83.6916         D2E/DX2 =    0.0156             !
 ! D8    D(3,2,14,15)         -144.8389         D2E/DX2 =    0.0135             !
 ! D9    D(3,2,14,25)          -20.6066         D2E/DX2 =    0.0157             !
 ! D10   D(3,2,14,26)           95.664          D2E/DX2 =    0.0141             !
 ! D11   D(2,3,4,5)            -76.617          D2E/DX2 =    0.0521             !
 ! D12   D(2,3,4,8)            160.9442         D2E/DX2 =    0.0198             !
 ! D13   D(2,3,4,18)            40.6758         D2E/DX2 =    0.0115             !
 ! D14   D(17,3,4,5)           122.4102         D2E/DX2 =    0.0371             !
 ! D15   D(17,3,4,8)            -0.0287         D2E/DX2 =    0.015              !
 ! D16   D(17,3,4,18)         -120.297          D2E/DX2 =    0.0096             !
 ! D17   D(3,4,5,6)             59.399          D2E/DX2 =    0.0407             !
 ! D18   D(3,4,5,7)           -122.1145         D2E/DX2 =    0.0329             !
 ! D19   D(8,4,5,6)           -177.714          D2E/DX2 =    0.0223             !
 ! D20   D(8,4,5,7)              0.7725         D2E/DX2 =    0.0194             !
 ! D21   D(18,4,5,6)           -58.2149         D2E/DX2 =    0.0185             !
 ! D22   D(18,4,5,7)           120.2715         D2E/DX2 =    0.0165             !
 ! D23   D(3,4,8,9)            -58.5422         D2E/DX2 =    0.0213             !
 ! D24   D(3,4,8,20)           178.1209         D2E/DX2 =    0.0205             !
 ! D25   D(3,4,8,21)            65.5329         D2E/DX2 =    0.0198             !
 ! D26   D(5,4,8,9)            177.8067         D2E/DX2 =    0.0179             !
 ! D27   D(5,4,8,20)            54.4699         D2E/DX2 =    0.0176             !
 ! D28   D(5,4,8,21)           -58.1181         D2E/DX2 =    0.0174             !
 ! D29   D(18,4,8,9)            60.2007         D2E/DX2 =    0.0132             !
 ! D30   D(18,4,8,20)          -63.1362         D2E/DX2 =    0.0137             !
 ! D31   D(18,4,8,21)         -175.7242         D2E/DX2 =    0.014              !
 ! D32   D(4,5,6,19)            -3.2464         D2E/DX2 =    0.0242             !
 ! D33   D(7,5,6,19)           178.2779         D2E/DX2 =    0.0357             !
 ! D34   D(4,8,9,10)           -11.8866         D2E/DX2 =    0.0107             !
 ! D35   D(4,8,9,13)           169.8169         D2E/DX2 =    0.0112             !
 ! D36   D(20,8,9,10)          109.1357         D2E/DX2 =    0.0131             !
 ! D37   D(20,8,9,13)          -69.1608         D2E/DX2 =    0.0133             !
 ! D38   D(21,8,9,10)         -134.5665         D2E/DX2 =    0.014              !
 ! D39   D(21,8,9,13)           47.137          D2E/DX2 =    0.0135             !
 ! D40   D(8,9,10,11)         -178.383          D2E/DX2 =    0.0096             !
 ! D41   D(8,9,10,22)            1.3723         D2E/DX2 =    0.007              !
 ! D42   D(13,9,10,11)           0.1204         D2E/DX2 =    0.0139             !
 ! D43   D(13,9,10,22)         179.8756         D2E/DX2 =    0.0098             !
 ! D44   D(8,9,13,12)          178.4885         D2E/DX2 =    0.0081             !
 ! D45   D(8,9,13,24)           -0.211          D2E/DX2 =    0.0025             !
 ! D46   D(10,9,13,12)          -0.2529         D2E/DX2 =    0.0122             !
 ! D47   D(10,9,13,24)        -178.9524         D2E/DX2 =    0.0044             !
 ! D48   D(9,10,11,12)           0.064          D2E/DX2 =    0.0174             !
 ! D49   D(22,10,11,12)       -179.7101         D2E/DX2 =    0.0099             !
 ! D50   D(10,11,12,13)         -0.2323         D2E/DX2 =    0.0183             !
 ! D51   D(10,11,12,23)        179.9982         D2E/DX2 =    0.0102             !
 ! D52   D(11,12,13,9)           0.3163         D2E/DX2 =    0.0171             !
 ! D53   D(11,12,13,24)        179.0059         D2E/DX2 =    0.0077             !
 ! D54   D(23,12,13,9)        -179.9043         D2E/DX2 =    0.0101             !
 ! D55   D(23,12,13,24)         -1.2147         D2E/DX2 =    0.0059             !
 ! D56   D(2,14,15,16)        -173.2463         D2E/DX2 =    0.0149             !
 ! D57   D(2,14,15,27)         -54.8993         D2E/DX2 =    0.0143             !
 ! D58   D(2,14,15,28)          60.4983         D2E/DX2 =    0.0142             !
 ! D59   D(25,14,15,16)         62.7676         D2E/DX2 =    0.0154             !
 ! D60   D(25,14,15,27)       -178.8854         D2E/DX2 =    0.0147             !
 ! D61   D(25,14,15,28)        -63.4878         D2E/DX2 =    0.0159             !
 ! D62   D(26,14,15,16)        -53.8926         D2E/DX2 =    0.0155             !
 ! D63   D(26,14,15,27)         64.4544         D2E/DX2 =    0.0162             !
 ! D64   D(26,14,15,28)        179.852          D2E/DX2 =    0.0147             !
 ! D65   D(14,15,16,29)        170.2551         D2E/DX2 =    0.0154             !
 ! D66   D(14,15,16,30)        -73.3241         D2E/DX2 =    0.0155             !
 ! D67   D(27,15,16,29)         52.3373         D2E/DX2 =    0.0174             !
 ! D68   D(27,15,16,30)        168.7582         D2E/DX2 =    0.0184             !
 ! D69   D(28,15,16,29)        -66.6238         D2E/DX2 =    0.0183             !
 ! D70   D(28,15,16,30)         49.7971         D2E/DX2 =    0.0184             !
 --------------------------------------------------------------------------------
 Trust Radius=3.00D-01 FncErr=1.00D-07 GrdErr=1.00D-06
 Number of steps in this run=    160 maximum allowed number of steps=    180.
 GradGradGradGradGradGradGradGradGradGradGradGradGradGradGradGradGradGrad

                          Input orientation:                          
 ---------------------------------------------------------------------
 Center     Atomic      Atomic             Coordinates (Angstroms)
 Number     Number       Type             X           Y           Z
 ---------------------------------------------------------------------
      1          8           0        0.722502   -1.732124    1.593313
      2          6           0        0.896727   -0.673840    0.968924
      3          7           0        0.296429   -0.448888   -0.226363
      4          6           0       -0.800212   -1.284473   -0.741177
      5          6           0       -0.280630   -2.640493   -1.295017
      6          8           0        0.368634   -3.404130   -0.418612
      7          8           0       -0.480977   -2.985042   -2.438234
      8          6           0       -1.570764   -0.541975   -1.835155
      9          6           0       -2.164167    0.762400   -1.393759
     10          6           0       -2.353909    1.367069   -0.170380
     11          7           0       -2.992446    2.581578   -0.304415
     12          6           0       -3.194161    2.721361   -1.594413
     13          7           0       -2.710347    1.654479   -2.300970
     14          6           0        1.777621    0.435115    1.511227
     15          6           0        2.993838   -0.106350    2.270071
     16          7           0        3.714042    0.999925    2.903319
     17          1           0        0.396438    0.466861   -0.642424
     18          1           0       -1.466963   -1.514317    0.101669
     19          1           0        0.453485   -2.932946    0.453767
     20          1           0       -2.346183   -1.225527   -2.197846
     21          1           0       -0.898957   -0.396163   -2.691000
     22          1           0       -2.068890    0.993272    0.803154
     23          1           0       -3.675233    3.562065   -2.075212
     24          1           0       -2.759264    1.525497   -3.300674
     25          1           0        2.090166    1.105715    0.700984
     26          1           0        1.178331    1.038531    2.204533
     27          1           0        2.632417   -0.781423    3.050117
     28          1           0        3.604871   -0.718215    1.584376
     29          1           0        4.421135    0.632897    3.534839
     30          1           0        4.216432    1.539443    2.201397
 ---------------------------------------------------------------------
                    Distance matrix (angstroms):
                    1          2          3          4          5
     1  O    0.000000
     2  C    1.241040   0.000000
     3  N    2.267037   1.356346   0.000000
     4  C    2.822923   2.485341   1.471685   0.000000
     5  C    3.189649   3.221696   2.505624   1.554186   0.000000
     6  O    2.639824   3.107832   2.962369   2.441965   1.331454
     7  O    4.389936   4.341480   3.453811   2.423603   1.210702
     8  C    4.293008   3.737481   2.466432   1.530308   2.521899
     9  C    4.845421   4.124819   2.980698   2.544784   3.890648
    10  C    4.709555   4.003743   3.213273   3.125773   4.650145
    11  N    6.000852   5.229226   4.472863   4.465759   5.967015
    12  C    6.733155   5.901987   4.909812   4.744019   6.109647
    13  N    6.198304   5.396690   4.215311   3.836537   5.036095
    14  C    2.411833   1.516525   2.448390   3.830865   4.644434
    15  C    2.874040   2.532371   3.691278   4.985018   5.463870
    16  N    4.257876   3.805343   4.855311   6.235327   6.843688
    17  H    3.152835   2.036647   1.010793   2.123416   3.246529
    18  H    2.658232   2.654347   2.086215   1.098988   2.150905
    19  H    1.677173   2.359111   2.580269   2.391048   1.919036
    20  H    4.903709   4.566099   3.387227   2.124944   2.661530
    21  H    4.771715   4.086151   2.739737   2.144914   2.714427
    22  H    3.980452   3.406116   2.955412   3.030284   4.561189
    23  H    7.799140   6.936316   5.939704   5.790884   7.113632
    24  H    6.832708   6.035961   4.763071   4.276078   5.246119
    25  H    3.274154   2.159376   2.548383   4.018347   4.861972
    26  H    2.873655   2.130315   2.983190   4.241248   5.283051
    27  H    2.583387   2.712113   4.037666   5.139057   5.551773
    28  H    3.055510   2.777552   3.781151   5.013342   5.204150
    29  H    4.800284   4.551146   5.685956   7.015916   7.493276
    30  H    4.824983   4.175889   5.021345   6.465289   7.065433
                    6          7          8          9         10
     6  O    0.000000
     7  O    2.230772   0.000000
     8  C    3.736280   2.742248   0.000000
     9  C    4.972520   4.238795   1.499450   0.000000
    10  C    5.498927   5.252801   2.651272   1.377782   0.000000
    11  N    6.865755   6.468997   3.757782   2.276428   1.378668
    12  C    7.183151   6.374672   3.652771   2.222314   2.137289
    13  N    6.213930   5.149184   2.517944   1.384613   2.179236
    14  C    4.522093   5.691835   4.833701   4.907520   4.556959
    15  C    4.999607   6.521453   6.154530   6.386188   6.060129
    16  N    6.451564   7.874664   7.263591   7.285234   6.811934
    17  H    3.877555   3.988788   2.512019   2.684874   2.932168
    18  H    2.685424   3.096178   2.169681   2.811732   3.027056
    19  H    0.995118   3.039672   3.879883   4.890913   5.173118
    20  H    3.909247   2.575399   1.095474   2.152101   3.291236
    21  H    3.977235   2.634558   1.097751   2.150782   3.402852
    22  H    5.174106   5.371690   3.092861   2.211064   1.081077
    23  H    8.223446   7.293811   4.618394   3.253587   3.192537
    24  H    6.510856   5.126340   2.799057   2.138407   3.160405
    25  H    4.955388   5.761924   4.748610   4.754489   4.536230
    26  H    5.222426   6.363782   5.135621   4.918968   4.269059
    27  H    4.902590   6.683649   6.449027   6.718530   6.312770
    28  H    4.658254   6.165554   6.205760   6.659077   6.552452
    29  H    6.953425   8.532162   8.131421   8.226424   7.756859
    30  H    6.790354   8.003924   7.356473   7.364848   6.987447
                   11         12         13         14         15
    11  N    0.000000
    12  C    1.313135   0.000000
    13  N    2.219308   1.368041   0.000000
    14  C    5.536912   6.292101   6.013448   0.000000
    15  C    7.049009   7.824418   7.518821   1.532388   0.000000
    16  N    7.600536   8.421176   8.293723   2.450848   1.464083
    17  H    4.008841   4.345280   3.716629   2.558688   3.944323
    18  H    4.389573   4.878614   4.166527   4.039117   5.155878
    19  H    6.546698   7.033602   6.216340   3.770330   4.212125
    20  H    4.300789   4.081804   2.904769   5.789708   7.051997
    21  H    4.352635   4.023608   2.763764   5.051119   6.312691
    22  H    2.145316   3.162413   3.237939   3.950766   5.384444
    23  H    2.136183   1.081379   2.149618   7.236987   8.764432
    24  H    3.185475   2.128510   1.009177   6.702735   8.172779
    25  H    5.387201   5.983584   5.688392   1.097215   2.178935
    26  H    5.105995   6.031798   5.983374   1.097239   2.147351
    27  H    7.362183   8.233479   7.944362   2.139819   1.093078
    28  H    7.614509   8.256041   7.785087   2.162027   1.103592
    29  H    8.573121   9.416137   9.271372   3.335009   2.045311
    30  H    7.702795   8.409637   8.262252   2.764719   2.051362
                   16         17         18         19         20
    16  N    0.000000
    17  H    4.884971   0.000000
    18  H    6.404175   2.819752   0.000000
    19  H    5.665598   3.572614   2.413421   0.000000
    20  H    8.228052   3.578475   2.478750   4.217164   0.000000
    21  H    7.384120   2.572844   3.061356   4.260743   1.739399
    22  H    6.152482   2.905967   2.672526   4.679704   3.742454
    23  H    9.271015   5.311467   5.948523   8.101063   4.970156
    24  H    8.981617   4.259749   4.741989   6.655472   2.992491
    25  H    2.738328   2.254239   4.458353   4.364702   5.789568
    26  H    2.630518   3.007212   4.235167   4.400364   6.076931
    27  H    2.089176   4.493625   5.102489   4.014702   7.247400
    28  H    2.168762   4.081309   5.343753   4.014292   7.069485
    29  H    1.016616   5.803040   7.146109   6.160396   9.061678
    30  H    1.017924   4.881608   6.784930   6.100511   8.370562
                   21         22         23         24         25
    21  H    0.000000
    22  H    3.938069   0.000000
    23  H    4.873857   4.178998   0.000000
    24  H    2.743214   4.195389   2.547228   0.000000
    25  H    4.764037   4.161830   6.854250   6.301306   0.000000
    26  H    5.508150   3.536998   6.945612   6.785948   1.759720
    27  H    6.751256   5.504605   9.215277   8.644342   3.061658
    28  H    6.218282   5.977546   9.203983   8.330677   2.530105
    29  H    8.253691   7.050702  10.276374   9.953849   3.699690
    30  H    7.338210   6.462094   9.201019   8.884442   2.638250
                   26         27         28         29         30
    26  H    0.000000
    27  H    2.478227   0.000000
    28  H    3.059223   1.760130   0.000000
    29  H    3.528460   2.331258   2.509202   0.000000
    30  H    3.079120   2.935276   2.419037   1.625361   0.000000
 Symmetry turned off by external request.
 Stoichiometry    C9H14N4O3
 Framework group  C1[X(C9H14N4O3)]
 Deg. of freedom    84
 Full point group                 C1      NOp   1
 Rotational constants (GHZ):      0.5859484      0.3247593      0.2230565
 Standard basis: 6-311++G(2df,2pd) (5D, 7F)
   754 basis functions,  1084 primitive gaussians,   848 cartesian basis functions
    60 alpha electrons       60 beta electrons
       nuclear repulsion energy      1107.2889274167 Hartrees.
 NAtoms=   30 NActive=   30 NUniq=   30 SFac= 1.00D+00 NAtFMM=   60 NAOKFM=F Big=F
 Integral buffers will be    131072 words long.
 Raffenetti 2 integral format.
 Two-electron integral symmetry is turned off.
 One-electron integrals computed using PRISM.
 NBasis=   754 RedAO= T EigKep=  3.20D-06  NBF=   754
 NBsUse=   753 1.00D-06 EigRej=  7.62D-07 NBFU=   753
 Initial guess from the checkpoint file:  "conf-273.chk"
 B after Tr=     0.000000    0.000000    0.000000
         Rot=    1.000000    0.000000    0.000000    0.000000 Ang=   0.00 deg.
 Requested convergence on RMS density matrix=1.00D-08 within 128 cycles.
 Requested convergence on MAX density matrix=1.00D-06.
 Requested convergence on             energy=1.00D-06.
 No special actions if energy rises.
 SCF Done:  E(RB3LYP) =  -796.381167589     A.U. after   12 cycles
            NFock= 12  Conv=0.55D-08     -V/T= 2.0043

 **********************************************************************

            Population analysis using the SCF density.

 **********************************************************************

 Alpha  occ. eigenvalues --  -19.15983 -19.12916 -19.11470 -14.38737 -14.37807
 Alpha  occ. eigenvalues --  -14.31143 -14.30932 -10.30983 -10.30893 -10.25648
 Alpha  occ. eigenvalues --  -10.24054 -10.22715 -10.21408 -10.21201 -10.20254
 Alpha  occ. eigenvalues --  -10.19961  -1.10583  -1.07377  -1.03339  -1.02276
 Alpha  occ. eigenvalues --   -0.96456  -0.90216  -0.89073  -0.82829  -0.78358
 Alpha  occ. eigenvalues --   -0.75333  -0.69080  -0.65454  -0.63418  -0.62146
 Alpha  occ. eigenvalues --   -0.61231  -0.60421  -0.57025  -0.54352  -0.53808
 Alpha  occ. eigenvalues --   -0.52520  -0.50889  -0.48248  -0.47223  -0.46799
 Alpha  occ. eigenvalues --   -0.45778  -0.45208  -0.44494  -0.43851  -0.43640
 Alpha  occ. eigenvalues --   -0.42711  -0.42521  -0.40933  -0.40169  -0.38394
 Alpha  occ. eigenvalues --   -0.38092  -0.36852  -0.32471  -0.31795  -0.30473
 Alpha  occ. eigenvalues --   -0.29972  -0.29031  -0.27715  -0.26449  -0.24782
 Alpha virt. eigenvalues --   -0.03029  -0.02543  -0.01992  -0.01196  -0.00780
 Alpha virt. eigenvalues --   -0.00621   0.00151   0.00623   0.01402   0.01609
 Alpha virt. eigenvalues --    0.02256   0.03098   0.03832   0.03942   0.04035
 Alpha virt. eigenvalues --    0.05167   0.05314   0.06140   0.06362   0.07095
 Alpha virt. eigenvalues --    0.07405   0.07776   0.08087   0.08869   0.09015
 Alpha virt. eigenvalues --    0.09384   0.09800   0.10169   0.10582   0.10873
 Alpha virt. eigenvalues --    0.11207   0.11382   0.12003   0.12255   0.12821
 Alpha virt. eigenvalues --    0.13074   0.13175   0.13624   0.13796   0.13955
 Alpha virt. eigenvalues --    0.14471   0.14957   0.15141   0.15265   0.15939
 Alpha virt. eigenvalues --    0.16340   0.16608   0.16749   0.17223   0.17902
 Alpha virt. eigenvalues --    0.17975   0.18194   0.18474   0.18569   0.18978
 Alpha virt. eigenvalues --    0.19400   0.19807   0.20416   0.20811   0.21211
 Alpha virt. eigenvalues --    0.21379   0.21685   0.22259   0.22720   0.23055
 Alpha virt. eigenvalues --    0.23698   0.23834   0.24178   0.24827   0.25301
 Alpha virt. eigenvalues --    0.25504   0.26112   0.26546   0.26733   0.27459
 Alpha virt. eigenvalues --    0.27564   0.27912   0.28376   0.28543   0.29217
 Alpha virt. eigenvalues --    0.29747   0.30203   0.30456   0.30796   0.30801
 Alpha virt. eigenvalues --    0.31454   0.31670   0.32114   0.32481   0.32578
 Alpha virt. eigenvalues --    0.33436   0.33849   0.34221   0.34528   0.35711
 Alpha virt. eigenvalues --    0.35820   0.36549   0.37711   0.37935   0.38907
 Alpha virt. eigenvalues --    0.39008   0.40076   0.40835   0.41324   0.42546
 Alpha virt. eigenvalues --    0.42823   0.43634   0.44128   0.44800   0.45886
 Alpha virt. eigenvalues --    0.45932   0.47883   0.48104   0.49822   0.50131
 Alpha virt. eigenvalues --    0.51607   0.52108   0.52438   0.52899   0.53698
 Alpha virt. eigenvalues --    0.54197   0.54695   0.55236   0.55938   0.56215
 Alpha virt. eigenvalues --    0.57289   0.57612   0.58088   0.58211   0.59230
 Alpha virt. eigenvalues --    0.59707   0.61032   0.61135   0.62012   0.62311
 Alpha virt. eigenvalues --    0.62786   0.63146   0.64209   0.64559   0.64642
 Alpha virt. eigenvalues --    0.65128   0.66078   0.66680   0.67208   0.67598
 Alpha virt. eigenvalues --    0.67895   0.68455   0.69447   0.69557   0.70365
 Alpha virt. eigenvalues --    0.71042   0.71365   0.72486   0.72894   0.73829
 Alpha virt. eigenvalues --    0.74109   0.75026   0.75132   0.76008   0.76764
 Alpha virt. eigenvalues --    0.77028   0.77708   0.78777   0.78875   0.80318
 Alpha virt. eigenvalues --    0.81510   0.81651   0.82204   0.83576   0.84138
 Alpha virt. eigenvalues --    0.84817   0.85327   0.86824   0.87110   0.88116
 Alpha virt. eigenvalues --    0.88685   0.89122   0.89431   0.91129   0.91684
 Alpha virt. eigenvalues --    0.92501   0.93410   0.94915   0.95307   0.95709
 Alpha virt. eigenvalues --    0.96681   0.97152   0.98841   0.99605   1.00562
 Alpha virt. eigenvalues --    1.01597   1.02486   1.02687   1.04569   1.05171
 Alpha virt. eigenvalues --    1.06257   1.06658   1.07855   1.08107   1.08988
 Alpha virt. eigenvalues --    1.09453   1.10588   1.11192   1.11898   1.12156
 Alpha virt. eigenvalues --    1.13253   1.13981   1.14832   1.15302   1.15992
 Alpha virt. eigenvalues --    1.16518   1.17517   1.18037   1.18902   1.19592
 Alpha virt. eigenvalues --    1.20585   1.21099   1.22109   1.22889   1.23662
 Alpha virt. eigenvalues --    1.24212   1.24931   1.25469   1.25860   1.26889
 Alpha virt. eigenvalues --    1.27937   1.28559   1.29400   1.30140   1.30356
 Alpha virt. eigenvalues --    1.31239   1.32361   1.33349   1.34887   1.35088
 Alpha virt. eigenvalues --    1.35700   1.36502   1.37612   1.38516   1.39341
 Alpha virt. eigenvalues --    1.39744   1.40609   1.41418   1.42450   1.43359
 Alpha virt. eigenvalues --    1.44109   1.44485   1.46532   1.47100   1.47214
 Alpha virt. eigenvalues --    1.47812   1.48443   1.49571   1.50828   1.51724
 Alpha virt. eigenvalues --    1.53158   1.53819   1.54508   1.55216   1.55928
 Alpha virt. eigenvalues --    1.56997   1.57500   1.58224   1.59753   1.60830
 Alpha virt. eigenvalues --    1.62151   1.62937   1.64545   1.65106   1.65923
 Alpha virt. eigenvalues --    1.67059   1.69202   1.69839   1.70909   1.71828
 Alpha virt. eigenvalues --    1.73195   1.74445   1.75662   1.76605   1.78059
 Alpha virt. eigenvalues --    1.78854   1.78984   1.81546   1.81731   1.83685
 Alpha virt. eigenvalues --    1.84958   1.87507   1.89151   1.90398   1.91818
 Alpha virt. eigenvalues --    1.93019   1.94976   1.97504   1.99523   2.02022
 Alpha virt. eigenvalues --    2.04710   2.07475   2.09694   2.11167   2.12757
 Alpha virt. eigenvalues --    2.13933   2.17135   2.21281   2.27260   2.32028
 Alpha virt. eigenvalues --    2.35106   2.37943   2.40943   2.45472   2.47371
 Alpha virt. eigenvalues --    2.50591   2.51536   2.52353   2.54831   2.55973
 Alpha virt. eigenvalues --    2.56655   2.57533   2.59901   2.62241   2.63381
 Alpha virt. eigenvalues --    2.64257   2.65559   2.66733   2.67461   2.70087
 Alpha virt. eigenvalues --    2.71133   2.71717   2.72661   2.73172   2.74046
 Alpha virt. eigenvalues --    2.75329   2.76966   2.78338   2.79201   2.80047
 Alpha virt. eigenvalues --    2.80722   2.82083   2.82547   2.83766   2.84907
 Alpha virt. eigenvalues --    2.85387   2.86267   2.86589   2.89152   2.89681
 Alpha virt. eigenvalues --    2.90552   2.91526   2.92719   2.93474   2.94653
 Alpha virt. eigenvalues --    2.95535   2.96418   2.96501   2.97326   2.98093
 Alpha virt. eigenvalues --    2.98931   2.99839   3.00395   3.01130   3.02047
 Alpha virt. eigenvalues --    3.03262   3.03778   3.04303   3.04598   3.05381
 Alpha virt. eigenvalues --    3.06230   3.06570   3.06949   3.07512   3.09152
 Alpha virt. eigenvalues --    3.09530   3.10428   3.10815   3.11636   3.12632
 Alpha virt. eigenvalues --    3.13061   3.13602   3.15316   3.15827   3.17450
 Alpha virt. eigenvalues --    3.18075   3.19108   3.19917   3.20594   3.20913
 Alpha virt. eigenvalues --    3.21621   3.21912   3.22642   3.23717   3.25886
 Alpha virt. eigenvalues --    3.26573   3.26710   3.27998   3.28690   3.29370
 Alpha virt. eigenvalues --    3.30603   3.31932   3.32044   3.32315   3.32944
 Alpha virt. eigenvalues --    3.33351   3.34149   3.35087   3.35816   3.36179
 Alpha virt. eigenvalues --    3.36644   3.37360   3.38616   3.38780   3.39238
 Alpha virt. eigenvalues --    3.39969   3.40469   3.40821   3.41968   3.42674
 Alpha virt. eigenvalues --    3.44606   3.45211   3.46507   3.46776   3.47762
 Alpha virt. eigenvalues --    3.48302   3.48867   3.50631   3.50813   3.51193
 Alpha virt. eigenvalues --    3.52320   3.53001   3.54119   3.54483   3.55312
 Alpha virt. eigenvalues --    3.56251   3.57659   3.58193   3.59407   3.59912
 Alpha virt. eigenvalues --    3.60461   3.61241   3.61864   3.63267   3.63479
 Alpha virt. eigenvalues --    3.64071   3.65122   3.65786   3.66924   3.67229
 Alpha virt. eigenvalues --    3.68878   3.68953   3.69859   3.70909   3.71327
 Alpha virt. eigenvalues --    3.72453   3.73526   3.74161   3.75780   3.77398
 Alpha virt. eigenvalues --    3.77515   3.77695   3.78390   3.81469   3.82233
 Alpha virt. eigenvalues --    3.83384   3.84232   3.84500   3.85094   3.87011
 Alpha virt. eigenvalues --    3.87210   3.87887   3.88711   3.89653   3.90539
 Alpha virt. eigenvalues --    3.90639   3.91595   3.92308   3.93139   3.93708
 Alpha virt. eigenvalues --    3.94990   3.96107   3.97342   3.97821   3.98766
 Alpha virt. eigenvalues --    3.99308   3.99608   3.99940   4.00504   4.02217
 Alpha virt. eigenvalues --    4.02505   4.04796   4.05858   4.06169   4.06838
 Alpha virt. eigenvalues --    4.07423   4.08615   4.09044   4.09839   4.11035
 Alpha virt. eigenvalues --    4.11842   4.12594   4.14289   4.15751   4.17096
 Alpha virt. eigenvalues --    4.18648   4.19509   4.19919   4.22106   4.22287
 Alpha virt. eigenvalues --    4.23232   4.24272   4.25872   4.26716   4.27561
 Alpha virt. eigenvalues --    4.29053   4.29321   4.31103   4.32985   4.34513
 Alpha virt. eigenvalues --    4.34634   4.35408   4.37503   4.39207   4.39810
 Alpha virt. eigenvalues --    4.41964   4.43004   4.45654   4.46638   4.46990
 Alpha virt. eigenvalues --    4.48084   4.48985   4.51522   4.52879   4.53610
 Alpha virt. eigenvalues --    4.54307   4.56651   4.58066   4.60194   4.61340
 Alpha virt. eigenvalues --    4.62648   4.63455   4.66072   4.68028   4.68686
 Alpha virt. eigenvalues --    4.71048   4.72723   4.74005   4.74662   4.77941
 Alpha virt. eigenvalues --    4.78523   4.80982   4.81976   4.83429   4.84347
 Alpha virt. eigenvalues --    4.86889   4.88783   4.89837   4.90324   4.90871
 Alpha virt. eigenvalues --    4.92917   4.94050   4.95173   4.96670   4.98041
 Alpha virt. eigenvalues --    4.99407   5.00914   5.02134   5.02444   5.03161
 Alpha virt. eigenvalues --    5.04609   5.05374   5.06154   5.06290   5.07548
 Alpha virt. eigenvalues --    5.07783   5.09038   5.09476   5.10610   5.12460
 Alpha virt. eigenvalues --    5.12588   5.13653   5.14908   5.15858   5.17535
 Alpha virt. eigenvalues --    5.18480   5.19513   5.20777   5.21980   5.23009
 Alpha virt. eigenvalues --    5.23607   5.24047   5.25131   5.25664   5.26720
 Alpha virt. eigenvalues --    5.26759   5.27897   5.28443   5.31443   5.32769
 Alpha virt. eigenvalues --    5.34607   5.36939   5.37287   5.37703   5.38853
 Alpha virt. eigenvalues --    5.39858   5.41599   5.44311   5.45679   5.47722
 Alpha virt. eigenvalues --    5.49439   5.50660   5.52967   5.54380   5.55197
 Alpha virt. eigenvalues --    5.56844   5.59045   5.59776   5.60267   5.63981
 Alpha virt. eigenvalues --    5.66210   5.67196   5.67505   5.69199   5.75094
 Alpha virt. eigenvalues --    5.76987   5.78024   5.79275   5.82672   5.84663
 Alpha virt. eigenvalues --    5.85697   5.86851   5.87507   5.88602   5.93661
 Alpha virt. eigenvalues --    5.95458   5.98846   6.01357   6.04691   6.10260
 Alpha virt. eigenvalues --    6.12518   6.14267   6.17198   6.20902   6.22144
 Alpha virt. eigenvalues --    6.26373   6.28711   6.32330   6.37508   6.38188
 Alpha virt. eigenvalues --    6.39840   6.41090   6.41784   6.43663   6.50617
 Alpha virt. eigenvalues --    6.54061   6.56472   6.68168   6.72121   6.81661
 Alpha virt. eigenvalues --    6.85753   6.97233   6.99206   6.99361   7.03009
 Alpha virt. eigenvalues --    7.06551   7.13987   7.18803   7.19750   7.21717
 Alpha virt. eigenvalues --    7.26302   7.28282   7.30351   7.35910   7.44972
 Alpha virt. eigenvalues --    7.51246   7.54586   7.65727   7.72848   7.75037
 Alpha virt. eigenvalues --    7.81745   8.15006  24.51481  24.73660  24.80457
 Alpha virt. eigenvalues --   24.85944  24.99625  25.03935  25.07193  25.09668
 Alpha virt. eigenvalues --   25.14746  35.98321  36.21648  36.25904  36.44173
 Alpha virt. eigenvalues --   50.19383  50.20828  50.28398
          Condensed to atoms (all electrons):
               1          2          3          4          5          6
     1  O    8.124257   0.310336  -0.060528   0.051285  -0.069122  -0.042357
     2  C    0.310336   7.870255   0.148739  -0.261083   0.040309  -0.006894
     3  N   -0.060528   0.148739   6.474299   0.156050  -0.103401   0.048927
     4  C    0.051285  -0.261083   0.156050   7.458460  -0.422830  -0.240754
     5  C   -0.069122   0.040309  -0.103401  -0.422830   6.062515   0.446385
     6  O   -0.042357  -0.006894   0.048927  -0.240754   0.446385   7.831950
     7  O    0.000450  -0.022803   0.010607  -0.134568   0.327953  -0.052386
     8  C    0.013984  -0.109029  -0.082103  -0.049535  -0.149526   0.051251
     9  C    0.002313  -0.045306  -0.083047  -0.329923   0.029255  -0.006642
    10  C    0.001339   0.008867   0.031777  -0.220152  -0.026892   0.004901
    11  N   -0.000083   0.000161   0.001198  -0.008318   0.001360  -0.000059
    12  C    0.000115  -0.001544   0.008188  -0.087467  -0.027912  -0.000495
    13  N   -0.000040   0.001835   0.003327  -0.023584  -0.000264  -0.000074
    14  C    0.052250  -1.839711   0.028686  -0.557881   0.022397  -0.001754
    15  C   -0.031643   0.112413  -0.045409   0.004870  -0.036840  -0.004070
    16  N   -0.000894   0.025542  -0.001662   0.004203  -0.000251  -0.000177
    17  H    0.008887  -0.042071   0.335385  -0.116994  -0.023000   0.002704
    18  H    0.004468   0.009999  -0.035317   0.473209  -0.043510  -0.004660
    19  H    0.060394  -0.010669   0.002189   0.128179  -0.160868   0.202816
    20  H   -0.000212   0.016061   0.008131   0.036202  -0.037279  -0.003428
    21  H   -0.000198  -0.007727   0.002680  -0.136959   0.038008  -0.000308
    22  H   -0.006341   0.000449   0.008863   0.010350  -0.004511   0.000911
    23  H    0.000005  -0.000482   0.000428   0.000402  -0.000590  -0.000004
    24  H   -0.000015  -0.000046  -0.000402  -0.006271  -0.001026  -0.000001
    25  H    0.005799  -0.089107  -0.003165   0.012719   0.009407   0.000678
    26  H    0.000651  -0.100730   0.012932   0.016038  -0.006659  -0.000435
    27  H    0.004466  -0.010194  -0.001977  -0.005671   0.003156   0.000177
    28  H   -0.008884  -0.005311   0.006369  -0.001397  -0.000146   0.000236
    29  H    0.000623  -0.002848   0.000070   0.000280  -0.000141  -0.000014
    30  H   -0.000318  -0.003792  -0.000240  -0.000606  -0.000270  -0.000019
               7          8          9         10         11         12
     1  O    0.000450   0.013984   0.002313   0.001339  -0.000083   0.000115
     2  C   -0.022803  -0.109029  -0.045306   0.008867   0.000161  -0.001544
     3  N    0.010607  -0.082103  -0.083047   0.031777   0.001198   0.008188
     4  C   -0.134568  -0.049535  -0.329923  -0.220152  -0.008318  -0.087467
     5  C    0.327953  -0.149526   0.029255  -0.026892   0.001360  -0.027912
     6  O   -0.052386   0.051251  -0.006642   0.004901  -0.000059  -0.000495
     7  O    8.131071   0.090148   0.020744   0.005248  -0.000076  -0.001816
     8  C    0.090148   5.505042   0.377542   0.039887  -0.006554  -0.001476
     9  C    0.020744   0.377542   7.413288  -1.105879   0.152896  -0.508250
    10  C    0.005248   0.039887  -1.105879   7.155353   0.246299  -0.061852
    11  N   -0.000076  -0.006554   0.152896   0.246299   6.853389   0.197094
    12  C   -0.001816  -0.001476  -0.508250  -0.061852   0.197094   5.455201
    13  N    0.000420  -0.034833   0.271572  -0.229892   0.029999   0.368796
    14  C   -0.005568  -0.023983   0.017176  -0.078283  -0.005777  -0.004135
    15  C    0.000475  -0.008471   0.032429  -0.034777   0.001190   0.001151
    16  N    0.000002   0.000517   0.000135   0.000108  -0.000014  -0.000028
    17  H    0.003275   0.023186  -0.002295   0.035022  -0.000229   0.000558
    18  H   -0.005517  -0.048429  -0.019177  -0.032275   0.002485  -0.008857
    19  H    0.010885  -0.009147   0.005231   0.008403  -0.000075   0.000884
    20  H   -0.007862   0.374027  -0.060542  -0.053917   0.000697   0.007769
    21  H   -0.005215   0.374391  -0.026726   0.033167   0.000581   0.008933
    22  H    0.000180  -0.018787  -0.187723   0.540123  -0.110922   0.057108
    23  H   -0.000047   0.006605   0.009982   0.013073  -0.075715   0.450802
    24  H    0.000740   0.006056  -0.108417   0.052357  -0.002175  -0.024884
    25  H   -0.000742  -0.004489  -0.010702  -0.002051   0.000725  -0.001304
    26  H    0.000181   0.004947   0.003179   0.002554  -0.000569   0.000256
    27  H   -0.000107  -0.001198  -0.000359  -0.000287   0.000031  -0.000019
    28  H    0.000091   0.001858   0.000013   0.001210  -0.000072  -0.000066
    29  H    0.000001  -0.000055   0.000123  -0.000145   0.000003   0.000002
    30  H    0.000000   0.000101  -0.000075   0.000276  -0.000011   0.000021
              13         14         15         16         17         18
     1  O   -0.000040   0.052250  -0.031643  -0.000894   0.008887   0.004468
     2  C    0.001835  -1.839711   0.112413   0.025542  -0.042071   0.009999
     3  N    0.003327   0.028686  -0.045409  -0.001662   0.335385  -0.035317
     4  C   -0.023584  -0.557881   0.004870   0.004203  -0.116994   0.473209
     5  C   -0.000264   0.022397  -0.036840  -0.000251  -0.023000  -0.043510
     6  O   -0.000074  -0.001754  -0.004070  -0.000177   0.002704  -0.004660
     7  O    0.000420  -0.005568   0.000475   0.000002   0.003275  -0.005517
     8  C   -0.034833  -0.023983  -0.008471   0.000517   0.023186  -0.048429
     9  C    0.271572   0.017176   0.032429   0.000135  -0.002295  -0.019177
    10  C   -0.229892  -0.078283  -0.034777   0.000108   0.035022  -0.032275
    11  N    0.029999  -0.005777   0.001190  -0.000014  -0.000229   0.002485
    12  C    0.368796  -0.004135   0.001151  -0.000028   0.000558  -0.008857
    13  N    6.278837  -0.000688  -0.000013  -0.000001   0.001586  -0.002243
    14  C   -0.000688   7.613754  -0.118258   0.031620   0.058665   0.006142
    15  C   -0.000013  -0.118258   5.555675   0.175121  -0.010913   0.003170
    16  N   -0.000001   0.031620   0.175121   6.287738   0.000500   0.000007
    17  H    0.001586   0.058665  -0.010913   0.000500   0.601405   0.001660
    18  H   -0.002243   0.006142   0.003170   0.000007   0.001660   0.634533
    19  H    0.000017   0.003818   0.003286   0.000255  -0.001442  -0.005036
    20  H    0.008563   0.010037   0.000655  -0.000017   0.001513  -0.008204
    21  H   -0.005791  -0.016465  -0.000192   0.000073  -0.007204   0.008306
    22  H    0.015612  -0.025142   0.000452   0.000147  -0.001683  -0.013534
    23  H   -0.076999  -0.000073  -0.000001   0.000000  -0.000603  -0.000007
    24  H    0.417358  -0.000100   0.000036   0.000000   0.000308  -0.000713
    25  H   -0.000096   0.388832   0.018528  -0.018366  -0.010272   0.000069
    26  H    0.000084   0.435407  -0.064999   0.002804  -0.001938   0.002140
    27  H   -0.000010  -0.031357   0.446081  -0.052871  -0.000681  -0.000102
    28  H    0.000013   0.040655   0.285300  -0.064998   0.005258  -0.000045
    29  H    0.000000  -0.028713  -0.008510   0.385435  -0.000430   0.000018
    30  H    0.000002   0.002631  -0.055108   0.384085   0.001247   0.000013
              19         20         21         22         23         24
     1  O    0.060394  -0.000212  -0.000198  -0.006341   0.000005  -0.000015
     2  C   -0.010669   0.016061  -0.007727   0.000449  -0.000482  -0.000046
     3  N    0.002189   0.008131   0.002680   0.008863   0.000428  -0.000402
     4  C    0.128179   0.036202  -0.136959   0.010350   0.000402  -0.006271
     5  C   -0.160868  -0.037279   0.038008  -0.004511  -0.000590  -0.001026
     6  O    0.202816  -0.003428  -0.000308   0.000911  -0.000004  -0.000001
     7  O    0.010885  -0.007862  -0.005215   0.000180  -0.000047   0.000740
     8  C   -0.009147   0.374027   0.374391  -0.018787   0.006605   0.006056
     9  C    0.005231  -0.060542  -0.026726  -0.187723   0.009982  -0.108417
    10  C    0.008403  -0.053917   0.033167   0.540123   0.013073   0.052357
    11  N   -0.000075   0.000697   0.000581  -0.110922  -0.075715  -0.002175
    12  C    0.000884   0.007769   0.008933   0.057108   0.450802  -0.024884
    13  N    0.000017   0.008563  -0.005791   0.015612  -0.076999   0.417358
    14  C    0.003818   0.010037  -0.016465  -0.025142  -0.000073  -0.000100
    15  C    0.003286   0.000655  -0.000192   0.000452  -0.000001   0.000036
    16  N    0.000255  -0.000017   0.000073   0.000147   0.000000   0.000000
    17  H   -0.001442   0.001513  -0.007204  -0.001683  -0.000603   0.000308
    18  H   -0.005036  -0.008204   0.008306  -0.013534  -0.000007  -0.000713
    19  H    0.500820   0.000013  -0.000021   0.001805   0.000018   0.000021
    20  H    0.000013   0.677878  -0.062391  -0.000303  -0.000608   0.000936
    21  H   -0.000021  -0.062391   0.695595   0.000611   0.000263  -0.001150
    22  H    0.001805  -0.000303   0.000611   0.624165   0.001334   0.002035
    23  H    0.000018  -0.000608   0.000263   0.001334   0.560295  -0.003432
    24  H    0.000021   0.000936  -0.001150   0.002035  -0.003432   0.534983
    25  H    0.001483  -0.000107  -0.000702   0.000889   0.000035   0.000022
    26  H   -0.000553  -0.000171   0.000443  -0.002563   0.000009   0.000042
    27  H    0.000062   0.000020  -0.000059  -0.000116   0.000000  -0.000001
    28  H   -0.002101   0.000037  -0.000011  -0.000248  -0.000004   0.000002
    29  H    0.000067   0.000000  -0.000002  -0.000056   0.000000   0.000000
    30  H   -0.000034   0.000000   0.000004  -0.000067   0.000000   0.000000
              25         26         27         28         29         30
     1  O    0.005799   0.000651   0.004466  -0.008884   0.000623  -0.000318
     2  C   -0.089107  -0.100730  -0.010194  -0.005311  -0.002848  -0.003792
     3  N   -0.003165   0.012932  -0.001977   0.006369   0.000070  -0.000240
     4  C    0.012719   0.016038  -0.005671  -0.001397   0.000280  -0.000606
     5  C    0.009407  -0.006659   0.003156  -0.000146  -0.000141  -0.000270
     6  O    0.000678  -0.000435   0.000177   0.000236  -0.000014  -0.000019
     7  O   -0.000742   0.000181  -0.000107   0.000091   0.000001   0.000000
     8  C   -0.004489   0.004947  -0.001198   0.001858  -0.000055   0.000101
     9  C   -0.010702   0.003179  -0.000359   0.000013   0.000123  -0.000075
    10  C   -0.002051   0.002554  -0.000287   0.001210  -0.000145   0.000276
    11  N    0.000725  -0.000569   0.000031  -0.000072   0.000003  -0.000011
    12  C   -0.001304   0.000256  -0.000019  -0.000066   0.000002   0.000021
    13  N   -0.000096   0.000084  -0.000010   0.000013   0.000000   0.000002
    14  C    0.388832   0.435407  -0.031357   0.040655  -0.028713   0.002631
    15  C    0.018528  -0.064999   0.446081   0.285300  -0.008510  -0.055108
    16  N   -0.018366   0.002804  -0.052871  -0.064998   0.385435   0.384085
    17  H   -0.010272  -0.001938  -0.000681   0.005258  -0.000430   0.001247
    18  H    0.000069   0.002140  -0.000102  -0.000045   0.000018   0.000013
    19  H    0.001483  -0.000553   0.000062  -0.002101   0.000067  -0.000034
    20  H   -0.000107  -0.000171   0.000020   0.000037   0.000000   0.000000
    21  H   -0.000702   0.000443  -0.000059  -0.000011  -0.000002   0.000004
    22  H    0.000889  -0.002563  -0.000116  -0.000248  -0.000056  -0.000067
    23  H    0.000035   0.000009   0.000000  -0.000004   0.000000   0.000000
    24  H    0.000022   0.000042  -0.000001   0.000002   0.000000   0.000000
    25  H    0.772740  -0.060334   0.017023  -0.045134   0.003326   0.004922
    26  H   -0.060334   0.663192  -0.015411   0.018735   0.002323  -0.001429
    27  H    0.017023  -0.015411   0.643346  -0.063183  -0.010260   0.011898
    28  H   -0.045134   0.018735  -0.063183   0.794415  -0.003398  -0.010830
    29  H    0.003326   0.002323  -0.010260  -0.003398   0.601861  -0.054051
    30  H    0.004922  -0.001429   0.011898  -0.010830  -0.054051   0.627329
 Mulliken charges:
               1
     1  O   -0.420986
     2  C    0.014379
     3  N    0.128407
     4  C    0.251748
     5  C    0.134294
     6  O   -0.226405
     7  O   -0.365763
     8  C   -0.321927
     9  C    0.159185
    10  C   -0.333562
    11  N   -0.277459
    12  C    0.173226
    13  N   -0.023497
    14  C    0.025819
    15  C   -0.221630
    16  N   -0.159015
    17  H    0.138597
    18  H    0.081406
    19  H    0.259300
    20  H    0.092502
    21  H    0.108067
    22  H    0.106961
    23  H    0.115314
    24  H    0.133738
    25  H    0.009376
    26  H    0.089873
    27  H    0.067603
    28  H    0.051635
    29  H    0.114491
    30  H    0.094324
 Sum of Mulliken charges =   0.00000
 Mulliken charges with hydrogens summed into heavy atoms:
               1
     1  O   -0.420986
     2  C    0.014379
     3  N    0.267003
     4  C    0.333154
     5  C    0.134294
     6  O    0.032895
     7  O   -0.365763
     8  C   -0.121359
     9  C    0.159185
    10  C   -0.226601
    11  N   -0.277459
    12  C    0.288540
    13  N    0.110242
    14  C    0.125068
    15  C   -0.102392
    16  N    0.049800
 Electronic spatial extent (au):  <R**2>=           4824.1776
 Charge=              0.0000 electrons
 Dipole moment (field-independent basis, Debye):
    X=              1.3849    Y=              3.8108    Z=             -2.0736  Tot=              4.5541
 Quadrupole moment (field-independent basis, Debye-Ang):
   XX=            -84.6037   YY=           -119.5565   ZZ=            -93.5952
   XY=              5.1778   XZ=             13.4328   YZ=            -18.8205
 Traceless Quadrupole moment (field-independent basis, Debye-Ang):
   XX=             14.6481   YY=            -20.3047   ZZ=              5.6566
   XY=              5.1778   XZ=             13.4328   YZ=            -18.8205
 Octapole moment (field-independent basis, Debye-Ang**2):
  XXX=            145.8961  YYY=            102.5909  ZZZ=             17.5974  XYY=             26.8920
  XXY=             10.4935  XXZ=              4.4249  XZZ=             -1.1675  YZZ=             59.0058
  YYZ=             21.4439  XYZ=             21.7035
 Hexadecapole moment (field-independent basis, Debye-Ang**3):
 XXXX=          -2448.9296 YYYY=          -2285.8969 ZZZZ=          -1613.0565 XXXY=            414.7010
 XXXZ=           -549.0407 YYYX=            374.5066 YYYZ=           -264.9100 ZZZX=           -680.7166
 ZZZY=           -251.8517 XXYY=           -779.7710 XXZZ=           -540.3519 YYZZ=           -699.1359
 XXYZ=           -122.2056 YYXZ=           -223.1988 ZZXY=             -0.2638
 N-N= 1.107288927417D+03 E-N=-4.074492679930D+03  KE= 7.929513827737D+02
 Calling FoFJK, ICntrl=      2127 FMM=F ISym2X=0 I1Cent= 0 IOpClX= 0 NMat=1 NMatS=1 NMatT=0.
 -------------------------------------------------------------------
 Center     Atomic                   Forces (Hartrees/Bohr)
 Number     Number              X              Y              Z
 -------------------------------------------------------------------
      1        8           0.000720178    0.008506701   -0.005992215
      2        6          -0.001230557   -0.004148818    0.002590332
      3        7           0.000285382   -0.000685056    0.002727360
      4        6          -0.000139046    0.000562225    0.000038324
      5        6          -0.001780451   -0.003842512   -0.008517779
      6        8          -0.002332344    0.003537558   -0.001262780
      7        8           0.002811340    0.002805755    0.012304632
      8        6           0.000383207   -0.000642232   -0.000061794
      9        6          -0.001748971    0.002700946    0.001828578
     10        6           0.000770746   -0.002177021   -0.001258060
     11        7           0.000857568   -0.003192048   -0.007568799
     12        6          -0.000020707    0.000397028    0.001580610
     13        7           0.000076703    0.000159582    0.002665988
     14        6           0.000411166    0.000057648   -0.000321919
     15        6          -0.003684774   -0.003199381   -0.000776359
     16        7           0.006321203   -0.002223574   -0.002710561
     17        1           0.000281540   -0.002867379    0.001338700
     18        1           0.001730356    0.000200858   -0.002385615
     19        1           0.000360665   -0.001033647   -0.001615788
     20        1           0.001509031    0.002346542    0.000963393
     21        1          -0.001791692    0.000225233    0.002056279
     22        1          -0.000969440    0.001124854   -0.002681125
     23        1           0.001275636   -0.002228135    0.001330336
     24        1          -0.000017700    0.000698878    0.002866399
     25        1          -0.000873368   -0.001863120    0.002025140
     26        1           0.000733223   -0.001704892   -0.001820189
     27        1           0.001447799    0.001988695   -0.001704630
     28        1          -0.001114257    0.002753985    0.002421370
     29        1          -0.002459060    0.002096357   -0.001089518
     30        1          -0.001813377   -0.000355031    0.003029688
 -------------------------------------------------------------------
 Cartesian Forces:  Max     0.012304632 RMS     0.002836553

 GradGradGradGradGradGradGradGradGradGradGradGradGradGradGradGradGradGrad
 Berny optimization.
 FormGI is forming the generalized inverse of G from B-inverse, IUseBI=4.
 GSVD:  received Info=                   1 from GESDD.
 Internal  Forces:  Max     0.012882332 RMS     0.002030785
 Search for a local minimum.
 Step number   1 out of a maximum of  160
 All quantities printed in internal units (Hartrees-Bohrs-Radians)
 Mixed Optimization -- RFO/linear search
 Second derivative matrix not updated -- first step.
 ITU=  0
     Eigenvalues ---    0.00082   0.00087   0.00237   0.00262   0.00274
     Eigenvalues ---    0.00401   0.00450   0.00533   0.00923   0.00985
     Eigenvalues ---    0.01983   0.02004   0.02535   0.03133   0.03259
     Eigenvalues ---    0.03727   0.03859   0.03969   0.04344   0.04374
     Eigenvalues ---    0.04593   0.04878   0.05108   0.05140   0.05351
     Eigenvalues ---    0.06093   0.06466   0.07579   0.07749   0.08261
     Eigenvalues ---    0.08369   0.10229   0.10721   0.11100   0.11842
     Eigenvalues ---    0.11992   0.12418   0.13545   0.15027   0.15330
     Eigenvalues ---    0.16758   0.17013   0.18716   0.19190   0.19508
     Eigenvalues ---    0.20745   0.21856   0.22385   0.23144   0.23715
     Eigenvalues ---    0.24214   0.24268   0.27018   0.29271   0.29484
     Eigenvalues ---    0.30900   0.31084   0.31956   0.32883   0.33040
     Eigenvalues ---    0.33372   0.33605   0.33852   0.34223   0.34302
     Eigenvalues ---    0.34630   0.36076   0.37146   0.37252   0.37586
     Eigenvalues ---    0.38241   0.40533   0.44411   0.44898   0.45017
     Eigenvalues ---    0.45695   0.46935   0.47144   0.47844   0.53422
     Eigenvalues ---    0.57978   0.75385   0.82477   0.88854
 RFO step:  Lambda=-1.54819975D-03 EMin= 8.18724333D-04
 Linear search not attempted -- first point.
 Iteration  1 RMS(Cart)=  0.04468201 RMS(Int)=  0.00074050
 Iteration  2 RMS(Cart)=  0.00138350 RMS(Int)=  0.00011248
 Iteration  3 RMS(Cart)=  0.00000081 RMS(Int)=  0.00011248
 Variable       Old X    -DE/DX   Delta X   Delta X   Delta X     New X
                                 (Linear)    (Quad)   (Total)
    R1        2.34522  -0.01037   0.00000  -0.01313  -0.01313   2.33210
    R2        2.56312  -0.00483   0.00000  -0.00743  -0.00743   2.55569
    R3        2.86582  -0.00273   0.00000  -0.00803  -0.00803   2.85779
    R4        2.78108  -0.00176   0.00000  -0.00741  -0.00741   2.77367
    R5        1.91012  -0.00312   0.00000  -0.00750  -0.00750   1.90262
    R6        2.93699  -0.00192   0.00000  -0.00615  -0.00615   2.93084
    R7        2.89186  -0.00168   0.00000  -0.00862  -0.00862   2.88325
    R8        2.07679  -0.00292   0.00000  -0.00853  -0.00853   2.06825
    R9        2.51608  -0.00429   0.00000  -0.00470  -0.00470   2.51138
   R10        2.28789  -0.01288   0.00000  -0.01472  -0.01472   2.27318
   R11        1.88050  -0.00188   0.00000  -0.00707  -0.00707   1.87344
   R12        2.83355  -0.00264   0.00000  -0.00706  -0.00706   2.82649
   R13        2.07015  -0.00285   0.00000  -0.00805  -0.00805   2.06210
   R14        2.07445  -0.00267   0.00000  -0.00685  -0.00685   2.06759
   R15        2.60363  -0.00617   0.00000  -0.01186  -0.01185   2.59178
   R16        2.61654  -0.00296   0.00000  -0.00685  -0.00685   2.60969
   R17        2.60531  -0.00244   0.00000  -0.00432  -0.00432   2.60098
   R18        2.04294  -0.00306   0.00000  -0.00815  -0.00815   2.03479
   R19        2.48147  -0.00621   0.00000  -0.01080  -0.01080   2.47067
   R20        2.58522  -0.00425   0.00000  -0.00631  -0.00632   2.57891
   R21        2.04351  -0.00289   0.00000  -0.00758  -0.00758   2.03594
   R22        1.90707  -0.00293   0.00000  -0.00603  -0.00603   1.90103
   R23        2.89579  -0.00182   0.00000  -0.00772  -0.00772   2.88807
   R24        2.07344  -0.00288   0.00000  -0.00838  -0.00838   2.06506
   R25        2.07348  -0.00249   0.00000  -0.00725  -0.00725   2.06623
   R26        2.76672   0.00031   0.00000  -0.00295  -0.00295   2.76377
   R27        2.06562  -0.00292   0.00000  -0.00853  -0.00853   2.05708
   R28        2.08549  -0.00365   0.00000  -0.01071  -0.01071   2.07478
   R29        1.92113  -0.00314   0.00000  -0.00959  -0.00959   1.91153
   R30        1.92360  -0.00317   0.00000  -0.00968  -0.00968   1.91392
    A1        2.12078  -0.00148   0.00000  -0.00366  -0.00366   2.11712
    A2        2.12374   0.00114   0.00000   0.00397   0.00397   2.12772
    A3        2.03861   0.00034   0.00000  -0.00032  -0.00032   2.03829
    A4        2.14588   0.00074   0.00000   0.00867   0.00825   2.15413
    A5        2.05919  -0.00075   0.00000   0.00061   0.00017   2.05935
    A6        2.03099   0.00012   0.00000   0.00598   0.00556   2.03656
    A7        1.95080  -0.00071   0.00000  -0.00007  -0.00010   1.95070
    A8        1.92815   0.00045   0.00000   0.00285   0.00284   1.93099
    A9        1.87816   0.00029   0.00000   0.00020   0.00020   1.87836
   A10        1.91444   0.00063   0.00000   0.00728   0.00728   1.92171
   A11        1.86884  -0.00037   0.00000  -0.00782  -0.00782   1.86102
   A12        1.92223  -0.00032   0.00000  -0.00303  -0.00302   1.91921
   A13        2.01403  -0.00031   0.00000  -0.00484  -0.00484   2.00920
   A14        2.12877   0.00140   0.00000   0.00813   0.00813   2.13690
   A15        2.14006  -0.00109   0.00000  -0.00324  -0.00324   2.13682
   A16        1.92523   0.00071   0.00000   0.00761   0.00761   1.93284
   A17        1.99424   0.00137   0.00000   0.00214   0.00215   1.99639
   A18        1.86539   0.00019   0.00000   0.00318   0.00318   1.86857
   A19        1.88982  -0.00020   0.00000   0.00537   0.00537   1.89518
   A20        1.93921  -0.00124   0.00000  -0.00856  -0.00857   1.93064
   A21        1.93494  -0.00046   0.00000  -0.00272  -0.00274   1.93220
   A22        1.83169   0.00028   0.00000   0.00092   0.00089   1.83259
   A23        2.34292   0.00028   0.00000  -0.00175  -0.00176   2.34116
   A24        2.12198  -0.00033   0.00000  -0.00101  -0.00101   2.12096
   A25        1.81801   0.00005   0.00000   0.00263   0.00262   1.82063
   A26        1.94343  -0.00128   0.00000  -0.00525  -0.00525   1.93818
   A27        2.22881   0.00079   0.00000   0.00473   0.00473   2.23354
   A28        2.11093   0.00049   0.00000   0.00053   0.00053   2.11146
   A29        1.83426   0.00199   0.00000   0.00647   0.00647   1.84074
   A30        1.94984  -0.00153   0.00000  -0.00514  -0.00514   1.94470
   A31        2.19923   0.00071   0.00000   0.00250   0.00250   2.20173
   A32        2.13411   0.00082   0.00000   0.00264   0.00264   2.13675
   A33        1.87922   0.00078   0.00000   0.00130   0.00130   1.88052
   A34        2.19671  -0.00004   0.00000   0.00173   0.00173   2.19844
   A35        2.20701  -0.00073   0.00000  -0.00305  -0.00305   2.20396
   A36        1.96028   0.00138   0.00000   0.00569   0.00569   1.96598
   A37        1.92657  -0.00050   0.00000  -0.00044  -0.00044   1.92613
   A38        1.88687  -0.00090   0.00000  -0.00773  -0.00774   1.87913
   A39        1.93431  -0.00049   0.00000  -0.00381  -0.00380   1.93051
   A40        1.89116   0.00023   0.00000   0.00561   0.00563   1.89678
   A41        1.86092   0.00023   0.00000   0.00041   0.00041   1.86133
   A42        1.91518   0.00077   0.00000   0.00295   0.00294   1.91812
   A43        1.88513   0.00030   0.00000   0.00871   0.00871   1.89384
   A44        1.90462   0.00022   0.00000   0.00151   0.00150   1.90612
   A45        1.89721  -0.00036   0.00000  -0.00406  -0.00409   1.89312
   A46        1.99908  -0.00114   0.00000  -0.01184  -0.01184   1.98724
   A47        1.85882   0.00026   0.00000   0.00387   0.00382   1.86264
   A48        1.91562   0.00163   0.00000   0.02075   0.02032   1.93594
   A49        1.92305   0.00222   0.00000   0.02376   0.02333   1.94638
   A50        1.85087  -0.00070   0.00000   0.01677   0.01595   1.86683
    D1        0.22693  -0.00019   0.00000  -0.01875  -0.01872   0.20821
    D2        3.03140   0.00017   0.00000   0.03519   0.03516   3.06657
    D3       -2.90343  -0.00026   0.00000  -0.01789  -0.01786  -2.92130
    D4       -0.09896   0.00010   0.00000   0.03605   0.03602  -0.06294
    D5        0.62492   0.00023   0.00000   0.02647   0.02646   0.65139
    D6        2.79319   0.00022   0.00000   0.02532   0.02532   2.81851
    D7       -1.46069  -0.00030   0.00000   0.02112   0.02114  -1.43956
    D8       -2.52792   0.00028   0.00000   0.02555   0.02554  -2.50237
    D9       -0.35965   0.00027   0.00000   0.02441   0.02440  -0.33525
   D10        1.66965  -0.00025   0.00000   0.02021   0.02022   1.68987
   D11       -1.33722   0.00045   0.00000   0.00090   0.00095  -1.33627
   D12        2.80901  -0.00018   0.00000  -0.01042  -0.01037   2.79864
   D13        0.70993  -0.00022   0.00000  -0.00852  -0.00847   0.70145
   D14        2.13646   0.00026   0.00000  -0.05126  -0.05131   2.08515
   D15       -0.00050  -0.00037   0.00000  -0.06258  -0.06263  -0.06313
   D16       -2.09958  -0.00042   0.00000  -0.06068  -0.06074  -2.16031
   D17        1.03671  -0.00040   0.00000  -0.00112  -0.00112   1.03559
   D18       -2.13130  -0.00030   0.00000   0.00100   0.00100  -2.13030
   D19       -3.10169   0.00013   0.00000   0.00763   0.00763  -3.09406
   D20        0.01348   0.00023   0.00000   0.00974   0.00975   0.02323
   D21       -1.01604  -0.00013   0.00000   0.00346   0.00345  -1.01260
   D22        2.09913  -0.00002   0.00000   0.00557   0.00557   2.10470
   D23       -1.02175  -0.00072   0.00000  -0.04407  -0.04406  -1.06581
   D24        3.10880  -0.00017   0.00000  -0.03687  -0.03686   3.07194
   D25        1.14377  -0.00050   0.00000  -0.04198  -0.04197   1.10180
   D26        3.10331  -0.00055   0.00000  -0.05092  -0.05093   3.05238
   D27        0.95068  -0.00001   0.00000  -0.04372  -0.04373   0.90695
   D28       -1.01435  -0.00033   0.00000  -0.04883  -0.04884  -1.06319
   D29        1.05070  -0.00028   0.00000  -0.04394  -0.04394   1.00675
   D30       -1.10193   0.00026   0.00000  -0.03675  -0.03674  -1.13868
   D31       -3.06697  -0.00006   0.00000  -0.04185  -0.04186  -3.10882
   D32       -0.05666  -0.00027   0.00000  -0.00243  -0.00244  -0.05910
   D33        3.11154  -0.00041   0.00000  -0.00475  -0.00475   3.10679
   D34       -0.20746  -0.00016   0.00000  -0.00856  -0.00856  -0.21602
   D35        2.96386  -0.00004   0.00000  -0.00145  -0.00145   2.96241
   D36        1.90478   0.00013   0.00000  -0.00932  -0.00933   1.89545
   D37       -1.20708   0.00025   0.00000  -0.00221  -0.00223  -1.20931
   D38       -2.34863  -0.00056   0.00000  -0.01514  -0.01512  -2.36375
   D39        0.82270  -0.00044   0.00000  -0.00803  -0.00802   0.81467
   D40       -3.11337   0.00008   0.00000   0.00590   0.00590  -3.10747
   D41        0.02395   0.00000   0.00000   0.00672   0.00672   0.03067
   D42        0.00210  -0.00003   0.00000  -0.00038  -0.00038   0.00172
   D43        3.13942  -0.00011   0.00000   0.00044   0.00044   3.13986
   D44        3.11521  -0.00005   0.00000  -0.00485  -0.00485   3.11036
   D45       -0.00368  -0.00006   0.00000  -0.00390  -0.00390  -0.00758
   D46       -0.00441   0.00004   0.00000   0.00046   0.00046  -0.00396
   D47       -3.12331   0.00003   0.00000   0.00141   0.00141  -3.12189
   D48        0.00112   0.00001   0.00000   0.00015   0.00015   0.00127
   D49       -3.13653   0.00009   0.00000  -0.00062  -0.00062  -3.13715
   D50       -0.00405   0.00002   0.00000   0.00017   0.00017  -0.00388
   D51        3.14156  -0.00001   0.00000  -0.00013  -0.00013   3.14143
   D52        0.00552  -0.00004   0.00000  -0.00043  -0.00043   0.00509
   D53        3.12424  -0.00002   0.00000  -0.00131  -0.00131   3.12294
   D54       -3.13992  -0.00001   0.00000  -0.00013  -0.00013  -3.14006
   D55       -0.02120   0.00001   0.00000  -0.00101  -0.00101  -0.02221
   D56       -3.02372  -0.00033   0.00000  -0.01798  -0.01800  -3.04171
   D57       -0.95817  -0.00015   0.00000  -0.01612  -0.01613  -0.97431
   D58        1.05589   0.00043   0.00000  -0.00606  -0.00606   1.04983
   D59        1.09550  -0.00032   0.00000  -0.01872  -0.01873   1.07677
   D60       -3.12214  -0.00014   0.00000  -0.01687  -0.01687  -3.13901
   D61       -1.10807   0.00045   0.00000  -0.00681  -0.00680  -1.11487
   D62       -0.94060  -0.00046   0.00000  -0.02040  -0.02041  -0.96101
   D63        1.12494  -0.00028   0.00000  -0.01855  -0.01854   1.10640
   D64        3.13901   0.00031   0.00000  -0.00849  -0.00847   3.13054
   D65        2.97151  -0.00051   0.00000  -0.02603  -0.02625   2.94526
   D66       -1.27975   0.00090   0.00000   0.02043   0.02064  -1.25911
   D67        0.91346  -0.00111   0.00000  -0.03586  -0.03606   0.87740
   D68        2.94539   0.00030   0.00000   0.01060   0.01083   2.95622
   D69       -1.16280  -0.00046   0.00000  -0.03034  -0.03056  -1.19337
   D70        0.86912   0.00095   0.00000   0.01612   0.01633   0.88545
         Item               Value     Threshold  Converged?
 Maximum Force            0.012882     0.000450     NO 
 RMS     Force            0.002031     0.000300     NO 
 Maximum Displacement     0.185496     0.001800     NO 
 RMS     Displacement     0.044712     0.001200     NO 
 Predicted change in Energy=-8.090661D-04
 GradGradGradGradGradGradGradGradGradGradGradGradGradGradGradGradGradGrad

                          Input orientation:                          
 ---------------------------------------------------------------------
 Center     Atomic      Atomic             Coordinates (Angstroms)
 Number     Number       Type             X           Y           Z
 ---------------------------------------------------------------------
      1          8           0        0.673740   -1.697173    1.623733
      2          6           0        0.887118   -0.661470    0.987512
      3          7           0        0.307556   -0.443409   -0.214809
      4          6           0       -0.790243   -1.261774   -0.743433
      5          6           0       -0.284292   -2.627289   -1.277072
      6          8           0        0.334337   -3.389042   -0.380869
      7          8           0       -0.461940   -2.982115   -2.412653
      8          6           0       -1.537703   -0.513313   -1.842987
      9          6           0       -2.172080    0.765964   -1.397822
     10          6           0       -2.421484    1.333223   -0.174281
     11          7           0       -3.082632    2.532649   -0.310976
     12          6           0       -3.238930    2.699885   -1.598203
     13          7           0       -2.703046    1.662297   -2.304349
     14          6           0        1.791425    0.429348    1.516022
     15          6           0        3.002524   -0.122864    2.267027
     16          7           0        3.759860    0.975422    2.866351
     17          1           0        0.463748    0.445847   -0.660363
     18          1           0       -1.468863   -1.481849    0.086575
     19          1           0        0.414147   -2.916066    0.486746
     20          1           0       -2.289383   -1.196675   -2.241412
     21          1           0       -0.848551   -0.334776   -2.673831
     22          1           0       -2.167051    0.948376    0.798641
     23          1           0       -3.719840    3.536912   -2.076573
     24          1           0       -2.711604    1.555742   -3.304636
     25          1           0        2.109787    1.086426    0.702962
     26          1           0        1.203507    1.043755    2.203325
     27          1           0        2.647522   -0.772671    3.064957
     28          1           0        3.593453   -0.750941    1.587498
     29          1           0        4.452823    0.624868    3.514523
     30          1           0        4.256062    1.511013    2.164432
 ---------------------------------------------------------------------
                    Distance matrix (angstroms):
                    1          2          3          4          5
     1  O    0.000000
     2  C    1.234093   0.000000
     3  N    2.255272   1.352412   0.000000
     4  C    2.817143   2.483963   1.467763   0.000000
     5  C    3.193370   3.219470   2.499604   1.550932   0.000000
     6  O    2.645005   3.101239   2.950432   2.433394   1.328966
     7  O    4.385574   4.332028   3.444949   2.419432   1.202915
     8  C    4.279037   3.730072   2.461876   1.525749   2.521943
     9  C    4.826544   4.133531   3.001782   2.539570   3.884905
    10  C    4.690050   4.034280   3.256643   3.117514   4.633508
    11  N    5.978698   5.258078   4.512155   4.454179   5.948866
    12  C    6.709991   5.916832   4.936764   4.735128   6.100147
    13  N    6.174023   5.396807   4.226571   3.826939   5.030529
    14  C    2.404768   1.512276   2.441177   3.824923   4.631739
    15  C    2.883662   2.530256   3.677650   4.974441   5.443890
    16  N    4.267434   3.802906   4.839941   6.224068   6.819284
    17  H    3.139065   2.029997   1.006822   2.120227   3.222430
    18  H    2.645746   2.652424   2.079629   1.094473   2.138873
    19  H    1.686958   2.357471   2.572464   2.387588   1.918922
    20  H    4.895912   4.560982   3.379145   2.120283   2.645184
    21  H    4.758419   4.065059   2.719407   2.142233   2.743162
    22  H    3.968602   3.457632   3.014602   3.026277   4.542989
    23  H    7.771195   6.945437   5.960625   5.778165   7.102082
    24  H    6.806676   6.024066   4.760144   4.264949   5.244102
    25  H    3.264732   2.151983   2.535890   4.002034   4.841883
    26  H    2.851187   2.118041   2.976870   4.239562   5.272881
    27  H    2.612976   2.725283   4.042365   5.153764   5.557730
    28  H    3.069429   2.773489   3.760320   4.991090   5.173331
    29  H    4.821662   4.555733   5.677355   7.012798   7.481722
    30  H    4.839198   4.177871   5.007120   6.450520   7.041612
                    6          7          8          9         10
     6  O    0.000000
     7  O    2.219863   0.000000
     8  C    3.729898   2.752593   0.000000
     9  C    4.957862   4.242942   1.495712   0.000000
    10  C    5.471473   5.241399   2.641088   1.371509   0.000000
    11  N    6.837177   6.457375   3.743227   2.265285   1.376381
    12  C    7.164159   6.376530   3.644000   2.217740   2.136243
    13  N    6.200121   5.157989   2.510808   1.380989   2.173650
    14  C    4.505708   5.670116   4.822307   4.930838   4.628468
    15  C    4.979809   6.486696   6.136638   6.402941   6.123727
    16  N    6.428623   7.832852   7.242815   7.308553   6.898005
    17  H    3.847238   3.959589   2.514835   2.755705   3.057495
    18  H    2.665975   3.083964   2.160095   2.783992   2.983314
    19  H    0.991379   3.029588   3.874351   4.878269   5.151137
    20  H    3.892557   2.560599   1.091214   2.139475   3.269689
    21  H    3.998180   2.688138   1.094124   2.142791   3.391768
    22  H    5.144063   5.354304   3.083961   2.204030   1.076764
    23  H    8.202476   7.295518   4.606583   3.245677   3.187584
    24  H    6.502081   5.142837   2.792033   2.133255   3.151636
    25  H    4.935254   5.733574   4.727072   4.780206   4.622000
    26  H    5.204153   6.347330   5.129458   4.943684   4.344809
    27  H    4.906113   6.674924   6.455331   6.746284   6.373561
    28  H    4.632050   6.117643   6.176849   6.667421   6.605080
    29  H    6.946041   8.502742   8.116943   8.248659   7.833590
    30  H    6.772668   7.962251   7.329735   7.386863   7.077486
                   11         12         13         14         15
    11  N    0.000000
    12  C    1.307421   0.000000
    13  N    2.207970   1.364699   0.000000
    14  C    5.614109   6.337050   6.026248   0.000000
    15  C    7.122286   7.865345   7.525809   1.528302   0.000000
    16  N    7.703250   8.478742   8.305244   2.448739   1.462524
    17  H    4.129603   4.435094   3.769751   2.549441   3.916430
    18  H    4.344938   4.843399   4.138282   4.040479   5.156987
    19  H    6.523214   7.016472   6.202298   3.761396   4.203697
    20  H    4.273603   4.061839   2.889428   5.780593   7.034442
    21  H    4.335473   4.009994   2.750267   5.010811   6.267995
    22  H    2.139967   3.156195   3.228858   4.056298   5.479800
    23  H    2.128829   1.077371   2.144746   7.275832   8.800625
    24  H    3.170806   2.121097   1.005983   6.692143   8.155514
    25  H    5.484601   6.042134   5.704289   1.092782   2.169253
    26  H    5.187437   6.076975   5.996906   1.093403   2.145115
[...]
 7,-0.00001648,-0.00004112,0.00007838,0.00002662,-0.00006238,0.00009145
 ,-0.00010527,0.00003579,0.00006350,0.00011641,-0.00005134,-0.00079321,
 0.00010499,0.00055367,0.00000509,-0.00007178,0.00035542,0.00122790,0.0
 0072677,-0.00033746,-0.00056168,0.00074926,-0.02022311,0.05114815,0.00
 003272,-0.00011456,0.00012922,-0.00010598,0.00010348,-0.00030250,0.000
 18425,-0.00009527,0.00020160,-0.00005154,-0.00012437,-0.00026234,-0.00
 005620,0.00029673,0.00023625,0.00008175,-0.00017879,-0.00000549,0.0000
 5742,-0.00016482,-0.00015313,0.00001688,-0.00008594,0.00080644,0.00350
 703,-0.00640410,-0.00891217,-0.00081188,0.00112321,-0.00141404,0.00055
 107,-0.00153536,0.00028947,-0.00210580,0.00361025,-0.00664506,-0.00174
 599,-0.04015185,-0.45239212,0.00001748,-0.00000391,0.00003617,-0.00005
 427,0.00000703,-0.00002258,0.00003893,0.00001076,0.00002648,-0.0001025
 7,0.00003734,-0.00002157,0.00002092,-0.00000429,0.00001468,-0.00002380
 ,0.00004651,-0.00001646,-0.00011974,0.00020314,0.00015505,-0.00007157,
 0.00034108,0.00017445,0.00007917,-0.00034999,-0.00008144,0.00015479,-0
 .00005435,0.00023690,0.00050278,0.04349333,0.46792960,-0.00141985,-0.0
 0584418,-0.00293457,-0.00447582,-0.00766255,0.01949563,0.00023347,0.00
 036531,-0.00122380,0.00010604,0.00021232,0.00017462,0.00040778,-0.0004
 1195,0.00053661,-0.00030437,-0.00009864,-0.00095626,-0.00013676,0.0000
 7722,-0.00030899,0.00004504,0.00000980,0.00000405,0.00004020,-0.000018
 00,-0.00008405,0.00006657,0.00002005,0.00007083,0.00001223,0.00007153,
 -0.00001389,-0.00002780,0.00001550,-0.00001516,0.00000143,0.00001636,0
 .00002374,-0.06892175,-0.04443878,0.04809230,0.00737191,0.01805619,-0.
 02234715,0.00201687,0.00054229,0.00135693,-0.00087782,-0.00076299,-0.0
 0119679,0.00006042,0.00001503,0.00004884,0.00014132,0.00075902,0.00102
 794,0.00001321,-0.00000326,0.00001294,-0.00002029,-0.00000657,-0.00002
 598,-0.00002648,-0.00004749,0.00001937,-0.00000737,-0.00000102,0.00000
 005,-0.00001096,-0.00001470,-0.00000760,0.07397290,-0.00438992,-0.0046
 0141,-0.00295224,-0.00331473,-0.01502175,0.02165080,0.00185682,0.00107
 565,-0.00040168,0.00001374,0.00005204,-0.00041559,0.00036158,-0.000478
 78,0.00052564,-0.00019880,-0.00004399,-0.00088470,-0.00010670,0.000106
 08,-0.00026452,0.00000838,0.00004016,0.00001319,0.00000292,0.00003086,
 0.00000773,0.00000945,0.00001791,0.00001459,0.00000687,-0.00001570,-0.
 00001780,-0.00000451,-0.00000656,0.00002083,0.00000649,0.00000698,-0.0
 0002793,-0.04502696,-0.14415609,0.11352494,-0.00346867,-0.00841805,0.0
 0969764,0.00006459,0.00086718,-0.00116662,-0.00135712,0.00050679,-0.00
 080856,0.00019515,0.00011737,0.00010175,-0.00003913,0.00062003,0.00094
 075,0.00002728,-0.00002083,0.00001117,-0.00001637,-0.00001413,-0.00003
 916,-0.00000908,-0.00000586,0.00000567,-0.00000033,-0.00000021,0.00000
 060,-0.00001231,0.00000006,-0.00000407,0.04887824,0.15769067,-0.001666
 54,-0.00362905,0.00047146,-0.00389382,-0.00756862,0.00780352,-0.000537
 01,-0.00069463,-0.00024868,0.00025703,0.00001417,0.00065814,-0.0000194
 0,0.00001446,-0.00010221,0.00006503,-0.00004350,-0.00006191,0.00000914
 ,0.00000081,0.00006250,0.00005115,0.00010391,0.00001574,-0.00002446,0.
 00001847,0.00004927,-0.00005500,0.00000167,-0.00005190,-0.00001098,-0.
 00005635,0.00001016,0.00001425,-0.00001073,0.00001217,-0.00000616,-0.0
 0000381,-0.00001633,0.05159907,0.11739349,-0.18499897,0.00388251,0.009
 80867,-0.01204280,0.00061603,-0.00067360,0.00114639,-0.00028094,-0.000
 57913,0.00028364,-0.00008128,-0.00009728,0.00000841,-0.00007743,0.0000
 5046,0.00015364,0.00001607,-0.00002553,0.00002416,0.00000483,-0.000002
 61,0.00000620,0.00001458,0.00002242,-0.00001858,0.00000679,0.00000122,
 0.00000016,0.00000842,0.00001107,0.00000387,-0.05161617,-0.12809504,0.
 20187342,-0.00158726,0.00048791,0.00132866,0.01291035,-0.01098307,-0.0
 1509388,-0.00208581,-0.00046311,-0.00040293,-0.00081865,0.00073862,0.0
 0030058,0.00002587,0.00037177,0.00024814,0.00003448,-0.00007443,0.0000
 6845,-0.00000063,-0.00009856,-0.00014584,-0.00017219,-0.00022541,0.000
 00368,0.00005920,-0.00011680,-0.00008995,0.00002270,0.00008139,-0.0000
 9261,-0.00000191,0.00004786,0.00004478,-0.00001864,0.00002101,0.000009
 19,0.00000603,-0.00001704,0.00012034,-0.11033243,0.06563056,0.08957239
 ,-0.01807328,0.01722381,0.01792623,0.00279658,-0.00102524,0.00105667,0
 .00009957,-0.00029050,-0.00037948,-0.00015811,-0.00010002,-0.00014599,
 -0.00002408,0.00007654,-0.00004384,-0.00004530,0.00008158,-0.00008398,
 0.00001439,0.00002487,0.00000080,-0.00008027,-0.00006347,-0.00002194,-
 0.00000262,0.00000149,0.00000905,0.00000400,-0.00001899,0.00000342,-0.
 00483394,0.00447104,0.00625753,0.12423672,-0.00301204,0.00119143,0.002
 06137,0.01316870,-0.01429987,-0.01752033,-0.00121377,-0.00044306,0.000
 72770,-0.00046167,0.00026667,-0.00022430,0.00001627,0.00020044,0.00006
 274,0.00003883,0.00005239,0.00019986,-0.00000415,-0.00003330,-0.000012
 92,-0.00013876,-0.00011873,0.00001562,0.00000989,-0.00005231,-0.000023
 31,-0.00002980,0.00006010,-0.00009933,-0.00000983,-0.00002037,0.000029
 22,0.00000289,-0.00000569,0.00002206,0.00000862,0.00000593,0.00003928,
 0.06955070,-0.11755944,-0.09315086,0.01033059,-0.00907644,-0.00832042,
 -0.00170317,0.00105393,0.00006122,-0.00021938,-0.00003458,-0.00010409,
 -0.00000643,0.00000068,-0.00012186,-0.00005752,-0.00013575,-0.00017380
 ,-0.00002218,0.00004202,-0.00004414,0.00000516,0.00000580,-0.00000554,
 -0.00004859,0.00000713,-0.00001182,0.00000150,0.00000161,0.00000625,0.
 00000320,-0.00000592,0.00000090,-0.01032640,0.01144973,0.01422848,-0.0
 7717096,0.12755006,0.00001341,0.00158715,0.00052006,0.00456792,-0.0070
 9352,-0.01045347,-0.00192108,-0.00093113,0.00028960,-0.00061183,0.0002
 9330,0.00029077,-0.00001671,0.00032863,-0.00004039,0.00009158,0.000005
 63,0.00023472,-0.00000326,-0.00005230,0.00002206,-0.00007039,-0.000152
 39,-0.00000976,0.00004954,-0.00009248,-0.00014834,0.00005404,0.0000993
 8,-0.00009656,0.00002121,0.00008373,0.00005736,-0.00001574,0.00000899,
 -0.00000690,0.00000689,-0.00002273,0.00016262,0.09377584,-0.09243373,-
 0.16274288,-0.00946631,0.00844703,0.01006555,0.00094492,0.00055457,0.0
 0058122,0.00076618,-0.00046727,-0.00034822,-0.00017068,-0.00012424,-0.
 00017269,-0.00011304,-0.00019348,-0.00024396,-0.00003828,0.00006008,-0
 .00003464,-0.00000441,0.00002277,0.00001371,-0.00013165,-0.00009046,0.
 00002689,-0.00000385,-0.00000094,0.00001159,0.00000465,-0.00001951,-0.
 00000865,0.01151678,-0.01196620,-0.01596623,-0.09685856,0.10121709,0.1
 7743015,-0.00090503,-0.00072778,0.00073400,0.00108102,0.00104340,-0.00
 136776,0.00006840,-0.00041220,0.00059085,-0.00000929,-0.00012446,0.000
 01284,-0.00011618,0.00006631,-0.00015417,0.00006007,0.00005830,0.00022
 636,0.00003303,-0.00000552,0.00007763,0.00000122,0.00001588,0.00000501
 ,-0.00001044,0.00000699,0.00001611,-0.00001891,-0.00000193,-0.00002426
 ,-0.00000166,-0.00002001,0.00000881,0.00000863,-0.00000726,0.00000300,
 -0.00000076,-0.00000633,0.00000250,0.00705161,0.01817956,-0.02190619,-
 0.07160653,-0.04518285,0.05950840,-0.00825493,-0.01615207,0.01223921,0
 .00030871,0.00017174,0.00030375,-0.00002965,-0.00001887,-0.00001705,-0
 .00001128,-0.00024638,-0.00023657,0.00000047,-0.00000310,0.00000198,0.
 00000394,0.00000086,0.00000958,0.00000810,0.00001300,-0.00000520,0.000
 00238,0.00000004,0.00000039,0.00000398,0.00000480,0.00000050,-0.004712
 31,0.00190022,-0.00326607,0.00161502,-0.00019918,0.00052410,0.08123323
 ,-0.00077566,-0.00008872,-0.00127499,-0.00050841,-0.00065339,-0.000109
 27,0.00002919,-0.00003339,0.00036694,-0.00006185,0.00001607,-0.0000125
 7,0.00001372,0.00000499,-0.00005314,0.00001512,-0.00003331,0.00003384,
 -0.00000267,0.00001064,0.00004352,0.00000235,0.00000072,-0.00000705,0.
 00000120,0.00000739,-0.00000026,0.00000585,-0.00000147,0.00001496,0.00
 000578,0.00000205,-0.00000898,-0.00000052,-0.00000277,0.00000461,0.000
 00298,0.00000010,-0.00001300,-0.00105291,-0.00813727,0.01136214,-0.044
 88747,-0.14232150,0.11307927,-0.01044428,-0.02011356,0.01718194,0.0000
 2014,0.00006942,-0.00006675,0.00000921,0.00001435,-0.00001229,-0.00004
 475,0.00003983,-0.00004717,0.00000377,-0.00000169,0.00000213,0.0000004
 1,-0.00000263,-0.00000475,-0.00000441,0.00000083,0.00000846,-0.0000015
 3,-0.00000049,-0.00000044,-0.00000313,-0.00000036,-0.00000174,0.001674
 32,-0.00027996,0.00064426,-0.00050561,0.00024193,-0.00004426,0.0540754
 7,0.16145979,0.00085010,-0.00161204,0.00185469,0.00101766,0.00334733,-
 0.00185180,-0.00012159,-0.00045246,0.00062172,0.00003793,-0.00008553,-
 0.00004745,-0.00014677,0.00015902,-0.00027732,0.00010314,-0.00003423,0
 .00030176,0.00004112,-0.00002845,0.00013542,-0.00002188,-0.00000514,0.
 00000145,-0.00001119,0.00001173,0.00001938,-0.00001586,-0.00000713,-0.
 00000671,-0.00000439,-0.00001841,-0.00000060,0.00000766,-0.00000844,0.
 00000560,-0.00000163,-0.00000669,-0.00001119,0.00229674,0.00867972,-0.
 01244095,0.06056231,0.12001399,-0.19798765,-0.00611764,-0.01257554,0.0
 1327138,0.00013872,-0.00002430,0.00022288,-0.00003960,-0.00000678,-0.0
 0001860,-0.00006224,-0.00018871,-0.00028284,-0.00000479,0.00000014,-0.
 00000228,0.00001137,-0.00000346,0.00001528,0.00001105,0.00001660,-0.00
 000131,0.00000298,0.00000049,-0.00000044,0.00000573,0.00000606,0.00000
 040,-0.00291300,0.00057699,0.00004941,-0.00005196,-0.00042555,0.001139
 68,-0.06026128,-0.12599093,0.20980633,0.00023392,-0.00161769,-0.000064
 47,0.00084034,0.00322927,0.00125911,-0.00017129,-0.00058959,-0.0007820
 4,0.,0.00007758,0.00002483,-0.00025700,0.00027639,-0.00011530,0.000252
 95,-0.00018650,0.00002260,0.00008451,-0.00008623,0.00000346,-0.0000403
 2,-0.00003555,0.00000150,-0.00000849,0.00001359,0.00005286,-0.00001276
 ,-0.00004240,0.00003978,-0.00001256,-0.00002025,-0.00002962,0.00000273
 ,0.00000490,0.00000419,-0.00000383,0.00000771,-0.00006471,-0.01790216,
 0.01353218,0.01658384,-0.12100489,0.06633670,0.08472079,0.01068562,-0.
 01671483,-0.01755215,-0.00007305,0.00007216,0.00016815,-0.00002875,-0.
 00000623,-0.00000308,-0.00019831,0.00012916,0.00013713,-0.00001232,0.0
 0000629,-0.00001494,0.00000917,0.00000767,-0.00000343,0.00004129,0.000
 03022,-0.00000578,0.00000079,0.00000106,-0.00000481,-0.00000140,0.0000
 0583,0.00000836,0.00139859,-0.00022560,-0.00033894,-0.00392846,0.00190
 928,-0.00307675,-0.00456193,0.00502930,0.00644293,0.13215106,0.0001873
 5,0.00051162,-0.00020742,-0.00034804,-0.00086449,-0.00021750,0.0000488
 8,0.00029795,0.00044193,0.00004401,-0.00000355,0.00003658,0.00011798,-
 0.00009488,0.00003543,-0.00010114,0.00003387,-0.00002609,-0.00005060,0
 .00002548,0.00000205,0.00002668,0.00000906,-0.00000677,0.00000039,-0.0
 0001444,-0.00002375,0.00000545,0.00000686,-0.00001422,0.00000059,0.000
 02313,0.00002066,-0.00000132,-0.00000002,-0.00001803,-0.00000450,0.000
 00106,0.00003876,0.01044085,-0.00586879,-0.00707929,0.06723095,-0.1134
 1747,-0.07597742,0.00269801,-0.02107162,-0.02207280,0.00013377,-0.0000
 5957,-0.00007629,0.00000232,-0.00000894,0.00001003,0.00005676,0.000014
 31,-0.00002619,-0.00000002,0.00000059,0.00000508,-0.00000398,-0.000000
 70,0.00000861,-0.00001217,-0.00001440,-0.00000304,-0.00000038,-0.00000
 055,0.00000070,0.00000611,-0.00000392,-0.00000165,-0.00062412,0.000034
 49,-0.00047421,0.00168773,-0.00025329,0.00087638,-0.00973114,0.0114115
 6,0.01159323,-0.07241173,0.12826319,-0.00004664,0.00051053,0.00032635,
 0.00050435,-0.00000999,0.00103425,0.00029989,0.00011038,-0.00012281,0.
 00003053,0.00006267,0.00001858,0.00015754,-0.00015827,0.00018855,-0.00
 019192,0.00012153,-0.00008782,-0.00005520,0.00003055,-0.00007772,0.000
 00256,0.00000754,0.00001057,0.00000138,-0.00000775,0.00000107,-0.00000
 083,-0.00001806,0.00001348,-0.00000704,0.00001432,0.00000362,-0.000001
 78,0.00000659,-0.00001735,-0.00000527,0.00001264,0.00000120,-0.0101042
 0,0.00874544,0.00952983,0.08660156,-0.07620070,-0.15285368,-0.00071902
 ,-0.01467698,-0.00869355,-0.00001883,-0.00002919,-0.00002558,0.0000057
 3,0.00000110,0.00001882,0.00014837,-0.00006846,-0.00002993,0.00000332,
 -0.00000034,0.00000019,-0.00000061,-0.00000338,0.00000063,0.00001721,0
 .00000444,-0.00000934,-0.00000179,-0.00000008,-0.00000176,0.00000060,-
 0.00000388,0.00000221,0.00077396,-0.00038418,0.00101561,-0.00353701,0.
 00134973,-0.00053641,0.01451059,-0.01287085,-0.01590936,-0.08727170,0.
 09289190,0.16533929,-0.00000430,-0.00060986,0.00033267,-0.00045479,0.0
 0202880,-0.00111921,-0.00052587,-0.00067406,-0.00034967,0.00012892,0.0
 0005190,-0.00011055,-0.00008179,0.00012953,0.00008989,0.00000418,-0.00
 008507,-0.00005610,0.00001528,-0.00007405,-0.00010504,-0.00002832,-0.0
 0006440,0.00000107,0.00000242,-0.00002687,0.00000148,-0.00000331,-0.00
 001604,-0.00000082,-0.00001702,0.00001711,0.00000591,-0.00000609,0.000
 01511,-0.00001754,-0.00000749,0.00000991,0.00001079,-0.00289608,-0.005
 38135,-0.00175882,-0.01429443,0.01306007,-0.00722362,-0.23192558,0.082
 94965,-0.19196371,-0.00001512,-0.00003392,0.00009133,-0.00001042,-0.00
 000693,0.00000484,0.00001138,0.00011621,0.00007042,-0.00002151,0.00001
 895,-0.00002209,0.00000094,0.00000851,0.00000470,0.00001634,0.00000028
 ,-0.00001588,0.00000045,0.00000163,-0.00000117,0.00000436,-0.00000418,
 0.00000675,0.00028830,0.00004719,0.00007960,0.00050526,-0.00028889,0.0
 0005032,0.00034417,0.00001790,0.00066142,0.00107886,0.00015064,0.00013
 056,0.23608153,0.00014087,-0.00016587,0.00009559,-0.00082191,0.0012921
 3,-0.00042053,-0.00015634,-0.00032468,-0.00019524,0.00006954,-0.000053
 81,-0.00008861,-0.00008594,0.00008164,-0.00002293,0.00004794,-0.000055
 62,0.00001623,0.00002762,-0.00003450,-0.00001831,-0.00000917,-0.000020
 36,0.00000141,0.00000267,-0.00000364,-0.00000088,0.00000385,0.00000158
 ,0.00000306,0.00000344,0.00000210,-0.00000231,-0.00000419,0.00000490,-
 0.00000019,0.00000288,0.00000080,-0.00000058,-0.00194969,-0.00369178,-
 0.00152832,-0.02292039,0.00768983,-0.02267524,0.09130905,-0.10114721,0
 .11853184,-0.00006659,-0.00001414,0.00005363,0.00000102,0.00000701,0.0
 0000210,-0.00001742,0.00004697,0.00001365,-0.00000596,0.00000464,-0.00
 000632,0.00000058,0.00000136,-0.00000104,-0.00000114,-0.00000243,-0.00
 000145,-0.00000068,0.00000028,0.00000030,-0.00000351,-0.00000130,-0.00
 000020,0.00008163,0.00002342,-0.00032710,-0.00001648,-0.00006200,0.000
 28716,0.00010388,0.00115584,0.00061991,-0.00015994,-0.00011952,-0.0005
 8320,-0.08422588,0.10408716,0.00017062,-0.00008892,-0.00003933,-0.0003
 1867,0.00047379,0.00028177,0.00006482,0.00004554,0.00008644,-0.0000159
 0,-0.00001512,-0.00000441,-0.00002968,-0.00000053,-0.00005539,0.000055
 60,-0.00000134,0.00001824,0.00002061,0.00001178,0.00003269,-0.00000193
 ,0.00000794,-0.00000225,0.00000268,0.00001281,0.00000205,0.00000387,0.
 00000895,0.00000284,0.00001373,-0.00000866,-0.00000837,0.00000013,-0.0
 0000305,0.00001312,0.00000738,-0.00000525,-0.00001116,0.00041913,-0.00
 232004,0.00020182,-0.01088898,0.00371120,-0.01000112,-0.15379991,0.090
 77876,-0.16951930,-0.00003430,0.00001692,-0.00001606,0.00000794,0.0000
 0598,-0.00000019,-0.00004200,-0.00001254,0.00000980,0.00000540,-0.0000
 0500,0.00000443,0.00000107,-0.00000275,-0.00000452,-0.00001129,-0.0000
 0120,0.00000867,-0.00000148,-0.00000080,0.00000096,-0.00000713,0.00000
 084,-0.00000290,0.00021559,-0.00013127,0.00016370,-0.00009166,0.000136
 80,0.00015580,0.00062918,0.00041044,0.00128177,0.00026240,0.00050517,-
 0.00045911,0.18453315,-0.10457081,0.19637955,0.00005219,0.00090038,-0.
 00040458,-0.00025052,-0.00098804,-0.00036921,0.00000162,0.00013079,0.0
 0000433,-0.00004675,-0.00000398,-0.00002650,0.00007170,-0.00010890,0.0
 0001379,-0.00005110,0.00007466,-0.00000274,-0.00002437,0.00004871,0.00
 001947,0.00000721,0.00000097,-0.00000055,0.00000971,-0.00000337,-0.000
 02364,0.00001827,0.00000865,0.00000586,0.00001797,0.00002106,0.0000123
 2,-0.00000452,0.00000166,-0.00001497,0.00000380,0.00000512,0.00002208,
 0.00049418,-0.00084752,0.00178715,-0.00974037,-0.00651484,0.01780171,-
 0.12979646,-0.12513455,0.11821332,-0.00006770,-0.00003773,-0.00007275,
 0.00001521,0.00001217,0.00000231,0.00002420,-0.00005383,-0.00003543,0.
 00000621,0.00000048,0.00000283,-0.00000455,-0.00000455,-0.00000636,-0.
 00001559,-0.00001412,0.00000398,-0.00000486,-0.00000221,0.00000055,-0.
 00000818,-0.00000596,-0.00000731,-0.00040075,0.00032029,-0.00100779,-0
 .00016661,-0.00013293,0.00011517,-0.00158510,-0.00261349,-0.00241702,0
 .00143770,0.00045066,-0.00122630,0.01180972,0.01865027,-0.02117036,0.1
 2819777,-0.00010101,0.00010107,-0.00019620,-0.00018217,-0.00037386,0.0
 0005839,0.00008699,-0.00001241,-0.00007898,-0.00002458,-0.00000302,-0.
 00001224,-0.00006763,0.00006506,-0.00003981,0.00007473,-0.00004275,0.0
 0001924,0.00003355,-0.00001711,0.00001778,-0.00000787,0.00000888,-0.00
 000227,-0.00000429,0.00001390,0.00001584,-0.00001228,0.00000596,-0.000
 00457,-0.00000562,-0.00002981,-0.00001339,0.00000371,-0.00000653,0.000
 02411,0.00000211,-0.00000931,-0.00002223,0.00045761,0.00089645,-0.0003
 2214,-0.01494580,-0.01930637,0.02066349,-0.09226905,-0.13093510,0.1309
 8341,-0.00003689,0.00006873,0.00001932,0.00000568,0.00000452,0.0000024
 1,-0.00004414,0.00001901,0.00002955,0.00000178,-0.00000468,0.00000040,
 0.00000147,0.00000113,-0.00000351,0.00000367,0.00000870,0.00000442,0.0
 0000475,0.00000160,0.00000098,0.00000178,0.00000773,0.00000150,-0.0005
 3414,0.00042389,-0.00003237,0.00022352,-0.00002911,-0.00018726,-0.0028
 0141,-0.00276499,-0.00355139,0.00142725,0.00116300,0.00114594,-0.00713
 188,-0.00870276,0.01104037,0.11584015,0.15944816,-0.00019036,0.0001679
 7,-0.00022386,0.00003381,-0.00028598,0.00008916,0.00005208,0.00003211,
 -0.00009762,-0.00003333,-0.00001044,-0.00002005,-0.00000447,-0.0000216
 2,-0.00000353,0.00001368,0.00000496,-0.00000865,0.00000852,0.00001489,
 0.00001005,-0.00000478,0.00000710,0.00000197,0.00000334,0.00000616,0.0
 0000174,0.00000019,0.00000862,0.00000105,0.00000495,-0.00001090,-0.000
 00634,-0.00000119,-0.00000150,0.00001169,0.00000651,-0.00000166,-0.000
 01013,0.00053582,-0.00056309,0.00147533,-0.00879834,-0.01464049,0.0115
 2596,0.10521381,0.16634990,-0.24076348,-0.00007262,0.00000974,-0.00001
 384,0.00000981,0.00000776,0.00000241,-0.00001437,0.00000242,0.00001093
 ,0.00000515,-0.00000332,0.00000150,-0.00000069,-0.00000264,-0.00000653
 ,-0.00000387,0.00000034,0.00000420,-0.00000023,0.00000002,0.00000096,-
 0.00000585,0.00000076,-0.00000233,0.00027324,0.00046726,-0.00030397,0.
 00008972,0.00007994,-0.00019268,-0.00216623,-0.00263407,0.00011135,-0.
 00040423,-0.00024188,0.00132018,0.01666931,0.01081840,-0.01851952,-0.1
 1121936,-0.15956078,0.24560406\\0.00000179,0.00000053,0.00000221,-0.00
 000052,-0.00000005,0.00000082,-0.00000067,-0.00000240,0.00000142,-0.00
 000017,-0.00000022,0.00000057,-0.00000042,-0.00000088,0.00000090,0.000
 00048,-0.00000077,-0.00000218,-0.00000026,0.00000042,-0.00000099,0.000
 00015,0.00000023,-0.00000104,-0.00000011,-0.00000051,-0.00000215,-0.00
 000062,0.00000109,0.00000124,-0.00000025,0.00000075,0.00000002,0.00000
 002,0.00000012,0.00000071,0.,-0.00000030,0.00000060,0.00000262,-0.0000
 0107,-0.00000240,-0.00000221,-0.00000043,0.00000129,0.00000252,-0.0000
 0146,-0.00000154,0.00000125,0.00000181,-0.00000276,-0.00000049,0.00000
 075,-0.00000048,-0.00000065,-0.00000013,0.00000075,0.00000017,-0.00000
 011,-0.00000021,-0.00000055,0.00000119,0.00000035,-0.00000036,-0.00000
 018,0.00000014,0.00000004,0.00000025,0.00000022,0.00000021,0.00000018,
 0.00000004,-0.00000037,0.00000004,0.00000050,-0.00000059,-0.00000025,0
 .00000105,-0.00000036,0.00000006,-0.00000012,-0.00000003,-0.00000002,-
 0.00000042,-0.00000014,0.00000004,0.00000143,-0.00000047,0.00000132,0.
 00000003\\\@


 A MUSTACHE HAIR ACROSS A CHIP IS LIKE A REDWOOD
 TREE FALLING THROUGH A HOUSING PROJECT.
 - AN IBM MANAGER IN EAST FISHKILL, NEW YORK
   AS QUOTED IN "FROM SANDS TO CIRCUITS", IBM INNOVATION JANUARY 1985.
 Job cpu time:       1 days  0 hours 36 minutes 21.6 seconds.
 File lengths (MBytes):  RWF=   1141 Int=      0 D2E=      0 Chk=     44 Scr=      1
 Normal termination of Gaussian 09 at Thu Jul 29 10:13:36 2021.
