 Entering Gaussian System, Link 0=g09
 Input=opt_freq-conf-591.com
 Output=opt_freq-conf-591.log
 Initial command:
 /aerosol/software/g09/l1.exe "/scratch/nicole/10725/Gau-84942.inp" -scrdir="/scratch/nicole/10725/"
 Entering Link 1 = /aerosol/software/g09/l1.exe PID=     84947.
  
 Copyright (c) 1988,1990,1992,1993,1995,1998,2003,2009,2013,
            Gaussian, Inc.  All Rights Reserved.
  
 This is part of the Gaussian(R) 09 program.  It is based on
 the Gaussian(R) 03 system (copyright 2003, Gaussian, Inc.),
 the Gaussian(R) 98 system (copyright 1998, Gaussian, Inc.),
 the Gaussian(R) 94 system (copyright 1995, Gaussian, Inc.),
 the Gaussian 92(TM) system (copyright 1992, Gaussian, Inc.),
 the Gaussian 90(TM) system (copyright 1990, Gaussian, Inc.),
 the Gaussian 88(TM) system (copyright 1988, Gaussian, Inc.),
 the Gaussian 86(TM) system (copyright 1986, Carnegie Mellon
 University), and the Gaussian 82(TM) system (copyright 1983,
 Carnegie Mellon University). Gaussian is a federally registered
 trademark of Gaussian, Inc.
  
 This software contains proprietary and confidential information,
 including trade secrets, belonging to Gaussian, Inc.
  
 This software is provided under written license and may be
 used, copied, transmitted, or stored only in accord with that
 written license.
  
 The following legend is applicable only to US Government
 contracts under FAR:
  
                    RESTRICTED RIGHTS LEGEND
  
 Use, reproduction and disclosure by the US Government is
 subject to restrictions as set forth in subparagraphs (a)
 and (c) of the Commercial Computer Software - Restricted
 Rights clause in FAR 52.227-19.
  
 Gaussian, Inc.
 340 Quinnipiac St., Bldg. 40, Wallingford CT 06492
  
  
 ---------------------------------------------------------------
 Warning -- This program may not be used in any manner that
 competes with the business of Gaussian, Inc. or will provide
 assistance to any competitor of Gaussian, Inc.  The licensee
 of this program is prohibited from giving any competitor of
 Gaussian, Inc. access to this program.  By using this program,
 the user acknowledges that Gaussian, Inc. is engaged in the
 business of creating and licensing software in the field of
 computational chemistry and represents and warrants to the
 licensee that it is not a competitor of Gaussian, Inc. and that
 it will not use this program in any manner prohibited above.
 ---------------------------------------------------------------
  

 Cite this work as:
 Gaussian 09, Revision D.01,
 M. J. Frisch, G. W. Trucks, H. B. Schlegel, G. E. Scuseria, 
 M. A. Robb, J. R. Cheeseman, G. Scalmani, V. Barone, B. Mennucci, 
 G. A. Petersson, H. Nakatsuji, M. Caricato, X. Li, H. P. Hratchian, 
 A. F. Izmaylov, J. Bloino, G. Zheng, J. L. Sonnenberg, M. Hada, 
 M. Ehara, K. Toyota, R. Fukuda, J. Hasegawa, M. Ishida, T. Nakajima, 
 Y. Honda, O. Kitao, H. Nakai, T. Vreven, J. A. Montgomery, Jr., 
 J. E. Peralta, F. Ogliaro, M. Bearpark, J. J. Heyd, E. Brothers, 
 K. N. Kudin, V. N. Staroverov, T. Keith, R. Kobayashi, J. Normand, 
 K. Raghavachari, A. Rendell, J. C. Burant, S. S. Iyengar, J. Tomasi, 
 M. Cossi, N. Rega, J. M. Millam, M. Klene, J. E. Knox, J. B. Cross, 
 V. Bakken, C. Adamo, J. Jaramillo, R. Gomperts, R. E. Stratmann, 
 O. Yazyev, A. J. Austin, R. Cammi, C. Pomelli, J. W. Ochterski, 
 R. L. Martin, K. Morokuma, V. G. Zakrzewski, G. A. Voth, 
 P. Salvador, J. J. Dannenberg, S. Dapprich, A. D. Daniels, 
 O. Farkas, J. B. Foresman, J. V. Ortiz, J. Cioslowski, 
 and D. J. Fox, Gaussian, Inc., Wallingford CT, 2013.
 
 ******************************************
 Gaussian 09:  ES64L-G09RevD.01 24-Apr-2013
                29-Jul-2021 
 ******************************************
 %mem=2gb
 %nproc=4
 Will use up to    4 processors via shared memory.
 %chk=conf-591.chk
 ----------------------------------------------------------------------
 # B3LYP/6-311++G(2df,2pd) guess=read geom=checkpoint opt=readfc freq=n
 oraman nosymm integral(ultrafinegrid)
 ----------------------------------------------------------------------
 1/10=3,14=-1,18=20,19=15,26=4,29=2,38=1/1,3;
 2/9=110,12=2,15=1,40=1/2;
 3/5=4,6=6,7=1414,11=2,14=-4,16=1,25=1,30=1,71=1,74=-5,75=-5,116=-2/1,2,3;
 4/5=1/1;
 5/5=2,38=6/2;
 6/7=2,8=2,9=2,10=2,28=1/1;
 7/30=1/1,2,3,16;
 1/14=-1,18=20,19=15,26=4/3(2);
 2/9=110,15=1/2;
 99//99;
 2/9=110,15=1/2;
 3/5=4,6=6,7=1414,11=2,14=-2,16=1,25=1,30=1,71=1,74=-5,75=-5/1,2,3;
 4/5=5,16=3,69=1/1;
 5/5=2,38=5/2;
 7/30=1/1,2,3,16;
 1/14=-1,18=20,19=15,26=4/3(-5);
 2/9=110,15=1/2;
 6/7=2,8=2,9=2,10=2,19=2,28=1/1;
 99/9=1/99;
 ------------------------------------------------------------
 Candidate Structure: Conf:591 OPT and FREQ calc in gas phase
 ------------------------------------------------------------
 Structure from the checkpoint file:  "conf-591.chk"
 Charge =  0 Multiplicity = 1
 Redundant internal coordinates found in file.
 O,0,-0.8402149288,0.134232545,-1.0148844735
 C,0,-1.2665886882,0.0281752314,0.1405054494
 N,0,-0.4603211668,-0.2480317629,1.1953571753
 C,0,0.9624082875,-0.5079678545,1.0635069535
 C,0,1.3922619494,-1.2392776702,2.3257441544
 O,0,2.6537491931,-1.6931452321,2.2324066324
 O,0,0.6978709919,-1.3857876824,3.310468137
 C,0,1.8304862731,0.7911551704,0.8417202451
 C,0,2.5395462359,0.8390351274,-0.4713044865
 C,0,3.8642836691,1.004477831,-0.8086467154
 N,0,4.0294693922,1.0042100198,-2.1748695381
 C,0,2.8152364177,0.8353891631,-2.6610263101
 N,0,1.8766939741,0.7344157837,-1.6782080071
 C,0,-2.7405604144,0.2141334629,0.4619187467
 C,0,-3.6424647913,-0.5495660734,-0.5171740721
 N,0,-5.0491706065,-0.3013363678,-0.1884177927
 H,0,-0.8496222181,-0.4018844583,2.117498078
 H,0,1.1286266118,-1.1779453428,0.2135255903
 H,0,2.863298725,-2.1238910274,3.0787062003
 H,0,2.5815607162,0.8798007846,1.631256358
 H,0,1.1495836834,1.6425081965,0.9587626462
 H,0,4.7045890495,1.1253848703,-0.137699084
 H,0,2.5601845945,0.7778632697,-3.710491091
 H,0,0.8747602567,0.561572039,-1.7538432083
 H,0,-2.9764705791,-0.0827508952,1.4885482901
 H,0,-2.9539038602,1.2887874317,0.3815890981
 H,0,-3.4571372322,-1.6247854995,-0.4086314274
 H,0,-3.3481985809,-0.2783849147,-1.5416223521
 H,0,-5.6437023703,-0.9007371685,-0.7554862176
 H,0,-5.2962330543,0.6544892931,-0.4385670489
 Recover connectivity data from disk.

 GradGradGradGradGradGradGradGradGradGradGradGradGradGradGradGradGradGrad
 Berny optimization.
 Initialization pass.
 Force constant matrix read from checkpoint file:
 "conf-591.chk"
                           ----------------------------
                           !    Initial Parameters    !
                           ! (Angstroms and Degrees)  !
 --------------------------                            --------------------------
 ! Name  Definition              Value          Derivative Info.                !
 --------------------------------------------------------------------------------
 ! R1    R(1,2)                  1.2361         D2E/DX2 =    0.7578             !
 ! R2    R(2,3)                  1.3561         D2E/DX2 =    0.4695             !
 ! R3    R(2,14)                 1.52           D2E/DX2 =    0.276              !
 ! R4    R(3,4)                  1.4523         D2E/DX2 =    0.3565             !
 ! R5    R(3,17)                 1.0127         D2E/DX2 =    0.4611             !
 ! R6    R(4,5)                  1.5208         D2E/DX2 =    0.2828             !
 ! R7    R(4,8)                  1.5781         D2E/DX2 =    0.2436             !
 ! R8    R(4,18)                 1.095          D2E/DX2 =    0.3357             !
 ! R9    R(5,6)                  1.3439         D2E/DX2 =    0.4268             !
 ! R10   R(5,7)                  1.2138         D2E/DX2 =    0.8526             !
 ! R11   R(6,19)                 0.9725         D2E/DX2 =    0.5069             !
 ! R12   R(8,9)                  1.493          D2E/DX2 =    0.327              !
 ! R13   R(8,20)                 1.0933         D2E/DX2 =    0.3405             !
 ! R14   R(8,21)                 1.0964         D2E/DX2 =    0.3312             !
 ! R15   R(9,10)                 1.377          D2E/DX2 =    0.4071             !
 ! R16   R(9,13)                 1.3809         D2E/DX2 =    0.3718             !
 ! R17   R(10,11)                1.3762         D2E/DX2 =    0.3379             !
 ! R18   R(10,22)                1.0821         D2E/DX2 =    0.3702             !
 ! R19   R(11,12)                1.3188         D2E/DX2 =    0.4532             !
 ! R20   R(12,13)                1.3627         D2E/DX2 =    0.3691             !
 ! R21   R(12,23)                1.0815         D2E/DX2 =    0.3731             !
 ! R22   R(13,24)                1.0195         D2E/DX2 =    0.4306             !
 ! R23   R(14,15)                1.5347         D2E/DX2 =    0.2751             !
 ! R24   R(14,25)                1.0944         D2E/DX2 =    0.3384             !
 ! R25   R(14,26)                1.0986         D2E/DX2 =    0.3293             !
 ! R26   R(15,16)                1.4658         D2E/DX2 =    0.33               !
 ! R27   R(15,27)                1.0965         D2E/DX2 =    0.3324             !
 ! R28   R(15,28)                1.0998         D2E/DX2 =    0.3227             !
 ! R29   R(16,29)                1.017          D2E/DX2 =    0.4471             !
 ! R30   R(16,30)                1.0184         D2E/DX2 =    0.4418             !
 ! A1    A(1,2,3)              122.6461         D2E/DX2 =    0.2143             !
 ! A2    A(1,2,14)             121.4416         D2E/DX2 =    0.1706             !
 ! A3    A(3,2,14)             115.9104         D2E/DX2 =    0.1743             !
 ! A4    A(2,3,4)              123.2489         D2E/DX2 =    0.2407             !
 ! A5    A(2,3,17)             120.7088         D2E/DX2 =    0.1219             !
 ! A6    A(4,3,17)             115.5992         D2E/DX2 =    0.1233             !
 ! A7    A(3,4,5)              106.7152         D2E/DX2 =    0.106              !
 ! A8    A(3,4,8)              113.847          D2E/DX2 =    0.1126             !
 ! A9    A(3,4,18)             109.1901         D2E/DX2 =    0.0304             !
 ! A10   A(5,4,8)              110.9176         D2E/DX2 =    0.0861             !
 ! A11   A(5,4,18)             107.8872         D2E/DX2 =    0.025              !
 ! A12   A(8,4,18)             108.1254         D2E/DX2 =    0.0327             !
 ! A13   A(4,5,6)              111.7203         D2E/DX2 =    0.1653             !
 ! A14   A(4,5,7)              124.7283         D2E/DX2 =    0.1786             !
 ! A15   A(6,5,7)              123.544          D2E/DX2 =    0.2016             !
 ! A16   A(5,6,19)             106.9431         D2E/DX2 =    0.1732             !
 ! A17   A(4,8,9)              114.2824         D2E/DX2 =    0.2097             !
 ! A18   A(4,8,20)             110.0681         D2E/DX2 =    0.0708             !
 ! A19   A(4,8,21)             106.4155         D2E/DX2 =    0.0643             !
 ! A20   A(9,8,20)             107.8325         D2E/DX2 =    0.0704             !
 ! A21   A(9,8,21)             111.3409         D2E/DX2 =    0.0509             !
 ! A22   A(20,8,21)            106.6533         D2E/DX2 =    0.0212             !
 ! A23   A(8,9,10)             132.5475         D2E/DX2 =    0.1223             !
 ! A24   A(8,9,13)             122.5632         D2E/DX2 =    0.1415             !
 ! A25   A(10,9,13)            104.8792         D2E/DX2 =    0.1023             !
 ! A26   A(9,10,11)            111.0184         D2E/DX2 =    0.1155             !
 ! A27   A(9,10,22)            127.4895         D2E/DX2 =    0.0822             !
 ! A28   A(11,10,22)           121.4919         D2E/DX2 =    0.0899             !
 ! A29   A(10,11,12)           104.8021         D2E/DX2 =    0.1327             !
 ! A30   A(11,12,13)           112.1938         D2E/DX2 =    0.1199             !
 ! A31   A(11,12,23)           125.5658         D2E/DX2 =    0.0898             !
 ! A32   A(13,12,23)           122.2403         D2E/DX2 =    0.0906             !
 ! A33   A(9,13,12)            107.1052         D2E/DX2 =    0.1031             !
 ! A34   A(9,13,24)            123.3258         D2E/DX2 =    0.0896             !
 ! A35   A(12,13,24)           129.4862         D2E/DX2 =    0.0805             !
 ! A36   A(2,14,15)            111.9682         D2E/DX2 =    0.1334             !
 ! A37   A(2,14,25)            111.9744         D2E/DX2 =    0.0533             !
 ! A38   A(2,14,26)            107.0096         D2E/DX2 =    0.0429             !
 ! A39   A(15,14,25)           109.6811         D2E/DX2 =    0.0562             !
 ! A40   A(15,14,26)           109.027          D2E/DX2 =    0.0525             !
 ! A41   A(25,14,26)           106.9835         D2E/DX2 =    0.0206             !
 ! A42   A(14,15,16)           109.6717         D2E/DX2 =    0.1509             !
 ! A43   A(14,15,27)           108.9957         D2E/DX2 =    0.0564             !
 ! A44   A(14,15,28)           108.3193         D2E/DX2 =    0.0615             !
 ! A45   A(16,15,27)           107.823          D2E/DX2 =    0.0506             !
 ! A46   A(16,15,28)           115.083          D2E/DX2 =    0.0559             !
 ! A47   A(27,15,28)           106.7847         D2E/DX2 =    0.0219             !
 ! A48   A(15,16,29)           109.6429         D2E/DX2 =    0.1439             !
 ! A49   A(15,16,30)           109.6736         D2E/DX2 =    0.1483             !
 ! A50   A(29,16,30)           105.9246         D2E/DX2 =    0.0559             !
 ! D1    D(1,2,3,4)             -3.0426         D2E/DX2 =    0.0125             !
 ! D2    D(1,2,3,17)          -175.0637         D2E/DX2 =    0.0133             !
 ! D3    D(14,2,3,4)           177.4538         D2E/DX2 =    0.0106             !
 ! D4    D(14,2,3,17)            5.4327         D2E/DX2 =    0.0088             !
 ! D5    D(1,2,14,15)           46.36           D2E/DX2 =    0.0138             !
 ! D6    D(1,2,14,25)          170.0273         D2E/DX2 =    0.0151             !
 ! D7    D(1,2,14,26)          -73.0475         D2E/DX2 =    0.0161             !
 ! D8    D(3,2,14,15)         -134.1299         D2E/DX2 =    0.013              !
 ! D9    D(3,2,14,25)          -10.4626         D2E/DX2 =    0.0153             !
 ! D10   D(3,2,14,26)          106.4626         D2E/DX2 =    0.014              !
 ! D11   D(2,3,4,5)           -160.26           D2E/DX2 =    0.0138             !
 ! D12   D(2,3,4,8)             77.0349         D2E/DX2 =    0.0244             !
 ! D13   D(2,3,4,18)           -43.8954         D2E/DX2 =    0.009              !
 ! D14   D(17,3,4,5)            12.1355         D2E/DX2 =    0.0137             !
 ! D15   D(17,3,4,8)          -110.5696         D2E/DX2 =    0.021              !
 ! D16   D(17,3,4,18)          128.5002         D2E/DX2 =    0.0101             !
 ! D17   D(3,4,5,6)            171.4651         D2E/DX2 =    0.0246             !
 ! D18   D(3,4,5,7)             -9.5016         D2E/DX2 =    0.0235             !
 ! D19   D(8,4,5,6)            -64.0147         D2E/DX2 =    0.0218             !
 ! D20   D(8,4,5,7)            115.0186         D2E/DX2 =    0.0204             !
 ! D21   D(18,4,5,6)            54.2355         D2E/DX2 =    0.016              !
 ! D22   D(18,4,5,7)          -126.7313         D2E/DX2 =    0.0147             !
 ! D23   D(3,4,8,9)           -116.5844         D2E/DX2 =    0.0458             !
 ! D24   D(3,4,8,20)           121.9164         D2E/DX2 =    0.0312             !
 ! D25   D(3,4,8,21)             6.7218         D2E/DX2 =    0.0236             !
 ! D26   D(5,4,8,9)            123.0444         D2E/DX2 =    0.022              !
 ! D27   D(5,4,8,20)             1.5453         D2E/DX2 =    0.018              !
 ! D28   D(5,4,8,21)          -113.6494         D2E/DX2 =    0.0188             !
 ! D29   D(18,4,8,9)             4.9388         D2E/DX2 =    0.0149             !
 ! D30   D(18,4,8,20)         -116.5603         D2E/DX2 =    0.0134             !
 ! D31   D(18,4,8,21)          128.245          D2E/DX2 =    0.0154             !
 ! D32   D(4,5,6,19)           178.4807         D2E/DX2 =    0.0172             !
 ! D33   D(7,5,6,19)            -0.566          D2E/DX2 =    0.0164             !
 ! D34   D(4,8,9,10)          -124.9248         D2E/DX2 =    0.0158             !
 ! D35   D(4,8,9,13)            56.4198         D2E/DX2 =    0.0185             !
 ! D36   D(20,8,9,10)           -2.2023         D2E/DX2 =    0.0136             !
 ! D37   D(20,8,9,13)          179.1422         D2E/DX2 =    0.0151             !
 ! D38   D(21,8,9,10)          114.4702         D2E/DX2 =    0.0151             !
 ! D39   D(21,8,9,13)          -64.1853         D2E/DX2 =    0.0162             !
 ! D40   D(8,9,10,11)         -178.8221         D2E/DX2 =    0.0097             !
 ! D41   D(8,9,10,22)            1.0457         D2E/DX2 =    0.007              !
 ! D42   D(13,9,10,11)           0.0054         D2E/DX2 =    0.0146             !
 ! D43   D(13,9,10,22)         179.8732         D2E/DX2 =    0.0096             !
 ! D44   D(8,9,13,12)          179.1684         D2E/DX2 =    0.0082             !
 ! D45   D(8,9,13,24)           -3.8583         D2E/DX2 =    0.0043             !
 ! D46   D(10,9,13,12)           0.1933         D2E/DX2 =    0.0127             !
 ! D47   D(10,9,13,24)         177.1666         D2E/DX2 =    0.0069             !
 ! D48   D(9,10,11,12)          -0.2062         D2E/DX2 =    0.0176             !
 ! D49   D(22,10,11,12)        179.9169         D2E/DX2 =    0.0098             !
 ! D50   D(10,11,12,13)          0.3366         D2E/DX2 =    0.0188             !
 ! D51   D(10,11,12,23)       -179.5676         D2E/DX2 =    0.0108             !
 ! D52   D(11,12,13,9)          -0.3441         D2E/DX2 =    0.0176             !
 ! D53   D(11,12,13,24)       -177.067          D2E/DX2 =    0.0098             !
 ! D54   D(23,12,13,9)         179.5638         D2E/DX2 =    0.0107             !
 ! D55   D(23,12,13,24)          2.8409         D2E/DX2 =    0.007              !
 ! D56   D(2,14,15,16)        -178.193          D2E/DX2 =    0.0151             !
 ! D57   D(2,14,15,27)          63.9781         D2E/DX2 =    0.0145             !
 ! D58   D(2,14,15,28)         -51.8509         D2E/DX2 =    0.0148             !
 ! D59   D(25,14,15,16)         56.861          D2E/DX2 =    0.0156             !
 ! D60   D(25,14,15,27)        -60.9679         D2E/DX2 =    0.0162             !
 ! D61   D(25,14,15,28)       -176.797          D2E/DX2 =    0.0148             !
 ! D62   D(26,14,15,16)        -59.9786         D2E/DX2 =    0.0156             !
 ! D63   D(26,14,15,27)       -177.8075         D2E/DX2 =    0.0152             !
 ! D64   D(26,14,15,28)         66.3634         D2E/DX2 =    0.0161             !
 ! D65   D(14,15,16,29)       -172.5706         D2E/DX2 =    0.0155             !
 ! D66   D(14,15,16,30)         71.5169         D2E/DX2 =    0.0157             !
 ! D67   D(27,15,16,29)        -54.0136         D2E/DX2 =    0.0175             !
 ! D68   D(27,15,16,30)       -169.926          D2E/DX2 =    0.0184             !
 ! D69   D(28,15,16,29)         65.0256         D2E/DX2 =    0.0182             !
 ! D70   D(28,15,16,30)        -50.8869         D2E/DX2 =    0.0184             !
 --------------------------------------------------------------------------------
 Trust Radius=3.00D-01 FncErr=1.00D-07 GrdErr=1.00D-06
 Number of steps in this run=    160 maximum allowed number of steps=    180.
 GradGradGradGradGradGradGradGradGradGradGradGradGradGradGradGradGradGrad

                          Input orientation:                          
 ---------------------------------------------------------------------
 Center     Atomic      Atomic             Coordinates (Angstroms)
 Number     Number       Type             X           Y           Z
 ---------------------------------------------------------------------
      1          8           0       -0.840215    0.134233   -1.014884
      2          6           0       -1.266589    0.028175    0.140505
      3          7           0       -0.460321   -0.248032    1.195357
      4          6           0        0.962408   -0.507968    1.063507
      5          6           0        1.392262   -1.239278    2.325744
      6          8           0        2.653749   -1.693145    2.232407
      7          8           0        0.697871   -1.385788    3.310468
      8          6           0        1.830486    0.791155    0.841720
      9          6           0        2.539546    0.839035   -0.471304
     10          6           0        3.864284    1.004478   -0.808647
     11          7           0        4.029469    1.004210   -2.174870
     12          6           0        2.815236    0.835389   -2.661026
     13          7           0        1.876694    0.734416   -1.678208
     14          6           0       -2.740560    0.214133    0.461919
     15          6           0       -3.642465   -0.549566   -0.517174
     16          7           0       -5.049171   -0.301336   -0.188418
     17          1           0       -0.849622   -0.401884    2.117498
     18          1           0        1.128627   -1.177945    0.213526
     19          1           0        2.863299   -2.123891    3.078706
     20          1           0        2.581561    0.879801    1.631256
     21          1           0        1.149584    1.642508    0.958763
     22          1           0        4.704589    1.125385   -0.137699
     23          1           0        2.560185    0.777863   -3.710491
     24          1           0        0.874760    0.561572   -1.753843
     25          1           0       -2.976471   -0.082751    1.488548
     26          1           0       -2.953904    1.288787    0.381589
     27          1           0       -3.457137   -1.624785   -0.408631
     28          1           0       -3.348199   -0.278385   -1.541622
     29          1           0       -5.643702   -0.900737   -0.755486
     30          1           0       -5.296233    0.654489   -0.438567
 ---------------------------------------------------------------------
                    Distance matrix (angstroms):
                    1          2          3          4          5
     1  O    0.000000
     2  C    1.236110   0.000000
     3  N    2.274997   1.356123   0.000000
     4  C    2.825170   2.471398   1.452278   0.000000
     5  C    4.246208   3.667587   2.385877   1.520799   0.000000
     6  O    5.108032   4.765296   3.586260   2.373100   1.343896
     7  O    4.835788   3.988365   2.666382   2.426805   1.213806
     8  C    3.318309   3.265840   2.540230   1.578122   2.552846
     9  C    3.494998   3.939349   3.599817   2.580199   3.668668
    10  C    4.788754   5.308475   4.928186   3.770057   4.579272
    11  N    5.080970   5.861897   5.751935   4.709631   5.678347
    12  C    4.069856   5.016121   5.174434   4.371468   5.585426
    13  N    2.860387   3.699557   3.831999   3.145860   4.490186
    14  C    2.408038   1.520026   2.439471   3.820382   4.760932
    15  C    2.927098   2.532018   3.626255   4.868792   5.822917
    16  N    4.311389   3.811128   4.793247   6.144029   6.978022
    17  H    3.177944   2.065747   1.012704   2.098953   2.402215
    18  H    2.665922   2.682744   2.086501   1.094973   2.129491
    19  H    5.964279   5.506395   4.255855   3.207120   1.874418
    20  H    4.389360   4.213770   3.273387   2.206784   2.527299
    21  H    3.182684   3.018858   2.494376   2.161146   3.198784
    22  H    5.700587   6.077518   5.508140   4.256131   4.757278
    23  H    4.386715   5.480547   5.851774   5.195893   6.470629
    24  H    1.915677   2.908340   3.337017   3.014807   4.489310
    25  H    3.298158   2.180188   2.538560   3.984500   4.596115
    26  H    2.784029   2.119976   3.040064   4.362435   5.390734
    27  H    3.210914   2.798631   3.667306   4.790288   5.580511
    28  H    2.595706   2.693814   3.978921   5.041898   6.192883
    29  H    4.920563   4.563420   5.576671   6.863214   7.688523
    30  H    4.523152   4.118935   5.183657   6.540499   7.480891
                    6          7          8          9         10
     6  O    0.000000
     7  O    2.254361   0.000000
     8  C    2.963700   3.480893   0.000000
     9  C    3.706081   4.758509   1.493015   0.000000
    10  C    4.241529   5.718972   2.627841   1.376990   0.000000
    11  N    5.347188   6.848399   3.739082   2.269204   1.376173
    12  C    5.510467   6.713837   3.638808   2.207012   2.135510
    13  N    4.667952   5.547231   2.520990   1.380918   2.186226
    14  C    5.989233   4.743078   4.622950   5.398234   6.772219
    15  C    6.964932   5.847104   5.796320   6.336212   7.671459
    16  N    8.193442   6.815183   7.041619   7.679134   9.029923
    17  H    3.735528   2.187688   3.199052   4.441649   5.723730
    18  H    2.582114   3.133656   2.182795   2.554975   3.645768
    19  H    0.972459   2.299475   3.816845   4.635334   5.089221
    20  H    2.643226   3.391302   1.093315   2.103376   2.759357
    21  H    3.874438   3.860717   1.096417   2.150036   3.301578
    22  H    4.215146   5.852319   3.054740   2.209230   1.082082
    23  H    6.436821   7.579147   4.610343   3.239830   3.189472
    24  H    4.913119   5.428697   2.775441   2.119765   3.166514
    25  H    5.903056   4.303264   4.928380   5.925973   7.297609
    26  H    6.615378   5.391395   4.832158   5.577428   6.927133
    27  H    6.657529   5.581480   5.946353   6.483406   7.789496
    28  H    7.229676   6.414032   5.800260   6.087672   7.362261
    29  H    8.854553   7.548696   7.827967   8.370969   9.697137
    30  H    8.709059   7.358483   7.242095   7.838021   9.174667
                   11         12         13         14         15
    11  N    0.000000
    12  C    1.318791   0.000000
    13  N    2.225737   1.362714   0.000000
    14  C    7.308227   6.403563   5.115650   0.000000
    15  C    8.001297   6.943782   5.784265   1.534696   0.000000
    16  N    9.384676   8.321949   7.159599   2.453228   1.465783
    17  H    6.648839   6.147872   4.809508   2.587676   3.842301
    18  H    4.345241   3.893741   2.792022   4.119489   4.867453
    19  H    6.224550   6.457877   5.636625   6.611896   7.598277
    20  H    4.074127   4.298868   3.386817   5.489575   6.737755
    21  H    4.303582   4.065552   2.882175   4.173767   5.472413
    22  H    2.149543   3.165585   3.243920   7.524638   8.521899
    23  H    2.137326   1.081544   2.144580   6.769394   7.101563
    24  H    3.213313   2.159492   1.019542   4.254510   4.813450
    25  H    7.980308   7.183719   5.852291   1.094423   2.164344
    26  H    7.442041   6.538047   5.280603   1.098567   2.159036
    27  H    8.128991   7.104112   5.968870   2.157073   1.096460
    28  H    7.515054   6.362506   5.323901   2.150808   1.099830
    29  H    9.960609   8.843012   7.751226   3.339647   2.045743
    30  H    9.492406   8.412371   7.279696   2.745223   2.047163
                   16         17         18         19         20
    16  N    0.000000
    17  H    4.792031   0.000000
    18  H    6.252614   2.853218   0.000000
    19  H    8.752313   4.204166   3.480397   0.000000
    20  H    7.933118   3.694884   2.890553   3.346140   0.000000
    21  H    6.596901   3.085293   2.917323   4.649381   1.756283
    22  H    9.857684   6.186092   4.268044   4.928834   2.774304
    23  H    8.454109   6.854491   4.612207   7.389537   5.342763
    24  H    6.187740   4.346151   2.638353   5.875332   3.804384
    25  H    2.675085   2.240738   4.435872   6.387312   5.642569
    26  H    2.691383   3.209323   4.772847   7.263653   5.689491
    27  H    2.081966   3.830920   4.649298   7.235920   6.848355
    28  H    2.173705   4.432527   4.892005   7.958394   6.824265
    29  H    1.017013   5.611247   6.846917   9.410962   8.747674
    30  H    1.018439   5.236577   6.712813   9.309595   8.148286
                   21         22         23         24         25
    21  H    0.000000
    22  H    3.756023   0.000000
    23  H    4.953719   4.181397   0.000000
    24  H    2.932948   4.194925   2.591507   0.000000
    25  H    4.503500   7.943736   7.643639   5.075454   0.000000
    26  H    4.158949   7.677817   6.885589   4.443825   1.762664
    27  H    5.810925   8.616880   7.272081   5.035384   2.491626
    28  H    5.492886   8.293911   6.381900   4.310910   3.059148
    29  H    7.453555  10.562858   8.879950   6.754659   3.580352
    30  H    6.669128  10.016422   8.511404   6.310289   3.104609
                   26         27         28         29         30
    26  H    0.000000
    27  H    3.060490   0.000000
    28  H    2.512019   1.763046   0.000000
    29  H    3.649928   2.329296   2.504929   0.000000
    30  H    2.561542   2.928867   2.425247   1.624778   0.000000
 Symmetry turned off by external request.
 Stoichiometry    C9H14N4O3
 Framework group  C1[X(C9H14N4O3)]
 Deg. of freedom    84
 Full point group                 C1      NOp   1
 Rotational constants (GHZ):      0.6543886      0.3074648      0.2188572
 Standard basis: 6-311++G(2df,2pd) (5D, 7F)
   754 basis functions,  1084 primitive gaussians,   848 cartesian basis functions
    60 alpha electrons       60 beta electrons
       nuclear repulsion energy      1105.6234128807 Hartrees.
 NAtoms=   30 NActive=   30 NUniq=   30 SFac= 1.00D+00 NAtFMM=   60 NAOKFM=F Big=F
 Integral buffers will be    131072 words long.
 Raffenetti 2 integral format.
 Two-electron integral symmetry is turned off.
 One-electron integrals computed using PRISM.
 NBasis=   754 RedAO= T EigKep=  2.21D-06  NBF=   754
 NBsUse=   754 1.00D-06 EigRej= -1.00D+00 NBFU=   754
 Initial guess from the checkpoint file:  "conf-591.chk"
 B after Tr=     0.000000    0.000000    0.000000
         Rot=    1.000000    0.000000    0.000000    0.000000 Ang=   0.00 deg.
 Requested convergence on RMS density matrix=1.00D-08 within 128 cycles.
 Requested convergence on MAX density matrix=1.00D-06.
 Requested convergence on             energy=1.00D-06.
 No special actions if energy rises.
 SCF Done:  E(RB3LYP) =  -796.386621334     A.U. after   13 cycles
            NFock= 13  Conv=0.34D-08     -V/T= 2.0043

 **********************************************************************

            Population analysis using the SCF density.

 **********************************************************************

 Alpha  occ. eigenvalues --  -19.20717 -19.15201 -19.11640 -14.36656 -14.35156
 Alpha  occ. eigenvalues --  -14.30961 -14.28452 -10.34158 -10.29989 -10.25716
 Alpha  occ. eigenvalues --  -10.21454 -10.21030 -10.20771 -10.19958 -10.19636
 Alpha  occ. eigenvalues --  -10.17563  -1.14725  -1.06487  -1.05709  -1.00530
 Alpha  occ. eigenvalues --   -0.95712  -0.89995  -0.86350  -0.81922  -0.77568
 Alpha  occ. eigenvalues --   -0.74815  -0.68922  -0.66506  -0.62474  -0.61370
 Alpha  occ. eigenvalues --   -0.60390  -0.58287  -0.54883  -0.54623  -0.52706
 Alpha  occ. eigenvalues --   -0.50958  -0.50645  -0.49659  -0.48951  -0.47198
 Alpha  occ. eigenvalues --   -0.46344  -0.45279  -0.44154  -0.43562  -0.42342
 Alpha  occ. eigenvalues --   -0.41348  -0.40413  -0.40111  -0.39928  -0.39271
 Alpha  occ. eigenvalues --   -0.38624  -0.36341  -0.36121  -0.32365  -0.29664
 Alpha  occ. eigenvalues --   -0.29203  -0.27645  -0.26597  -0.25983  -0.22406
 Alpha virt. eigenvalues --   -0.03880  -0.02551  -0.01835  -0.01133  -0.00291
 Alpha virt. eigenvalues --    0.00263   0.00681   0.01373   0.01623   0.02634
 Alpha virt. eigenvalues --    0.02700   0.03232   0.03388   0.04488   0.04723
 Alpha virt. eigenvalues --    0.05448   0.05816   0.06168   0.06781   0.06854
 Alpha virt. eigenvalues --    0.07182   0.07689   0.08310   0.08496   0.08780
 Alpha virt. eigenvalues --    0.09296   0.09519   0.09944   0.10754   0.11164
 Alpha virt. eigenvalues --    0.11604   0.11893   0.12267   0.12711   0.12956
 Alpha virt. eigenvalues --    0.13062   0.13462   0.13476   0.13991   0.14152
 Alpha virt. eigenvalues --    0.14541   0.14731   0.15244   0.15471   0.15630
 Alpha virt. eigenvalues --    0.16186   0.16557   0.17124   0.17353   0.17686
 Alpha virt. eigenvalues --    0.17952   0.18366   0.18829   0.18979   0.19116
 Alpha virt. eigenvalues --    0.19355   0.20238   0.20485   0.21066   0.21465
 Alpha virt. eigenvalues --    0.21916   0.22227   0.22550   0.23064   0.23386
 Alpha virt. eigenvalues --    0.23699   0.24414   0.24488   0.24846   0.25358
 Alpha virt. eigenvalues --    0.25645   0.26234   0.26652   0.26820   0.27040
 Alpha virt. eigenvalues --    0.27661   0.28279   0.28428   0.28569   0.29057
 Alpha virt. eigenvalues --    0.29292   0.29600   0.29802   0.30250   0.31211
 Alpha virt. eigenvalues --    0.31512   0.31808   0.32598   0.32824   0.33074
 Alpha virt. eigenvalues --    0.33171   0.33480   0.34008   0.34308   0.34929
 Alpha virt. eigenvalues --    0.35459   0.36365   0.36708   0.37568   0.38293
 Alpha virt. eigenvalues --    0.38752   0.40140   0.40424   0.40778   0.41825
 Alpha virt. eigenvalues --    0.43183   0.43717   0.44392   0.45267   0.45924
 Alpha virt. eigenvalues --    0.46864   0.47162   0.48530   0.49048   0.49333
 Alpha virt. eigenvalues --    0.49904   0.50711   0.51584   0.51825   0.52680
 Alpha virt. eigenvalues --    0.54248   0.54767   0.55213   0.56305   0.56445
 Alpha virt. eigenvalues --    0.57898   0.58165   0.58684   0.58844   0.59928
 Alpha virt. eigenvalues --    0.60204   0.60592   0.61081   0.61784   0.62555
 Alpha virt. eigenvalues --    0.62657   0.63043   0.63404   0.63817   0.64227
 Alpha virt. eigenvalues --    0.65382   0.65623   0.65898   0.66494   0.67005
 Alpha virt. eigenvalues --    0.67672   0.68343   0.69158   0.69985   0.71427
 Alpha virt. eigenvalues --    0.71554   0.72422   0.73090   0.73368   0.73778
 Alpha virt. eigenvalues --    0.75234   0.75600   0.76275   0.76434   0.77372
 Alpha virt. eigenvalues --    0.77527   0.79194   0.79697   0.80269   0.80377
 Alpha virt. eigenvalues --    0.81749   0.82144   0.83035   0.83241   0.83681
 Alpha virt. eigenvalues --    0.85549   0.85966   0.86426   0.86749   0.88675
 Alpha virt. eigenvalues --    0.89653   0.89818   0.91307   0.91592   0.92843
 Alpha virt. eigenvalues --    0.93500   0.93523   0.94623   0.95730   0.96502
 Alpha virt. eigenvalues --    0.97220   0.97864   0.98734   0.98946   0.99935
 Alpha virt. eigenvalues --    1.00218   1.01868   1.02514   1.03754   1.04314
 Alpha virt. eigenvalues --    1.05378   1.06017   1.06414   1.07623   1.07997
 Alpha virt. eigenvalues --    1.08542   1.08988   1.09551   1.10912   1.12483
 Alpha virt. eigenvalues --    1.12576   1.13130   1.13907   1.14298   1.15285
 Alpha virt. eigenvalues --    1.15693   1.15942   1.17994   1.18670   1.19307
 Alpha virt. eigenvalues --    1.19572   1.21339   1.22287   1.22752   1.23464
 Alpha virt. eigenvalues --    1.24136   1.25419   1.25794   1.26376   1.26582
 Alpha virt. eigenvalues --    1.28360   1.28565   1.29834   1.30752   1.31187
 Alpha virt. eigenvalues --    1.32127   1.33387   1.34187   1.34861   1.36029
 Alpha virt. eigenvalues --    1.36195   1.37147   1.37680   1.38960   1.39480
 Alpha virt. eigenvalues --    1.39961   1.40879   1.41272   1.41654   1.42703
 Alpha virt. eigenvalues --    1.43722   1.43992   1.44591   1.45819   1.46544
 Alpha virt. eigenvalues --    1.48139   1.48347   1.49013   1.49684   1.50372
 Alpha virt. eigenvalues --    1.50943   1.52355   1.52754   1.54720   1.54958
 Alpha virt. eigenvalues --    1.55240   1.56146   1.57422   1.57776   1.58375
 Alpha virt. eigenvalues --    1.59828   1.60645   1.61158   1.63288   1.63800
 Alpha virt. eigenvalues --    1.66246   1.66687   1.68867   1.69166   1.70448
 Alpha virt. eigenvalues --    1.72580   1.73193   1.73915   1.75039   1.76238
 Alpha virt. eigenvalues --    1.76781   1.77558   1.79796   1.81151   1.82052
 Alpha virt. eigenvalues --    1.83488   1.85668   1.86994   1.88065   1.89799
 Alpha virt. eigenvalues --    1.91200   1.92813   1.95280   1.97959   2.01007
 Alpha virt. eigenvalues --    2.02075   2.03802   2.06684   2.08829   2.09954
 Alpha virt. eigenvalues --    2.13053   2.13798   2.16110   2.17343   2.20989
 Alpha virt. eigenvalues --    2.25027   2.29794   2.32904   2.42544   2.45367
 Alpha virt. eigenvalues --    2.46492   2.49248   2.51583   2.53680   2.54401
 Alpha virt. eigenvalues --    2.55675   2.57609   2.58782   2.59593   2.60779
 Alpha virt. eigenvalues --    2.62727   2.63488   2.64615   2.66833   2.69035
 Alpha virt. eigenvalues --    2.70400   2.71431   2.71917   2.73580   2.74348
 Alpha virt. eigenvalues --    2.74675   2.75769   2.76477   2.77664   2.78904
 Alpha virt. eigenvalues --    2.79950   2.80123   2.81460   2.84202   2.84388
 Alpha virt. eigenvalues --    2.84829   2.86026   2.86537   2.88047   2.88909
 Alpha virt. eigenvalues --    2.89739   2.90264   2.92133   2.93472   2.93777
 Alpha virt. eigenvalues --    2.94102   2.94947   2.95998   2.97028   2.97358
 Alpha virt. eigenvalues --    2.98106   2.99267   3.00070   3.00603   3.01176
 Alpha virt. eigenvalues --    3.03331   3.03456   3.03728   3.04651   3.05480
 Alpha virt. eigenvalues --    3.05876   3.06504   3.07845   3.08595   3.08916
 Alpha virt. eigenvalues --    3.09982   3.10856   3.11426   3.11846   3.13287
 Alpha virt. eigenvalues --    3.13768   3.14517   3.15272   3.16208   3.17162
 Alpha virt. eigenvalues --    3.17840   3.18628   3.19876   3.20573   3.21008
 Alpha virt. eigenvalues --    3.21825   3.23021   3.24269   3.25582   3.25856
 Alpha virt. eigenvalues --    3.26146   3.27073   3.27688   3.27748   3.28865
 Alpha virt. eigenvalues --    3.29305   3.29708   3.30202   3.31613   3.31743
 Alpha virt. eigenvalues --    3.33371   3.34396   3.34602   3.34991   3.36573
 Alpha virt. eigenvalues --    3.36810   3.37047   3.37825   3.38951   3.40021
 Alpha virt. eigenvalues --    3.40617   3.41294   3.41906   3.42766   3.43432
 Alpha virt. eigenvalues --    3.44282   3.45382   3.45838   3.46655   3.47594
 Alpha virt. eigenvalues --    3.49489   3.50478   3.50858   3.51200   3.53042
 Alpha virt. eigenvalues --    3.53792   3.53967   3.54350   3.55720   3.56622
 Alpha virt. eigenvalues --    3.57195   3.57977   3.59211   3.59598   3.60688
 Alpha virt. eigenvalues --    3.60914   3.61474   3.62677   3.63301   3.64194
 Alpha virt. eigenvalues --    3.64496   3.65579   3.66513   3.67166   3.68452
 Alpha virt. eigenvalues --    3.69241   3.69484   3.70399   3.71561   3.71865
 Alpha virt. eigenvalues --    3.72835   3.73489   3.74833   3.76103   3.76294
 Alpha virt. eigenvalues --    3.77258   3.78223   3.78646   3.79416   3.79775
 Alpha virt. eigenvalues --    3.80912   3.81134   3.82352   3.83147   3.84162
 Alpha virt. eigenvalues --    3.85041   3.85991   3.86397   3.88023   3.88526
 Alpha virt. eigenvalues --    3.89483   3.90888   3.91186   3.92643   3.92984
 Alpha virt. eigenvalues --    3.93890   3.94669   3.95572   3.96220   3.96505
 Alpha virt. eigenvalues --    3.97622   3.98460   3.98951   3.99519   4.01470
 Alpha virt. eigenvalues --    4.02345   4.02939   4.03360   4.05266   4.06251
 Alpha virt. eigenvalues --    4.06455   4.07838   4.08706   4.10137   4.10643
 Alpha virt. eigenvalues --    4.11693   4.13581   4.14730   4.15757   4.17215
 Alpha virt. eigenvalues --    4.18135   4.18625   4.19572   4.19897   4.22354
 Alpha virt. eigenvalues --    4.23389   4.24098   4.25091   4.26222   4.27345
 Alpha virt. eigenvalues --    4.28198   4.28344   4.30277   4.32665   4.33441
 Alpha virt. eigenvalues --    4.33798   4.34872   4.36493   4.37808   4.38730
 Alpha virt. eigenvalues --    4.40025   4.42150   4.44035   4.46135   4.47059
 Alpha virt. eigenvalues --    4.48173   4.50119   4.50407   4.52722   4.52784
 Alpha virt. eigenvalues --    4.53906   4.57054   4.57819   4.58885   4.59928
 Alpha virt. eigenvalues --    4.61786   4.62906   4.63422   4.66128   4.67393
 Alpha virt. eigenvalues --    4.69794   4.70737   4.72641   4.73621   4.75326
 Alpha virt. eigenvalues --    4.77791   4.79483   4.83154   4.84123   4.84813
 Alpha virt. eigenvalues --    4.85842   4.86351   4.88070   4.90487   4.92262
 Alpha virt. eigenvalues --    4.93348   4.94373   4.94866   4.96148   4.97814
 Alpha virt. eigenvalues --    4.98150   4.99614   5.00075   5.01038   5.02767
 Alpha virt. eigenvalues --    5.03457   5.03798   5.05015   5.05557   5.06122
 Alpha virt. eigenvalues --    5.07535   5.07987   5.08932   5.09098   5.11259
 Alpha virt. eigenvalues --    5.11794   5.12510   5.13273   5.14901   5.15994
 Alpha virt. eigenvalues --    5.17632   5.18430   5.18822   5.20153   5.21031
 Alpha virt. eigenvalues --    5.22183   5.22852   5.23406   5.23971   5.25386
 Alpha virt. eigenvalues --    5.26047   5.27766   5.28526   5.29498   5.31027
 Alpha virt. eigenvalues --    5.31380   5.33065   5.34401   5.35450   5.37857
 Alpha virt. eigenvalues --    5.39587   5.41620   5.43575   5.44864   5.45175
 Alpha virt. eigenvalues --    5.47581   5.48932   5.50060   5.50749   5.52474
 Alpha virt. eigenvalues --    5.53533   5.54837   5.55982   5.59387   5.60265
 Alpha virt. eigenvalues --    5.61277   5.64132   5.65764   5.66618   5.70295
 Alpha virt. eigenvalues --    5.71486   5.75659   5.76004   5.79050   5.80296
 Alpha virt. eigenvalues --    5.81588   5.83457   5.90104   5.90915   5.92343
 Alpha virt. eigenvalues --    5.94579   5.97042   5.99417   5.99723   6.07896
 Alpha virt. eigenvalues --    6.10743   6.12315   6.13435   6.21668   6.22342
 Alpha virt. eigenvalues --    6.24975   6.28287   6.29495   6.30706   6.33037
 Alpha virt. eigenvalues --    6.39174   6.41117   6.42088   6.44472   6.46295
 Alpha virt. eigenvalues --    6.48430   6.54300   6.56209   6.67286   6.72213
 Alpha virt. eigenvalues --    6.78879   6.88320   6.93068   6.93626   6.94870
 Alpha virt. eigenvalues --    6.97386   7.01981   7.08724   7.14367   7.15871
 Alpha virt. eigenvalues --    7.19867   7.22172   7.26035   7.27694   7.28941
 Alpha virt. eigenvalues --    7.34973   7.56334   7.59370   7.65090   7.65429
 Alpha virt. eigenvalues --    7.73587   7.75028   7.95896  24.54715  24.70323
 Alpha virt. eigenvalues --   24.79772  24.86030  25.02192  25.03976  25.07833
 Alpha virt. eigenvalues --   25.09588  25.11605  35.99418  36.23354  36.29366
 Alpha virt. eigenvalues --   36.43977  50.15754  50.19778  50.26014
          Condensed to atoms (all electrons):
               1          2          3          4          5          6
     1  O    8.185354   0.297677  -0.052365  -0.017316  -0.004279   0.000214
     2  C    0.297677   7.324357   0.104649  -0.399979  -0.017431   0.014790
     3  N   -0.052365   0.104649   6.581277  -0.298006   0.050087  -0.007648
     4  C   -0.017316  -0.399979  -0.298006  10.547310  -2.435600   0.191924
     5  C   -0.004279  -0.017431   0.050087  -2.435600   7.765968   0.050809
     6  O    0.000214   0.014790  -0.007648   0.191924   0.050809   7.828476
     7  O   -0.000295   0.016776  -0.009200  -0.034965   0.418140  -0.097784
     8  C    0.104923  -0.141905   0.254942  -1.641617   0.088048   0.086157
     9  C   -0.069811   0.214369  -0.136546   0.310610  -0.143937  -0.045246
    10  C   -0.040224  -0.051777   0.023852  -0.105049   0.137930  -0.048592
    11  N    0.001231  -0.000394  -0.001812   0.027826  -0.007570  -0.000225
    12  C   -0.003130   0.015022  -0.007500   0.104571  -0.046732   0.001185
    13  N    0.025455   0.036437  -0.000321  -0.013384  -0.037641   0.002949
    14  C    0.037080  -1.083754  -0.007775  -0.188936  -0.151773   0.002783
    15  C   -0.023895   0.105076   0.003295  -0.044050  -0.001765   0.000058
    16  N    0.000146  -0.017127  -0.002593   0.003023   0.000788   0.000000
    17  H    0.008851  -0.053663   0.338285  -0.005635   0.009716  -0.003307
    18  H    0.004852   0.004588  -0.035647   0.409655  -0.057420  -0.013345
    19  H   -0.000081  -0.002813   0.004944  -0.204477   0.188500   0.194487
    20  H    0.000807  -0.009365  -0.004461   0.112399  -0.107169   0.013304
    21  H   -0.009441   0.009666   0.037384  -0.219920   0.062398   0.002480
    22  H   -0.000202   0.002010   0.001168  -0.022375   0.004446  -0.002967
    23  H    0.000143   0.001987  -0.000113  -0.000235  -0.001020   0.000026
    24  H   -0.017231  -0.012626   0.000352  -0.016327   0.016289   0.000595
    25  H    0.002842  -0.089033  -0.000847  -0.005790  -0.001002   0.000168
    26  H    0.001046  -0.141128   0.018942   0.016752   0.003107  -0.000025
    27  H   -0.000586   0.014800   0.006438   0.013258  -0.001320   0.000038
    28  H    0.001994  -0.061084  -0.001816  -0.004472  -0.001633  -0.000028
    29  H    0.000172   0.007248   0.000303   0.000474   0.000113   0.000000
    30  H   -0.000320   0.022866  -0.000267   0.000544   0.000067   0.000001
               7          8          9         10         11         12
     1  O   -0.000295   0.104923  -0.069811  -0.040224   0.001231  -0.003130
     2  C    0.016776  -0.141905   0.214369  -0.051777  -0.000394   0.015022
     3  N   -0.009200   0.254942  -0.136546   0.023852  -0.001812  -0.007500
     4  C   -0.034965  -1.641617   0.310610  -0.105049   0.027826   0.104571
     5  C    0.418140   0.088048  -0.143937   0.137930  -0.007570  -0.046732
     6  O   -0.097784   0.086157  -0.045246  -0.048592  -0.000225   0.001185
     7  O    8.126629   0.001637  -0.045255  -0.001616  -0.000031  -0.000120
     8  C    0.001637  10.562412  -2.526982  -1.098735  -0.046389  -0.192068
     9  C   -0.045255  -2.526982   9.129733  -0.797142   0.003374  -0.087832
    10  C   -0.001616  -1.098735  -0.797142   7.718445   0.283736  -0.225212
    11  N   -0.000031  -0.046389   0.003374   0.283736   6.890717   0.257292
    12  C   -0.000120  -0.192068  -0.087832  -0.225212   0.257292   5.391030
    13  N    0.000419  -0.209602   0.211413  -0.071513   0.048138   0.298430
    14  C   -0.005394   0.078577   0.011766  -0.022946   0.000004  -0.002840
    15  C    0.000914   0.001306   0.012500   0.001733  -0.000059  -0.001107
    16  N   -0.000019  -0.000967   0.000775   0.000060   0.000001   0.000066
    17  H    0.026229   0.025299  -0.036068  -0.000681  -0.000148  -0.000269
    18  H   -0.004883  -0.072984  -0.000628   0.035645   0.001264  -0.014926
    19  H    0.019895   0.021280  -0.017853   0.004421  -0.000092  -0.000958
    20  H   -0.001287   0.312256   0.016815  -0.036838   0.001006   0.007351
    21  H   -0.001508   0.520500  -0.120603   0.003101  -0.000760  -0.003963
    22  H    0.000102  -0.072520  -0.104111   0.525360  -0.091796   0.036191
    23  H   -0.000008   0.002960   0.034336   0.010762  -0.080188   0.447449
    24  H    0.000082  -0.045782  -0.078403   0.034924   0.015316  -0.070853
    25  H   -0.002924  -0.010106   0.010546   0.001902   0.000019   0.000094
    26  H   -0.000098  -0.009035   0.005723   0.001174  -0.000034  -0.000218
    27  H    0.000166  -0.002267  -0.000766  -0.000604   0.000030   0.000113
    28  H   -0.000099   0.005791  -0.001837  -0.000293  -0.000024   0.000494
    29  H    0.000002  -0.000075   0.000123   0.000010   0.000000  -0.000003
    30  H    0.000005  -0.000020  -0.000043  -0.000007   0.000001  -0.000005
              13         14         15         16         17         18
     1  O    0.025455   0.037080  -0.023895   0.000146   0.008851   0.004852
     2  C    0.036437  -1.083754   0.105076  -0.017127  -0.053663   0.004588
     3  N   -0.000321  -0.007775   0.003295  -0.002593   0.338285  -0.035647
     4  C   -0.013384  -0.188936  -0.044050   0.003023  -0.005635   0.409655
     5  C   -0.037641  -0.151773  -0.001765   0.000788   0.009716  -0.057420
     6  O    0.002949   0.002783   0.000058   0.000000  -0.003307  -0.013345
     7  O    0.000419  -0.005394   0.000914  -0.000019   0.026229  -0.004883
     8  C   -0.209602   0.078577   0.001306  -0.000967   0.025299  -0.072984
     9  C    0.211413   0.011766   0.012500   0.000775  -0.036068  -0.000628
    10  C   -0.071513  -0.022946   0.001733   0.000060  -0.000681   0.035645
    11  N    0.048138   0.000004  -0.000059   0.000001  -0.000148   0.001264
    12  C    0.298430  -0.002840  -0.001107   0.000066  -0.000269  -0.014926
    13  N    6.480675   0.000616  -0.004285   0.000022   0.000627   0.005130
    14  C    0.000616   6.283091   0.118307  -0.000304  -0.003513  -0.006077
    15  C   -0.004285   0.118307   5.118300   0.246072  -0.004536   0.000971
    16  N    0.000022  -0.000304   0.246072   6.309473   0.002053  -0.000182
    17  H    0.000627  -0.003513  -0.004536   0.002053   0.561816   0.006342
    18  H    0.005130  -0.006077   0.000971  -0.000182   0.006342   0.646965
    19  H   -0.000111  -0.000945  -0.000001   0.000000   0.003345   0.002550
    20  H    0.005944   0.004398  -0.000989   0.000046  -0.002022  -0.003435
    21  H    0.009856  -0.008156  -0.000107  -0.000021  -0.001329   0.001714
    22  H    0.026705   0.000347   0.000042  -0.000001   0.000009   0.000119
    23  H   -0.076278  -0.000171   0.000051   0.000014  -0.000019  -0.000155
    24  H    0.417432   0.024760  -0.004374   0.000013  -0.001201   0.000530
    25  H   -0.000524   0.444256  -0.045255   0.003117  -0.007207  -0.000376
    26  H   -0.001338   0.427572  -0.012190  -0.013878  -0.000332   0.000416
    27  H    0.000529  -0.052397   0.392106  -0.061818  -0.001425   0.000405
    28  H    0.000754   0.029102   0.406450  -0.060054   0.001696  -0.000886
    29  H   -0.000022  -0.026891  -0.022236   0.383239  -0.000475   0.000012
    30  H    0.000024  -0.026203  -0.057221   0.378427  -0.000119  -0.000005
              19         20         21         22         23         24
     1  O   -0.000081   0.000807  -0.009441  -0.000202   0.000143  -0.017231
     2  C   -0.002813  -0.009365   0.009666   0.002010   0.001987  -0.012626
     3  N    0.004944  -0.004461   0.037384   0.001168  -0.000113   0.000352
     4  C   -0.204477   0.112399  -0.219920  -0.022375  -0.000235  -0.016327
     5  C    0.188500  -0.107169   0.062398   0.004446  -0.001020   0.016289
     6  O    0.194487   0.013304   0.002480  -0.002967   0.000026   0.000595
     7  O    0.019895  -0.001287  -0.001508   0.000102  -0.000008   0.000082
     8  C    0.021280   0.312256   0.520500  -0.072520   0.002960  -0.045782
     9  C   -0.017853   0.016815  -0.120603  -0.104111   0.034336  -0.078403
    10  C    0.004421  -0.036838   0.003101   0.525360   0.010762   0.034924
    11  N   -0.000092   0.001006  -0.000760  -0.091796  -0.080188   0.015316
    12  C   -0.000958   0.007351  -0.003963   0.036191   0.447449  -0.070853
    13  N   -0.000111   0.005944   0.009856   0.026705  -0.076278   0.417432
    14  C   -0.000945   0.004398  -0.008156   0.000347  -0.000171   0.024760
    15  C   -0.000001  -0.000989  -0.000107   0.000042   0.000051  -0.004374
    16  N    0.000000   0.000046  -0.000021  -0.000001   0.000014   0.000013
    17  H    0.003345  -0.002022  -0.001329   0.000009  -0.000019  -0.001201
    18  H    0.002550  -0.003435   0.001714   0.000119  -0.000155   0.000530
    19  H    0.557776  -0.010425   0.000875   0.000594  -0.000010   0.000143
    20  H   -0.010425   0.697667  -0.066754  -0.001379   0.000228  -0.002023
    21  H    0.000875  -0.066754   0.735276   0.002067  -0.000573   0.006265
    22  H    0.000594  -0.001379   0.002067   0.632170   0.000546   0.001453
    23  H   -0.000010   0.000228  -0.000573   0.000546   0.572983  -0.010007
    24  H    0.000143  -0.002023   0.006265   0.001453  -0.010007   0.440173
    25  H   -0.000124   0.000168   0.000226   0.000008  -0.000010   0.001143
    26  H    0.000001  -0.000280   0.000117   0.000025   0.000058   0.000141
    27  H   -0.000017   0.000159  -0.000201  -0.000009   0.000005  -0.000034
    28  H    0.000001   0.000003   0.000071  -0.000003   0.000037  -0.001389
    29  H    0.000000   0.000000   0.000006   0.000000   0.000002  -0.000093
    30  H    0.000000   0.000004   0.000021   0.000000  -0.000003   0.000049
              25         26         27         28         29         30
     1  O    0.002842   0.001046  -0.000586   0.001994   0.000172  -0.000320
     2  C   -0.089033  -0.141128   0.014800  -0.061084   0.007248   0.022866
     3  N   -0.000847   0.018942   0.006438  -0.001816   0.000303  -0.000267
     4  C   -0.005790   0.016752   0.013258  -0.004472   0.000474   0.000544
     5  C   -0.001002   0.003107  -0.001320  -0.001633   0.000113   0.000067
     6  O    0.000168  -0.000025   0.000038  -0.000028   0.000000   0.000001
     7  O   -0.002924  -0.000098   0.000166  -0.000099   0.000002   0.000005
     8  C   -0.010106  -0.009035  -0.002267   0.005791  -0.000075  -0.000020
     9  C    0.010546   0.005723  -0.000766  -0.001837   0.000123  -0.000043
    10  C    0.001902   0.001174  -0.000604  -0.000293   0.000010  -0.000007
    11  N    0.000019  -0.000034   0.000030  -0.000024   0.000000   0.000001
    12  C    0.000094  -0.000218   0.000113   0.000494  -0.000003  -0.000005
    13  N   -0.000524  -0.001338   0.000529   0.000754  -0.000022   0.000024
    14  C    0.444256   0.427572  -0.052397   0.029102  -0.026891  -0.026203
    15  C   -0.045255  -0.012190   0.392106   0.406450  -0.022236  -0.057221
    16  N    0.003117  -0.013878  -0.061818  -0.060054   0.383239   0.378427
    17  H   -0.007207  -0.000332  -0.001425   0.001696  -0.000475  -0.000119
    18  H   -0.000376   0.000416   0.000405  -0.000886   0.000012  -0.000005
    19  H   -0.000124   0.000001  -0.000017   0.000001   0.000000   0.000000
    20  H    0.000168  -0.000280   0.000159   0.000003   0.000000   0.000004
    21  H    0.000226   0.000117  -0.000201   0.000071   0.000006   0.000021
    22  H    0.000008   0.000025  -0.000009  -0.000003   0.000000   0.000000
    23  H   -0.000010   0.000058   0.000005   0.000037   0.000002  -0.000003
    24  H    0.001143   0.000141  -0.000034  -0.001389  -0.000093   0.000049
    25  H    0.691379  -0.051279  -0.014831   0.014511   0.003147  -0.001962
    26  H   -0.051279   0.720759   0.014532  -0.029422   0.001371   0.007573
    27  H   -0.014831   0.014532   0.714367  -0.065652  -0.008806   0.013072
    28  H    0.014511  -0.029422  -0.065652   0.714176  -0.000660  -0.010907
    29  H    0.003147   0.001371  -0.008806  -0.000660   0.606749  -0.049839
    30  H   -0.001962   0.007573   0.013072  -0.010907  -0.049839   0.621184
 Mulliken charges:
               1
     1  O   -0.433611
     2  C   -0.110237
     3  N    0.140998
     4  C   -0.080216
     5  C    0.219886
     6  O   -0.171275
     7  O   -0.405510
     8  C    0.004963
     9  C    0.250980
    10  C   -0.281828
    11  N   -0.300435
    12  C    0.098448
    13  N   -0.156535
    14  C    0.125417
    15  C   -0.185112
    16  N   -0.170370
    17  H    0.137682
    18  H    0.089790
    19  H    0.239093
    20  H    0.073869
    21  H    0.041312
    22  H    0.062001
    23  H    0.097203
    24  H    0.300682
    25  H    0.057745
    26  H    0.039947
    27  H    0.040719
    28  H    0.065179
    29  H    0.106127
    30  H    0.103086
 Sum of Mulliken charges =   0.00000
 Mulliken charges with hydrogens summed into heavy atoms:
               1
     1  O   -0.433611
     2  C   -0.110237
     3  N    0.278680
     4  C    0.009574
     5  C    0.219886
     6  O    0.067819
     7  O   -0.405510
     8  C    0.120144
     9  C    0.250980
    10  C   -0.219826
    11  N   -0.300435
    12  C    0.195651
    13  N    0.144147
    14  C    0.223109
    15  C   -0.079214
    16  N    0.038843
 Electronic spatial extent (au):  <R**2>=           4906.1889
 Charge=              0.0000 electrons
 Dipole moment (field-independent basis, Debye):
    X=             -3.6075    Y=             -1.0619    Z=              2.4784  Tot=              4.5038
 Quadrupole moment (field-independent basis, Debye-Ang):
   XX=           -106.2296   YY=            -93.3034   ZZ=            -98.4935
   XY=             -8.9747   XZ=             23.7285   YZ=              2.4854
 Traceless Quadrupole moment (field-independent basis, Debye-Ang):
   XX=             -6.8874   YY=              6.0387   ZZ=              0.8487
   XY=             -8.9747   XZ=             23.7285   YZ=              2.4854
 Octapole moment (field-independent basis, Debye-Ang**2):
  XXX=           -234.8585  YYY=            -10.6334  ZZZ=            -48.8935  XYY=            -50.4011
  XXY=            -24.9935  XXZ=             38.5732  XZZ=            -39.4926  YZZ=             -5.5723
  YYZ=              1.8985  XYZ=             -4.5958
 Hexadecapole moment (field-independent basis, Debye-Ang**3):
 XXXX=          -4637.1224 YYYY=           -533.8878 ZZZZ=          -1625.4258 XXXY=           -346.8564
 XXXZ=            766.4166 YYYX=           -244.2704 YYYZ=            292.1681 ZZZX=            233.8195
 ZZZY=            302.9839 XXYY=           -783.1335 XXZZ=          -1048.9479 YYZZ=           -352.0683
 XXYZ=            144.1256 YYXZ=            117.9324 ZZXY=           -150.0604
 N-N= 1.105623412881D+03 E-N=-4.071615711739D+03  KE= 7.929591486132D+02
 Calling FoFJK, ICntrl=      2127 FMM=F ISym2X=0 I1Cent= 0 IOpClX= 0 NMat=1 NMatS=1 NMatT=0.
 -------------------------------------------------------------------
 Center     Atomic                   Forces (Hartrees/Bohr)
 Number     Number              X              Y              Z
 -------------------------------------------------------------------
      1        8          -0.002104245   -0.000821545    0.009896434
      2        6           0.000744928    0.000239627   -0.003578814
      3        7          -0.000791446   -0.000159881   -0.002738328
      4        6          -0.000184222   -0.000626464    0.000862002
      5        6          -0.004845332   -0.000565784    0.005949905
      6        8          -0.003412884   -0.001066093    0.005249356
      7        8           0.008058769    0.001377144   -0.010191582
      8        6           0.001127204    0.000466211    0.000367066
      9        6           0.001721225    0.000865625   -0.002760669
     10        6          -0.000879722   -0.000163838    0.001948802
     11        7          -0.007936253   -0.001025383    0.001959471
     12        6           0.000973556    0.000163706   -0.000275902
     13        7           0.003598524    0.000423165    0.000749970
     14        6          -0.000125352    0.000588387   -0.000064199
     15        6           0.004498568   -0.001790400    0.000167832
     16        7          -0.001552753    0.001904345   -0.006734187
     17        1           0.000209238    0.000647149   -0.003077297
     18        1          -0.000310008    0.001569015    0.002509847
     19        1           0.000613197    0.001050440   -0.003292448
     20        1          -0.002099044   -0.000192072   -0.002073598
     21        1           0.001886191   -0.002162190   -0.000697844
     22        1          -0.002460449   -0.000364013   -0.001821769
     23        1           0.000745830    0.000172583    0.002844363
     24        1           0.002772965    0.000492761   -0.000693532
     25        1           0.001166225    0.000678646   -0.002502052
     26        1           0.000737466   -0.002539080    0.000079265
     27        1          -0.000614291    0.002726968   -0.000182185
     28        1          -0.002464072   -0.000657982    0.003258225
     29        1           0.001070308    0.001682713    0.002856933
     30        1          -0.000144122   -0.002913760    0.001984937
 -------------------------------------------------------------------
 Cartesian Forces:  Max     0.010191582 RMS     0.002811141

 GradGradGradGradGradGradGradGradGradGradGradGradGradGradGradGradGradGrad
 Berny optimization.
 FormGI is forming the generalized inverse of G from B-inverse, IUseBI=4.
 GSVD:  received Info=                   1 from GESDD.
 Internal  Forces:  Max     0.013044511 RMS     0.002038887
 Search for a local minimum.
 Step number   1 out of a maximum of  160
 All quantities printed in internal units (Hartrees-Bohrs-Radians)
 Mixed Optimization -- RFO/linear search
 Second derivative matrix not updated -- first step.
 ITU=  0
     Eigenvalues ---    0.00070   0.00107   0.00229   0.00241   0.00279
     Eigenvalues ---    0.00413   0.00511   0.00700   0.00890   0.01612
     Eigenvalues ---    0.02000   0.02136   0.02341   0.02896   0.03220
     Eigenvalues ---    0.03647   0.04067   0.04093   0.04354   0.04400
     Eigenvalues ---    0.04501   0.04704   0.05094   0.05285   0.05434
     Eigenvalues ---    0.05933   0.06149   0.06280   0.07563   0.08010
     Eigenvalues ---    0.08331   0.10586   0.10823   0.11159   0.11774
     Eigenvalues ---    0.11975   0.12771   0.13561   0.14883   0.15007
     Eigenvalues ---    0.16183   0.16791   0.17542   0.18203   0.18929
     Eigenvalues ---    0.19636   0.22068   0.22149   0.22942   0.23067
     Eigenvalues ---    0.23702   0.24650   0.24765   0.25672   0.28315
     Eigenvalues ---    0.30424   0.31783   0.32397   0.32917   0.33098
     Eigenvalues ---    0.33412   0.33679   0.34100   0.34389   0.35065
     Eigenvalues ---    0.35489   0.36821   0.37159   0.37378   0.37770
     Eigenvalues ---    0.40871   0.43312   0.43643   0.44271   0.44880
     Eigenvalues ---    0.45183   0.46276   0.46690   0.47399   0.51309
     Eigenvalues ---    0.57234   0.73099   0.79571   0.87636
 RFO step:  Lambda=-1.50746316D-03 EMin= 7.00937897D-04
 Linear search not attempted -- first point.
 Iteration  1 RMS(Cart)=  0.03307467 RMS(Int)=  0.00044844
 Iteration  2 RMS(Cart)=  0.00059085 RMS(Int)=  0.00009362
 Iteration  3 RMS(Cart)=  0.00000025 RMS(Int)=  0.00009362
 Variable       Old X    -DE/DX   Delta X   Delta X   Delta X     New X
                                 (Linear)    (Quad)   (Total)
    R1        2.33591  -0.01005   0.00000  -0.01215  -0.01215   2.32376
    R2        2.56270  -0.00494   0.00000  -0.00648  -0.00648   2.55622
    R3        2.87243  -0.00277   0.00000  -0.00883  -0.00883   2.86360
    R4        2.74441  -0.00075   0.00000  -0.00488  -0.00488   2.73953
    R5        1.91373  -0.00298   0.00000  -0.00700  -0.00700   1.90673
    R6        2.87389  -0.00216   0.00000  -0.00780  -0.00780   2.86610
    R7        2.98222  -0.00133   0.00000  -0.00543  -0.00543   2.97679
    R8        2.06920  -0.00296   0.00000  -0.00852  -0.00852   2.06068
    R9        2.53960  -0.00276   0.00000  -0.00406  -0.00406   2.53554
   R10        2.29376  -0.01304   0.00000  -0.01485  -0.01485   2.27891
   R11        1.83768  -0.00320   0.00000  -0.00741  -0.00741   1.83027
   R12        2.82139  -0.00239   0.00000  -0.00786  -0.00786   2.81353
   R13        2.06607  -0.00296   0.00000  -0.00826  -0.00826   2.05780
   R14        2.07193  -0.00292   0.00000  -0.00861  -0.00861   2.06332
   R15        2.60213  -0.00576   0.00000  -0.00964  -0.00964   2.59250
   R16        2.60956  -0.00281   0.00000  -0.00746  -0.00746   2.60210
   R17        2.60059  -0.00273   0.00000  -0.00523  -0.00523   2.59536
   R18        2.04484  -0.00308   0.00000  -0.00841  -0.00841   2.03643
   R19        2.49215  -0.00589   0.00000  -0.01050  -0.01050   2.48166
   R20        2.57516  -0.00447   0.00000  -0.00662  -0.00662   2.56854
   R21        2.04382  -0.00294   0.00000  -0.00781  -0.00781   2.03601
   R22        1.92666  -0.00276   0.00000  -0.00842  -0.00842   1.91823
   R23        2.90015  -0.00180   0.00000  -0.00697  -0.00697   2.89319
   R24        2.06816  -0.00278   0.00000  -0.00797  -0.00797   2.06019
   R25        2.07599  -0.00263   0.00000  -0.00821  -0.00821   2.06778
   R26        2.76993   0.00029   0.00000  -0.00280  -0.00280   2.76713
   R27        2.07201  -0.00280   0.00000  -0.00845  -0.00845   2.06356
   R28        2.07838  -0.00386   0.00000  -0.01101  -0.01101   2.06737
   R29        1.92188  -0.00321   0.00000  -0.00971  -0.00971   1.91217
   R30        1.92457  -0.00319   0.00000  -0.00973  -0.00973   1.91484
    A1        2.14058  -0.00200   0.00000  -0.00752  -0.00752   2.13306
    A2        2.11955   0.00130   0.00000   0.00558   0.00558   2.12513
    A3        2.02302   0.00070   0.00000   0.00192   0.00192   2.02494
    A4        2.15110   0.00130   0.00000   0.00015  -0.00002   2.15108
    A5        2.10677  -0.00163   0.00000  -0.00492  -0.00510   2.10166
    A6        2.01759   0.00035   0.00000   0.00879   0.00862   2.02621
    A7        1.86253   0.00063   0.00000   0.00738   0.00738   1.86991
    A8        1.98700   0.00010   0.00000  -0.00050  -0.00050   1.98650
    A9        1.90573  -0.00015   0.00000  -0.00075  -0.00075   1.90498
   A10        1.93588  -0.00060   0.00000  -0.00198  -0.00198   1.93389
   A11        1.88299  -0.00030   0.00000  -0.00347  -0.00348   1.87951
   A12        1.88714   0.00028   0.00000  -0.00085  -0.00086   1.88629
   A13        1.94989   0.00108   0.00000  -0.00103  -0.00103   1.94886
   A14        2.17692   0.00028   0.00000   0.00205   0.00205   2.17897
   A15        2.15625  -0.00136   0.00000  -0.00102  -0.00102   2.15523
   A16        1.86651   0.00265   0.00000   0.01707   0.01707   1.88358
   A17        1.99460   0.00202   0.00000   0.00695   0.00695   2.00155
   A18        1.92105  -0.00071   0.00000  -0.00038  -0.00039   1.92066
   A19        1.85730  -0.00028   0.00000   0.00036   0.00037   1.85767
   A20        1.88203  -0.00066   0.00000  -0.00026  -0.00028   1.88176
   A21        1.94326  -0.00075   0.00000  -0.00591  -0.00591   1.93735
   A22        1.86145   0.00028   0.00000  -0.00128  -0.00129   1.86016
   A23        2.31339  -0.00156   0.00000  -0.00597  -0.00597   2.30742
   A24        2.13913   0.00161   0.00000   0.00474   0.00474   2.14387
   A25        1.83049  -0.00006   0.00000   0.00122   0.00122   1.83171
   A26        1.93764  -0.00129   0.00000  -0.00486  -0.00486   1.93278
   A27        2.22511   0.00053   0.00000   0.00201   0.00201   2.22712
   A28        2.12043   0.00076   0.00000   0.00285   0.00285   2.12328
   A29        1.82914   0.00204   0.00000   0.00665   0.00665   1.83579
   A30        1.95815  -0.00155   0.00000  -0.00575  -0.00575   1.95240
   A31        2.19154   0.00072   0.00000   0.00278   0.00278   2.19431
   A32        2.13349   0.00083   0.00000   0.00297   0.00297   2.13647
   A33        1.86934   0.00086   0.00000   0.00274   0.00274   1.87207
   A34        2.15244   0.00043   0.00000   0.00474   0.00474   2.15718
   A35        2.25996  -0.00129   0.00000  -0.00735  -0.00735   2.25261
   A36        1.95421   0.00132   0.00000   0.00573   0.00574   1.95995
   A37        1.95432  -0.00085   0.00000  -0.00459  -0.00459   1.94973
   A38        1.86767  -0.00046   0.00000  -0.00339  -0.00339   1.86428
   A39        1.91430  -0.00016   0.00000  -0.00117  -0.00116   1.91314
   A40        1.90288  -0.00014   0.00000   0.00109   0.00109   1.90397
   A41        1.86721   0.00025   0.00000   0.00228   0.00227   1.86948
   A42        1.91413   0.00047   0.00000   0.00155   0.00156   1.91569
   A43        1.90233  -0.00018   0.00000   0.00254   0.00253   1.90486
   A44        1.89053   0.00078   0.00000   0.00708   0.00708   1.89760
   A45        1.88187   0.00003   0.00000  -0.00168  -0.00169   1.88018
   A46        2.00858  -0.00131   0.00000  -0.01316  -0.01316   1.99542
   A47        1.86374   0.00022   0.00000   0.00429   0.00425   1.86799
   A48        1.91363   0.00170   0.00000   0.02096   0.02056   1.93419
   A49        1.91416   0.00208   0.00000   0.02244   0.02204   1.93621
   A50        1.84873  -0.00063   0.00000   0.01696   0.01618   1.86491
    D1       -0.05310   0.00013   0.00000   0.01602   0.01595  -0.03715
    D2       -3.05544  -0.00006   0.00000  -0.02068  -0.02060  -3.07604
    D3        3.09715   0.00031   0.00000   0.01807   0.01799   3.11514
    D4        0.09482   0.00012   0.00000  -0.01863  -0.01856   0.07626
    D5        0.80914   0.00029   0.00000   0.04985   0.04985   0.85899
    D6        2.96754   0.00043   0.00000   0.04917   0.04917   3.01671
    D7       -1.27492  -0.00001   0.00000   0.04736   0.04736  -1.22755
    D8       -2.34101   0.00009   0.00000   0.04776   0.04776  -2.29325
    D9       -0.18261   0.00023   0.00000   0.04709   0.04708  -0.13553
   D10        1.85812  -0.00021   0.00000   0.04527   0.04527   1.90339
   D11       -2.79706  -0.00004   0.00000  -0.02639  -0.02645  -2.82351
   D12        1.34451   0.00020   0.00000  -0.02887  -0.02893   1.31559
   D13       -0.76612  -0.00013   0.00000  -0.02689  -0.02695  -0.79307
   D14        0.21181  -0.00002   0.00000   0.00761   0.00767   0.21947
   D15       -1.92980   0.00022   0.00000   0.00514   0.00519  -1.92461
   D16        2.24275  -0.00010   0.00000   0.00711   0.00717   2.24992
   D17        2.99263  -0.00025   0.00000  -0.02658  -0.02658   2.96605
   D18       -0.16583  -0.00017   0.00000  -0.02648  -0.02648  -0.19232
   D19       -1.11727  -0.00007   0.00000  -0.02349  -0.02350  -1.14076
   D20        2.00745   0.00001   0.00000  -0.02340  -0.02340   1.98406
   D21        0.94659  -0.00025   0.00000  -0.02777  -0.02776   0.91883
   D22       -2.21188  -0.00017   0.00000  -0.02767  -0.02766  -2.23954
   D23       -2.03478  -0.00007   0.00000  -0.01578  -0.01578  -2.05057
   D24        2.12784  -0.00010   0.00000  -0.02005  -0.02005   2.10779
   D25        0.11732   0.00008   0.00000  -0.01854  -0.01854   0.09877
   D26        2.14753  -0.00052   0.00000  -0.02356  -0.02356   2.12397
   D27        0.02697  -0.00055   0.00000  -0.02783  -0.02783  -0.00086
   D28       -1.98356  -0.00037   0.00000  -0.02632  -0.02632  -2.00987
   D29        0.08620   0.00001   0.00000  -0.01768  -0.01768   0.06852
   D30       -2.03436  -0.00002   0.00000  -0.02195  -0.02195  -2.05631
   D31        2.23830   0.00016   0.00000  -0.02044  -0.02044   2.21786
   D32        3.11508   0.00010   0.00000  -0.00181  -0.00181   3.11327
   D33       -0.00988   0.00000   0.00000  -0.00194  -0.00194  -0.01182
   D34       -2.18035   0.00028   0.00000   0.02310   0.02309  -2.15726
   D35        0.98471   0.00032   0.00000   0.02368   0.02367   1.00838
   D36       -0.03844   0.00024   0.00000   0.02708   0.02708  -0.01136
   D37        3.12662   0.00027   0.00000   0.02766   0.02766  -3.12890
   D38        1.99788  -0.00023   0.00000   0.02208   0.02209   2.01997
   D39       -1.12024  -0.00020   0.00000   0.02266   0.02267  -1.09757
   D40       -3.12103   0.00001   0.00000   0.00114   0.00114  -3.11990
   D41        0.01825   0.00001   0.00000   0.00074   0.00074   0.01899
   D42        0.00009   0.00000   0.00000   0.00069   0.00069   0.00078
   D43        3.13938   0.00001   0.00000   0.00029   0.00029   3.13967
   D44        3.12708  -0.00006   0.00000  -0.00142  -0.00143   3.12565
   D45       -0.06734  -0.00005   0.00000   0.00074   0.00075  -0.06659
   D46        0.00337  -0.00001   0.00000  -0.00088  -0.00088   0.00250
   D47        3.09214   0.00000   0.00000   0.00129   0.00130   3.09344
   D48       -0.00360   0.00001   0.00000  -0.00023  -0.00023  -0.00383
   D49        3.14014   0.00000   0.00000   0.00014   0.00014   3.14028
   D50        0.00588  -0.00002   0.00000  -0.00038  -0.00037   0.00550
   D51       -3.13405  -0.00003   0.00000  -0.00062  -0.00062  -3.13467
   D52       -0.00601   0.00003   0.00000   0.00083   0.00083  -0.00518
   D53       -3.09040  -0.00006   0.00000  -0.00204  -0.00203  -3.09243
   D54        3.13398   0.00004   0.00000   0.00107   0.00106   3.13504
   D55        0.04958  -0.00006   0.00000  -0.00180  -0.00179   0.04779
   D56       -3.11005   0.00018   0.00000   0.00143   0.00143  -3.10862
   D57        1.11663  -0.00002   0.00000   0.00108   0.00109   1.11772
   D58       -0.90497  -0.00061   0.00000  -0.00921  -0.00922  -0.91419
   D59        0.99241   0.00045   0.00000   0.00412   0.00413   0.99654
   D60       -1.06409   0.00025   0.00000   0.00378   0.00378  -1.06031
   D61       -3.08569  -0.00034   0.00000  -0.00651  -0.00652  -3.09221
   D62       -1.04682   0.00033   0.00000   0.00142   0.00143  -1.04540
   D63       -3.10333   0.00012   0.00000   0.00107   0.00108  -3.10224
   D64        1.15826  -0.00047   0.00000  -0.00921  -0.00922   1.14904
   D65       -3.01193   0.00082   0.00000   0.02890   0.02911  -2.98281
   D66        1.24821  -0.00058   0.00000  -0.01631  -0.01652   1.23169
   D67       -0.94271   0.00089   0.00000   0.03184   0.03204  -0.91068
   D68       -2.96577  -0.00051   0.00000  -0.01337  -0.01359  -2.97936
   D69        1.13491   0.00038   0.00000   0.02783   0.02805   1.16296
   D70       -0.88814  -0.00102   0.00000  -0.01738  -0.01758  -0.90572
         Item               Value     Threshold  Converged?
 Maximum Force            0.013045     0.000450     NO 
 RMS     Force            0.002039     0.000300     NO 
 Maximum Displacement     0.137673     0.001800     NO 
 RMS     Displacement     0.033110     0.001200     NO 
 Predicted change in Energy=-7.820166D-04
 GradGradGradGradGradGradGradGradGradGradGradGradGradGradGradGradGradGrad

                          Input orientation:                          
 ---------------------------------------------------------------------
 Center     Atomic      Atomic             Coordinates (Angstroms)
 Number     Number       Type             X           Y           Z
 ---------------------------------------------------------------------
      1          8           0       -0.833456    0.151935   -1.011525
      2          6           0       -1.270233    0.034400    0.131948
      3          7           0       -0.471185   -0.263183    1.182068
      4          6           0        0.950974   -0.513017    1.052956
      5          6           0        1.393293   -1.237909    2.309612
      6          8           0        2.645544   -1.706250    2.196428
      7          8           0        0.721009   -1.369170    3.302142
      8          6           0        1.807775    0.789463    0.827458
      9          6           0        2.536630    0.837268   -0.469917
     10          6           0        3.864795    0.994101   -0.775636
     11          7           0        4.053355    0.999861   -2.136023
     12          6           0        2.855034    0.843575   -2.650018
     13          7           0        1.900464    0.744001   -1.687555
     14          6           0       -2.739172    0.229774    0.448724
     15          6           0       -3.647444   -0.560908   -0.496713
     16          7           0       -5.050503   -0.297495   -0.170809
     17          1           0       -0.865904   -0.408884    2.099153
     18          1           0        1.121544   -1.180741    0.207875
     19          1           0        2.880546   -2.133894    3.033061
     20          1           0        2.540766    0.896887    1.625567
     21          1           0        1.119612    1.631988    0.920981
     22          1           0        4.688783    1.104698   -0.089995
     23          1           0        2.622760    0.794745   -3.700961
     24          1           0        0.903772    0.580898   -1.789535
     25          1           0       -2.967596   -0.034155    1.481540
     26          1           0       -2.948046    1.297903    0.335598
     27          1           0       -3.468179   -1.628804   -0.355645
     28          1           0       -3.372149   -0.323403   -1.528533
     29          1           0       -5.661751   -0.920634   -0.682633
     30          1           0       -5.311015    0.647088   -0.428972
 ---------------------------------------------------------------------
                    Distance matrix (angstroms):
                    1          2          3          4          5
     1  O    0.000000
     2  C    1.229683   0.000000
     3  N    2.261728   1.352695   0.000000
     4  C    2.808636   2.466107   1.449698   0.000000
     5  C    4.233205   3.668155   2.386990   1.516672   0.000000
     6  O    5.084020   4.756601   3.581253   2.367045   1.341748
     7  O    4.830926   3.998148   2.671937   2.417585   1.205948
     8  C    3.280915   3.244686   2.535246   1.575250   2.545350
     9  C    3.481452   3.936883   3.603748   2.580062   3.652308
    10  C    4.778959   5.302193   4.920782   3.755730   4.539707
    11  N    5.085706   5.866550   5.751215   4.699272   5.643333
    12  C    4.094873   5.041025   5.193604   4.379247   5.573794
    13  N    2.877825   3.723902   3.856666   3.161017   4.490270
    14  C    2.402112   1.515354   2.434043   3.812350   4.763849
    15  C    2.948170   2.529968   3.604936   4.852754   5.808857
    16  N    4.323456   3.806869   4.775103   6.128767   6.968455
    17  H    3.160995   2.056667   1.008998   2.099146   2.415687
    18  H    2.661764   2.683827   2.080324   1.090463   2.120003
    19  H    5.947899   5.508804   4.261436   3.204887   1.880981
    20  H    4.346790   4.183121   3.257960   2.200717   2.518326
    21  H    3.120835   2.980976   2.488067   2.155668   3.199922
    22  H    5.679094   6.058438   5.487670   4.230196   4.701721
    23  H    4.426251   5.515860   5.876706   5.206231   6.462991
    24  H    1.951223   2.952467   3.381332   3.046085   4.511174
    25  H    3.287029   2.169594   2.524719   3.970918   4.599139
    26  H    2.756714   2.110205   3.047678   4.358485   5.401323
    27  H    3.246994   2.799099   3.634756   4.770539   5.557904
    28  H    2.634047   2.702457   3.970715   5.038793   6.186850
    29  H    4.956915   4.567391   5.554397   6.848836   7.669931
    30  H    4.542365   4.125280   5.181505   6.538689   7.483368
                    6          7          8          9         10
     6  O    0.000000
     7  O    2.245009   0.000000
     8  C    2.967241   3.459019   0.000000
     9  C    3.686562   4.732153   1.488858   0.000000
    10  C    4.196621   5.665396   2.615935   1.371890   0.000000
    11  N    5.298594   6.803710   3.724126   2.258938   1.373405
    12  C    5.480285   6.699142   3.632150   2.203239   2.134382
    13  N    4.652332   5.545600   2.517131   1.376971   2.180079
    14  C    5.983129   4.761457   4.596892   5.389531   6.759855
    15  C    6.940211   5.845338   5.773763   6.340220   7.676561
    16  N    8.174200   6.820574   7.015269   7.677353   9.028653
    17  H    3.744715   2.210797   3.194026   4.441875   5.710717
    18  H    2.559898   3.125767   2.176349   2.556214   3.636297
    19  H    0.968535   2.306687   3.815958   4.606184   5.025860
    20  H    2.667056   3.355210   1.088942   2.096337   2.743771
    21  H    3.885752   3.851722   1.091863   2.138719   3.289596
    22  H    4.159806   5.776664   3.039951   2.201731   1.077632
    23  H    6.405832   7.572492   4.601174   3.232471   3.184324
    24  H    4.914541   5.455396   2.776576   2.115028   3.156958
    25  H    5.900366   4.324658   4.889820   5.904581   7.268681
    26  H    6.616334   5.419928   4.808146   5.562617   6.909554
    27  H    6.625457   5.567415   5.923127   6.492480   7.799264
    28  H    7.211119   6.417398   5.798343   6.114042   7.394325
    29  H    8.827080   7.537854   7.810162   8.387427   9.717507
    30  H    8.702744   7.373725   7.230218   7.850056   9.188911
                   11         12         13         14         15
    11  N    0.000000
    12  C    1.313237   0.000000
    13  N    2.213940   1.359211   0.000000
    14  C    7.308377   6.424492   5.133648   0.000000
    15  C    8.026559   6.992247   5.822385   1.531009   0.000000
    16  N    9.403480   8.363374   7.190353   2.450324   1.464300
    17  H    6.642318   6.161871   4.829191   2.577001   3.807703
    18  H    4.341014   3.907735   2.811405   4.117364   4.860441
    19  H    6.157543   6.415868   5.614896   6.621703   7.586056
    20  H    4.055625   4.287451   3.377890   5.450481   6.702476
    21  H    4.283889   4.047878   2.864038   4.132728   5.435391
    22  H    2.144991   3.159832   3.233732   7.498682   8.510720
    23  H    2.130189   1.077412   2.139647   6.803631   7.170806
    24  H    3.196163   2.148686   1.015084   4.290004   4.867102
    25  H    7.965533   7.193275   5.860606   1.090204   2.157116
    26  H    7.430838   6.541869   5.282802   1.094223   2.153387
[...]
 025831,0.00055934,-0.00052563,-0.00012822,-0.00007427,-0.00010334,0.00
 017927,0.00000404,-0.00001124,-0.00003042,0.00004143,0.00002119,0.0000
 9484,-0.00064190,0.00055417,0.00002961,0.00002730,0.00002441,0.0000068
 4,-0.00028756,0.00009444,0.00023788,-0.00015273,-0.00052403,-0.0000290
 7,0.00174799,-0.00000173,0.00017961,-0.00136356,-0.00001855,0.05062403
 ,0.02803823,-0.00435013,-0.00222507,0.00237858,0.00087846,0.00110342,-
 0.00627139,0.00109896,-0.00041634,0.00147487,-0.00016972,0.00040418,-0
 .00062298,-0.00064861,0.00063678,-0.00037311,0.00051490,-0.00030053,0.
 00017074,0.00026760,-0.00028036,0.00029464,0.00015721,-0.00012208,0.00
 086557,-0.02832627,-0.00366220,0.00836018,-0.00452954,-0.00031499,-0.0
 0721603,0.00651739,0.00038232,-0.00390759,0.01833585,0.00264197,0.0153
 3150,-0.04268480,-0.00618661,-0.08142995,-0.00028733,0.00019412,0.0005
 8745,0.00028075,0.00018368,0.00033630,-0.00024809,-0.00009926,-0.00007
 098,0.00009698,-0.00004161,-0.00015069,-0.00001745,0.00043822,-0.00022
 220,-0.00004554,0.00001848,-0.00001815,0.00015098,-0.00006257,0.000245
 00,0.00022003,-0.00033335,-0.00056608,-0.00121526,-0.00004907,0.000767
 15,-0.00059509,-0.00009049,-0.00043879,0.05496368,0.00813764,0.0703156
 6,-0.00909928,0.00151520,0.00343109,0.00050066,-0.00767938,0.03182688,
 0.00046493,0.00007795,-0.00137197,0.00032380,-0.00007955,-0.00003912,-
 0.00018146,0.00002004,0.00016065,0.00015960,-0.00006597,-0.00001226,0.
 00017964,-0.00000674,-0.00014460,0.00003333,-0.00002625,0.00003132,0.0
 0012695,0.00002953,0.00020492,-0.00008753,-0.00000373,0.00002694,-0.00
 018109,-0.00001094,-0.00006497,0.00015889,-0.00000463,-0.00023189,-0.0
 0042071,-0.00011657,0.00016619,-0.06036661,-0.00639828,0.04807200,0.00
 307289,0.00291855,-0.02022919,0.00162862,0.00058921,0.00056443,-0.0020
 0011,0.00063011,-0.00042831,0.00016457,-0.00006349,0.00006872,-0.00001
 457,0.00000270,-0.00000146,-0.00000516,0.00001938,-0.00002122,0.000014
 36,0.00001774,0.00002031,-0.00001580,-0.00000175,-0.00000080,-0.000001
 03,0.00000128,0.00000148,0.00062400,0.00023852,-0.00027201,0.06540860,
 0.00115348,0.00237935,-0.00068164,0.00082946,-0.00246789,-0.00507182,-
 0.00016546,-0.00028265,-0.00027155,-0.00008846,-0.00004588,-0.00018739
 ,0.00003571,-0.00001249,0.00003152,-0.00004560,0.00002831,-0.00001793,
 -0.00006091,-0.00005194,-0.00003501,-0.00003314,0.00004198,-0.00000363
 ,0.00000002,-0.00002391,-0.00000410,0.00000163,-0.00000160,0.00000252,
 -0.00000436,0.00000250,0.00000207,0.00001565,0.00000222,0.00000226,0.0
 0003685,0.00000071,-0.00002485,-0.00813813,-0.05637419,0.04578463,0.00
 319856,0.00265960,-0.02138166,0.00119782,0.00039738,0.00114809,0.00041
 135,0.00075266,0.00005330,0.00004957,-0.00000783,-0.00000960,0.0000060
 8,0.00000677,0.00000645,-0.00002031,-0.00000066,0.00000123,0.00000095,
 -0.00000420,0.00002324,-0.00000020,0.00000125,-0.00000060,0.00000108,-
 0.00000106,-0.00000132,-0.00003801,0.00000805,0.00002986,0.00974840,0.
 05809545,0.00181326,-0.00017077,0.00167235,-0.00258842,0.00144113,-0.0
 0739691,-0.00153816,0.00011893,0.00079711,0.00042355,-0.00030611,0.000
 51257,0.00026447,0.00001256,-0.00020477,-0.00011044,0.00002961,0.00004
 405,-0.00015246,-0.00001865,0.00012474,-0.00004943,0.00004060,-0.00000
 570,-0.00006412,-0.00003353,-0.00008937,0.00005467,-0.00000045,-0.0000
 0824,0.00007560,0.00001025,0.00005611,-0.00009234,-0.00000745,0.000101
 21,0.00011875,0.00002243,-0.00008130,0.05167443,0.04438631,-0.28999880
 ,0.00356906,0.00215830,-0.02051156,0.00060921,0.00095776,0.00228578,0.
 00023695,-0.00017342,0.00124111,-0.00011993,0.00005963,0.00004855,0.00
 002106,-0.00000751,0.00000051,0.00000460,-0.00001526,0.00001348,-0.000
 00543,-0.00000687,-0.00001314,0.00000925,0.00000043,0.00000134,-0.0000
 0453,-0.00000110,0.00000452,-0.00023678,-0.00005645,0.00007930,-0.0529
 8510,-0.04664782,0.31676365,0.00108702,-0.00374627,-0.00053388,-0.0090
 9195,0.03506209,-0.00778672,-0.00400822,-0.00108188,0.00085477,-0.0005
 3531,-0.00137634,-0.00087827,0.00000855,-0.00027939,0.00029377,-0.0001
 3513,0.00013752,-0.00010111,-0.00004114,0.00006791,-0.00016573,-0.0003
 6005,0.00034211,-0.00011727,-0.00003782,-0.00007890,-0.00006250,0.0000
 2265,-0.00002088,0.00000851,-0.00001555,0.00000952,0.00004926,-0.00003
 311,0.00000364,0.00000921,-0.00002627,-0.00001493,0.00003921,-0.056772
 74,0.05597028,-0.00820861,0.00286482,-0.02074248,0.00353093,0.00213941
 ,-0.00005072,0.00059258,-0.00004728,0.00059997,0.00047902,0.00012904,-
 0.00001194,0.00002410,0.00000125,0.00001463,0.00001101,-0.00008241,-0.
 00011244,0.00003066,-0.00002053,0.00000344,-0.00000375,0.00000275,0.00
 000334,-0.00000125,-0.00000345,0.00000241,0.00000599,0.00006282,0.0000
 1103,-0.00007887,0.00139823,-0.00658844,0.00097853,0.06494927,-0.00042
 546,0.00171233,-0.00046122,0.00170610,-0.00516363,0.00269528,0.0008195
 5,0.00008075,-0.00086917,-0.00016619,0.00000876,0.00009688,-0.00003497
 ,0.00001408,-0.00002336,0.00006293,-0.00002687,0.00002597,0.00005371,0
 .00000789,0.00000073,0.00005418,-0.00004753,0.00002895,0.00002578,0.00
 001767,0.00005134,-0.00001753,0.00000492,-0.00000523,-0.00001134,0.000
 00076,-0.00002192,0.00002751,0.00000252,-0.00002250,-0.00001915,0.0000
 1090,-0.00000362,0.05421823,-0.27696579,0.05152764,0.00255232,-0.02280
 934,0.00253513,0.00113053,0.00236790,0.00032345,-0.00018698,-0.0000093
 5,-0.00019601,0.00001550,-0.00002350,-0.00001129,-0.00000632,-0.000004
 68,-0.00000453,0.00002792,0.00001088,-0.00001696,0.00001498,-0.0000223
 6,-0.00000057,-0.00000266,-0.00000311,0.00000036,0.00000236,-0.0000039
 2,-0.00000239,0.00006030,-0.00001261,0.00000262,0.00078884,-0.00434401
 ,0.00128851,-0.05728498,0.30461635,0.00084412,0.00104966,-0.00034569,-
 0.00019843,-0.00648951,0.00003434,-0.00049593,0.00003414,0.00009963,-0
 .00003639,-0.00036367,0.00006487,0.00013196,0.00000879,-0.00005490,-0.
 00006946,0.00002380,0.00000610,-0.00010017,-0.00002233,0.00002516,-0.0
 0009061,0.00011314,0.00002274,-0.00003169,-0.00004301,-0.00002091,0.00
 001387,-0.00000883,0.00000095,0.00001069,0.00001015,0.00000718,-0.0000
 1038,-0.00000205,0.00002933,0.00003096,0.00000105,-0.00003427,-0.00849
 866,0.05222148,-0.05758198,0.00246390,-0.02161448,0.00307938,0.0016631
 2,0.00085829,0.00022513,0.00048459,0.00042274,0.00045489,0.00001930,0.
 00001079,0.00003518,0.00000840,0.00000102,0.00000285,-0.00001438,-0.00
 001283,0.00000792,0.00000055,-0.00001358,0.00001193,0.00000067,0.00000
 048,-0.00000093,0.00000311,-0.00000270,-0.00000252,-0.00007991,-0.0000
 0499,0.00006152,-0.00772529,0.02938385,-0.00581439,0.01340200,-0.05382
 409,0.05972656,-0.00042768,0.00045526,0.00040442,0.00200547,-0.0010442
 5,0.00009009,-0.00006436,0.00033277,-0.00010861,-0.00005247,-0.0000377
 1,-0.00004190,-0.00002953,-0.00000734,-0.00001910,0.00000733,0.0000037
 0,0.00000615,0.00001291,0.00001067,0.00001700,0.00001215,-0.00002352,0
 .00000156,0.00000485,0.00000974,0.00000619,-0.00000292,0.00000219,-0.0
 0000078,-0.00000294,0.00000208,-0.00000197,0.00000108,0.00000092,-0.00
 000410,-0.00001137,0.00000494,0.00000666,0.00232887,-0.02000301,0.0044
 3567,-0.05467835,0.03521412,-0.00835947,-0.01383735,0.03736874,-0.0059
 9223,0.00000092,-0.00010399,-0.00006422,-0.00001879,-0.00001758,0.0000
 0990,-0.00000448,-0.00000165,-0.00000405,0.00000477,0.00000421,-0.0000
 0180,0.00000470,0.00000314,0.00000214,-0.00000009,-0.00000139,0.000000
 07,0.00000022,-0.00000246,0.00000029,0.00001979,-0.00001730,-0.0000087
 7,0.00056309,0.00094241,0.00032640,-0.00224186,-0.00255369,-0.00269919
 ,0.06952687,-0.00091438,0.00032655,0.00047049,0.00192787,-0.00068050,-
 0.00019759,-0.00074330,0.00058617,-0.00028315,-0.00003048,-0.00011446,
 -0.00013366,-0.00007477,-0.00007386,0.00010569,0.00000668,0.00003143,-
 0.00002718,0.00004832,0.00007442,-0.00005421,-0.00001866,-0.00001478,-
 0.00000664,0.00001356,0.00000937,0.00001469,-0.00000844,0.00000358,0.0
 0000223,-0.00002108,0.00000595,-0.00000166,0.00001529,0.00000156,-0.00
 002006,-0.00004233,0.00001581,0.00002050,0.00012520,-0.01868488,0.0033
 9606,0.04220971,-0.28089691,0.05738677,0.00410304,-0.00525774,0.000336
 34,-0.00004521,-0.00019963,-0.00001963,-0.00003748,-0.00002372,0.00002
 398,-0.00001589,-0.00000990,-0.00000688,-0.00000684,-0.00000245,-0.000
 00111,0.00000552,0.00001725,0.00000484,-0.00000106,-0.00000428,-0.0000
 0044,0.00000091,-0.00000706,0.00000068,0.00006805,-0.00003102,-0.00003
 288,0.00039720,0.00092292,-0.00020406,-0.00238788,-0.00068846,-0.00239
 714,-0.04627985,0.30669357,0.00033456,-0.00014239,0.00016556,0.0009567
 2,0.00004536,0.00058833,0.00022812,0.00017991,-0.00004098,-0.00007995,
 -0.00002806,-0.00002004,-0.00010121,0.00001471,0.00006713,0.00006703,-
 0.00003528,-0.00000908,0.00007666,0.00000992,-0.00004147,0.00000784,-0
 .00002618,-0.00000831,0.00000236,0.00000751,0.00000499,-0.00000158,0.0
 0000238,-0.00000058,0.00000766,-0.00000572,-0.00000851,-0.00000134,0.0
 0000017,-0.00000264,0.00001233,-0.00000987,0.00000202,0.00212954,-0.01
 987622,0.00356786,-0.00955906,0.06114087,-0.06661738,0.00140214,-0.008
 06081,0.00231329,-0.00011319,-0.00007051,-0.00005150,0.00004315,-0.000
 00290,-0.00000101,-0.00000723,0.00000587,0.00000177,0.00000301,0.00000
 068,-0.00000006,0.00000006,-0.00000283,-0.00000127,-0.00000079,0.00000
 096,0.00000026,-0.00000113,0.00000543,-0.00000095,-0.00002160,0.000011
 92,0.00000313,0.00088156,0.00016815,0.00101845,-0.00263241,-0.00287684
 ,-0.00142418,0.01068911,-0.06041818,0.06618166,-0.00074394,-0.00005887
 ,0.00111768,0.00133618,0.00046935,-0.00251978,-0.00025775,-0.00008178,
 0.00051992,0.00004626,0.00003863,0.00007741,0.00008694,-0.00002063,-0.
 00002951,-0.00005996,0.00002463,0.00000006,-0.00006049,0.00000528,0.00
 002904,-0.00000209,0.00000145,-0.00001144,-0.00002317,-0.00000569,-0.0
 0004129,0.00002184,-0.00000027,-0.00000212,0.00002512,0.00000309,0.000
 02280,-0.00003397,-0.00000204,0.00003965,0.00003754,0.00001150,-0.0000
 2112,0.00320005,0.00223592,-0.01937013,-0.05829414,-0.00676029,0.04931
 031,-0.02212247,-0.00167447,0.03431648,0.00032019,-0.00014282,0.000089
 96,-0.00007681,0.00002417,-0.00001739,0.00000839,-0.00000352,0.0000029
 5,-0.00000153,-0.00000622,0.00000424,-0.00000306,0.00000169,-0.0000066
 9,0.00000356,0.00000064,-0.00000038,-0.00000166,-0.00000137,0.00000193
 ,-0.00009407,-0.00002867,0.00001879,-0.00265799,-0.00260285,-0.0024112
 7,0.00079978,0.00022177,0.00091071,0.00239055,0.00033098,-0.00510622,0
 .07383779,0.00009743,-0.00057576,0.00051704,0.00078841,0.00037371,-0.0
 0066307,-0.00018019,0.00032390,0.00012663,-0.00002165,0.00009640,0.000
 08695,0.00000050,-0.00002292,0.00002724,-0.00001062,0.00000605,-0.0000
 0786,0.00000041,0.00002785,-0.00000686,0.00000872,-0.00000189,-0.00000
 526,-0.00000959,-0.00000344,-0.00001431,0.00000761,0.00000122,-0.00000
 230,0.00001234,-0.00000452,0.00000660,-0.00001277,-0.00000253,0.000016
 99,0.00001970,-0.00001682,-0.00001131,0.00111356,0.00197850,-0.0213620
 5,-0.00694833,-0.06127389,0.03920353,0.00419941,0.00415062,-0.00773194
 ,0.00015881,-0.00019180,0.00003550,-0.00005168,0.00000739,-0.00001082,
 -0.00000193,-0.00000254,-0.00000092,0.00000128,-0.00000396,0.00000122,
 -0.00000120,-0.00000235,-0.00000973,0.00000099,0.00000154,-0.00000022,
 -0.00000097,0.00000766,0.00000002,-0.00004334,0.00003551,0.00001684,-0
 .00248635,-0.00151358,-0.00277136,0.00105878,0.00114386,0.00024148,-0.
 00570617,-0.00453741,0.03057698,0.00881961,0.05945887,0.00095415,0.000
 55593,0.00317260,0.00229758,0.00006879,-0.00419105,-0.00030955,-0.0000
 4557,0.00068989,0.00002767,0.00006486,0.00002154,0.00007676,0.00002553
 ,-0.00012364,-0.00006576,0.00002175,0.00001934,-0.00007414,-0.00001938
 ,0.00011258,0.00000329,0.00001361,-0.00002500,-0.00004226,-0.00000463,
 -0.00006937,0.00002985,0.00000142,-0.00000303,0.00005858,0.00000916,0.
 00003627,-0.00007708,-0.00000645,0.00005765,0.00008477,0.00001598,-0.0
 0002156,0.00007443,0.00226046,-0.02086605,0.04615054,0.03699115,-0.278
 32687,0.00761564,-0.00141934,0.00113211,0.00016126,-0.00017407,0.00015
 076,-0.00006507,0.00002506,-0.00000453,0.00000483,-0.00000092,-0.00000
 528,0.00000473,-0.00000842,0.00000855,-0.00000739,-0.00000412,-0.00001
 052,0.00000689,0.00000011,0.00000217,-0.00000696,-0.00000391,0.0000071
 0,-0.00014291,-0.00003513,0.00001712,-0.00196219,-0.00256501,-0.000816
 17,0.00046092,-0.00004460,0.00114073,0.00066674,0.00226198,-0.00670939
 ,-0.05707359,-0.03744081,0.30317403,-0.00020105,0.00020235,0.00067873,
 0.00036549,-0.00150437,-0.00213300,-0.00071946,0.00020482,0.00013926,0
 .00009092,0.00012065,-0.00013090,-0.00000741,-0.00005987,0.00010352,-0
 .00005687,0.00004973,-0.00004372,-0.00001593,0.00003924,-0.00004300,0.
 00001338,0.00002328,-0.00001451,0.00000779,-0.00000600,-0.00000244,0.0
 0000460,-0.00000133,0.00000373,-0.00001528,0.00000203,0.00002096,-0.00
 000161,-0.00000022,-0.00001230,-0.00003072,-0.00000602,0.00000519,-0.0
 0680121,0.00261762,0.00286515,-0.02141211,-0.02573618,-0.01831108,-0.1
 7824828,-0.14007979,-0.09407091,-0.00001880,-0.00008297,0.00005144,-0.
 00003960,0.00000224,-0.00000078,-0.00000524,-0.00000391,-0.00000183,-0
 .00000998,-0.00000450,0.00000093,0.00000485,0.00000917,0.00000637,0.00
 000080,0.00000006,0.00000038,-0.00000323,-0.00000212,0.00000383,0.0000
 5299,0.00001454,-0.00004437,0.00021042,0.00024958,0.00005382,0.0003040
 7,0.00012413,0.00036915,0.00136537,0.00051310,-0.00061281,0.00068787,-
 0.00059510,0.00065437,0.19729851,0.00015152,-0.00010224,-0.00003671,-0
 .00005297,0.00096395,0.00002608,0.00020831,-0.00024418,0.00017024,-0.0
 0006535,-0.00007787,0.00001512,-0.00001066,0.00005864,-0.00009428,0.00
 003383,-0.00003516,0.00002982,0.00000526,-0.00004374,0.00005699,-0.000
 00396,-0.00000497,0.00000565,-0.00001085,0.00000186,-0.00001183,0.0000
 0158,-0.00000030,-0.00000198,0.00002397,-0.00000100,-0.00000429,-0.000
 01947,-0.00000204,0.00001232,0.00003627,0.00000299,-0.00000004,0.00225
 997,0.00063764,0.00019367,0.00692395,0.00673839,0.00302934,-0.14246738
 ,-0.23027587,-0.10574681,0.00001869,0.00006106,-0.00003125,0.00002746,
 -0.00000024,0.00000061,0.00000290,0.00000821,0.00000019,0.00000805,0.0
 0000225,0.00000149,-0.00000541,-0.00001041,-0.00000431,0.00000092,0.00
 000108,0.00000113,-0.00000163,0.00000194,0.00000047,-0.00005190,-0.000
 00805,0.00001380,-0.00000685,-0.00010133,-0.00003733,0.00009816,0.0003
 1579,-0.00009118,0.00018521,0.00053078,0.00027917,0.00042949,-0.000307
 43,0.00005845,0.15513453,0.24644505,-0.00039528,0.00008224,0.00040681,
 0.00078359,-0.00077940,0.00002017,-0.00038376,0.00025886,-0.00024449,0
 .00012737,0.00003422,-0.00005137,0.00002846,-0.00010437,0.00016972,-0.
 00005776,0.00005506,-0.00005459,-0.00001237,0.00007317,-0.00010797,-0.
 00000677,0.00000772,-0.00000881,0.00002328,-0.00000442,0.00002846,-0.0
 0000267,-0.00000082,0.00000302,-0.00005048,-0.00000237,0.00000682,0.00
 004337,0.00000308,-0.00002778,-0.00008160,-0.00001348,0.00000453,-0.00
 187427,-0.00017128,-0.00026505,0.01226736,0.00671999,-0.00146585,-0.12
 643704,-0.14188562,-0.09345974,-0.00000598,-0.00006299,0.00006911,-0.0
 0002998,-0.00000008,0.00000403,0.00000016,-0.00001165,0.00000643,-0.00
 001568,-0.00000617,-0.00000255,0.00000650,0.00001770,0.00000709,-0.000
 00213,-0.00000065,-0.00000258,0.00000320,0.00000006,-0.00000170,0.0001
 0239,0.00002716,-0.00002902,0.00023093,0.00002824,0.00039101,0.0001937
 5,0.00012481,-0.00003972,-0.00061646,0.00013351,0.00054091,0.00066562,
 0.00055571,0.00040844,0.10616355,0.12122834,0.09159196,0.00023555,-0.0
 0013487,-0.00003554,-0.00034640,-0.00030597,0.00032854,0.00040381,-0.0
 0010873,0.00007691,-0.00003988,0.00007791,0.00008595,-0.00002725,0.000
 06492,-0.00006294,0.00004615,-0.00003931,0.00002351,0.00002011,-0.0000
 3652,0.00003727,0.00001098,-0.00000545,0.00000713,-0.00001531,0.000002
 77,-0.00001792,0.00000174,-0.00000011,-0.00000090,0.00003304,0.0000003
 4,-0.00000747,-0.00002862,-0.00000305,0.00001949,0.00005188,-0.0000036
 9,-0.00000454,0.00103263,0.00112199,-0.00026930,-0.01149383,0.03708428
 ,-0.01408187,-0.08405835,0.07837520,-0.03716456,-0.00001895,0.00003481
 ,-0.00003518,0.00000894,0.00000644,-0.00001268,-0.00000356,0.00000625,
 -0.00000265,0.00000958,0.00000361,0.00000077,-0.00000256,-0.00001168,-
 0.00000853,0.00000078,0.00000099,0.00000154,-0.00000227,0.00000252,0.0
 0000110,-0.00006577,0.00000828,0.00002028,-0.00000123,-0.00009271,0.00
 012482,-0.00031687,-0.00119738,-0.00030662,-0.00687673,0.00086223,0.00
 139667,0.00163105,-0.00021766,0.00049391,0.00717971,-0.02285362,0.0093
 3269,0.09263162,0.00007228,-0.00003491,-0.00021858,-0.00015555,-0.0000
 5171,0.00021861,0.00000011,-0.00000140,-0.00007159,0.00001493,0.000005
 84,0.00000886,-0.00001521,0.00000568,0.00001048,0.00001313,-0.00000786
 ,-0.00000142,0.00000947,-0.00000295,-0.00001103,-0.00000647,0.00000433
 ,0.00000640,-0.00000197,-0.00000224,0.00000157,-0.00000252,-0.00000165
 ,0.00000018,0.00000120,-0.00000212,-0.00000785,0.00000251,0.00000008,0
 .00000368,0.00000500,-0.00000499,-0.00000328,0.00021627,0.00170610,0.0
 0004538,0.00100113,-0.00568921,0.00394781,0.08234386,-0.34979729,0.104
 47543,-0.00000825,0.00001555,0.00000349,-0.00000133,0.00000029,-0.0000
 0157,-0.00000195,0.00000229,0.00000065,-0.00000031,0.00000039,-0.00000
 045,0.00000187,-0.00000116,-0.00000129,-0.00000107,0.00000093,-0.00000
 038,0.00000138,0.00000204,-0.00000117,-0.00000162,0.00000916,0.0000135
 0,-0.00004416,-0.00006593,-0.00006831,0.00039263,-0.00019016,0.0005095
 1,0.00125982,0.00200770,-0.00089419,-0.00122870,0.00084776,-0.00060187
 ,0.00877531,-0.02455478,0.01369340,-0.09264180,0.37580018,0.00003687,0
 .00006628,-0.00050294,-0.00028510,-0.00039206,0.00062569,0.00007357,-0
 .00002685,-0.00021176,0.00002423,0.00003950,0.00002706,-0.00001760,0.0
 0001140,0.00003384,0.00001827,-0.00001342,-0.00000732,0.00001148,-0.00
 001498,-0.00003591,-0.00000576,0.00000657,0.00001374,0.00000500,-0.000
 00518,0.00001818,-0.00000809,-0.00000282,-0.00000042,-0.00001246,-0.00
 000355,-0.00001994,0.00002451,0.00000239,-0.00000302,-0.00001222,-0.00
 000550,-0.00000752,-0.00035603,0.00082966,0.00000645,0.00828586,-0.010
 58176,-0.00099864,-0.05229675,0.15193875,-0.06619978,-0.00002979,0.000
 05951,0.00000013,0.00000316,-0.00000029,-0.00000235,0.00000092,0.00000
 534,0.00000441,-0.00000262,0.00000358,-0.00000320,0.00000719,-0.000003
 58,0.00000256,-0.00000306,0.00000135,-0.00000152,0.00000493,0.00000193
 ,-0.00000446,0.00001926,0.00000856,0.00002822,-0.00019702,0.00023856,-
 0.00021549,-0.00039386,-0.00031736,0.00028312,0.00126029,-0.00035329,0
 .00048198,-0.00051659,-0.00137389,0.00102160,0.00430128,-0.01906285,0.
 00210272,0.04006011,-0.12105600,0.06356455\\-0.00000097,0.00000060,0.0
 0000249,0.00000059,-0.00000316,0.00000098,0.00000139,0.00000026,-0.000
 00179,0.00000113,-0.00000044,-0.00000009,-0.00000086,0.00000313,0.0000
 0223,0.00000016,-0.00000175,0.00000149,0.00000238,0.00000066,-0.000002
 26,0.00000057,0.00000042,0.00000007,0.00000043,-0.00000087,-0.00000026
 ,-0.00000051,-0.00000053,0.00000014,-0.00000178,-0.00000094,-0.0000002
 5,0.00000016,-0.00000025,-0.00000068,-0.00000080,-0.00000051,-0.000000
 37,-0.00000154,0.00000646,-0.00000324,0.00000317,-0.00000264,0.0000035
 6,-0.00000016,0.00000060,-0.00000519,-0.00000151,0.00000040,0.00000019
 ,0.00000045,0.00000077,0.00000071,0.00000065,0.00000070,0.00000024,-0.
 00000094,0.00000031,-0.00000038,0.00000007,-0.00000014,-0.00000118,-0.
 00000042,-0.00000019,-0.00000078,-0.00000003,-0.00000112,0.00000026,0.
 00000121,-0.00000019,-0.00000010,0.00000141,-0.00000156,-0.00000050,-0
 .00000205,-0.00000031,0.00000042,-0.00000039,0.00000115,0.00000040,-0.
 00000067,-0.00000070,-0.00000007,-0.00000079,-0.00000125,0.00000203,-0
 .00000036,0.00000111,0.00000195\\\@


 NATURE GIVES TO EVERY TIME AND SEASON SOME BEAUTY OF ITS OWN.

                                                    --DICKENS
 Job cpu time:       1 days  0 hours 14 minutes 53.2 seconds.
 File lengths (MBytes):  RWF=   1142 Int=      0 D2E=      0 Chk=     44 Scr=      1
 Normal termination of Gaussian 09 at Thu Jul 29 10:22:41 2021.
