 Entering Gaussian System, Link 0=g09
 Input=opt_freq-conf-340.com
 Output=opt_freq-conf-340.log
 Initial command:
 /aerosol/software/g09/l1.exe "/scratch/nicole/10550/Gau-118820.inp" -scrdir="/scratch/nicole/10550/"
 Entering Link 1 = /aerosol/software/g09/l1.exe PID=    118824.
  
 Copyright (c) 1988,1990,1992,1993,1995,1998,2003,2009,2013,
            Gaussian, Inc.  All Rights Reserved.
  
 This is part of the Gaussian(R) 09 program.  It is based on
 the Gaussian(R) 03 system (copyright 2003, Gaussian, Inc.),
 the Gaussian(R) 98 system (copyright 1998, Gaussian, Inc.),
 the Gaussian(R) 94 system (copyright 1995, Gaussian, Inc.),
 the Gaussian 92(TM) system (copyright 1992, Gaussian, Inc.),
 the Gaussian 90(TM) system (copyright 1990, Gaussian, Inc.),
 the Gaussian 88(TM) system (copyright 1988, Gaussian, Inc.),
 the Gaussian 86(TM) system (copyright 1986, Carnegie Mellon
 University), and the Gaussian 82(TM) system (copyright 1983,
 Carnegie Mellon University). Gaussian is a federally registered
 trademark of Gaussian, Inc.
  
 This software contains proprietary and confidential information,
 including trade secrets, belonging to Gaussian, Inc.
  
 This software is provided under written license and may be
 used, copied, transmitted, or stored only in accord with that
 written license.
  
 The following legend is applicable only to US Government
 contracts under FAR:
  
                    RESTRICTED RIGHTS LEGEND
  
 Use, reproduction and disclosure by the US Government is
 subject to restrictions as set forth in subparagraphs (a)
 and (c) of the Commercial Computer Software - Restricted
 Rights clause in FAR 52.227-19.
  
 Gaussian, Inc.
 340 Quinnipiac St., Bldg. 40, Wallingford CT 06492
  
  
 ---------------------------------------------------------------
 Warning -- This program may not be used in any manner that
 competes with the business of Gaussian, Inc. or will provide
 assistance to any competitor of Gaussian, Inc.  The licensee
 of this program is prohibited from giving any competitor of
 Gaussian, Inc. access to this program.  By using this program,
 the user acknowledges that Gaussian, Inc. is engaged in the
 business of creating and licensing software in the field of
 computational chemistry and represents and warrants to the
 licensee that it is not a competitor of Gaussian, Inc. and that
 it will not use this program in any manner prohibited above.
 ---------------------------------------------------------------
  

 Cite this work as:
 Gaussian 09, Revision D.01,
 M. J. Frisch, G. W. Trucks, H. B. Schlegel, G. E. Scuseria, 
 M. A. Robb, J. R. Cheeseman, G. Scalmani, V. Barone, B. Mennucci, 
 G. A. Petersson, H. Nakatsuji, M. Caricato, X. Li, H. P. Hratchian, 
 A. F. Izmaylov, J. Bloino, G. Zheng, J. L. Sonnenberg, M. Hada, 
 M. Ehara, K. Toyota, R. Fukuda, J. Hasegawa, M. Ishida, T. Nakajima, 
 Y. Honda, O. Kitao, H. Nakai, T. Vreven, J. A. Montgomery, Jr., 
 J. E. Peralta, F. Ogliaro, M. Bearpark, J. J. Heyd, E. Brothers, 
 K. N. Kudin, V. N. Staroverov, T. Keith, R. Kobayashi, J. Normand, 
 K. Raghavachari, A. Rendell, J. C. Burant, S. S. Iyengar, J. Tomasi, 
 M. Cossi, N. Rega, J. M. Millam, M. Klene, J. E. Knox, J. B. Cross, 
 V. Bakken, C. Adamo, J. Jaramillo, R. Gomperts, R. E. Stratmann, 
 O. Yazyev, A. J. Austin, R. Cammi, C. Pomelli, J. W. Ochterski, 
 R. L. Martin, K. Morokuma, V. G. Zakrzewski, G. A. Voth, 
 P. Salvador, J. J. Dannenberg, S. Dapprich, A. D. Daniels, 
 O. Farkas, J. B. Foresman, J. V. Ortiz, J. Cioslowski, 
 and D. J. Fox, Gaussian, Inc., Wallingford CT, 2013.
 
 ******************************************
 Gaussian 09:  ES64L-G09RevD.01 24-Apr-2013
                27-Jul-2021 
 ******************************************
 %mem=2gb
 %nproc=4
 Will use up to    4 processors via shared memory.
 %chk=conf-340.chk
 ----------------------------------------------------------------------
 # B3LYP/6-31G(d) EmpiricalDispersion=GD3BJ opt=calcfc freq=noraman nos
 ymm integral(ultrafinegrid)
 ----------------------------------------------------------------------
 1/10=4,14=-1,18=20,19=15,26=4,38=1/1,3;
 2/9=110,12=2,15=1,17=6,18=5,40=1/2;
 3/5=1,6=6,7=1,11=2,16=1,25=1,30=1,71=2,74=-5,75=-5,124=41,140=1/1,2,3;
 4//1;
 5/5=2,38=5/2;
 8/6=4,10=90,11=11/1;
 11/6=1,8=1,9=11,15=111,16=1,31=1/1,2,10;
 10/6=1,13=1,31=1/2;
 6/7=2,8=2,9=2,10=2,28=1/1;
 7/10=1,18=20,25=1,30=1/1,2,3,16;
 1/10=4,14=-1,18=20,19=15,26=4/3(2);
 2/9=110,15=1/2;
 99//99;
 2/9=110,15=1/2;
 3/5=1,6=6,7=1,11=2,16=1,25=1,30=1,71=1,74=-5,75=-5,124=41/1,2,3;
 4/5=5,16=3,69=1/1;
 5/5=2,38=5/2;
 7/30=1/1,2,3,16;
 1/14=-1,18=20,19=15,26=4/3(-5);
 2/9=110,15=1/2;
 6/7=2,8=2,9=2,10=2,19=2,28=1/1;
 99/9=1/99;
 ------------------------------------------------------------
 Candidate Structure: Conf:340 OPT and FREQ calc in gas phase
 ------------------------------------------------------------
 Symbolic Z-matrix:
 Charge =  0 Multiplicity = 1
 O                     0.53975  -0.91334  -0.72521 
 C                     1.32329  -0.14277  -0.16646 
 N                     0.90022   1.0439    0.32044 
 C                    -0.47302   1.46462   0.14573 
 C                    -0.52293   2.96145   0.41751 
 O                    -1.72483   3.53748   0.21191 
 O                     0.41862   3.60154   0.79264 
 C                    -1.45177   0.66823   1.06386 
 C                    -2.56332   0.02503   0.29898 
 C                    -3.9155    0.18992   0.32055 
 N                    -4.52123  -0.63339  -0.61352 
 C                    -3.53362  -1.2782   -1.18624 
 N                    -2.33141  -0.91703  -0.67339 
 C                     2.79836  -0.44774  -0.00578 
 C                     3.07488  -1.94092  -0.00476 
 N                     4.52098  -2.16624   0.07919 
 H                     1.54257   1.7551    0.63533 
 H                    -0.74614   1.31578  -0.90546 
 H                    -2.34852   2.88034  -0.11888 
 H                    -0.87898  -0.09287   1.5902 
 H                    -1.88211   1.31584   1.82798 
 H                    -4.49613   0.84975   0.94934 
 H                    -3.61864  -2.01285  -1.96748 
 H                    -1.41483  -1.25013  -0.93327 
 H                     3.33808   0.01406  -0.83728 
 H                     3.1737    0.01382   0.91119 
 H                     2.7014   -2.35938  -0.94072 
 H                     2.51041  -2.41337   0.80872 
 H                     4.72481  -3.15255  -0.02997 
 H                     4.85582  -1.91595   1.00272 
 

 GradGradGradGradGradGradGradGradGradGradGradGradGradGradGradGradGradGrad
 Berny optimization.
 Initialization pass.
                           ----------------------------
                           !    Initial Parameters    !
                           ! (Angstroms and Degrees)  !
 --------------------------                            --------------------------
 ! Name  Definition              Value          Derivative Info.                !
 --------------------------------------------------------------------------------
 ! R1    R(1,2)                  1.2329         calculate D2E/DX2 analytically  !
 ! R2    R(2,3)                  1.3506         calculate D2E/DX2 analytically  !
 ! R3    R(2,14)                 1.5148         calculate D2E/DX2 analytically  !
 ! R4    R(3,4)                  1.4468         calculate D2E/DX2 analytically  !
 ! R5    R(3,17)                 1.0088         calculate D2E/DX2 analytically  !
 ! R6    R(4,5)                  1.5221         calculate D2E/DX2 analytically  !
 ! R7    R(4,8)                  1.5605         calculate D2E/DX2 analytically  !
 ! R8    R(4,18)                 1.0962         calculate D2E/DX2 analytically  !
 ! R9    R(5,6)                  1.3486         calculate D2E/DX2 analytically  !
 ! R10   R(5,7)                  1.1987         calculate D2E/DX2 analytically  !
 ! R11   R(6,19)                 0.9645         calculate D2E/DX2 analytically  !
 ! R12   R(8,9)                  1.4948         calculate D2E/DX2 analytically  !
 ! R13   R(8,20)                 1.0883         calculate D2E/DX2 analytically  !
 ! R14   R(8,21)                 1.0902         calculate D2E/DX2 analytically  !
 ! R15   R(9,10)                 1.3624         calculate D2E/DX2 analytically  !
 ! R16   R(9,13)                 1.3736         calculate D2E/DX2 analytically  !
 ! R17   R(10,11)                1.3847         calculate D2E/DX2 analytically  !
 ! R18   R(10,22)                1.0807         calculate D2E/DX2 analytically  !
 ! R19   R(11,12)                1.3112         calculate D2E/DX2 analytically  !
 ! R20   R(12,13)                1.356          calculate D2E/DX2 analytically  !
 ! R21   R(12,23)                1.0758         calculate D2E/DX2 analytically  !
 ! R22   R(13,24)                1.0093         calculate D2E/DX2 analytically  !
 ! R23   R(14,15)                1.5186         calculate D2E/DX2 analytically  !
 ! R24   R(14,25)                1.0936         calculate D2E/DX2 analytically  !
 ! R25   R(14,26)                1.093          calculate D2E/DX2 analytically  !
 ! R26   R(15,16)                1.466          calculate D2E/DX2 analytically  !
 ! R27   R(15,27)                1.0912         calculate D2E/DX2 analytically  !
 ! R28   R(15,28)                1.0971         calculate D2E/DX2 analytically  !
 ! R29   R(16,29)                1.0131         calculate D2E/DX2 analytically  !
 ! R30   R(16,30)                1.0137         calculate D2E/DX2 analytically  !
 ! A1    A(1,2,3)              120.8944         calculate D2E/DX2 analytically  !
 ! A2    A(1,2,14)             122.7596         calculate D2E/DX2 analytically  !
 ! A3    A(3,2,14)             116.3378         calculate D2E/DX2 analytically  !
 ! A4    A(2,3,4)              120.6145         calculate D2E/DX2 analytically  !
 ! A5    A(2,3,17)             122.1749         calculate D2E/DX2 analytically  !
 ! A6    A(4,3,17)             115.9169         calculate D2E/DX2 analytically  !
 ! A7    A(3,4,5)              107.1887         calculate D2E/DX2 analytically  !
 ! A8    A(3,4,8)              112.0772         calculate D2E/DX2 analytically  !
 ! A9    A(3,4,18)             108.2266         calculate D2E/DX2 analytically  !
 ! A10   A(5,4,8)              112.1015         calculate D2E/DX2 analytically  !
 ! A11   A(5,4,18)             107.251          calculate D2E/DX2 analytically  !
 ! A12   A(8,4,18)             109.7931         calculate D2E/DX2 analytically  !
 ! A13   A(4,5,6)              114.9635         calculate D2E/DX2 analytically  !
 ! A14   A(4,5,7)              123.7259         calculate D2E/DX2 analytically  !
 ! A15   A(6,5,7)              121.3096         calculate D2E/DX2 analytically  !
 ! A16   A(5,6,19)             109.73           calculate D2E/DX2 analytically  !
 ! A17   A(4,8,9)              112.6404         calculate D2E/DX2 analytically  !
 ! A18   A(4,8,20)             108.1405         calculate D2E/DX2 analytically  !
 ! A19   A(4,8,21)             110.9046         calculate D2E/DX2 analytically  !
 ! A20   A(9,8,20)             109.7506         calculate D2E/DX2 analytically  !
 ! A21   A(9,8,21)             108.7075         calculate D2E/DX2 analytically  !
 ! A22   A(20,8,21)            106.5126         calculate D2E/DX2 analytically  !
 ! A23   A(8,9,10)             132.6785         calculate D2E/DX2 analytically  !
 ! A24   A(8,9,13)             122.128          calculate D2E/DX2 analytically  !
 ! A25   A(10,9,13)            105.1765         calculate D2E/DX2 analytically  !
 ! A26   A(9,10,11)            110.5815         calculate D2E/DX2 analytically  !
 ! A27   A(9,10,22)            128.0522         calculate D2E/DX2 analytically  !
 ! A28   A(11,10,22)           121.3662         calculate D2E/DX2 analytically  !
 ! A29   A(10,11,12)           104.9255         calculate D2E/DX2 analytically  !
 ! A30   A(11,12,13)           111.8153         calculate D2E/DX2 analytically  !
 ! A31   A(11,12,23)           126.4071         calculate D2E/DX2 analytically  !
 ! A32   A(13,12,23)           121.7774         calculate D2E/DX2 analytically  !
 ! A33   A(9,13,12)            107.5007         calculate D2E/DX2 analytically  !
 ! A34   A(9,13,24)            124.192          calculate D2E/DX2 analytically  !
 ! A35   A(12,13,24)           128.3064         calculate D2E/DX2 analytically  !
 ! A36   A(2,14,15)            112.0458         calculate D2E/DX2 analytically  !
 ! A37   A(2,14,25)            108.3555         calculate D2E/DX2 analytically  !
 ! A38   A(2,14,26)            109.7767         calculate D2E/DX2 analytically  !
 ! A39   A(15,14,25)           109.0179         calculate D2E/DX2 analytically  !
 ! A40   A(15,14,26)           110.6169         calculate D2E/DX2 analytically  !
 ! A41   A(25,14,26)           106.8616         calculate D2E/DX2 analytically  !
 ! A42   A(14,15,16)           109.3172         calculate D2E/DX2 analytically  !
 ! A43   A(14,15,27)           108.3115         calculate D2E/DX2 analytically  !
 ! A44   A(14,15,28)           109.2843         calculate D2E/DX2 analytically  !
 ! A45   A(16,15,27)           109.1365         calculate D2E/DX2 analytically  !
 ! A46   A(16,15,28)           113.5091         calculate D2E/DX2 analytically  !
 ! A47   A(27,15,28)           107.144          calculate D2E/DX2 analytically  !
 ! A48   A(15,16,29)           109.9962         calculate D2E/DX2 analytically  !
 ! A49   A(15,16,30)           109.8801         calculate D2E/DX2 analytically  !
 ! A50   A(29,16,30)           105.7886         calculate D2E/DX2 analytically  !
 ! D1    D(1,2,3,4)             -2.7082         calculate D2E/DX2 analytically  !
 ! D2    D(1,2,3,17)          -169.1854         calculate D2E/DX2 analytically  !
 ! D3    D(14,2,3,4)           176.2764         calculate D2E/DX2 analytically  !
 ! D4    D(14,2,3,17)            9.7993         calculate D2E/DX2 analytically  !
 ! D5    D(1,2,14,15)          -25.8181         calculate D2E/DX2 analytically  !
 ! D6    D(1,2,14,25)           94.4984         calculate D2E/DX2 analytically  !
 ! D7    D(1,2,14,26)         -149.1379         calculate D2E/DX2 analytically  !
 ! D8    D(3,2,14,15)          155.218          calculate D2E/DX2 analytically  !
 ! D9    D(3,2,14,25)          -84.4654         calculate D2E/DX2 analytically  !
 ! D10   D(3,2,14,26)           31.8982         calculate D2E/DX2 analytically  !
 ! D11   D(2,3,4,5)           -163.4554         calculate D2E/DX2 analytically  !
 ! D12   D(2,3,4,8)             73.1457         calculate D2E/DX2 analytically  !
 ! D13   D(2,3,4,18)           -48.0713         calculate D2E/DX2 analytically  !
 ! D14   D(17,3,4,5)             3.8324         calculate D2E/DX2 analytically  !
 ! D15   D(17,3,4,8)          -119.5665         calculate D2E/DX2 analytically  !
 ! D16   D(17,3,4,18)          119.2165         calculate D2E/DX2 analytically  !
 ! D17   D(3,4,5,6)            175.8405         calculate D2E/DX2 analytically  !
 ! D18   D(3,4,5,7)             -4.5076         calculate D2E/DX2 analytically  !
 ! D19   D(8,4,5,6)            -60.7756         calculate D2E/DX2 analytically  !
 ! D20   D(8,4,5,7)            118.8764         calculate D2E/DX2 analytically  !
 ! D21   D(18,4,5,6)            59.8082         calculate D2E/DX2 analytically  !
 ! D22   D(18,4,5,7)          -120.5399         calculate D2E/DX2 analytically  !
 ! D23   D(3,4,8,9)           -125.5927         calculate D2E/DX2 analytically  !
 ! D24   D(3,4,8,20)            -4.1299         calculate D2E/DX2 analytically  !
 ! D25   D(3,4,8,21)           112.3131         calculate D2E/DX2 analytically  !
 ! D26   D(5,4,8,9)            113.8167         calculate D2E/DX2 analytically  !
 ! D27   D(5,4,8,20)          -124.7205         calculate D2E/DX2 analytically  !
 ! D28   D(5,4,8,21)            -8.2775         calculate D2E/DX2 analytically  !
 ! D29   D(18,4,8,9)            -5.2823         calculate D2E/DX2 analytically  !
 ! D30   D(18,4,8,20)          116.1805         calculate D2E/DX2 analytically  !
 ! D31   D(18,4,8,21)         -127.3765         calculate D2E/DX2 analytically  !
 ! D32   D(4,5,6,19)            -2.5315         calculate D2E/DX2 analytically  !
 ! D33   D(7,5,6,19)           177.8073         calculate D2E/DX2 analytically  !
 ! D34   D(4,8,9,10)          -117.1018         calculate D2E/DX2 analytically  !
 ! D35   D(4,8,9,13)            61.1534         calculate D2E/DX2 analytically  !
 ! D36   D(20,8,9,10)          122.3553         calculate D2E/DX2 analytically  !
 ! D37   D(20,8,9,13)          -59.3895         calculate D2E/DX2 analytically  !
 ! D38   D(21,8,9,10)            6.2246         calculate D2E/DX2 analytically  !
 ! D39   D(21,8,9,13)         -175.5202         calculate D2E/DX2 analytically  !
 ! D40   D(8,9,10,11)          178.6908         calculate D2E/DX2 analytically  !
 ! D41   D(8,9,10,22)           -1.3063         calculate D2E/DX2 analytically  !
 ! D42   D(13,9,10,11)           0.2218         calculate D2E/DX2 analytically  !
 ! D43   D(13,9,10,22)        -179.7754         calculate D2E/DX2 analytically  !
 ! D44   D(8,9,13,12)         -178.8602         calculate D2E/DX2 analytically  !
 ! D45   D(8,9,13,24)            0.8295         calculate D2E/DX2 analytically  !
 ! D46   D(10,9,13,12)          -0.1892         calculate D2E/DX2 analytically  !
 ! D47   D(10,9,13,24)         179.5005         calculate D2E/DX2 analytically  !
 ! D48   D(9,10,11,12)          -0.167          calculate D2E/DX2 analytically  !
 ! D49   D(22,10,11,12)        179.8303         calculate D2E/DX2 analytically  !
 ! D50   D(10,11,12,13)          0.0422         calculate D2E/DX2 analytically  !
 ! D51   D(10,11,12,23)        179.8749         calculate D2E/DX2 analytically  !
 ! D52   D(11,12,13,9)           0.094          calculate D2E/DX2 analytically  !
 ! D53   D(11,12,13,24)       -179.5789         calculate D2E/DX2 analytically  !
 ! D54   D(23,12,13,9)        -179.7476         calculate D2E/DX2 analytically  !
 ! D55   D(23,12,13,24)          0.5795         calculate D2E/DX2 analytically  !
 ! D56   D(2,14,15,16)         176.9097         calculate D2E/DX2 analytically  !
 ! D57   D(2,14,15,27)          58.0994         calculate D2E/DX2 analytically  !
 ! D58   D(2,14,15,28)         -58.3077         calculate D2E/DX2 analytically  !
 ! D59   D(25,14,15,16)         56.9793         calculate D2E/DX2 analytically  !
 ! D60   D(25,14,15,27)        -61.831          calculate D2E/DX2 analytically  !
 ! D61   D(25,14,15,28)       -178.2382         calculate D2E/DX2 analytically  !
 ! D62   D(26,14,15,16)        -60.2449         calculate D2E/DX2 analytically  !
 ! D63   D(26,14,15,27)       -179.0552         calculate D2E/DX2 analytically  !
 ! D64   D(26,14,15,28)         64.5376         calculate D2E/DX2 analytically  !
 ! D65   D(14,15,16,29)       -173.3102         calculate D2E/DX2 analytically  !
 ! D66   D(14,15,16,30)         70.6192         calculate D2E/DX2 analytically  !
 ! D67   D(27,15,16,29)        -55.0138         calculate D2E/DX2 analytically  !
 ! D68   D(27,15,16,30)       -171.0844         calculate D2E/DX2 analytically  !
 ! D69   D(28,15,16,29)         64.4059         calculate D2E/DX2 analytically  !
 ! D70   D(28,15,16,30)        -51.6647         calculate D2E/DX2 analytically  !
 --------------------------------------------------------------------------------
 Trust Radius=3.00D-01 FncErr=1.00D-07 GrdErr=1.00D-06
 Number of steps in this run=    160 maximum allowed number of steps=    180.
 GradGradGradGradGradGradGradGradGradGradGradGradGradGradGradGradGradGrad

                          Input orientation:                          
 ---------------------------------------------------------------------
 Center     Atomic      Atomic             Coordinates (Angstroms)
 Number     Number       Type             X           Y           Z
 ---------------------------------------------------------------------
      1          8           0        0.539746   -0.913344   -0.725215
      2          6           0        1.323288   -0.142770   -0.166465
      3          7           0        0.900219    1.043898    0.320439
      4          6           0       -0.473021    1.464623    0.145735
      5          6           0       -0.522928    2.961453    0.417511
      6          8           0       -1.724833    3.537480    0.211911
      7          8           0        0.418621    3.601539    0.792635
      8          6           0       -1.451768    0.668235    1.063860
      9          6           0       -2.563316    0.025027    0.298978
     10          6           0       -3.915500    0.189923    0.320554
     11          7           0       -4.521234   -0.633394   -0.613522
     12          6           0       -3.533620   -1.278201   -1.186237
     13          7           0       -2.331408   -0.917032   -0.673387
     14          6           0        2.798357   -0.447744   -0.005781
     15          6           0        3.074876   -1.940922   -0.004758
     16          7           0        4.520976   -2.166242    0.079192
     17          1           0        1.542571    1.755100    0.635326
     18          1           0       -0.746143    1.315785   -0.905462
     19          1           0       -2.348524    2.880339   -0.118880
     20          1           0       -0.878975   -0.092871    1.590195
     21          1           0       -1.882115    1.315841    1.827977
     22          1           0       -4.496132    0.849747    0.949339
     23          1           0       -3.618644   -2.012851   -1.967478
     24          1           0       -1.414834   -1.250131   -0.933270
     25          1           0        3.338079    0.014060   -0.837281
     26          1           0        3.173701    0.013820    0.911188
     27          1           0        2.701397   -2.359378   -0.940718
     28          1           0        2.510410   -2.413374    0.808723
     29          1           0        4.724810   -3.152553   -0.029971
     30          1           0        4.855820   -1.915950    1.002723
 ---------------------------------------------------------------------
                    Distance matrix (angstroms):
                    1          2          3          4          5
     1  O    0.000000
     2  C    1.232852   0.000000
     3  N    2.248139   1.350645   0.000000
     4  C    2.727449   2.430618   1.446831   0.000000
     5  C    4.177218   3.658653   2.389935   1.522121   0.000000
     6  O    5.080980   4.793584   3.622240   2.422426   1.348574
     7  O    4.764736   3.969652   2.645077   2.404146   1.198726
     8  C    3.109391   3.142032   2.495123   1.560491   2.557217
     9  C    3.399780   3.917969   3.610350   2.542685   3.577684
    10  C    4.707446   5.271885   4.890851   3.675062   4.381817
    11  N    5.069947   5.882092   5.751325   4.622355   5.474705
    12  C    4.115577   5.091040   5.226963   4.320242   5.441593
    13  N    2.871624   3.770047   3.908496   3.129990   4.416254
    14  C    2.415717   1.514812   2.436050   3.792363   4.778361
    15  C    2.828756   2.515465   3.707295   4.920158   6.095555
    16  N    4.250531   3.792096   4.844903   6.174756   7.200603
    17  H    3.158690   2.071922   1.008751   2.094442   2.401878
    18  H    2.579732   2.637432   2.070571   1.096250   2.123277
    19  H    4.806431   4.756433   3.757638   2.364695   1.904493
    20  H    2.836736   2.817500   2.463748   2.162649   3.291026
    21  H    4.165749   4.047215   3.176162   2.199459   2.558289
    22  H    5.592199   6.007974   5.436341   4.148406   4.530837
    23  H    4.477091   5.582432   5.915944   5.143290   6.325767
    24  H    1.994266   3.051484   3.491966   3.069389   4.511933
    25  H    2.950136   2.129313   2.888606   4.194632   5.016872
    26  H    3.236535   2.147063   2.564910   3.998666   4.753664
    27  H    2.609634   2.722500   4.051796   5.087268   6.368069
    28  H    2.913172   2.741513   3.844980   4.937537   6.184089
    29  H    4.797101   4.543983   5.688628   6.954613   8.069701
    30  H    4.755994   4.121886   4.987283   6.368614   7.284399
                    6          7          8          9         10
     6  O    0.000000
     7  O    2.221652   0.000000
     8  C    3.005487   3.489440   0.000000
     9  C    3.612195   4.682636   1.494757   0.000000
    10  C    4.002120   5.535936   2.617492   1.362373   0.000000
    11  N    5.088947   6.656883   3.732220   2.258233   1.384652
    12  C    5.330789   6.583920   3.631206   2.201308   2.138139
    13  N    4.581960   5.489021   2.510949   1.373590   2.173158
    14  C    6.032299   4.764168   4.522510   5.391096   6.751961
    15  C    7.286772   6.197613   5.332931   5.978831   7.315168
    16  N    8.459325   7.113762   6.684123   7.418703   8.762642
    17  H    3.745943   2.167336   3.214185   4.468175   5.686774
    18  H    2.672505   3.076505   2.189853   2.533544   3.579874
    19  H    0.964493   3.001347   2.663917   2.893708   3.144337
    20  H    3.974241   3.996063   1.088302   2.125593   3.303399
    21  H    2.751743   3.404370   1.090168   2.113782   2.770320
    22  H    3.930369   5.634865   3.051919   2.199752   1.080681
    23  H    6.256391   7.445744   4.590488   3.225444   3.189895
    24  H    4.932418   5.466169   2.769480   2.112693   3.146293
    25  H    6.256866   4.904067   5.194701   6.009797   7.347511
    26  H    6.074603   4.525069   4.674027   5.769600   7.115942
    27  H    7.462774   6.614236   5.516662   5.910959   7.202296
    28  H    7.328447   6.368282   5.025959   5.652286   6.950381
    29  H    9.295856   8.052186   7.344726   7.957512   9.270921
    30  H    8.583139   7.083470   6.816701   7.701053   9.046331
                   11         12         13         14         15
    11  N    0.000000
    12  C    1.311168   0.000000
    13  N    2.208930   1.356013   0.000000
    14  C    7.347123   6.494387   5.194267   0.000000
    15  C    7.731824   6.745910   5.542862   1.518567   0.000000
    16  N    9.197338   8.201612   7.005859   2.434723   1.465954
    17  H    6.635831   6.187626   4.884744   2.615441   4.051943
    18  H    4.258619   3.818065   2.748161   4.059918   5.100745
    19  H    4.160728   4.453892   3.837681   6.130196   7.257469
    20  H    4.291221   4.020040   2.812935   4.024406   4.646731
    21  H    4.089668   4.306043   3.382958   5.327261   6.207832
    22  H    2.154732   3.164692   3.231219   7.470294   8.125164
    23  H    2.133253   1.075768   2.128960   6.890262   6.975719
    24  H    3.183131   2.134018   1.009258   4.388056   4.636467
    25  H    7.889110   7.000853   5.747771   1.093597   2.141104
    26  H    7.871190   7.145394   5.803756   1.093049   2.160958
    27  H    7.433201   6.332824   5.242228   2.130224   1.091152
    28  H    7.391558   6.465198   5.280047   2.147099   1.097079
    29  H    9.600834   8.547035   7.429788   3.320814   2.047185
    30  H    9.601371   8.693731   7.447377   2.721372   2.046314
                   16         17         18         19         20
    16  N    0.000000
    17  H    4.955512   0.000000
    18  H    6.390352   2.793786   0.000000
    19  H    8.526268   4.120147   2.373639   0.000000
    20  H    5.978417   3.192281   2.868843   3.731018   0.000000
    21  H    7.495513   3.652922   2.960088   2.540757   1.745651
    22  H    9.547857   6.114262   4.209500   3.142708   3.792499
    23  H    8.394390   6.900013   4.523157   5.382734   4.883559
    24  H    6.090827   4.498683   2.651762   4.312283   2.827414
    25  H    2.644406   2.902351   4.287191   6.408518   4.866993
    26  H    2.694446   2.401820   4.512262   6.306579   4.110549
    27  H    2.094847   4.555845   5.039207   7.323371   4.935751
    28  H    2.153059   4.282867   5.239294   7.245211   4.181312
    29  H    1.013052   5.886792   7.117855   9.297083   6.587033
    30  H    1.013744   4.958750   6.742942   8.727253   6.046206
                   21         22         23         24         25
    21  H    0.000000
    22  H    2.796843   0.000000
    23  H    5.338652   4.179985   0.000000
    24  H    3.798295   4.177092   2.551099   0.000000
    25  H    6.004053   8.078690   7.333601   4.919103   0.000000
    26  H    5.300663   7.715345   7.650494   5.104336   1.756179
    27  H    6.494728   8.104025   6.412272   4.263080   2.459526
    28  H    5.851512   7.730418   6.740402   4.449182   3.047425
    29  H    8.189626  10.099664   8.640953   6.490793   3.549959
    30  H    7.518329   9.752483   8.980424   6.596399   3.068239
                   26         27         28         29         30
    26  H    0.000000
    27  H    3.047079   0.000000
    28  H    2.518278   1.760663   0.000000
    29  H    3.649334   2.356435   2.480597   0.000000
    30  H    2.561623   2.935153   2.405413   1.616418   0.000000
 Symmetry turned off by external request.
 Stoichiometry    C9H14N4O3
 Framework group  C1[X(C9H14N4O3)]
 Deg. of freedom    84
 Full point group                 C1      NOp   1
 Rotational constants (GHZ):      0.6612253      0.3164135      0.2232211
 Standard basis: 6-31G(d) (6D, 7F)
   268 basis functions,   504 primitive gaussians,   268 cartesian basis functions
    60 alpha electrons       60 beta electrons
       nuclear repulsion energy      1115.7720187121 Hartrees.
 NAtoms=   30 NActive=   30 NUniq=   30 SFac= 1.00D+00 NAtFMM=   60 NAOKFM=F Big=F
 Integral buffers will be    131072 words long.
 Raffenetti 2 integral format.
 Two-electron integral symmetry is turned off.
 Nuclear repulsion after empirical dispersion term =     1115.7177906263 Hartrees.
 One-electron integrals computed using PRISM.
 NBasis=   268 RedAO= T EigKep=  1.23D-03  NBF=   268
 NBsUse=   268 1.00D-06 EigRej= -1.00D+00 NBFU=   268
 ExpMin= 1.61D-01 ExpMax= 5.48D+03 ExpMxC= 8.25D+02 IAcc=3 IRadAn=         5 AccDes= 0.00D+00
 Harris functional with IExCor=  402 and IRadAn=       5 diagonalized for initial guess.
 HarFok:  IExCor=  402 AccDes= 0.00D+00 IRadAn=         5 IDoV= 1 UseB2=F ITyADJ=14
 ICtDFT=  3500011 ScaDFX=  1.000000  1.000000  1.000000  1.000000
 FoFCou: FMM=F IPFlag=           0 FMFlag=      100000 FMFlg1=           0
         NFxFlg=           0 DoJE=T BraDBF=F KetDBF=T FulRan=T
         wScrn=  0.000000 ICntrl=     500 IOpCl=  0 I1Cent=   200000004 NGrid=           0
         NMat0=    1 NMatS0=      1 NMatT0=    0 NMatD0=    1 NMtDS0=    0 NMtDT0=    0
 Symmetry not used in FoFCou.
 Requested convergence on RMS density matrix=1.00D-08 within 128 cycles.
 Requested convergence on MAX density matrix=1.00D-06.
 Requested convergence on             energy=1.00D-06.
 No special actions if energy rises.
 Integral accuracy reduced to 1.0D-05 until final iterations.
 Initial convergence to 1.0D-05 achieved.  Increase integral accuracy.
 SCF Done:  E(RB3LYP) =  -796.132924606     A.U. after   14 cycles
            NFock= 14  Conv=0.65D-08     -V/T= 2.0088
 DoSCS=F DFT=T ScalE2(SS,OS)=  1.000000  1.000000
 Range of M.O.s used for correlation:     1   268
 NBasis=   268 NAE=    60 NBE=    60 NFC=     0 NFV=     0
 NROrb=    268 NOA=    60 NOB=    60 NVA=   208 NVB=   208
 Symmetrizing basis deriv contribution to polar:
 IMax=3 JMax=2 DiffMx= 0.00D+00
 G2DrvN: will do    31 centers at a time, making    1 passes.
 Calling FoFCou, ICntrl=  3107 FMM=F I1Cent=   0 AccDes= 0.00D+00.
 End of G2Drv F.D. properties file   721 does not exist.
 End of G2Drv F.D. properties file   722 does not exist.
 End of G2Drv F.D. properties file   788 does not exist.
          IDoAtm=111111111111111111111111111111
          Differentiating once with respect to nuclear coordinates.
          There are    93 degrees of freedom in the 1st order CPHF.  IDoFFX=6 NUNeed=     0.
     87 vectors produced by pass  0 Test12= 1.34D-14 1.08D-09 XBig12= 1.80D-01 9.74D-02.
 AX will form    87 AO Fock derivatives at one time.
     87 vectors produced by pass  1 Test12= 1.34D-14 1.08D-09 XBig12= 4.37D-02 5.73D-02.
     87 vectors produced by pass  2 Test12= 1.34D-14 1.08D-09 XBig12= 2.82D-04 2.04D-03.
     87 vectors produced by pass  3 Test12= 1.34D-14 1.08D-09 XBig12= 1.12D-06 1.16D-04.
     87 vectors produced by pass  4 Test12= 1.34D-14 1.08D-09 XBig12= 1.54D-09 3.48D-06.
     69 vectors produced by pass  5 Test12= 1.34D-14 1.08D-09 XBig12= 1.33D-12 1.14D-07.
     11 vectors produced by pass  6 Test12= 1.34D-14 1.08D-09 XBig12= 1.04D-15 2.90D-09.
 InvSVY:  IOpt=1 It=  1 EMax= 6.11D-16
 Solved reduced A of dimension   515 with    93 vectors.
 End of Minotr F.D. properties file   721 does not exist.
 End of Minotr F.D. properties file   722 does not exist.
 End of Minotr F.D. properties file   788 does not exist.

 **********************************************************************

            Population analysis using the SCF density.

 **********************************************************************

 Alpha  occ. eigenvalues --  -19.21645 -19.16184 -19.13815 -14.37887 -14.37781
 Alpha  occ. eigenvalues --  -14.32089 -14.30603 -10.34274 -10.30827 -10.26460
 Alpha  occ. eigenvalues --  -10.23375 -10.22202 -10.21915 -10.21798 -10.20567
 Alpha  occ. eigenvalues --  -10.19601  -1.12800  -1.05918  -1.04862  -1.01220
 Alpha  occ. eigenvalues --   -0.94877  -0.89172  -0.86524  -0.81600  -0.77455
 Alpha  occ. eigenvalues --   -0.74192  -0.68662  -0.64868  -0.62716  -0.60977
 Alpha  occ. eigenvalues --   -0.60504  -0.58953  -0.56226  -0.54809  -0.51228
 Alpha  occ. eigenvalues --   -0.50230  -0.49802  -0.48412  -0.47270  -0.46137
 Alpha  occ. eigenvalues --   -0.45640  -0.43850  -0.43651  -0.42504  -0.41819
 Alpha  occ. eigenvalues --   -0.40733  -0.40443  -0.40122  -0.39631  -0.39402
 Alpha  occ. eigenvalues --   -0.36768  -0.35923  -0.34046  -0.30245  -0.28315
 Alpha  occ. eigenvalues --   -0.27724  -0.27268  -0.26023  -0.24441  -0.22796
 Alpha virt. eigenvalues --   -0.01297   0.00617   0.02571   0.05920   0.06947
 Alpha virt. eigenvalues --    0.07133   0.08035   0.10174   0.10460   0.12159
 Alpha virt. eigenvalues --    0.13189   0.13369   0.14423   0.15452   0.16216
 Alpha virt. eigenvalues --    0.16721   0.17684   0.19193   0.19824   0.20741
 Alpha virt. eigenvalues --    0.22088   0.22410   0.23093   0.24304   0.24893
 Alpha virt. eigenvalues --    0.27655   0.28399   0.31112   0.33278   0.33601
 Alpha virt. eigenvalues --    0.37340   0.38435   0.41551   0.45098   0.50699
 Alpha virt. eigenvalues --    0.50876   0.52412   0.52555   0.54028   0.54517
 Alpha virt. eigenvalues --    0.54716   0.55482   0.56187   0.58097   0.58837
 Alpha virt. eigenvalues --    0.60691   0.61962   0.62906   0.63265   0.63811
 Alpha virt. eigenvalues --    0.64889   0.65941   0.66859   0.67804   0.68867
 Alpha virt. eigenvalues --    0.70280   0.71849   0.72095   0.72751   0.75017
 Alpha virt. eigenvalues --    0.75369   0.76513   0.78388   0.79210   0.80398
 Alpha virt. eigenvalues --    0.80738   0.82174   0.82578   0.83527   0.83788
 Alpha virt. eigenvalues --    0.84590   0.85517   0.86599   0.86912   0.88098
 Alpha virt. eigenvalues --    0.88629   0.89634   0.90614   0.91839   0.92159
 Alpha virt. eigenvalues --    0.93230   0.95413   0.96010   0.96631   0.97491
 Alpha virt. eigenvalues --    0.99741   1.01646   1.02691   1.03152   1.05719
 Alpha virt. eigenvalues --    1.06763   1.08060   1.09809   1.11168   1.12613
 Alpha virt. eigenvalues --    1.17655   1.19987   1.23045   1.25338   1.27326
 Alpha virt. eigenvalues --    1.31938   1.34124   1.35111   1.36286   1.37276
 Alpha virt. eigenvalues --    1.37659   1.40109   1.40909   1.42733   1.43980
 Alpha virt. eigenvalues --    1.44728   1.49972   1.51372   1.51962   1.54092
 Alpha virt. eigenvalues --    1.54574   1.56582   1.61757   1.64249   1.67231
 Alpha virt. eigenvalues --    1.68496   1.70837   1.72198   1.74828   1.76329
 Alpha virt. eigenvalues --    1.77245   1.77284   1.79753   1.80841   1.81321
 Alpha virt. eigenvalues --    1.82511   1.84176   1.84923   1.86715   1.87762
 Alpha virt. eigenvalues --    1.90262   1.90622   1.92358   1.92769   1.95677
 Alpha virt. eigenvalues --    1.97550   1.99406   2.01424   2.02472   2.05930
 Alpha virt. eigenvalues --    2.07063   2.08292   2.10950   2.11919   2.15546
 Alpha virt. eigenvalues --    2.17205   2.18855   2.21239   2.23340   2.25418
 Alpha virt. eigenvalues --    2.26646   2.29232   2.32364   2.33220   2.34141
 Alpha virt. eigenvalues --    2.36058   2.39934   2.41321   2.42111   2.42441
 Alpha virt. eigenvalues --    2.43016   2.44613   2.48928   2.50211   2.52210
 Alpha virt. eigenvalues --    2.55096   2.58899   2.59926   2.61259   2.61786
 Alpha virt. eigenvalues --    2.64026   2.66059   2.68449   2.72352   2.75195
 Alpha virt. eigenvalues --    2.76533   2.80059   2.83845   2.85840   2.92657
 Alpha virt. eigenvalues --    2.97478   3.00592   3.02826   3.04321   3.09169
 Alpha virt. eigenvalues --    3.15013   3.19457   3.77446   3.88089   3.93189
 Alpha virt. eigenvalues --    4.01526   4.05250   4.09033   4.15397   4.16662
 Alpha virt. eigenvalues --    4.19507   4.25053   4.31560   4.35560   4.41943
 Alpha virt. eigenvalues --    4.53022   4.59270   4.63372
          Condensed to atoms (all electrons):
               1          2          3          4          5          6
     1  O    8.144150   0.528091  -0.099778   0.008315   0.000679   0.000000
     2  C    0.528091   4.345280   0.282035  -0.019898   0.005041  -0.000045
     3  N   -0.099778   0.282035   7.171990   0.206659  -0.022544   0.002811
     4  C    0.008315  -0.019898   0.206659   5.284889   0.282725  -0.099793
     5  C    0.000679   0.005041  -0.022544   0.282725   4.332245   0.283524
     6  O    0.000000  -0.000045   0.002811  -0.099793   0.283524   8.221961
     7  O   -0.000006   0.000769  -0.012101  -0.093256   0.596934  -0.073753
     8  C    0.003756  -0.004144  -0.046863   0.278471  -0.019028   0.003759
     9  C   -0.004270  -0.000167   0.002833  -0.029007  -0.001224  -0.002194
    10  C    0.000041   0.000004  -0.000056  -0.000402  -0.000110  -0.000522
    11  N   -0.000009   0.000000   0.000001  -0.000084  -0.000001   0.000001
    12  C    0.000440   0.000017  -0.000014   0.000235   0.000005   0.000005
    13  N   -0.014376   0.001029   0.000240  -0.003986   0.000197   0.000024
    14  C   -0.079727   0.313431  -0.109445   0.007077  -0.000087   0.000000
    15  C    0.001697  -0.022365   0.003103  -0.000134   0.000000   0.000000
    16  N    0.000244   0.003489  -0.000035   0.000000   0.000000   0.000000
    17  H    0.002761  -0.016515   0.290388  -0.049699  -0.002980   0.000858
    18  H    0.007669  -0.000906  -0.049130   0.373244  -0.028816   0.001282
    19  H    0.000003  -0.000005   0.000327   0.001619  -0.020569   0.220777
    20  H    0.001002   0.002867  -0.004967  -0.044983   0.001189   0.000135
    21  H    0.000128   0.000256   0.002953  -0.045848  -0.002460   0.003117
    22  H    0.000000   0.000000   0.000000  -0.000027  -0.000008  -0.000020
    23  H   -0.000010   0.000001   0.000000   0.000001   0.000000   0.000000
    24  H    0.044188  -0.002762  -0.000480   0.000727   0.000031   0.000000
    25  H   -0.000400  -0.016057  -0.001270  -0.000263   0.000001   0.000000
    26  H    0.002357  -0.032855   0.003883   0.000239  -0.000033   0.000000
    27  H    0.009224  -0.005336   0.000401   0.000000   0.000000   0.000000
    28  H    0.000815   0.005702   0.000037  -0.000004   0.000000   0.000000
    29  H    0.000007  -0.000168   0.000002   0.000000   0.000000   0.000000
    30  H    0.000000  -0.000249   0.000001   0.000000   0.000000   0.000000
               7          8          9         10         11         12
     1  O   -0.000006   0.003756  -0.004270   0.000041  -0.000009   0.000440
     2  C    0.000769  -0.004144  -0.000167   0.000004   0.000000   0.000017
     3  N   -0.012101  -0.046863   0.002833  -0.000056   0.000001  -0.000014
     4  C   -0.093256   0.278471  -0.029007  -0.000402  -0.000084   0.000235
     5  C    0.596934  -0.019028  -0.001224  -0.000110  -0.000001   0.000005
     6  O   -0.073753   0.003759  -0.002194  -0.000522   0.000001   0.000005
     7  O    7.985166   0.000363   0.000041   0.000000   0.000000   0.000000
     8  C    0.000363   5.291173   0.320112  -0.059052   0.007159   0.006564
     9  C    0.000041   0.320112   4.741009   0.566217  -0.044899  -0.093215
    10  C    0.000000  -0.059052   0.566217   4.968709   0.422655  -0.121590
    11  N    0.000000   0.007159  -0.044899   0.422655   6.674098   0.535339
    12  C    0.000000   0.006564  -0.093215  -0.121590   0.535339   4.731363
    13  N   -0.000001  -0.072526   0.377202  -0.075614  -0.085900   0.361662
    14  C   -0.000078  -0.000263  -0.000003   0.000000   0.000000   0.000001
    15  C    0.000000   0.000027  -0.000001   0.000000   0.000000   0.000000
    16  N    0.000000   0.000000   0.000000   0.000000   0.000000   0.000000
    17  H    0.035577   0.003490  -0.000115   0.000002   0.000000   0.000000
    18  H    0.000990  -0.062028   0.001973   0.000371  -0.000120  -0.000053
    19  H    0.004128  -0.000958   0.010387   0.006047  -0.000081  -0.000178
    20  H   -0.000126   0.365877  -0.024580   0.001076  -0.000147   0.000177
    21  H    0.000106   0.364889  -0.031454  -0.002868   0.000014  -0.000037
    22  H    0.000000  -0.001175  -0.061275   0.380644  -0.042146   0.007567
    23  H    0.000000  -0.000192   0.003345   0.007651  -0.039807   0.382068
    24  H    0.000000  -0.002646  -0.024027   0.007927   0.003868  -0.018280
    25  H    0.000000  -0.000008   0.000000   0.000000   0.000000   0.000000
    26  H   -0.000008  -0.000011   0.000001   0.000000   0.000000   0.000000
    27  H    0.000000   0.000000   0.000001   0.000000   0.000000   0.000000
    28  H    0.000000  -0.000008   0.000000   0.000000   0.000000   0.000000
    29  H    0.000000   0.000000   0.000000   0.000000   0.000000   0.000000
    30  H    0.000000   0.000000   0.000000   0.000000   0.000000   0.000000
              13         14         15         16         17         18
     1  O   -0.014376  -0.079727   0.001697   0.000244   0.002761   0.007669
     2  C    0.001029   0.313431  -0.022365   0.003489  -0.016515  -0.000906
     3  N    0.000240  -0.109445   0.003103  -0.000035   0.290388  -0.049130
     4  C   -0.003986   0.007077  -0.000134   0.000000  -0.049699   0.373244
     5  C    0.000197  -0.000087   0.000000   0.000000  -0.002980  -0.028816
     6  O    0.000024   0.000000   0.000000   0.000000   0.000858   0.001282
     7  O   -0.000001  -0.000078   0.000000   0.000000   0.035577   0.000990
     8  C   -0.072526  -0.000263   0.000027   0.000000   0.003490  -0.062028
     9  C    0.377202  -0.000003  -0.000001   0.000000  -0.000115   0.001973
    10  C   -0.075614   0.000000   0.000000   0.000000   0.000002   0.000371
    11  N   -0.085900   0.000000   0.000000   0.000000   0.000000  -0.000120
    12  C    0.361662   0.000001   0.000000   0.000000   0.000000  -0.000053
    13  N    6.892450  -0.000023  -0.000001   0.000000  -0.000001   0.004717
    14  C   -0.000023   5.329723   0.348647  -0.058511  -0.000002   0.000273
    15  C   -0.000001   0.348647   4.869134   0.305454  -0.000034  -0.000020
    16  N    0.000000  -0.058511   0.305454   6.930510  -0.000006   0.000000
    17  H   -0.000001  -0.000002  -0.000034  -0.000006   0.374244   0.004013
    18  H    0.004717   0.000273  -0.000020   0.000000   0.004013   0.543364
    19  H   -0.000284   0.000000   0.000000   0.000000  -0.000107   0.001361
    20  H   -0.003118  -0.000253   0.000012   0.000000   0.000138   0.002194
    21  H    0.003812   0.000009   0.000000   0.000000   0.000057   0.004080
    22  H    0.004986   0.000000   0.000000   0.000000   0.000000   0.000036
    23  H   -0.057758   0.000000   0.000000   0.000000   0.000000   0.000013
    24  H    0.267462   0.000363  -0.000002   0.000000  -0.000019   0.000179
    25  H    0.000000   0.346072  -0.027088   0.006085   0.000445   0.000044
    26  H    0.000000   0.357613  -0.037773  -0.002180   0.001768   0.000000
    27  H    0.000000  -0.031459   0.381215  -0.037418  -0.000005  -0.000002
    28  H    0.000000  -0.062991   0.381819  -0.048252   0.000006   0.000002
    29  H    0.000000   0.006219  -0.033690   0.313167   0.000000   0.000000
    30  H    0.000000  -0.004688  -0.033869   0.308420   0.000001   0.000000
              19         20         21         22         23         24
     1  O    0.000003   0.001002   0.000128   0.000000  -0.000010   0.044188
     2  C   -0.000005   0.002867   0.000256   0.000000   0.000001  -0.002762
     3  N    0.000327  -0.004967   0.002953   0.000000   0.000000  -0.000480
     4  C    0.001619  -0.044983  -0.045848  -0.000027   0.000001   0.000727
     5  C   -0.020569   0.001189  -0.002460  -0.000008   0.000000   0.000031
     6  O    0.220777   0.000135   0.003117  -0.000020   0.000000   0.000000
     7  O    0.004128  -0.000126   0.000106   0.000000   0.000000   0.000000
     8  C   -0.000958   0.365877   0.364889  -0.001175  -0.000192  -0.002646
     9  C    0.010387  -0.024580  -0.031454  -0.061275   0.003345  -0.024027
    10  C    0.006047   0.001076  -0.002868   0.380644   0.007651   0.007927
    11  N   -0.000081  -0.000147   0.000014  -0.042146  -0.039807   0.003868
    12  C   -0.000178   0.000177  -0.000037   0.007567   0.382068  -0.018280
    13  N   -0.000284  -0.003118   0.003812   0.004986  -0.057758   0.267462
    14  C    0.000000  -0.000253   0.000009   0.000000   0.000000   0.000363
    15  C    0.000000   0.000012   0.000000   0.000000   0.000000  -0.000002
    16  N    0.000000   0.000000   0.000000   0.000000   0.000000   0.000000
    17  H   -0.000107   0.000138   0.000057   0.000000   0.000000  -0.000019
    18  H    0.001361   0.002194   0.004080   0.000036   0.000013   0.000179
    19  H    0.354955   0.000348   0.000098   0.000327   0.000000  -0.000002
    20  H    0.000348   0.536481  -0.024293  -0.000037  -0.000003   0.000679
    21  H    0.000098  -0.024293   0.546156   0.002789   0.000004  -0.000022
    22  H    0.000327  -0.000037   0.002789   0.578156  -0.000154  -0.000098
    23  H    0.000000  -0.000003   0.000004  -0.000154   0.549390   0.000260
    24  H   -0.000002   0.000679  -0.000022  -0.000098   0.000260   0.345542
    25  H    0.000000   0.000007   0.000000   0.000000   0.000000  -0.000006
    26  H    0.000000  -0.000006  -0.000002   0.000000   0.000000  -0.000008
    27  H    0.000000  -0.000001   0.000000   0.000000   0.000000  -0.000006
    28  H    0.000000   0.000046   0.000000   0.000000   0.000000  -0.000005
    29  H    0.000000   0.000000   0.000000   0.000000   0.000000   0.000000
    30  H    0.000000   0.000000   0.000000   0.000000   0.000000   0.000000
              25         26         27         28         29         30
     1  O   -0.000400   0.002357   0.009224   0.000815   0.000007   0.000000
     2  C   -0.016057  -0.032855  -0.005336   0.005702  -0.000168  -0.000249
     3  N   -0.001270   0.003883   0.000401   0.000037   0.000002   0.000001
     4  C   -0.000263   0.000239   0.000000  -0.000004   0.000000   0.000000
     5  C    0.000001  -0.000033   0.000000   0.000000   0.000000   0.000000
     6  O    0.000000   0.000000   0.000000   0.000000   0.000000   0.000000
     7  O    0.000000  -0.000008   0.000000   0.000000   0.000000   0.000000
     8  C   -0.000008  -0.000011   0.000000  -0.000008   0.000000   0.000000
     9  C    0.000000   0.000001   0.000001   0.000000   0.000000   0.000000
    10  C    0.000000   0.000000   0.000000   0.000000   0.000000   0.000000
    11  N    0.000000   0.000000   0.000000   0.000000   0.000000   0.000000
    12  C    0.000000   0.000000   0.000000   0.000000   0.000000   0.000000
    13  N    0.000000   0.000000   0.000000   0.000000   0.000000   0.000000
    14  C    0.346072   0.357613  -0.031459  -0.062991   0.006219  -0.004688
    15  C   -0.027088  -0.037773   0.381215   0.381819  -0.033690  -0.033869
    16  N    0.006085  -0.002180  -0.037418  -0.048252   0.313167   0.308420
    17  H    0.000445   0.001768  -0.000005   0.000006   0.000000   0.000001
    18  H    0.000044   0.000000  -0.000002   0.000002   0.000000   0.000000
    19  H    0.000000   0.000000   0.000000   0.000000   0.000000   0.000000
    20  H    0.000007  -0.000006  -0.000001   0.000046   0.000000   0.000000
    21  H    0.000000  -0.000002   0.000000   0.000000   0.000000   0.000000
    22  H    0.000000   0.000000   0.000000   0.000000   0.000000   0.000000
    23  H    0.000000   0.000000   0.000000   0.000000   0.000000   0.000000
    24  H   -0.000006  -0.000008  -0.000006  -0.000005   0.000000   0.000000
    25  H    0.532146  -0.031590  -0.006270   0.006476  -0.000060  -0.000773
    26  H   -0.031590   0.585500   0.005587  -0.005806  -0.000058   0.004572
    27  H   -0.006270   0.005587   0.556004  -0.043190  -0.004103   0.006058
    28  H    0.006476  -0.005806  -0.043190   0.647259  -0.001872  -0.006071
    29  H   -0.000060  -0.000058  -0.004103  -0.001872   0.451215  -0.033666
    30  H   -0.000773   0.004572   0.006058  -0.006071  -0.033666   0.465820
 Mulliken charges:
               1
     1  O   -0.556992
     2  C    0.633461
     3  N   -0.620981
     4  C   -0.056820
     5  C    0.595287
     6  O   -0.561927
     7  O   -0.444744
     8  C   -0.376739
     9  C    0.293310
    10  C   -0.101131
    11  N   -0.429943
    12  C    0.207925
    13  N   -0.600195
    14  C   -0.361897
    15  C   -0.136132
    16  N   -0.720969
    17  H    0.355734
    18  H    0.195270
    19  H    0.421807
    20  H    0.190287
    21  H    0.178518
    22  H    0.130435
    23  H    0.155191
    24  H    0.377135
    25  H    0.192509
    26  H    0.148811
    27  H    0.169302
    28  H    0.126036
    29  H    0.303006
    30  H    0.294445
 Sum of Mulliken charges =   0.00000
 Mulliken charges with hydrogens summed into heavy atoms:
               1
     1  O   -0.556992
     2  C    0.633461
     3  N   -0.265247
     4  C    0.138450
     5  C    0.595287
     6  O   -0.140120
     7  O   -0.444744
     8  C   -0.007934
     9  C    0.293310
    10  C    0.029304
    11  N   -0.429943
    12  C    0.363116
    13  N   -0.223059
    14  C   -0.020577
    15  C    0.159206
    16  N   -0.123518
 APT charges:
               1
     1  O   -0.575324
     2  C    0.358328
     3  N   -0.755124
     4  C   -0.328201
     5  C   -0.471196
     6  O   -0.067365
     7  O    0.282304
     8  C   -0.916095
     9  C   -0.559621
    10  C   -0.284204
    11  N    0.426007
    12  C   -0.579203
    13  N   -0.631303
    14  C   -0.806292
    15  C   -0.390199
    16  N   -1.643483
    17  H    0.683165
    18  H    0.329924
    19  H    0.400499
    20  H    0.276983
    21  H    0.571582
    22  H    0.743774
    23  H    0.703263
    24  H    0.231672
    25  H    0.514199
    26  H    0.417503
    27  H    0.312044
    28  H    0.259722
    29  H    0.888702
    30  H    0.607940
 Sum of APT charges =   0.00000
 APT charges with hydrogens summed into heavy atoms:
               1
     1  O   -0.575324
     2  C    0.358328
     3  N   -0.071959
     4  C    0.001723
     5  C   -0.471196
     6  O    0.333134
     7  O    0.282304
     8  C   -0.067530
     9  C   -0.559621
    10  C    0.459570
    11  N    0.426007
    12  C    0.124060
    13  N   -0.399631
    14  C    0.125410
    15  C    0.181567
    16  N   -0.146841
 Electronic spatial extent (au):  <R**2>=           4798.8886
 Charge=              0.0000 electrons
 Dipole moment (field-independent basis, Debye):
    X=              3.3292    Y=             -1.8875    Z=              1.1110  Tot=              3.9850
 Quadrupole moment (field-independent basis, Debye-Ang):
   XX=           -110.1597   YY=           -101.2403   ZZ=            -89.6719
   XY=             -8.9161   XZ=              3.8384   YZ=             -3.6138
 Traceless Quadrupole moment (field-independent basis, Debye-Ang):
   XX=             -9.8024   YY=             -0.8830   ZZ=             10.6854
   XY=             -8.9161   XZ=              3.8384   YZ=             -3.6138
 Octapole moment (field-independent basis, Debye-Ang**2):
  XXX=            221.8221  YYY=           -170.5817  ZZZ=             -8.8201  XYY=             48.6470
  XXY=            -13.8455  XXZ=             43.4334  XZZ=             33.0549  YZZ=            -28.2434
  YYZ=            -22.2484  XYZ=            -18.5531
 Hexadecapole moment (field-independent basis, Debye-Ang**3):
 XXXX=          -4782.0043 YYYY=          -2122.0420 ZZZZ=           -303.0724 XXXY=            123.3437
 XXXZ=            -45.0960 YYYX=            245.7524 YYYZ=           -216.2923 ZZZX=            -72.0340
 ZZZY=           -148.7744 XXYY=           -841.9902 XXZZ=           -682.9407 YYZZ=           -352.1322
 XXYZ=            -76.2945 YYXZ=              4.9558 ZZXY=            112.9717
 N-N= 1.115717790626D+03 E-N=-4.087683739769D+03  KE= 7.891703168828D+02
  Exact polarizability:   0.000   0.000   0.000   0.000   0.000   0.000
 Approx polarizability: 212.080   5.774 174.229  15.968  39.493 145.984
 Calling FoFJK, ICntrl=    100147 FMM=F ISym2X=0 I1Cent= 0 IOpClX= 0 NMat=1 NMatS=1 NMatT=0.
 -------------------------------------------------------------------
 Center     Atomic                   Forces (Hartrees/Bohr)
 Number     Number              X              Y              Z
 -------------------------------------------------------------------
      1        8          -0.001029124   -0.007288970   -0.001808185
      2        6          -0.000129244    0.001555050   -0.001974413
      3        7          -0.001967551    0.001835083    0.000692351
      4        6           0.008593433    0.000442524   -0.000373407
      5        6          -0.011550162   -0.004894283   -0.003433903
      6        8           0.005076960    0.004702736    0.002522252
      7        8           0.012082067    0.008599513    0.005197515
      8        6          -0.007454773   -0.003351005   -0.004969697
      9        6           0.012912751    0.006788718    0.005847685
     10        6          -0.014726949    0.000161978   -0.004125232
     11        7          -0.007864285    0.004959020    0.003732911
     12        6          -0.000304559   -0.001204110   -0.000594838
     13        7           0.003792518   -0.003450560   -0.002025625
     14        6          -0.003127257    0.001977638   -0.000572580
     15        6           0.005383406   -0.002062631    0.000583858
     16        7          -0.001249471    0.002472647   -0.005268317
     17        1           0.003106187    0.002690356    0.003051175
     18        1          -0.002488302   -0.002498178   -0.000029999
     19        1          -0.008645732   -0.006715333   -0.002873340
     20        1           0.004367910   -0.001262318    0.001508392
     21        1          -0.001012830    0.002129699    0.002122167
     22        1          -0.000971026    0.000210580    0.001306989
     23        1          -0.001749275   -0.002939154   -0.003274550
     24        1           0.007783976    0.000276433   -0.000185667
     25        1           0.002200571    0.000890600   -0.001681762
     26        1           0.001211962    0.001999303    0.002232755
     27        1          -0.000009354   -0.001647837   -0.000734342
     28        1          -0.003750779   -0.001784154    0.001881982
     29        1           0.000316105   -0.004236763   -0.000956276
     30        1           0.001202828    0.001643420    0.004202099
 -------------------------------------------------------------------
 Cartesian Forces:  Max     0.014726949 RMS     0.004439055
 FormGI is forming the generalized inverse of G from B-inverse, IUseBI=4.

 GradGradGradGradGradGradGradGradGradGradGradGradGradGradGradGradGradGrad
 Berny optimization.
 Internal  Forces:  Max     0.015711851 RMS     0.003159397
 Search for a local minimum.
 Step number   1 out of a maximum of  160
 All quantities printed in internal units (Hartrees-Bohrs-Radians)
 Mixed Optimization -- RFO/linear search
 Second derivative matrix not updated -- analytic derivatives used.
 ITU=  0
     Eigenvalues ---   -0.00018   0.00144   0.00234   0.00271   0.00349
     Eigenvalues ---    0.00474   0.00591   0.00861   0.00885   0.01513
     Eigenvalues ---    0.01761   0.02040   0.02326   0.02754   0.03360
     Eigenvalues ---    0.03596   0.04160   0.04248   0.04281   0.04494
     Eigenvalues ---    0.04568   0.04713   0.05233   0.05325   0.05471
     Eigenvalues ---    0.06117   0.06304   0.06463   0.07776   0.08101
     Eigenvalues ---    0.08501   0.10778   0.10913   0.11220   0.11758
     Eigenvalues ---    0.11946   0.12876   0.13760   0.15445   0.15644
     Eigenvalues ---    0.17129   0.17369   0.18391   0.19363   0.19652
     Eigenvalues ---    0.20347   0.21355   0.22655   0.23522   0.23684
     Eigenvalues ---    0.24491   0.25124   0.25634   0.27677   0.29951
     Eigenvalues ---    0.31294   0.32262   0.32741   0.33452   0.34028
     Eigenvalues ---    0.34686   0.34753   0.34775   0.35232   0.35652
     Eigenvalues ---    0.36247   0.37592   0.37788   0.38448   0.38700
     Eigenvalues ---    0.43292   0.45255   0.45427   0.45905   0.46063
     Eigenvalues ---    0.47292   0.47678   0.48318   0.50179   0.52565
     Eigenvalues ---    0.61133   0.68200   0.81732   0.95602
 RFO step:  Lambda=-5.40170417D-03 EMin=-1.79574345D-04
 Linear search not attempted -- first point.
 Iteration  1 RMS(Cart)=  0.16811183 RMS(Int)=  0.04602904
 Iteration  2 RMS(Cart)=  0.10997646 RMS(Int)=  0.00739125
 Iteration  3 RMS(Cart)=  0.01333059 RMS(Int)=  0.00023111
 Iteration  4 RMS(Cart)=  0.00013048 RMS(Int)=  0.00021930
 Iteration  5 RMS(Cart)=  0.00000002 RMS(Int)=  0.00021930
 Variable       Old X    -DE/DX   Delta X   Delta X   Delta X     New X
                                 (Linear)    (Quad)   (Total)
    R1        2.32975   0.00603   0.00000   0.00756   0.00756   2.33732
    R2        2.55235   0.00750   0.00000   0.01054   0.01054   2.56289
    R3        2.86258   0.00224   0.00000   0.00205   0.00205   2.86463
    R4        2.73411   0.00257   0.00000  -0.00972  -0.00972   2.72439
    R5        1.90626   0.00483   0.00000   0.00875   0.00875   1.91501
    R6        2.87639   0.00202   0.00000  -0.00383  -0.00383   2.87257
    R7        2.94890   0.00171   0.00000   0.01584   0.01584   2.96474
    R8        2.07161   0.00099   0.00000   0.00170   0.00170   2.07331
    R9        2.54844   0.00237   0.00000   0.00035   0.00035   2.54879
   R10        2.26526   0.01571   0.00000   0.01645   0.01645   2.28172
   R11        1.82263   0.01115   0.00000   0.02386   0.02386   1.84649
   R12        2.82468  -0.00158   0.00000  -0.01263  -0.01263   2.81206
   R13        2.05659   0.00391   0.00000   0.00995   0.00995   2.06654
   R14        2.06012   0.00315   0.00000   0.00787   0.00787   2.06799
   R15        2.57451   0.01571   0.00000   0.02916   0.02920   2.60371
   R16        2.59571   0.00533   0.00000   0.01383   0.01387   2.60958
   R17        2.61661  -0.00164   0.00000  -0.00862  -0.00863   2.60798
   R18        2.04219   0.00141   0.00000   0.00401   0.00401   2.04620
   R19        2.47775   0.00884   0.00000   0.01331   0.01326   2.49100
   R20        2.56249   0.00949   0.00000   0.01613   0.01611   2.57861
   R21        2.03291   0.00452   0.00000   0.01069   0.01069   2.04360
   R22        1.90722   0.00703   0.00000   0.01723   0.01723   1.92445
   R23        2.86968   0.00587   0.00000   0.02267   0.02267   2.89235
   R24        2.06660   0.00274   0.00000   0.00673   0.00673   2.07333
   R25        2.06556   0.00313   0.00000   0.00730   0.00730   2.07287
   R26        2.77025   0.00017   0.00000  -0.00482  -0.00482   2.76543
   R27        2.06198   0.00127   0.00000   0.00329   0.00329   2.06527
   R28        2.07318   0.00409   0.00000   0.01558   0.01558   2.08876
   R29        1.91439   0.00429   0.00000   0.00936   0.00936   1.92375
   R30        1.91570   0.00463   0.00000   0.01013   0.01013   1.92583
    A1        2.11000   0.00635   0.00000   0.01323   0.01321   2.12321
    A2        2.14256  -0.00351   0.00000  -0.01567  -0.01570   2.12686
    A3        2.03048  -0.00283   0.00000   0.00264   0.00262   2.03309
    A4        2.10512   0.00303   0.00000  -0.00899  -0.00911   2.09601
    A5        2.13235  -0.00160   0.00000   0.00398   0.00385   2.13620
    A6        2.02313  -0.00136   0.00000   0.01104   0.01092   2.03405
    A7        1.87080   0.00207   0.00000   0.03575   0.03587   1.90667
    A8        1.95612   0.00456   0.00000   0.02471   0.02509   1.98120
    A9        1.88891  -0.00072   0.00000   0.00581   0.00592   1.89483
   A10        1.95654  -0.00553   0.00000  -0.03051  -0.03132   1.92522
   A11        1.87188   0.00177   0.00000   0.00386   0.00262   1.87451
   A12        1.91625  -0.00203   0.00000  -0.03788  -0.03821   1.87804
   A13        2.00649  -0.00380   0.00000  -0.01247  -0.01248   1.99401
   A14        2.15942   0.00227   0.00000   0.00372   0.00371   2.16314
   A15        2.11725   0.00153   0.00000   0.00870   0.00868   2.12594
   A16        1.91515   0.00292   0.00000   0.01371   0.01371   1.92885
   A17        1.96595  -0.00236   0.00000  -0.04024  -0.04027   1.92568
   A18        1.88741  -0.00158   0.00000  -0.00482  -0.00450   1.88291
   A19        1.93565   0.00075   0.00000  -0.00218  -0.00219   1.93346
   A20        1.91551   0.00379   0.00000   0.03000   0.02973   1.94524
   A21        1.89730  -0.00040   0.00000   0.01261   0.01216   1.90946
   A22        1.85899   0.00000   0.00000   0.00768   0.00736   1.86636
   A23        2.31568   0.00200   0.00000   0.02887   0.02856   2.34424
   A24        2.13153  -0.00161   0.00000  -0.02725  -0.02745   2.10408
   A25        1.83568  -0.00040   0.00000  -0.00244  -0.00248   1.83319
   A26        1.93001   0.00104   0.00000   0.00178   0.00178   1.93179
   A27        2.23493  -0.00034   0.00000  -0.00278  -0.00290   2.23203
   A28        2.11824  -0.00070   0.00000   0.00100   0.00088   2.11912
   A29        1.83130  -0.00024   0.00000   0.00293   0.00291   1.83421
   A30        1.95155   0.00212   0.00000   0.00280   0.00279   1.95434
   A31        2.20622  -0.00248   0.00000  -0.01346  -0.01346   2.19276
   A32        2.12542   0.00036   0.00000   0.01067   0.01067   2.13609
   A33        1.87624  -0.00252   0.00000  -0.00507  -0.00502   1.87123
   A34        2.16756  -0.00184   0.00000  -0.02691  -0.02697   2.14059
   A35        2.23937   0.00436   0.00000   0.03191   0.03185   2.27122
   A36        1.95557   0.00057   0.00000  -0.00936  -0.00944   1.94612
   A37        1.89116   0.00036   0.00000  -0.00323  -0.00344   1.88772
   A38        1.91596  -0.00036   0.00000   0.01995   0.01995   1.93592
   A39        1.90272  -0.00063   0.00000  -0.01455  -0.01466   1.88806
   A40        1.93063   0.00029   0.00000   0.00145   0.00149   1.93211
   A41        1.86509  -0.00028   0.00000   0.00605   0.00603   1.87112
   A42        1.90794   0.00046   0.00000   0.00756   0.00752   1.91547
   A43        1.89039   0.00087   0.00000  -0.00614  -0.00615   1.88425
   A44        1.90737  -0.00080   0.00000  -0.00438  -0.00450   1.90287
   A45        1.90479  -0.00138   0.00000  -0.00585  -0.00581   1.89898
   A46        1.98111   0.00142   0.00000   0.01456   0.01455   1.99565
   A47        1.87002  -0.00060   0.00000  -0.00697  -0.00698   1.86303
   A48        1.91980  -0.00080   0.00000  -0.00460  -0.00459   1.91520
   A49        1.91777  -0.00047   0.00000   0.00064   0.00064   1.91841
   A50        1.84636   0.00071   0.00000   0.00391   0.00391   1.85027
    D1       -0.04727  -0.00146   0.00000  -0.03923  -0.03932  -0.08658
    D2       -2.95284  -0.00162   0.00000  -0.07175  -0.07179  -3.02463
    D3        3.07660  -0.00090   0.00000  -0.02707  -0.02703   3.04958
    D4        0.17103  -0.00106   0.00000  -0.05959  -0.05950   0.11153
    D5       -0.45061   0.00041   0.00000  -0.38539  -0.38545  -0.83607
    D6        1.64931   0.00021   0.00000  -0.41147  -0.41152   1.23779
    D7       -2.60295  -0.00011   0.00000  -0.39512  -0.39515  -2.99810
    D8        2.70907  -0.00027   0.00000  -0.39812  -0.39809   2.31097
    D9       -1.47420  -0.00046   0.00000  -0.42420  -0.42416  -1.89836
   D10        0.55673  -0.00078   0.00000  -0.40785  -0.40779   0.14894
   D11       -2.85284  -0.00174   0.00000  -0.03177  -0.03147  -2.88430
   D12        1.27663   0.00086   0.00000  -0.03394  -0.03424   1.24239
   D13       -0.83900   0.00102   0.00000  -0.00609  -0.00616  -0.84517
   D14        0.06689  -0.00167   0.00000  -0.00191  -0.00156   0.06532
   D15       -2.08683   0.00093   0.00000  -0.00408  -0.00434  -2.09117
   D16        2.08072   0.00109   0.00000   0.02376   0.02374   2.10446
   D17        3.06900  -0.00003   0.00000   0.03519   0.03545   3.10445
   D18       -0.07867  -0.00064   0.00000   0.02656   0.02683  -0.05184
   D19       -1.06073   0.00358   0.00000   0.07137   0.07126  -0.98948
   D20        2.07478   0.00297   0.00000   0.06275   0.06264   2.13742
   D21        1.04385  -0.00110   0.00000   0.00879   0.00863   1.05248
   D22       -2.10382  -0.00171   0.00000   0.00016   0.00001  -2.10381
   D23       -2.19201  -0.00172   0.00000  -0.09444  -0.09445  -2.28646
   D24       -0.07208   0.00045   0.00000  -0.08574  -0.08565  -0.15773
   D25        1.96023  -0.00007   0.00000  -0.08053  -0.08065   1.87959
   D26        1.98648  -0.00370   0.00000  -0.13653  -0.13607   1.85040
   D27       -2.17678  -0.00153   0.00000  -0.12783  -0.12727  -2.30406
   D28       -0.14447  -0.00205   0.00000  -0.12262  -0.12227  -0.26674
   D29       -0.09219  -0.00104   0.00000  -0.09672  -0.09716  -0.18936
   D30        2.02773   0.00113   0.00000  -0.08802  -0.08836   1.93937
   D31       -2.22314   0.00061   0.00000  -0.08281  -0.08336  -2.30650
   D32       -0.04418   0.00063   0.00000   0.03911   0.03910  -0.00508
   D33        3.10332   0.00122   0.00000   0.04752   0.04753  -3.13233
   D34       -2.04381   0.00010   0.00000   0.06925   0.06913  -1.97468
   D35        1.06733  -0.00018   0.00000   0.02728   0.02714   1.09447
   D36        2.13550   0.00104   0.00000   0.08116   0.08151   2.21701
   D37       -1.03654   0.00075   0.00000   0.03919   0.03952  -0.99702
   D38        0.10864  -0.00083   0.00000   0.04822   0.04802   0.15666
   D39       -3.06341  -0.00112   0.00000   0.00625   0.00604  -3.05737
   D40        3.11874  -0.00015   0.00000  -0.03508  -0.03567   3.08308
   D41       -0.02280  -0.00061   0.00000  -0.05893  -0.05931  -0.08211
   D42        0.00387   0.00013   0.00000   0.00218   0.00219   0.00606
   D43       -3.13767  -0.00033   0.00000  -0.02166  -0.02145   3.12406
   D44       -3.12170   0.00000   0.00000   0.02841   0.02760  -3.09410
   D45        0.01448  -0.00024   0.00000   0.01658   0.01618   0.03066
   D46       -0.00330  -0.00017   0.00000  -0.00293  -0.00285  -0.00616
   D47        3.13287  -0.00041   0.00000  -0.01475  -0.01427   3.11860
   D48       -0.00292  -0.00001   0.00000  -0.00053  -0.00060  -0.00352
   D49        3.13863   0.00041   0.00000   0.02146   0.02126  -3.12329
   D50        0.00074  -0.00010   0.00000  -0.00141  -0.00130  -0.00056
   D51        3.13941   0.00016   0.00000   0.00024   0.00026   3.13967
   D52        0.00164   0.00019   0.00000   0.00282   0.00271   0.00435
   D53       -3.13424   0.00047   0.00000   0.01554   0.01554  -3.11870
   D54       -3.13719  -0.00005   0.00000   0.00130   0.00125  -3.13593
   D55        0.01011   0.00023   0.00000   0.01402   0.01409   0.02420
   D56        3.08766  -0.00086   0.00000  -0.04525  -0.04520   3.04246
   D57        1.01403   0.00003   0.00000  -0.03896  -0.03889   0.97514
   D58       -1.01766   0.00070   0.00000  -0.02488  -0.02485  -1.04251
   D59        0.99448  -0.00125   0.00000  -0.02562  -0.02567   0.96881
   D60       -1.07915  -0.00036   0.00000  -0.01932  -0.01936  -1.09851
   D61       -3.11084   0.00030   0.00000  -0.00524  -0.00532  -3.11616
   D62       -1.05147  -0.00071   0.00000  -0.02508  -0.02507  -1.07654
   D63       -3.12510   0.00019   0.00000  -0.01879  -0.01877   3.13932
   D64        1.12639   0.00085   0.00000  -0.00470  -0.00473   1.12167
   D65       -3.02483  -0.00001   0.00000   0.01003   0.01008  -3.01476
   D66        1.23254  -0.00013   0.00000   0.00759   0.00763   1.24017
   D67       -0.96017   0.00051   0.00000   0.00359   0.00360  -0.95657
   D68       -2.98599   0.00039   0.00000   0.00115   0.00116  -2.98483
   D69        1.12409  -0.00030   0.00000   0.00008   0.00002   1.12411
   D70       -0.90172  -0.00042   0.00000  -0.00237  -0.00242  -0.90414
         Item               Value     Threshold  Converged?
 Maximum Force            0.015712     0.000450     NO 
 RMS     Force            0.003159     0.000300     NO 
 Maximum Displacement     1.057121     0.001800     NO 
 RMS     Displacement     0.270594     0.001200     NO 
 Predicted change in Energy=-3.599450D-03
 GradGradGradGradGradGradGradGradGradGradGradGradGradGradGradGradGradGrad

                          Input orientation:                          
 ---------------------------------------------------------------------
 Center     Atomic      Atomic             Coordinates (Angstroms)
 Number     Number       Type             X           Y           Z
 ---------------------------------------------------------------------
      1          8           0        0.544415   -0.994594   -0.789065
      2          6           0        1.342924   -0.196152   -0.284406
      3          7           0        0.929751    0.974936    0.260743
      4          6           0       -0.454546    1.366834    0.168018
      5          6           0       -0.582466    2.840712    0.517317
      6          8           0       -1.836770    3.326599    0.418378
      7          8           0        0.341964    3.532486    0.870544
      8          6           0       -1.409759    0.508740    1.069467
      9          6           0       -2.579693    0.036668    0.280308
     10          6           0       -3.931786    0.299757    0.312387
     11          7           0       -4.581542   -0.362080   -0.709580
     12          6           0       -3.633748   -1.013333   -1.353911
     13          7           0       -2.404099   -0.805122   -0.800215
     14          6           0        2.833464   -0.469939   -0.248571
     15          6           0        3.132215   -1.884137    0.254837
     16          7           0        4.566299   -2.154815    0.146733
     17          1           0        1.579342    1.680871    0.587279
     18          1           0       -0.782787    1.246400   -0.871929
     19          1           0       -2.453323    2.626406    0.127936
     20          1           0       -0.831800   -0.329568    1.468328
     21          1           0       -1.760721    1.090694    1.927210
     22          1           0       -4.473696    0.910357    1.023700
     23          1           0       -3.779950   -1.645409   -2.219123
     24          1           0       -1.489699   -1.153531   -1.082297
     25          1           0        3.222064   -0.381271   -1.270767
     26          1           0        3.354362    0.277321    0.362565
     27          1           0        2.591656   -2.589495   -0.381313
     28          1           0        2.722851   -1.997359    1.275296
     29          1           0        4.749228   -3.131778    0.366757
     30          1           0        5.075726   -1.610088    0.841235
 ---------------------------------------------------------------------
                    Distance matrix (angstroms):
                    1          2          3          4          5
     1  O    0.000000
     2  C    1.236854   0.000000
     3  N    2.264869   1.356225   0.000000
     4  C    2.736836   2.424564   1.441686   0.000000
     5  C    4.205481   3.684078   2.415316   1.520096   0.000000
     6  O    5.079436   4.797305   3.634392   2.411204   1.348760
     7  O    4.825945   4.029711   2.694144   2.412057   1.207432
     8  C    3.087548   3.147556   2.518865   1.568875   2.535227
     9  C    3.459351   3.969891   3.632757   2.509622   3.450761
    10  C    4.787997   5.331478   4.908470   3.640150   4.209085
    11  N    5.165445   5.942020   5.753563   4.559761   5.268374
    12  C    4.216213   5.155473   5.233149   4.253092   5.259799
    13  N    2.954616   3.831069   3.925404   3.075000   4.283264
    14  C    2.409801   1.515899   2.443601   3.789233   4.818254
    15  C    2.928776   2.518261   3.609042   4.841612   6.015975
    16  N    4.289217   3.796364   4.799252   6.132808   7.183481
    17  H    3.181747   2.083013   1.013380   2.100262   2.454290
    18  H    2.605837   2.635297   2.071093   1.097149   2.124139
    19  H    4.789464   4.748511   3.766985   2.362888   1.922928
    20  H    2.726179   2.796302   2.502610   2.170462   3.319226
    21  H    4.127981   4.022416   3.166883   2.208417   2.537449
    22  H    5.665368   6.063710   5.457427   4.134505   4.373141
    23  H    4.600952   5.664567   5.932725   5.082358   6.151203
    24  H    2.061277   3.094666   3.491112   2.997844   4.397251
    25  H    2.788907   2.130338   3.072380   4.317804   5.296496
    26  H    3.292389   2.165324   2.525029   3.966442   4.700376
    27  H    2.627007   2.701261   3.984888   5.023310   6.353718
    28  H    3.164286   2.753400   3.616499   4.758120   5.908179
    29  H    4.856329   4.543656   5.609345   6.881589   8.007513
    30  H    4.854843   4.147299   4.920207   6.316581   7.206225
                    6          7          8          9         10
     6  O    0.000000
     7  O    2.234665   0.000000
     8  C    2.923454   3.500163   0.000000
     9  C    3.375596   4.594040   1.488076   0.000000
    10  C    3.682676   5.387673   2.641489   1.377825   0.000000
    11  N    4.734176   6.473434   3.739458   2.268541   1.380083
    12  C    5.020474   6.435757   3.624307   2.210025   2.142331
    13  N    4.344877   5.398810   2.492119   1.380932   2.189171
    14  C    6.055543   4.845553   4.549722   5.462474   6.831962
    15  C    7.202037   6.124084   5.197982   6.026279   7.394107
    16  N    8.433207   7.121397   6.607513   7.475669   8.847023
    17  H    3.795625   2.244955   3.246709   4.482768   5.688196
    18  H    2.665145   3.086660   2.169390   2.453563   3.494986
    19  H    0.977121   3.030855   2.541656   2.597293   2.762819
    20  H    3.934452   4.080506   1.093566   2.144913   3.367813
    21  H    2.698450   3.391191   1.094335   2.119900   2.819000
    22  H    3.627399   5.485399   3.090486   2.214320   1.082805
    23  H    5.954261   7.303891   4.590532   3.243016   3.196133
    24  H    4.737515   5.396974   2.720225   2.112191   3.165593
    25  H    6.495637   5.310149   5.265225   6.020040   7.358515
    26  H    6.020719   4.464155   4.821837   5.939502   7.286355
    27  H    7.433076   6.641303   5.264517   5.837578   7.168283
    28  H    7.061797   6.034204   4.837495   5.765781   7.105499
    29  H    9.224352   8.005635   7.188901   7.984961   9.334795
    30  H    8.504839   6.989666   6.826642   7.850598   9.222932
                   11         12         13         14         15
    11  N    0.000000
    12  C    1.318182   0.000000
    13  N    2.223906   1.364540   0.000000
    14  C    7.430105   6.583456   5.277189   0.000000
    15  C    7.921414   7.008897   5.738308   1.530565   0.000000
    16  N    9.361098   8.414018   7.162739   2.449039   1.463403
    17  H    6.619062   6.180879   4.896234   2.626299   3.902719
    18  H    4.128450   3.669698   2.615825   4.051131   5.137812
    19  H    3.763216   4.103288   3.555175   6.138340   7.180483
    20  H    4.336462   4.035280   2.800815   4.049890   4.427490
    21  H    4.125560   4.324456   3.383327   5.317530   5.965507
    22  H    2.152902   3.171614   3.248502   7.544433   8.139425
    23  H    2.137335   1.081427   2.147638   7.000146   7.345441
    24  H    3.213223   2.165728   1.018374   4.455573   4.866601
    25  H    7.823781   6.885389   5.661694   1.097158   2.143396
    26  H    8.033486   7.310661   5.973576   1.096914   2.175513
    27  H    7.518237   6.495067   5.321375   2.137431   1.092895
    28  H    7.743902   6.948913   5.658161   2.160421   1.105322
    29  H    9.792496   8.816054   7.612177   3.336790   2.045449
    30  H    9.860293   9.001652   7.700008   2.741416   2.048463
                   16         17         18         19         20
    16  N    0.000000
    17  H    4.881442   0.000000
    18  H    6.420176   2.810286   0.000000
    19  H    8.493263   4.167424   2.386385   0.000000
    20  H    5.849582   3.260631   2.821858   3.628191   0.000000
    21  H    7.330389   3.646881   2.969138   2.464852   1.758013
    22  H    9.585711   6.117469   4.162829   2.798057   3.872792
    23  H    8.690031   6.903770   4.377268   5.051438   4.901053
    24  H    6.260047   4.498925   2.510707   4.084257   2.759970
    25  H    2.638510   3.225414   4.341338   6.573622   4.892763
    26  H    2.725924   2.274014   4.424827   6.269167   4.372068
    27  H    2.089736   4.494326   5.132413   7.274391   4.499833
    28  H    2.167198   3.912844   5.236606   7.034800   3.931199
    29  H    1.018003   5.767009   7.162819   9.224449   6.341429
    30  H    1.019106   4.808285   6.739187   8.668521   6.077158
                   21         22         23         24         25
    21  H    0.000000
    22  H    2.865151   0.000000
    23  H    5.362427   4.186780   0.000000
    24  H    3.763925   4.195128   2.603760   0.000000
    25  H    6.100974   8.133732   7.178135   4.778348   0.000000
    26  H    5.410523   7.881391   7.826903   5.253560   1.766075
    27  H    6.149492   8.008884   6.698224   4.383016   2.462680
    28  H    5.483017   7.765848   7.390619   4.900598   3.056696
    29  H    7.914778  10.091222   9.035649   6.703538   3.546689
    30  H    7.430382   9.878128   9.369634   6.856619   3.067020
                   26         27         28         29         30
    26  H    0.000000
    27  H    3.058383   0.000000
    28  H    2.531018   1.764141   0.000000
    29  H    3.683426   2.347083   2.493704   0.000000
    30  H    2.598949   2.936745   2.423719   1.627044   0.000000
 Symmetry turned off by external request.
 Stoichiometry    C9H14N4O3
 Framework group  C1[X(C9H14N4O3)]
 Deg. of freedom    84
 Full point group                 C1      NOp   1
 Rotational constants (GHZ):      0.7158388      0.3040050      0.2241286
 Standard basis: 6-31G(d) (6D, 7F)
   268 basis functions,   504 primitive gaussians,   268 cartesian basis functions
    60 alpha electrons       60 beta electrons
       nuclear repulsion energy      1116.3166771247 Hartrees.
 NAtoms=   30 NActive=   30 NUniq=   30 SFac= 1.00D+00 NAtFMM=   60 NAOKFM=F Big=F
 Integral buffers will be    131072 words long.
 Raffenetti 2 integral format.
 Two-electron integral symmetry is turned off.
 Nuclear repulsion after empirical dispersion term =     1116.2619691662 Hartrees.
 One-electron integrals computed using PRISM.
 NBasis=   268 RedAO= T EigKep=  1.29D-03  NBF=   268
 NBsUse=   268 1.00D-06 EigRej= -1.00D+00 NBFU=   268
 Initial guess from the checkpoint file:  "conf-340.chk"
 B after Tr=    -0.029876   -0.011682   -0.019857
         Rot=    0.999838   -0.016636    0.006137    0.002947 Ang=  -2.06 deg.
 ExpMin= 1.61D-01 ExpMax= 5.48D+03 ExpMxC= 8.25D+02 IAcc=2 IRadAn=         4 AccDes= 0.00D+00
 Harris functional with IExCor=  402 and IRadAn=       4 diagonalized for initial guess.
 HarFok:  IExCor=  402 AccDes= 0.00D+00 IRadAn=         4 IDoV= 1 UseB2=F ITyADJ=14
 ICtDFT=  3500011 ScaDFX=  1.000000  1.000000  1.000000  1.000000
 FoFCou: FMM=F IPFlag=           0 FMFlag=      100000 FMFlg1=           0
         NFxFlg=           0 DoJE=T BraDBF=F KetDBF=T FulRan=T
[...]
 615,-0.06970450,0.00028498,0.00018557,-0.00005456,0.00004316,0.0003119
 0,-0.00004819,0.00000751,-0.00015933,0.00001049,0.00001646,-0.00005899
 ,0.00003154,-0.00044304,-0.00151039,0.00043984,0.00029510,0.00014218,-
 0.00013006,0.00010483,0.00010267,-0.00002908,0.00006108,0.00000430,0.0
 0026761,0.00107424,0.00120275,-0.00054952,-0.00008376,-0.00085551,0.00
 033512,-0.13909004,0.09682885,0.00214977,0.00116470,-0.00235355,-0.000
 66228,-0.00109345,-0.00095910,-0.00007322,0.00046587,-0.00008582,-0.00
 017030,-0.00034236,0.00058453,0.00021074,-0.00028713,-0.00014898,-0.00
 019695,0.00017452,-0.00011054,-0.00003445,0.00016321,0.00005361,0.0003
 6475,0.00044803,0.00039831,0.02422170,-0.00203395,-0.00185707,0.000794
 69,-0.00495223,-0.00404080,-0.00700680,-0.00273866,0.00129829,-0.00697
 717,0.01498424,0.00808902,0.08003241,-0.06954029,-0.08035559,0.0000930
 1,-0.00001370,0.00053523,-0.00002953,0.00009447,0.00008387,0.00010777,
 -0.00003895,-0.00008210,-0.00003412,-0.00002953,-0.00001453,0.00003594
 ,0.00018440,0.00009404,0.00008243,-0.00004026,0.00014300,-0.00075544,-
 0.00004148,-0.00097578,0.00001233,0.00052597,-0.00001556,0.00077496,-0
 .00098435,0.00114154,0.00026694,0.00020095,-0.00080900,-0.09327137,0.0
 6375805,0.07936789,0.00034813,0.00146260,-0.00416513,-0.01379436,-0.00
 717186,0.03293438,-0.00189155,0.00082460,-0.00162506,0.00002443,0.0010
 6938,-0.00084042,-0.00028822,-0.00037077,-0.00021895,-0.00014303,0.000
 22568,0.00006074,0.00007989,0.00017441,0.00001811,0.00022054,0.0000315
 8,-0.00005641,0.00001585,-0.00000239,0.00000566,0.00002235,-0.00001278
 ,-0.00000655,-0.00004468,-0.00001081,-0.00003570,-0.00000072,0.0000083
 4,0.00001461,-0.00005633,0.00001696,0.00003652,-0.08935781,-0.02241921
 ,0.09509618,0.00277324,0.00059250,-0.00548615,0.00067712,-0.00009606,-
 0.00068139,-0.00032212,-0.00002904,0.00038667,-0.00019669,0.00013489,0
 .00009246,0.00007224,-0.00000079,0.00001791,0.00006022,-0.00001175,-0.
 00002480,-0.00002071,0.00000278,-0.00000117,0.00000182,-0.00000027,-0.
 00000006,-0.00000655,-0.00000501,-0.00000205,0.00013057,0.00006329,-0.
 00003165,0.09511053,-0.00078469,-0.00000249,-0.00035850,0.00287587,0.0
 0034423,-0.00703166,0.00137812,-0.00084499,0.00080484,-0.00018764,-0.0
 0045707,0.00078402,0.00014305,0.00022581,0.00008932,0.00007169,-0.0001
 2374,-0.00003867,-0.00005538,-0.00012058,0.00002748,-0.00008710,-0.000
 02737,0.00003494,-0.00000123,-0.00001060,-0.00002556,-0.00001664,0.000
 00653,0.00000095,0.00000827,0.00001162,0.00001726,0.00001691,0.0000063
 0,0.00001418,-0.00000683,0.00000160,-0.00001799,-0.02066358,-0.0524060
 2,0.04153268,-0.01326230,-0.01084657,0.03314697,-0.00093888,0.00284171
 ,-0.00149860,0.00014657,0.00031419,-0.00071089,0.00023494,-0.00010588,
 0.00001129,-0.00004045,0.00000233,-0.00000606,-0.00002287,-0.00001224,
 -0.00000748,0.00000160,0.00000632,-0.00000568,-0.00000182,-0.00000051,
 -0.00000026,-0.00000058,0.00000031,0.00000122,0.00002090,-0.00001730,0
 .00001642,0.02121272,0.06166931,-0.00076383,-0.00009411,-0.00039246,0.
 00029497,-0.00255881,0.00310060,0.00044046,0.00059941,0.00059645,0.000
 13372,0.00003366,-0.00002351,0.00003530,0.00000272,-0.00003182,-0.0000
 3096,0.00000991,0.00001004,-0.00002868,-0.00000390,0.00004304,-0.00001
 821,0.00002155,-0.00000259,0.00000161,-0.00002031,-0.00001007,-0.00000
 836,-0.00000419,-0.00000272,-0.00002327,0.00000939,0.00000698,0.000030
 67,0.00000744,0.00001948,-0.00002966,-0.00000543,0.00001155,0.09049410
 ,0.04352660,-0.25919558,0.00363582,0.00312059,-0.00823547,-0.00022125,
 -0.00156689,0.00069442,-0.00008436,0.00035399,-0.00042033,0.00007181,-
 0.00003192,-0.00001298,0.00000640,0.00000337,-0.00000528,0.00000257,-0
 .00000443,-0.00004449,-0.00002220,0.00001404,0.00000234,-0.00000122,0.
 00000236,-0.00000087,0.00000006,0.00000133,-0.00000145,0.00009339,0.00
 002553,-0.00001865,-0.10185082,-0.04932507,0.28048360,-0.00944544,0.00
 094573,0.00002858,-0.00941065,-0.02517108,-0.02447562,0.00113892,0.000
 82989,0.00179348,0.00019224,-0.00015271,0.00028646,-0.00018372,-0.0001
 2728,-0.00003486,0.00019029,-0.00003589,0.00000882,0.00019920,0.000109
 98,0.00009015,0.00004675,-0.00002102,0.00005201,0.00007449,-0.00011847
 ,-0.00017373,-0.00008115,0.00003413,-0.00002008,-0.00013652,0.00009073
 ,0.00006428,0.00020622,0.00004928,0.00015284,-0.00034625,-0.00003980,-
 0.00007887,-0.09721260,-0.06324392,-0.07151249,0.00288376,0.00486292,0
 .00548793,0.00122028,-0.00018972,0.00060285,-0.00123733,0.00155613,-0.
 00039801,0.00021498,-0.00018697,0.00000497,-0.00004288,-0.00005472,-0.
 00000530,-0.00000250,0.00002761,-0.00012466,-0.00003441,0.00005020,0.0
 0001109,-0.00001427,0.00000295,0.00000648,-0.00000040,0.00000010,-0.00
 000142,0.00059861,0.00011373,0.00012640,0.00651096,0.00877440,0.008338
 21,0.10509576,0.00191215,0.00201751,-0.00061179,0.00148795,0.00152509,
 0.00525713,0.00124525,-0.00048784,0.00027869,-0.00045947,0.00034707,0.
 00038910,-0.00007866,0.00003336,-0.00002426,-0.00000172,0.00000659,0.0
 0000143,-0.00000122,-0.00002163,0.00002082,-0.00003143,0.00000162,-0.0
 0000278,-0.00001216,0.00000808,0.00000055,-0.00001366,0.00000138,0.000
 00123,0.00001425,0.00001434,0.00001804,0.00001212,-0.00000567,-0.00001
 009,0.00004568,0.00001136,0.00000344,-0.06672369,-0.14545217,-0.104319
 08,-0.01473731,-0.02112659,-0.02332300,-0.00086650,0.00225020,0.000296
 70,0.00089748,0.00035632,-0.00024880,0.00012699,0.00000006,0.00005602,
 -0.00000923,0.00000031,-0.00000303,-0.00001323,-0.00001289,0.00000306,
 -0.00001354,0.00000298,0.00000002,-0.00000146,0.00000102,0.00000006,0.
 00000487,-0.00000043,0.00000408,-0.00003802,-0.00003677,-0.00004253,0.
 00326647,0.00406311,0.00406782,0.07088510,0.16066095,-0.00058215,0.000
 32999,0.00185999,0.00328345,-0.00157792,-0.00287067,0.00051865,0.00051
 507,0.00047804,-0.00006219,0.00033310,0.00021049,-0.00026468,-0.000253
 43,-0.00007589,0.00008299,0.00006887,0.00002239,0.00018218,0.00016302,
 0.00002593,0.00003266,-0.00001972,0.00004908,0.00004451,-0.00002515,-0
 .00005669,-0.00002356,0.00001539,-0.00001315,-0.00006055,0.00002547,0.
 00001760,0.00008071,0.00001514,0.00004244,-0.00007803,0.00000651,-0.00
 002282,-0.07504508,-0.10310431,-0.16324478,0.00384883,0.00570695,0.006
 16874,0.00093289,-0.00023310,0.00028025,-0.00045320,0.00055282,0.00043
 973,0.00008516,-0.00001465,0.00002972,0.00000078,-0.00003676,0.0000055
 7,0.00000736,0.00003142,-0.00005442,-0.00001898,0.00001819,0.00000255,
 -0.00000459,0.00000019,0.00000450,0.00000252,0.00000078,-0.00000042,0.
 00016559,-0.00000343,0.00004545,-0.01385038,-0.01810287,-0.01899134,0.
 08070971,0.11475735,0.17354395,-0.00148769,0.00021137,-0.00029128,0.00
 068933,0.00127113,0.00130575,-0.00005761,-0.00084939,-0.00065043,-0.00
 018697,-0.00000215,-0.00003773,-0.00000009,0.00010524,0.00000896,0.000
 02479,-0.00004396,0.00000032,-0.00000723,-0.00007884,-0.00001541,-0.00
 001000,0.00000636,-0.00001057,-0.00001946,0.00004030,0.00003658,0.0000
 1067,-0.00000404,0.00000522,0.00005263,-0.00001773,-0.00000291,-0.0000
 6183,-0.00001304,-0.00004048,0.00007680,-0.00000976,0.00000535,0.00403
 368,0.00312814,0.00498925,-0.10103968,-0.06755059,-0.07623149,-0.02323
 836,-0.02148891,-0.02334876,0.00025363,-0.00011174,0.00001529,-0.00001
 345,0.00004081,0.00001233,-0.00001007,0.00001337,-0.00000288,0.0000044
 3,-0.00000421,0.00004237,0.00001529,-0.00001544,-0.00000224,0.00000241
 ,-0.00000111,-0.00000164,0.00000007,0.00000113,-0.00000005,-0.00013475
 ,0.00000011,-0.00002957,0.00018423,-0.00050083,-0.00024034,-0.00040219
 ,0.00207412,-0.00046811,0.12042432,0.00030811,0.00277506,0.00146495,-0
 .00323448,-0.00245937,-0.00252358,0.00032923,0.00081343,0.00053650,0.0
 0012095,0.00007817,-0.00003551,-0.00008403,-0.00014177,-0.00001014,0.0
 0003424,0.00003196,0.00000755,0.00007796,0.00011237,0.00003212,0.00004
 688,-0.00002864,0.00002153,0.00003273,-0.00003722,-0.00005847,-0.00001
 964,0.00001061,-0.00000656,-0.00005377,0.00002568,0.00001847,0.0000755
 3,0.00000886,0.00004067,-0.00008058,-0.00000243,0.00000096,-0.01279259
 ,-0.02280337,-0.02211243,-0.07141243,-0.14037447,-0.10497990,0.0045795
 0,0.00523536,0.00578016,-0.00030672,0.00032909,0.00005274,0.00004873,-
 0.00003559,0.00001565,-0.00000006,-0.00002199,-0.00000160,0.00000677,0
 .00000371,-0.00004441,-0.00001230,0.00001856,0.00000091,-0.00000412,0.
 00000166,0.00000265,0.00000353,0.00000200,-0.00000090,0.00015982,0.000
 02363,0.00000679,-0.00043402,0.00159468,-0.00003110,0.00186447,-0.0058
 3495,0.00215243,0.07501516,0.15326021,-0.00020108,0.00173462,-0.000336
 60,-0.00143689,-0.00123386,-0.00028152,0.00011943,0.00003907,0.0002534
 0,-0.00003108,-0.00001667,-0.00004841,-0.00001374,-0.00001514,-0.00000
 483,0.00002412,-0.00000331,0.00000269,0.00002268,0.00001739,0.00001215
 ,-0.00000838,0.00000006,-0.00000760,0.00000625,-0.00002482,-0.00002274
 ,-0.00001271,0.00000611,-0.00000166,-0.00001037,0.00001953,0.00001181,
 0.00003457,0.00000107,0.00001379,-0.00000850,0.00002863,-0.00001113,0.
 00476686,0.00508457,0.00560258,-0.08032303,-0.10735163,-0.17774352,0.0
 0055338,0.00329842,0.00400043,0.00013120,-0.00000271,0.00001687,0.0000
 0413,-0.00001775,0.00000347,-0.00000955,-0.00001210,-0.00000098,-0.000
 01345,-0.00001679,-0.00001810,-0.00000850,0.00001126,0.00000016,-0.000
 00264,-0.00000034,0.00000203,0.00000166,-0.00000322,0.00000499,0.00001
 569,-0.00005502,0.00002316,0.00060676,-0.00022125,0.00113881,-0.000506
 88,0.00233786,0.00091952,0.08765396,0.11338229,0.18576900,-0.00003576,
 -0.00006036,0.00024464,0.00078753,-0.00026532,-0.00049101,0.00002754,0
 .00002929,0.00002842,0.00007070,-0.00001767,-0.00001620,0.00003717,-0.
 00004189,0.00000548,-0.00002878,0.00002408,-0.00000696,-0.00001338,0.0
 0002883,-0.00001070,0.00000051,-0.00002893,0.00000399,0.00001061,0.000
 00197,-0.00000286,0.00000596,0.00000158,-0.00000339,-0.00002161,-0.000
 00224,-0.00001150,0.00001213,0.00000117,0.00000570,-0.00001836,0.00000
 845,0.00000078,0.00356753,0.00087891,-0.00589880,-0.07889506,-0.019450
 20,0.07195450,-0.02963586,-0.00351697,0.03163766,0.00001133,-0.0000631
 6,0.00006264,-0.00000777,-0.00000711,-0.00001646,0.00000765,-0.0000079
 2,0.00000761,0.00002232,0.00001292,0.00000369,0.00000402,-0.00000385,-
 0.00000023,0.00000152,-0.00000140,0.00000179,0.00000034,-0.00000149,0.
 00000029,0.00002015,-0.00000424,0.00001116,-0.00004658,0.00212066,-0.0
 0037161,-0.00012496,-0.00011022,0.00050052,0.00672590,0.00352607,-0.01
 202396,0.09468411,0.00072981,0.00074265,0.00011470,-0.00297966,0.00000
 391,0.00084368,0.00061162,-0.00016970,-0.00072326,-0.00015899,-0.00007
 008,0.00002562,-0.00004639,0.00004353,0.00001596,0.00006801,-0.0000376
 7,-0.00000988,0.00004643,-0.00001392,-0.00002854,0.00004576,-0.0000297
 9,0.00002872,0.00000820,0.00003384,-0.00001091,0.00000306,0.00000973,-
 0.00000192,0.00001449,-0.00000954,-0.00000344,-0.00002132,-0.00000562,
 -0.00001394,0.00003105,0.00000579,-0.00000729,-0.00870530,-0.00979441,
 0.03135843,-0.01855761,-0.06492998,0.04275605,0.00465544,0.00471527,-0
 .00641918,-0.00004656,0.00001317,0.00021561,0.00000691,-0.00000617,0.0
 0000362,-0.00002113,-0.00001044,0.00001065,0.00001866,0.00000743,0.000
 01919,0.00001558,-0.00000421,-0.00000951,0.00000025,-0.00000260,0.0000
 0143,-0.00000038,-0.00000120,0.00000040,-0.00005134,-0.00002471,0.0000
 0499,0.00156383,-0.00627343,0.00190350,-0.00058038,0.00169099,-0.00063
 735,0.00707552,0.00561203,-0.01786977,0.01714010,0.06821437,-0.0012321
 5,-0.00070643,0.00056144,0.00208368,0.00090712,-0.00031562,-0.00077441
 ,0.00029850,0.00029499,0.00012164,0.00004816,-0.00004981,0.00004889,0.
 00000991,0.00000986,-0.00007956,0.00001776,0.00001801,-0.00006844,-0.0
 0002539,0.00001024,-0.00006626,0.00011905,-0.00006704,-0.00002864,-0.0
 0003980,0.00002762,-0.00001015,-0.00001647,0.00001545,0.00001292,0.000
 01064,0.00001950,-0.00000129,-0.00000261,-0.00000474,-0.00001398,-0.00
 004918,0.00002886,0.00117056,0.00148478,-0.00715876,0.06939530,0.04443
 515,-0.24569098,0.00659977,-0.00126992,0.00504137,0.00008010,-0.000025
 11,-0.00017418,-0.00002288,0.00001756,0.00001182,0.00002474,0.00003259
 ,-0.00002377,-0.00003805,0.00000167,-0.00000201,-0.00001099,-0.0000099
 8,0.00001648,-0.00000081,0.00000680,-0.00000513,0.00000403,0.00000646,
 -0.00000382,0.00005505,0.00006862,-0.00007792,-0.00025182,0.00136236,0
 .00114570,-0.00003944,0.00034994,0.00099965,0.00783197,0.00545235,-0.0
 2100566,-0.08571125,-0.05146009,0.26371834,-0.00021142,-0.00053524,-0.
 00001273,0.00113044,0.00242291,-0.00036460,-0.00080764,0.00006601,0.00
 005679,0.00007164,0.00007443,0.00017803,-0.00001955,-0.00009285,-0.000
 00985,-0.00005457,0.00005377,0.00000186,-0.00000726,0.00004194,0.00001
 129,-0.00002828,0.00004053,-0.00001808,-0.00000633,-0.00000626,0.00002
 532,0.00000806,-0.00001026,0.00000089,-0.00000853,-0.00001026,-0.00001
 222,-0.00001085,0.00000670,0.00000230,-0.00001477,-0.00002251,0.000007
 76,-0.00794390,-0.00040412,0.00050982,-0.00938582,0.04204393,-0.004479
 68,-0.06292550,0.04888661,-0.02141405,-0.00002079,-0.00004975,-0.00009
 808,-0.00000455,-0.00000231,-0.00000489,0.00002332,0.00000881,-0.00000
 052,0.00000336,0.00000857,-0.00001321,-0.00001449,-0.00000230,0.000007
 67,0.00000094,0.00000173,-0.00000217,-0.00000309,0.00000205,-0.0000044
 3,0.00003745,0.00004509,0.00000289,0.00001284,-0.00047452,-0.00009368,
 0.00008279,-0.00009282,0.00033377,0.00122426,-0.00033353,-0.00069567,0
 .00066425,-0.00003447,0.00057454,0.07416849,0.00033048,0.00029907,0.00
 007497,-0.00084509,-0.00061587,-0.00010289,0.00038885,-0.00009686,0.00
 002332,-0.00011296,-0.00005949,-0.00003216,-0.00001340,0.00008240,0.00
 000894,0.00005494,-0.00004822,-0.00000141,0.00001865,-0.00004127,-0.00
 000632,0.00000326,-0.00001101,0.00000518,-0.00000380,0.00001351,-0.000
 00193,-0.00000401,0.00000398,0.00000158,0.00002349,-0.00000067,0.00000
 706,-0.00001521,-0.00000438,-0.00001040,0.00003291,0.00000232,-0.00000
 397,0.00292159,0.00125504,-0.00012449,-0.00434094,-0.00442170,0.004584
 15,0.06958902,-0.40564793,0.01593391,-0.00000069,0.00003388,0.00001414
 ,0.00001124,0.00000507,0.00000429,-0.00001877,0.00000064,-0.00000130,0
 .00000040,-0.00000650,0.00001416,0.00000933,-0.00000203,-0.00000419,-0
 .00000049,-0.00000109,-0.00000008,0.00000031,0.00000018,0.00000106,-0.
 00004984,-0.00001728,-0.00000803,-0.00009338,0.00018990,-0.00019822,-0
 .00018571,0.00040254,0.00003711,-0.00004880,0.00086791,0.00021073,-0.0
 0090246,0.00049550,-0.00058855,-0.07070385,0.42643237,-0.00036885,-0.0
 0020705,-0.00028950,0.00069531,0.00079055,0.00075626,-0.00073104,0.000
 19176,0.00001208,0.00016487,0.00010281,0.00007735,0.00007002,-0.000175
 80,-0.00000842,-0.00013306,0.00010704,-0.00000989,-0.00004993,0.000090
 60,-0.00000226,0.00000686,-0.00000007,0.00000048,0.00001459,-0.0000140
 7,0.00001078,0.00002058,-0.00000755,-0.00000648,-0.00005527,-0.0000149
 0,-0.00003753,0.00001903,0.00001532,0.00002465,-0.00006222,0.00000007,
 0.00000299,-0.00201637,0.00079270,-0.00013603,0.00769547,-0.00304454,-
 0.00413930,-0.03304065,0.06536992,-0.02872929,0.00000361,-0.00011020,-
 0.00003296,-0.00002680,-0.00000081,-0.00001529,0.00004344,-0.00000289,
 0.00001348,0.00000575,0.00001594,-0.00002297,-0.00001209,-0.00000102,0
 .00000532,0.00000356,-0.00000092,0.00000052,-0.00000496,-0.00000182,-0
 .00000365,0.00008943,0.00003999,0.00004031,-0.00002551,-0.00037958,0.0
 0043369,0.00008020,0.00020316,0.00003928,-0.00078030,0.00033431,0.0001
 0402,-0.00008908,-0.00092624,0.00029080,0.02169769,-0.02818797,0.03209
 197,0.00032899,0.00078771,0.00020842,-0.00095109,-0.00044245,-0.000032
 74,0.00015586,0.00003827,0.00013333,-0.00005271,0.00000807,-0.00002686
 ,-0.00004424,0.00005469,-0.00000238,0.00004635,-0.00003368,0.00000664,
 0.00002385,-0.00003027,0.00001143,0.00000076,0.00000189,-0.00000446,-0
 .00000608,-0.00000373,-0.00000702,-0.00001112,0.00000197,0.00000333,0.
 00001785,0.00000783,0.00001632,0.00000044,-0.00000252,-0.00000279,0.00
 002055,-0.00000140,-0.00000060,0.00112104,-0.00126943,-0.00023471,-0.0
 2237061,-0.02042419,-0.03320912,-0.11991288,-0.05956846,-0.12004072,-0
 .00001775,0.00009351,-0.00003909,0.00002086,-0.00000478,0.00000922,-0.
 00001343,0.00000362,-0.00000696,-0.00000353,-0.00001304,-0.00000376,-0
 .00000037,0.00000512,-0.00000191,-0.00000201,0.00000099,-0.00000096,0.
 00000146,0.00000108,0.00000120,-0.00001623,-0.00001451,-0.00001503,-0.
 00007559,0.00003964,0.00020937,0.00002002,0.00123190,0.00009920,-0.007
 05306,0.00253858,0.00136575,0.00216682,-0.00083121,0.00034692,0.004039
 46,0.00395492,0.00678571,0.14256639,-0.00032530,-0.00050571,-0.0001149
 3,0.00049678,0.00012698,-0.00012615,-0.00013327,-0.00003588,0.00002372
 ,0.00006983,-0.00001447,-0.00001420,0.00010003,0.00001266,0.00001954,-
 0.00007604,0.00001380,-0.00000215,-0.00007396,-0.00002042,-0.00001094,
 -0.00001009,0.00002190,-0.00001281,-0.00000452,-0.00001045,0.00001281,
 0.00000566,-0.00000889,0.00000273,-0.00001060,-0.00000574,-0.00000487,
 0.00000034,0.00000290,0.00000174,-0.00001815,-0.00001326,0.00000857,0.
 00059484,0.00205437,0.00134380,0.00108881,0.00355919,0.00603280,-0.057
 14029,-0.12683622,-0.11853683,0.00008043,-0.00004325,-0.00001934,-0.00
 001548,0.00000238,-0.00000298,0.00001813,0.00001431,-0.00000388,-0.000
 00229,0.00000327,-0.00000664,-0.00000427,0.00000046,0.00000289,0.00000
 146,0.00000275,-0.00000225,-0.00000046,0.00000181,-0.00000284,0.000028
 95,0.00002670,-0.00000569,0.00000810,-0.00002916,0.00014117,-0.0000896
 5,-0.00041595,-0.00072108,0.00175777,0.00093482,0.00067276,0.00071137,
 -0.00020474,-0.00043589,-0.02092805,-0.01911004,-0.03497874,0.07386990
 ,0.14047588,0.00043188,0.00029353,0.00016027,-0.00047086,0.00006229,0.
 00012691,0.00000473,0.00005853,-0.00007239,0.00000080,0.00002062,0.000
 03120,-0.00005097,-0.00007401,-0.00001626,0.00001957,0.00002471,-0.000
 00180,0.00004390,0.00005440,0.00000299,0.00000805,-0.00001785,0.000010
 33,0.00000896,0.00000087,-0.00001335,0.00000098,0.00000708,-0.00000458
 ,-0.00001421,0.00000486,-0.00000316,0.00001512,-0.00000301,0.00000259,
 -0.00000642,0.00002111,-0.00000076,-0.00042003,-0.00014357,-0.00028288
 ,0.01039635,0.00303701,-0.00096195,-0.15801127,-0.16011696,-0.24911798
 ,-0.00005189,-0.00001913,0.00003569,-0.00000032,-0.00000018,-0.0000029
 1,-0.00000278,-0.00001777,0.00000736,0.00000524,0.00000386,0.00000081,
 0.00000205,-0.00000135,-0.00000017,-0.00000029,-0.00000211,0.00000325,
 0.00000205,-0.00000212,0.00000241,0.00000095,-0.00002724,0.00000673,-0
 .00011598,-0.00011379,-0.00029710,-0.00047310,0.00053885,0.00014533,0.
 00024687,0.00050159,0.00160386,0.00018514,0.00081878,0.00236934,0.0038
 1324,0.00835130,-0.00047040,0.14443224,0.14673968,0.24673661\\-0.00000
 429,0.00000733,-0.00000060,-0.00000043,-0.00000344,0.00001237,-0.00000
 007,-0.00000058,-0.00000233,-0.00000342,0.00000303,-0.00000523,-0.0000
 0362,0.00000942,0.00000199,0.00000720,0.00000288,0.00000288,-0.0000049
 6,-0.00000424,-0.00000266,0.00000713,-0.00000495,0.00000422,-0.0000060
 0,-0.00000854,0.00000090,0.00000674,0.00000312,0.00000330,0.00000539,-
 0.00000415,-0.00000590,-0.00000269,0.00000123,-0.00000006,0.00000061,0
 .00000476,0.,-0.00000026,-0.00000239,0.00000129,0.00000040,0.00000302,
 -0.00000250,0.00000119,-0.00000196,0.00000239,-0.00000076,-0.00000493,
 -0.00000050,0.00000411,0.00000105,0.00000006,-0.00000241,0.00000082,-0
 .00000482,-0.00000407,-0.00000075,-0.00000304,0.00000299,-0.00000099,-
 0.00000064,0.00000029,-0.00000175,0.00000093,0.00000091,0.00000153,0.0
 0000229,-0.00000189,0.00000008,0.00000059,0.00000027,-0.00000088,-0.00
 000002,-0.00000170,-0.00000151,-0.00000251,-0.00000120,0.00000219,0.00
 000060,0.00000181,-0.00000004,-0.00000089,-0.00000004,0.00000263,-0.00
 000003,-0.00000122,-0.00000201,-0.00000209\\\@


 In the race for quality, there is no finish line.
                               -- David T. Kearns
 Job cpu time:       0 days  1 hours  1 minutes 48.0 seconds.
 File lengths (MBytes):  RWF=    260 Int=      0 D2E=      0 Chk=      8 Scr=      1
 Normal termination of Gaussian 09 at Tue Jul 27 02:07:48 2021.
