 Entering Gaussian System, Link 0=g09
 Input=opt_freq-conf-338.com
 Output=opt_freq-conf-338.log
 Initial command:
 /aerosol/software/g09/l1.exe "/scratch/nicole/10540/Gau-86027.inp" -scrdir="/scratch/nicole/10540/"
 Entering Link 1 = /aerosol/software/g09/l1.exe PID=     86030.
  
 Copyright (c) 1988,1990,1992,1993,1995,1998,2003,2009,2013,
            Gaussian, Inc.  All Rights Reserved.
  
 This is part of the Gaussian(R) 09 program.  It is based on
 the Gaussian(R) 03 system (copyright 2003, Gaussian, Inc.),
 the Gaussian(R) 98 system (copyright 1998, Gaussian, Inc.),
 the Gaussian(R) 94 system (copyright 1995, Gaussian, Inc.),
 the Gaussian 92(TM) system (copyright 1992, Gaussian, Inc.),
 the Gaussian 90(TM) system (copyright 1990, Gaussian, Inc.),
 the Gaussian 88(TM) system (copyright 1988, Gaussian, Inc.),
 the Gaussian 86(TM) system (copyright 1986, Carnegie Mellon
 University), and the Gaussian 82(TM) system (copyright 1983,
 Carnegie Mellon University). Gaussian is a federally registered
 trademark of Gaussian, Inc.
  
 This software contains proprietary and confidential information,
 including trade secrets, belonging to Gaussian, Inc.
  
 This software is provided under written license and may be
 used, copied, transmitted, or stored only in accord with that
 written license.
  
 The following legend is applicable only to US Government
 contracts under FAR:
  
                    RESTRICTED RIGHTS LEGEND
  
 Use, reproduction and disclosure by the US Government is
 subject to restrictions as set forth in subparagraphs (a)
 and (c) of the Commercial Computer Software - Restricted
 Rights clause in FAR 52.227-19.
  
 Gaussian, Inc.
 340 Quinnipiac St., Bldg. 40, Wallingford CT 06492
  
  
 ---------------------------------------------------------------
 Warning -- This program may not be used in any manner that
 competes with the business of Gaussian, Inc. or will provide
 assistance to any competitor of Gaussian, Inc.  The licensee
 of this program is prohibited from giving any competitor of
 Gaussian, Inc. access to this program.  By using this program,
 the user acknowledges that Gaussian, Inc. is engaged in the
 business of creating and licensing software in the field of
 computational chemistry and represents and warrants to the
 licensee that it is not a competitor of Gaussian, Inc. and that
 it will not use this program in any manner prohibited above.
 ---------------------------------------------------------------
  

 Cite this work as:
 Gaussian 09, Revision D.01,
 M. J. Frisch, G. W. Trucks, H. B. Schlegel, G. E. Scuseria, 
 M. A. Robb, J. R. Cheeseman, G. Scalmani, V. Barone, B. Mennucci, 
 G. A. Petersson, H. Nakatsuji, M. Caricato, X. Li, H. P. Hratchian, 
 A. F. Izmaylov, J. Bloino, G. Zheng, J. L. Sonnenberg, M. Hada, 
 M. Ehara, K. Toyota, R. Fukuda, J. Hasegawa, M. Ishida, T. Nakajima, 
 Y. Honda, O. Kitao, H. Nakai, T. Vreven, J. A. Montgomery, Jr., 
 J. E. Peralta, F. Ogliaro, M. Bearpark, J. J. Heyd, E. Brothers, 
 K. N. Kudin, V. N. Staroverov, T. Keith, R. Kobayashi, J. Normand, 
 K. Raghavachari, A. Rendell, J. C. Burant, S. S. Iyengar, J. Tomasi, 
 M. Cossi, N. Rega, J. M. Millam, M. Klene, J. E. Knox, J. B. Cross, 
 V. Bakken, C. Adamo, J. Jaramillo, R. Gomperts, R. E. Stratmann, 
 O. Yazyev, A. J. Austin, R. Cammi, C. Pomelli, J. W. Ochterski, 
 R. L. Martin, K. Morokuma, V. G. Zakrzewski, G. A. Voth, 
 P. Salvador, J. J. Dannenberg, S. Dapprich, A. D. Daniels, 
 O. Farkas, J. B. Foresman, J. V. Ortiz, J. Cioslowski, 
 and D. J. Fox, Gaussian, Inc., Wallingford CT, 2013.
 
 ******************************************
 Gaussian 09:  ES64L-G09RevD.01 24-Apr-2013
                27-Jul-2021 
 ******************************************
 %mem=2gb
 %nproc=4
 Will use up to    4 processors via shared memory.
 %chk=conf-338.chk
 ----------------------------------------------------------------------
 # B3LYP/6-31G(d) EmpiricalDispersion=GD3BJ opt=calcfc freq=noraman nos
 ymm integral(ultrafinegrid)
 ----------------------------------------------------------------------
 1/10=4,14=-1,18=20,19=15,26=4,38=1/1,3;
 2/9=110,12=2,15=1,17=6,18=5,40=1/2;
 3/5=1,6=6,7=1,11=2,16=1,25=1,30=1,71=2,74=-5,75=-5,124=41,140=1/1,2,3;
 4//1;
 5/5=2,38=5/2;
 8/6=4,10=90,11=11/1;
 11/6=1,8=1,9=11,15=111,16=1,31=1/1,2,10;
 10/6=1,13=1,31=1/2;
 6/7=2,8=2,9=2,10=2,28=1/1;
 7/10=1,18=20,25=1,30=1/1,2,3,16;
 1/10=4,14=-1,18=20,19=15,26=4/3(2);
 2/9=110,15=1/2;
 99//99;
 2/9=110,15=1/2;
 3/5=1,6=6,7=1,11=2,16=1,25=1,30=1,71=1,74=-5,75=-5,124=41/1,2,3;
 4/5=5,16=3,69=1/1;
 5/5=2,38=5/2;
 7/30=1/1,2,3,16;
 1/14=-1,18=20,19=15,26=4/3(-5);
 2/9=110,15=1/2;
 6/7=2,8=2,9=2,10=2,19=2,28=1/1;
 99/9=1/99;
 ------------------------------------------------------------
 Candidate Structure: Conf:338 OPT and FREQ calc in gas phase
 ------------------------------------------------------------
 Symbolic Z-matrix:
 Charge =  0 Multiplicity = 1
 O                     1.43892   0.43625   2.04209 
 C                     1.83455  -0.01925   0.9791 
 N                     0.99885  -0.49739   0.0318 
 C                    -0.43897  -0.48529   0.22041 
 C                    -1.00601  -1.51003  -0.73236 
 O                    -1.83722  -2.39627  -0.15191 
 O                    -0.74626  -1.52592  -1.9109 
 C                    -0.99401   0.91774  -0.09473 
 C                    -2.4693    1.03315   0.10272 
 C                    -3.51664   1.05168  -0.77677 
 N                    -4.72522   1.13183  -0.10608 
 C                    -4.40833   1.16399   1.16783 
 N                    -3.05678   1.10528   1.34778 
 C                     3.31923  -0.13885   0.65087 
 C                     3.69369   0.20522  -0.78484 
 N                     3.16474  -0.78792  -1.73454 
 H                     1.39882  -0.79892  -0.85044 
 H                    -0.65378  -0.7514    1.25501 
 H                    -2.14195  -2.97749  -0.86229 
 H                    -0.75931   1.1531   -1.13095 
 H                    -0.46054   1.62353   0.54024 
 H                    -3.46138   0.99554  -1.85631 
 H                    -5.09181   1.23027   1.99532 
 H                    -2.56877   1.11963   2.22933 
 H                     3.83552   0.51704   1.35279 
 H                     3.63828  -1.16585   0.86407 
 H                     3.27303   1.17738  -1.04483 
 H                     4.78376   0.30372  -0.85047 
 H                     3.68705  -1.65305  -1.66654 
 H                     3.26977  -0.4577   -2.6836 
 

 GradGradGradGradGradGradGradGradGradGradGradGradGradGradGradGradGradGrad
 Berny optimization.
 Initialization pass.
                           ----------------------------
                           !    Initial Parameters    !
                           ! (Angstroms and Degrees)  !
 --------------------------                            --------------------------
 ! Name  Definition              Value          Derivative Info.                !
 --------------------------------------------------------------------------------
 ! R1    R(1,2)                  1.2223         calculate D2E/DX2 analytically  !
 ! R2    R(2,3)                  1.3507         calculate D2E/DX2 analytically  !
 ! R3    R(2,14)                 1.5252         calculate D2E/DX2 analytically  !
 ! R4    R(3,4)                  1.4502         calculate D2E/DX2 analytically  !
 ! R5    R(3,17)                 1.0145         calculate D2E/DX2 analytically  !
 ! R6    R(4,5)                  1.5098         calculate D2E/DX2 analytically  !
 ! R7    R(4,8)                  1.5414         calculate D2E/DX2 analytically  !
 ! R8    R(4,18)                 1.0897         calculate D2E/DX2 analytically  !
 ! R9    R(5,6)                  1.3466         calculate D2E/DX2 analytically  !
 ! R10   R(5,7)                  1.2069         calculate D2E/DX2 analytically  !
 ! R11   R(6,19)                 0.9671         calculate D2E/DX2 analytically  !
 ! R12   R(8,9)                  1.4929         calculate D2E/DX2 analytically  !
 ! R13   R(8,20)                 1.0882         calculate D2E/DX2 analytically  !
 ! R14   R(8,21)                 1.089          calculate D2E/DX2 analytically  !
 ! R15   R(9,10)                 1.3678         calculate D2E/DX2 analytically  !
 ! R16   R(9,13)                 1.3786         calculate D2E/DX2 analytically  !
 ! R17   R(10,11)                1.3845         calculate D2E/DX2 analytically  !
 ! R18   R(10,22)                1.0824         calculate D2E/DX2 analytically  !
 ! R19   R(11,12)                1.3131         calculate D2E/DX2 analytically  !
 ! R20   R(12,13)                1.3647         calculate D2E/DX2 analytically  !
 ! R21   R(12,23)                1.0753         calculate D2E/DX2 analytically  !
 ! R22   R(13,24)                1.0077         calculate D2E/DX2 analytically  !
 ! R23   R(14,15)                1.5231         calculate D2E/DX2 analytically  !
 ! R24   R(14,25)                1.0906         calculate D2E/DX2 analytically  !
 ! R25   R(14,26)                1.0964         calculate D2E/DX2 analytically  !
 ! R26   R(15,16)                1.4724         calculate D2E/DX2 analytically  !
 ! R27   R(15,27)                1.0907         calculate D2E/DX2 analytically  !
 ! R28   R(15,28)                1.0965         calculate D2E/DX2 analytically  !
 ! R29   R(16,29)                1.0129         calculate D2E/DX2 analytically  !
 ! R30   R(16,30)                1.0103         calculate D2E/DX2 analytically  !
 ! A1    A(1,2,3)              122.7921         calculate D2E/DX2 analytically  !
 ! A2    A(1,2,14)             122.1045         calculate D2E/DX2 analytically  !
 ! A3    A(3,2,14)             115.0607         calculate D2E/DX2 analytically  !
 ! A4    A(2,3,4)              121.2835         calculate D2E/DX2 analytically  !
 ! A5    A(2,3,17)             118.1109         calculate D2E/DX2 analytically  !
 ! A6    A(4,3,17)             120.4287         calculate D2E/DX2 analytically  !
 ! A7    A(3,4,5)              106.5372         calculate D2E/DX2 analytically  !
 ! A8    A(3,4,8)              109.7564         calculate D2E/DX2 analytically  !
 ! A9    A(3,4,18)             108.4754         calculate D2E/DX2 analytically  !
 ! A10   A(5,4,8)              110.7044         calculate D2E/DX2 analytically  !
 ! A11   A(5,4,18)             111.0626         calculate D2E/DX2 analytically  !
 ! A12   A(8,4,18)             110.2083         calculate D2E/DX2 analytically  !
 ! A13   A(4,5,6)              113.9862         calculate D2E/DX2 analytically  !
 ! A14   A(4,5,7)              122.9795         calculate D2E/DX2 analytically  !
 ! A15   A(6,5,7)              123.0314         calculate D2E/DX2 analytically  !
 ! A16   A(5,6,19)             105.8669         calculate D2E/DX2 analytically  !
 ! A17   A(4,8,9)              113.5259         calculate D2E/DX2 analytically  !
 ! A18   A(4,8,20)             108.2938         calculate D2E/DX2 analytically  !
 ! A19   A(4,8,21)             107.1166         calculate D2E/DX2 analytically  !
 ! A20   A(9,8,20)             108.8048         calculate D2E/DX2 analytically  !
 ! A21   A(9,8,21)             110.9082         calculate D2E/DX2 analytically  !
 ! A22   A(20,8,21)            108.0228         calculate D2E/DX2 analytically  !
 ! A23   A(8,9,10)             132.2758         calculate D2E/DX2 analytically  !
 ! A24   A(8,9,13)             122.9981         calculate D2E/DX2 analytically  !
 ! A25   A(10,9,13)            104.6968         calculate D2E/DX2 analytically  !
 ! A26   A(9,10,11)            110.9607         calculate D2E/DX2 analytically  !
 ! A27   A(9,10,22)            126.9782         calculate D2E/DX2 analytically  !
 ! A28   A(11,10,22)           122.0526         calculate D2E/DX2 analytically  !
 ! A29   A(10,11,12)           105.1121         calculate D2E/DX2 analytically  !
 ! A30   A(11,12,13)           111.4601         calculate D2E/DX2 analytically  !
 ! A31   A(11,12,23)           126.4897         calculate D2E/DX2 analytically  !
 ! A32   A(13,12,23)           122.05           calculate D2E/DX2 analytically  !
 ! A33   A(9,13,12)            107.7701         calculate D2E/DX2 analytically  !
 ! A34   A(9,13,24)            125.7639         calculate D2E/DX2 analytically  !
 ! A35   A(12,13,24)           126.4641         calculate D2E/DX2 analytically  !
 ! A36   A(2,14,15)            115.1166         calculate D2E/DX2 analytically  !
 ! A37   A(2,14,25)            105.9704         calculate D2E/DX2 analytically  !
 ! A38   A(2,14,26)            108.3535         calculate D2E/DX2 analytically  !
 ! A39   A(15,14,25)           110.7586         calculate D2E/DX2 analytically  !
 ! A40   A(15,14,26)           108.8668         calculate D2E/DX2 analytically  !
 ! A41   A(25,14,26)           107.4837         calculate D2E/DX2 analytically  !
 ! A42   A(14,15,16)           111.5487         calculate D2E/DX2 analytically  !
 ! A43   A(14,15,27)           109.3421         calculate D2E/DX2 analytically  !
 ! A44   A(14,15,28)           108.7315         calculate D2E/DX2 analytically  !
 ! A45   A(16,15,27)           107.9923         calculate D2E/DX2 analytically  !
 ! A46   A(16,15,28)           112.2796         calculate D2E/DX2 analytically  !
 ! A47   A(27,15,28)           106.8031         calculate D2E/DX2 analytically  !
 ! A48   A(15,16,29)           110.3388         calculate D2E/DX2 analytically  !
 ! A49   A(15,16,30)           110.3696         calculate D2E/DX2 analytically  !
 ! A50   A(29,16,30)           106.7753         calculate D2E/DX2 analytically  !
 ! D1    D(1,2,3,4)              0.606          calculate D2E/DX2 analytically  !
 ! D2    D(1,2,3,17)           175.791          calculate D2E/DX2 analytically  !
 ! D3    D(14,2,3,4)           178.2743         calculate D2E/DX2 analytically  !
 ! D4    D(14,2,3,17)           -6.5407         calculate D2E/DX2 analytically  !
 ! D5    D(1,2,14,15)         -140.2381         calculate D2E/DX2 analytically  !
 ! D6    D(1,2,14,25)          -17.4646         calculate D2E/DX2 analytically  !
 ! D7    D(1,2,14,26)           97.6346         calculate D2E/DX2 analytically  !
 ! D8    D(3,2,14,15)           42.0759         calculate D2E/DX2 analytically  !
 ! D9    D(3,2,14,25)          164.8494         calculate D2E/DX2 analytically  !
 ! D10   D(3,2,14,26)          -80.0514         calculate D2E/DX2 analytically  !
 ! D11   D(2,3,4,5)           -159.5128         calculate D2E/DX2 analytically  !
 ! D12   D(2,3,4,8)             80.5857         calculate D2E/DX2 analytically  !
 ! D13   D(2,3,4,18)           -39.8777         calculate D2E/DX2 analytically  !
 ! D14   D(17,3,4,5)            25.4129         calculate D2E/DX2 analytically  !
 ! D15   D(17,3,4,8)           -94.4887         calculate D2E/DX2 analytically  !
 ! D16   D(17,3,4,18)          145.048          calculate D2E/DX2 analytically  !
 ! D17   D(3,4,5,6)            128.6376         calculate D2E/DX2 analytically  !
 ! D18   D(3,4,5,7)            -51.9702         calculate D2E/DX2 analytically  !
 ! D19   D(8,4,5,6)           -112.0759         calculate D2E/DX2 analytically  !
 ! D20   D(8,4,5,7)             67.3163         calculate D2E/DX2 analytically  !
 ! D21   D(18,4,5,6)            10.6949         calculate D2E/DX2 analytically  !
 ! D22   D(18,4,5,7)          -169.9129         calculate D2E/DX2 analytically  !
 ! D23   D(3,4,8,9)           -178.6995         calculate D2E/DX2 analytically  !
 ! D24   D(3,4,8,20)            60.356          calculate D2E/DX2 analytically  !
 ! D25   D(3,4,8,21)           -55.9252         calculate D2E/DX2 analytically  !
 ! D26   D(5,4,8,9)             63.9734         calculate D2E/DX2 analytically  !
 ! D27   D(5,4,8,20)           -56.9711         calculate D2E/DX2 analytically  !
 ! D28   D(5,4,8,21)          -173.2523         calculate D2E/DX2 analytically  !
 ! D29   D(18,4,8,9)           -59.2926         calculate D2E/DX2 analytically  !
 ! D30   D(18,4,8,20)          179.763          calculate D2E/DX2 analytically  !
 ! D31   D(18,4,8,21)           63.4818         calculate D2E/DX2 analytically  !
 ! D32   D(4,5,6,19)           178.8374         calculate D2E/DX2 analytically  !
 ! D33   D(7,5,6,19)            -0.5545         calculate D2E/DX2 analytically  !
 ! D34   D(4,8,9,10)          -102.8617         calculate D2E/DX2 analytically  !
 ! D35   D(4,8,9,13)            74.8506         calculate D2E/DX2 analytically  !
 ! D36   D(20,8,9,10)           17.7951         calculate D2E/DX2 analytically  !
 ! D37   D(20,8,9,13)         -164.4926         calculate D2E/DX2 analytically  !
 ! D38   D(21,8,9,10)          136.4784         calculate D2E/DX2 analytically  !
 ! D39   D(21,8,9,13)          -45.8092         calculate D2E/DX2 analytically  !
 ! D40   D(8,9,10,11)          177.9683         calculate D2E/DX2 analytically  !
 ! D41   D(8,9,10,22)           -0.9796         calculate D2E/DX2 analytically  !
 ! D42   D(13,9,10,11)          -0.0483         calculate D2E/DX2 analytically  !
 ! D43   D(13,9,10,22)        -178.9962         calculate D2E/DX2 analytically  !
 ! D44   D(8,9,13,12)         -178.2889         calculate D2E/DX2 analytically  !
 ! D45   D(8,9,13,24)            2.1849         calculate D2E/DX2 analytically  !
 ! D46   D(10,9,13,12)          -0.0387         calculate D2E/DX2 analytically  !
 ! D47   D(10,9,13,24)        -179.5648         calculate D2E/DX2 analytically  !
 ! D48   D(9,10,11,12)           0.1183         calculate D2E/DX2 analytically  !
 ! D49   D(22,10,11,12)        179.1267         calculate D2E/DX2 analytically  !
 ! D50   D(10,11,12,13)         -0.1432         calculate D2E/DX2 analytically  !
 ! D51   D(10,11,12,23)        179.7012         calculate D2E/DX2 analytically  !
 ! D52   D(11,12,13,9)           0.1185         calculate D2E/DX2 analytically  !
 ! D53   D(11,12,13,24)        179.6404         calculate D2E/DX2 analytically  !
 ! D54   D(23,12,13,9)        -179.7339         calculate D2E/DX2 analytically  !
 ! D55   D(23,12,13,24)         -0.2119         calculate D2E/DX2 analytically  !
 ! D56   D(2,14,15,16)         -68.1162         calculate D2E/DX2 analytically  !
 ! D57   D(2,14,15,27)          51.2626         calculate D2E/DX2 analytically  !
 ! D58   D(2,14,15,28)         167.5287         calculate D2E/DX2 analytically  !
 ! D59   D(25,14,15,16)        171.7078         calculate D2E/DX2 analytically  !
 ! D60   D(25,14,15,27)        -68.9134         calculate D2E/DX2 analytically  !
 ! D61   D(25,14,15,28)         47.3527         calculate D2E/DX2 analytically  !
 ! D62   D(26,14,15,16)         53.7343         calculate D2E/DX2 analytically  !
 ! D63   D(26,14,15,27)        173.1131         calculate D2E/DX2 analytically  !
 ! D64   D(26,14,15,28)        -70.6208         calculate D2E/DX2 analytically  !
 ! D65   D(14,15,16,29)        -72.8542         calculate D2E/DX2 analytically  !
 ! D66   D(14,15,16,30)        169.3726         calculate D2E/DX2 analytically  !
 ! D67   D(27,15,16,29)        166.9699         calculate D2E/DX2 analytically  !
 ! D68   D(27,15,16,30)         49.1967         calculate D2E/DX2 analytically  !
 ! D69   D(28,15,16,29)         49.4839         calculate D2E/DX2 analytically  !
 ! D70   D(28,15,16,30)        -68.2893         calculate D2E/DX2 analytically  !
 --------------------------------------------------------------------------------
 Trust Radius=3.00D-01 FncErr=1.00D-07 GrdErr=1.00D-06
 Number of steps in this run=    160 maximum allowed number of steps=    180.
 GradGradGradGradGradGradGradGradGradGradGradGradGradGradGradGradGradGrad

                          Input orientation:                          
 ---------------------------------------------------------------------
 Center     Atomic      Atomic             Coordinates (Angstroms)
 Number     Number       Type             X           Y           Z
 ---------------------------------------------------------------------
      1          8           0        1.438917    0.436248    2.042087
      2          6           0        1.834550   -0.019245    0.979103
      3          7           0        0.998849   -0.497389    0.031803
      4          6           0       -0.438970   -0.485290    0.220409
      5          6           0       -1.006007   -1.510026   -0.732363
      6          8           0       -1.837219   -2.396269   -0.151910
      7          8           0       -0.746262   -1.525921   -1.910900
      8          6           0       -0.994009    0.917744   -0.094734
      9          6           0       -2.469296    1.033152    0.102718
     10          6           0       -3.516640    1.051681   -0.776767
     11          7           0       -4.725223    1.131834   -0.106082
     12          6           0       -4.408332    1.163990    1.167832
     13          7           0       -3.056777    1.105284    1.347775
     14          6           0        3.319231   -0.138846    0.650866
     15          6           0        3.693694    0.205216   -0.784841
     16          7           0        3.164743   -0.787920   -1.734535
     17          1           0        1.398821   -0.798920   -0.850438
     18          1           0       -0.653775   -0.751404    1.255008
     19          1           0       -2.141948   -2.977487   -0.862290
     20          1           0       -0.759313    1.153105   -1.130955
     21          1           0       -0.460540    1.623525    0.540239
     22          1           0       -3.461381    0.995541   -1.856306
     23          1           0       -5.091809    1.230273    1.995318
     24          1           0       -2.568773    1.119626    2.229332
     25          1           0        3.835516    0.517044    1.352785
     26          1           0        3.638281   -1.165852    0.864072
     27          1           0        3.273030    1.177383   -1.044828
     28          1           0        4.783761    0.303721   -0.850471
     29          1           0        3.687047   -1.653052   -1.666544
     30          1           0        3.269772   -0.457701   -2.683603
 ---------------------------------------------------------------------
                    Distance matrix (angstroms):
                    1          2          3          4          5
     1  O    0.000000
     2  C    1.222266   0.000000
     3  N    2.259775   1.350702   0.000000
     4  C    2.773843   2.441661   1.450187   0.000000
     5  C    4.178901   3.635974   2.372515   1.509765   0.000000
     6  O    4.854878   4.517889   3.418007   2.396990   1.346575
     7  O    4.924553   4.157256   2.806667   2.391614   1.206926
     8  C    3.273679   3.167306   2.447468   1.541392   2.510136
     9  C    4.403587   4.516490   3.791519   2.538059   3.050628
    10  C    5.734304   5.732818   4.841802   3.581717   3.587143
    11  N    6.564685   6.747832   5.953014   4.592783   4.604804
    12  C    5.956866   6.356827   5.769606   4.401542   4.726195
    13  N    4.597929   5.032452   4.555047   3.264016   3.920776
    14  C    2.408695   1.525228   2.428161   3.798604   4.743537
    15  C    3.623385   2.572605   2.902198   4.308856   5.003199
    16  N    4.328965   3.118350   2.809886   4.110978   4.349821
    17  H    3.145465   2.035920   1.014518   2.150012   2.510540
    18  H    2.531674   2.608437   2.071695   1.089657   2.156205
    19  H    5.736862   5.287198   4.100596   3.206776   1.860291
    20  H    3.926104   3.543285   2.677175   2.147823   2.704071
    21  H    2.696871   2.856350   2.624233   2.133040   3.425813
    22  H    6.286747   6.092308   5.068278   3.954816   3.683745
    23  H    6.578985   7.111149   6.628448   5.267103   5.625235
    24  H    4.069846   4.716922   4.491303   3.338801   4.257811
    25  H    2.495065   2.105020   3.289491   4.534113   5.647761
    26  H    2.965071   2.140417   2.847125   4.183473   4.923055
    27  H    3.666374   2.756345   3.022565   4.259607   5.062604
    28  H    4.424074   3.485612   3.968090   5.389456   6.068363
    29  H    4.813856   3.619464   3.383245   4.684898   4.787265
    30  H    5.146195   3.958222   3.540070   4.710501   4.816328
                    6          7          8          9         10
     6  O    0.000000
     7  O    2.245382   0.000000
     8  C    3.420081   3.054723   0.000000
     9  C    3.496468   3.684069   1.492909   0.000000
    10  C    3.885777   3.950353   2.616634   1.367760   0.000000
    11  N    4.559625   5.114016   3.737368   2.267717   1.384527
    12  C    4.585606   5.488622   3.648604   2.216178   2.142240
    13  N    3.999657   4.783376   2.524088   1.378588   2.174403
    14  C    5.685893   5.001485   4.502926   5.931365   7.084111
    15  C    6.144862   4.896739   4.791504   6.281376   7.259855
    16  N    5.487360   3.983931   4.784711   6.199533   6.995880
    17  H    3.675788   2.500898   3.040339   4.384898   5.252801
    18  H    2.466888   3.260583   2.173389   2.794375   3.946546
    19  H    0.967116   2.270368   4.132763   4.138070   4.258085
    20  H    3.836465   2.790280   1.088223   2.111961   2.781832
    21  H    4.305004   4.001091   1.088994   2.138941   3.376575
    22  H    4.128830   3.705755   3.032673   2.196229   1.082409
    23  H    5.324918   6.460567   4.610635   3.240118   3.193354
    24  H    4.308945   5.240419   2.814591   2.130695   3.152730
    25  H    6.552207   5.984817   5.057686   6.448231   7.673007
    26  H    5.703266   5.201379   5.169023   6.535884   7.668293
    27  H    6.299439   4.920634   4.379237   5.857642   6.796122
    28  H    7.184379   5.920578   5.859248   7.351699   8.334358
    29  H    5.776158   4.441857   5.567034   6.945973   7.745992
    30  H    6.020704   4.226901   5.174352   6.551575   7.208998
                   11         12         13         14         15
    11  N    0.000000
    12  C    1.313130   0.000000
    13  N    2.213169   1.364744   0.000000
    14  C    8.179293   7.853653   6.533531   0.000000
    15  C    8.496912   8.388982   7.136319   1.523107   0.000000
    16  N    8.281841   8.341772   7.196679   2.476954   1.472423
    17  H    6.464194   6.453639   5.320761   2.525388   2.505800
    18  H    4.687839   4.215808   3.038144   4.065094   4.896590
    19  H    4.912400   5.139039   4.731841   6.338138   6.647580
    20  H    4.096250   4.312758   3.380050   4.634494   4.565913
    21  H    4.341315   4.023694   2.767877   4.171913   4.585313
    22  H    2.163136   3.173405   3.231390   7.317748   7.277895
    23  H    2.135406   1.075299   2.139226   8.627145   9.271737
    24  H    3.178771   2.124319   1.007719   6.224459   7.009984
    25  H    8.705889   8.271262   6.917352   1.090612   2.164901
    26  H    8.727472   8.382626   7.086313   1.096354   2.145184
    27  H    8.053283   7.993708   6.767290   2.147085   1.090715
    28  H    9.573957   9.450301   8.182226   2.143531   1.096474
    29  H    8.997606   9.027988   7.885030   2.792579   2.056844
    30  H    8.549280   8.741666   7.662908   3.350044   2.055351
                   16         17         18         19         20
    16  N    0.000000
    17  H    1.974900   0.000000
    18  H    4.849720   2.940801   0.000000
    19  H    5.806547   4.157324   3.413656   0.000000
    20  H    4.419287   2.923463   3.054687   4.364132   0.000000
    21  H    4.912468   3.355510   2.487675   5.095442   1.761661
    22  H    6.863023   5.277635   4.540346   4.302780   2.802166
    23  H    9.282003   7.371854   4.916427   5.879868   5.343226
    24  H    7.226630   5.376580   2.849084   5.150402   3.816647
    25  H    3.418248   3.538847   4.666075   7.269689   5.261747
    26  H    2.668302   2.844181   4.329705   6.298682   5.356914
    27  H    2.085626   2.730608   4.942597   6.827756   4.033335
    28  H    2.143470   3.560004   5.925633   7.663674   5.614783
    29  H    1.012856   2.575179   5.309536   6.031429   5.285024
    30  H    1.010349   2.641474   5.567148   6.241251   4.608572
                   21         22         23         24         25
    21  H    0.000000
    22  H    3.891380   0.000000
    23  H    4.870376   4.189081   0.000000
    24  H    2.748017   4.183848   2.536280   0.000000
    25  H    4.510058   7.985733   8.978790   6.492022   0.000000
    26  H    4.968483   7.904257   9.123355   6.753878   1.763486
    27  H    4.080566   6.785562   8.900327   6.697023   2.549704
    28  H    5.583784   8.335027  10.319103   8.013154   2.408115
    29  H    5.727855   7.625685   9.939372   7.874063   3.721251
    30  H    5.351625   6.935759   9.729214   7.791887   4.190779
                   26         27         28         29         30
    26  H    0.000000
    27  H    3.044349   0.000000
    28  H    2.532080   1.755952   0.000000
    29  H    2.577550   2.927337   2.386989   0.000000
    30  H    3.636383   2.314972   2.496457   1.624005   0.000000
 Symmetry turned off by external request.
 Stoichiometry    C9H14N4O3
 Framework group  C1[X(C9H14N4O3)]
 Deg. of freedom    84
 Full point group                 C1      NOp   1
 Rotational constants (GHZ):      0.9635637      0.2824545      0.2508772
 Standard basis: 6-31G(d) (6D, 7F)
   268 basis functions,   504 primitive gaussians,   268 cartesian basis functions
    60 alpha electrons       60 beta electrons
       nuclear repulsion energy      1127.8646177760 Hartrees.
 NAtoms=   30 NActive=   30 NUniq=   30 SFac= 1.00D+00 NAtFMM=   60 NAOKFM=F Big=F
 Integral buffers will be    131072 words long.
 Raffenetti 2 integral format.
 Two-electron integral symmetry is turned off.
 Nuclear repulsion after empirical dispersion term =     1127.8101966719 Hartrees.
 One-electron integrals computed using PRISM.
 NBasis=   268 RedAO= T EigKep=  1.18D-03  NBF=   268
 NBsUse=   268 1.00D-06 EigRej= -1.00D+00 NBFU=   268
 ExpMin= 1.61D-01 ExpMax= 5.48D+03 ExpMxC= 8.25D+02 IAcc=3 IRadAn=         5 AccDes= 0.00D+00
 Harris functional with IExCor=  402 and IRadAn=       5 diagonalized for initial guess.
 HarFok:  IExCor=  402 AccDes= 0.00D+00 IRadAn=         5 IDoV= 1 UseB2=F ITyADJ=14
 ICtDFT=  3500011 ScaDFX=  1.000000  1.000000  1.000000  1.000000
 FoFCou: FMM=F IPFlag=           0 FMFlag=      100000 FMFlg1=           0
         NFxFlg=           0 DoJE=T BraDBF=F KetDBF=T FulRan=T
         wScrn=  0.000000 ICntrl=     500 IOpCl=  0 I1Cent=   200000004 NGrid=           0
         NMat0=    1 NMatS0=      1 NMatT0=    0 NMatD0=    1 NMtDS0=    0 NMtDT0=    0
 Symmetry not used in FoFCou.
 Requested convergence on RMS density matrix=1.00D-08 within 128 cycles.
 Requested convergence on MAX density matrix=1.00D-06.
 Requested convergence on             energy=1.00D-06.
 No special actions if energy rises.
 Integral accuracy reduced to 1.0D-05 until final iterations.
 Initial convergence to 1.0D-05 achieved.  Increase integral accuracy.
 SCF Done:  E(RB3LYP) =  -796.137281327     A.U. after   14 cycles
            NFock= 14  Conv=0.61D-08     -V/T= 2.0088
 DoSCS=F DFT=T ScalE2(SS,OS)=  1.000000  1.000000
 Range of M.O.s used for correlation:     1   268
 NBasis=   268 NAE=    60 NBE=    60 NFC=     0 NFV=     0
 NROrb=    268 NOA=    60 NOB=    60 NVA=   208 NVB=   208
 Symmetrizing basis deriv contribution to polar:
 IMax=3 JMax=2 DiffMx= 0.00D+00
 G2DrvN: will do    31 centers at a time, making    1 passes.
 Calling FoFCou, ICntrl=  3107 FMM=F I1Cent=   0 AccDes= 0.00D+00.
 End of G2Drv F.D. properties file   721 does not exist.
 End of G2Drv F.D. properties file   722 does not exist.
 End of G2Drv F.D. properties file   788 does not exist.
          IDoAtm=111111111111111111111111111111
          Differentiating once with respect to nuclear coordinates.
          There are    93 degrees of freedom in the 1st order CPHF.  IDoFFX=6 NUNeed=     0.
     87 vectors produced by pass  0 Test12= 1.34D-14 1.08D-09 XBig12= 1.69D-01 8.40D-02.
 AX will form    87 AO Fock derivatives at one time.
     87 vectors produced by pass  1 Test12= 1.34D-14 1.08D-09 XBig12= 1.26D-02 3.27D-02.
     87 vectors produced by pass  2 Test12= 1.34D-14 1.08D-09 XBig12= 1.41D-04 1.82D-03.
     87 vectors produced by pass  3 Test12= 1.34D-14 1.08D-09 XBig12= 5.59D-07 1.06D-04.
     87 vectors produced by pass  4 Test12= 1.34D-14 1.08D-09 XBig12= 6.59D-10 3.40D-06.
     69 vectors produced by pass  5 Test12= 1.34D-14 1.08D-09 XBig12= 5.43D-13 7.13D-08.
      8 vectors produced by pass  6 Test12= 1.34D-14 1.08D-09 XBig12= 4.38D-16 2.89D-09.
 InvSVY:  IOpt=1 It=  1 EMax= 5.55D-16
 Solved reduced A of dimension   512 with    93 vectors.
 End of Minotr F.D. properties file   721 does not exist.
 End of Minotr F.D. properties file   722 does not exist.
 End of Minotr F.D. properties file   788 does not exist.

 **********************************************************************

            Population analysis using the SCF density.

 **********************************************************************

 Alpha  occ. eigenvalues --  -19.20543 -19.14713 -19.10357 -14.38275 -14.34446
 Alpha  occ. eigenvalues --  -14.34136 -14.30146 -10.32693 -10.27739 -10.23902
 Alpha  occ. eigenvalues --  -10.22979 -10.22961 -10.21020 -10.19923 -10.19598
 Alpha  occ. eigenvalues --  -10.18567  -1.11799  -1.02977  -1.02520  -1.00537
 Alpha  occ. eigenvalues --   -0.92436  -0.90458  -0.86027  -0.80124  -0.76581
 Alpha  occ. eigenvalues --   -0.73189  -0.67854  -0.64508  -0.61134  -0.60450
 Alpha  occ. eigenvalues --   -0.58299  -0.57561  -0.53239  -0.52938  -0.51422
 Alpha  occ. eigenvalues --   -0.49596  -0.48224  -0.46944  -0.46345  -0.45613
 Alpha  occ. eigenvalues --   -0.44189  -0.43742  -0.42438  -0.41091  -0.40849
 Alpha  occ. eigenvalues --   -0.40190  -0.39816  -0.38701  -0.38409  -0.37668
 Alpha  occ. eigenvalues --   -0.37066  -0.34708  -0.32605  -0.28651  -0.27026
 Alpha  occ. eigenvalues --   -0.26553  -0.25712  -0.24991  -0.24216  -0.21475
 Alpha virt. eigenvalues --   -0.00230   0.03020   0.04036   0.06483   0.07323
 Alpha virt. eigenvalues --    0.07752   0.08100   0.11457   0.11863   0.13329
 Alpha virt. eigenvalues --    0.13603   0.14757   0.15298   0.15931   0.17315
 Alpha virt. eigenvalues --    0.17487   0.18109   0.18425   0.20762   0.21962
 Alpha virt. eigenvalues --    0.22806   0.23389   0.23894   0.25412   0.26258
 Alpha virt. eigenvalues --    0.26893   0.28982   0.31586   0.32602   0.36043
 Alpha virt. eigenvalues --    0.38229   0.39537   0.42380   0.45171   0.48140
 Alpha virt. eigenvalues --    0.51229   0.52467   0.52880   0.53132   0.54129
 Alpha virt. eigenvalues --    0.55875   0.56062   0.56927   0.58469   0.59324
 Alpha virt. eigenvalues --    0.61059   0.61749   0.63776   0.64273   0.65182
 Alpha virt. eigenvalues --    0.66048   0.66552   0.68069   0.68843   0.70196
 Alpha virt. eigenvalues --    0.71410   0.71845   0.75502   0.76723   0.77009
 Alpha virt. eigenvalues --    0.77716   0.78716   0.79882   0.80475   0.80761
 Alpha virt. eigenvalues --    0.81718   0.82938   0.84141   0.84767   0.85731
 Alpha virt. eigenvalues --    0.86226   0.87208   0.87557   0.88109   0.88600
 Alpha virt. eigenvalues --    0.90075   0.91134   0.91828   0.92085   0.93597
 Alpha virt. eigenvalues --    0.93752   0.94509   0.95067   0.95637   0.97986
 Alpha virt. eigenvalues --    0.98198   1.00048   1.02126   1.04016   1.06995
 Alpha virt. eigenvalues --    1.07455   1.08757   1.11609   1.13215   1.14850
 Alpha virt. eigenvalues --    1.16855   1.21934   1.24109   1.25719   1.28955
 Alpha virt. eigenvalues --    1.29592   1.34550   1.35484   1.37390   1.37998
 Alpha virt. eigenvalues --    1.38287   1.41579   1.42924   1.44212   1.45666
 Alpha virt. eigenvalues --    1.47541   1.48844   1.52253   1.53019   1.54562
 Alpha virt. eigenvalues --    1.55672   1.57573   1.61318   1.62460   1.65825
 Alpha virt. eigenvalues --    1.70826   1.72732   1.74983   1.75810   1.76849
 Alpha virt. eigenvalues --    1.77542   1.79229   1.81987   1.82073   1.83389
 Alpha virt. eigenvalues --    1.84349   1.87016   1.87589   1.88059   1.90275
 Alpha virt. eigenvalues --    1.91238   1.92358   1.93883   1.95612   1.96728
 Alpha virt. eigenvalues --    1.99081   2.01152   2.01871   2.04604   2.05800
 Alpha virt. eigenvalues --    2.09319   2.11863   2.12783   2.15167   2.16033
 Alpha virt. eigenvalues --    2.18425   2.18748   2.22182   2.22885   2.25583
 Alpha virt. eigenvalues --    2.27912   2.29088   2.31804   2.33261   2.35737
 Alpha virt. eigenvalues --    2.36395   2.38674   2.41084   2.41587   2.42304
 Alpha virt. eigenvalues --    2.43847   2.47024   2.50372   2.51206   2.52438
 Alpha virt. eigenvalues --    2.59225   2.59415   2.61240   2.61607   2.62603
 Alpha virt. eigenvalues --    2.66331   2.67198   2.71897   2.73857   2.75510
 Alpha virt. eigenvalues --    2.77479   2.79188   2.84064   2.87073   2.95647
 Alpha virt. eigenvalues --    2.97770   3.00452   3.02317   3.04146   3.09664
 Alpha virt. eigenvalues --    3.15808   3.19130   3.82344   3.85813   3.93053
 Alpha virt. eigenvalues --    4.03838   4.05662   4.09626   4.17261   4.21470
 Alpha virt. eigenvalues --    4.24182   4.26778   4.35556   4.40995   4.42297
 Alpha virt. eigenvalues --    4.56931   4.60552   4.69864
          Condensed to atoms (all electrons):
               1          2          3          4          5          6
     1  O    8.100768   0.588601  -0.110815   0.008029   0.000764   0.000000
     2  C    0.588601   4.294311   0.279172  -0.026420   0.006307  -0.000102
     3  N   -0.110815   0.279172   7.278724   0.214644  -0.026790   0.000623
     4  C    0.008029  -0.026420   0.214644   5.116200   0.284048  -0.077363
     5  C    0.000764   0.006307  -0.026790   0.284048   4.401620   0.285783
     6  O    0.000000  -0.000102   0.000623  -0.077363   0.285783   8.211386
     7  O   -0.000003   0.000212  -0.006646  -0.085268   0.545959  -0.086916
     8  C   -0.005711  -0.005770  -0.048450   0.327735  -0.032775  -0.000309
     9  C   -0.000150   0.000114   0.004711  -0.047437   0.002717   0.001365
    10  C   -0.000001  -0.000002  -0.000042  -0.003945   0.005180  -0.000540
    11  N    0.000000   0.000000   0.000000  -0.000090  -0.000043  -0.000026
    12  C    0.000000   0.000000   0.000001   0.000256  -0.000073   0.000099
    13  N   -0.000001  -0.000008   0.000024   0.000186  -0.001103  -0.000172
    14  C   -0.074471   0.356190  -0.128836   0.008136  -0.000121   0.000001
    15  C    0.001358  -0.023226   0.010052  -0.000386  -0.000029   0.000000
    16  N   -0.000036  -0.004526  -0.036549   0.001510  -0.000053   0.000000
    17  H    0.002444  -0.005890   0.247531  -0.031293  -0.000221   0.000434
    18  H    0.012515  -0.000075  -0.047645   0.360976  -0.032528   0.004521
    19  H    0.000000   0.000006  -0.000284   0.010884  -0.007699   0.217868
    20  H    0.000054   0.000401  -0.000414  -0.036544  -0.008588   0.000258
    21  H    0.009338   0.005437  -0.010576  -0.037866   0.005699  -0.000098
    22  H    0.000000   0.000000  -0.000001   0.000076   0.000173  -0.000032
    23  H    0.000000   0.000000   0.000000   0.000001  -0.000001   0.000001
    24  H    0.000095   0.000007  -0.000043   0.000308   0.000107  -0.000018
    25  H    0.005576  -0.024471   0.005432  -0.000124   0.000002   0.000000
    26  H    0.000642  -0.025629   0.000616  -0.000302  -0.000001   0.000000
    27  H    0.000262  -0.003663   0.002466  -0.000307  -0.000002   0.000000
    28  H   -0.000088   0.003680  -0.000252   0.000013   0.000000   0.000000
    29  H    0.000002  -0.000167   0.000934  -0.000054   0.000003   0.000000
    30  H    0.000002   0.000050   0.000710  -0.000024  -0.000001   0.000000
               7          8          9         10         11         12
     1  O   -0.000003  -0.005711  -0.000150  -0.000001   0.000000   0.000000
     2  C    0.000212  -0.005770   0.000114  -0.000002   0.000000   0.000000
     3  N   -0.006646  -0.048450   0.004711  -0.000042   0.000000   0.000001
     4  C   -0.085268   0.327735  -0.047437  -0.003945  -0.000090   0.000256
     5  C    0.545959  -0.032775   0.002717   0.005180  -0.000043  -0.000073
     6  O   -0.086916  -0.000309   0.001365  -0.000540  -0.000026   0.000099
     7  O    8.066262  -0.000824  -0.002159   0.000201   0.000003   0.000000
     8  C   -0.000824   5.232919   0.339547  -0.055582   0.006912   0.005853
     9  C   -0.002159   0.339547   4.730490   0.575072  -0.043049  -0.087904
    10  C    0.000201  -0.055582   0.575072   4.945870   0.417667  -0.120984
    11  N    0.000003   0.006912  -0.043049   0.417667   6.671188   0.538975
    12  C    0.000000   0.005853  -0.087904  -0.120984   0.538975   4.737301
    13  N    0.000004  -0.070321   0.339310  -0.072382  -0.084586   0.352868
    14  C   -0.000017  -0.000401  -0.000005   0.000000   0.000000   0.000000
    15  C    0.000008   0.000009   0.000001   0.000000   0.000000   0.000000
    16  N   -0.000265  -0.000038   0.000000   0.000000   0.000000   0.000000
    17  H    0.016101   0.001167  -0.000006  -0.000002   0.000000   0.000000
    18  H    0.003215  -0.042675  -0.002271  -0.000083   0.000010  -0.000007
    19  H    0.010526  -0.000461   0.000111   0.000127  -0.000004  -0.000008
    20  H    0.006664   0.358545  -0.025870  -0.004534   0.000077  -0.000062
    21  H    0.000043   0.353928  -0.022101   0.002967  -0.000158   0.000021
    22  H    0.000173  -0.001475  -0.057627   0.380336  -0.042670   0.007388
    23  H    0.000000  -0.000164   0.003188   0.007280  -0.038880   0.381366
    24  H    0.000000  -0.002532  -0.027121   0.008495   0.005199  -0.023881
    25  H    0.000000   0.000013   0.000000   0.000000   0.000000   0.000000
    26  H    0.000000   0.000003   0.000000   0.000000   0.000000   0.000000
    27  H    0.000001   0.000092   0.000002   0.000000   0.000000   0.000000
    28  H    0.000000  -0.000002   0.000000   0.000000   0.000000   0.000000
    29  H    0.000002   0.000001   0.000000   0.000000   0.000000   0.000000
    30  H    0.000009   0.000003   0.000000   0.000000   0.000000   0.000000
              13         14         15         16         17         18
     1  O   -0.000001  -0.074471   0.001358  -0.000036   0.002444   0.012515
     2  C   -0.000008   0.356190  -0.023226  -0.004526  -0.005890  -0.000075
     3  N    0.000024  -0.128836   0.010052  -0.036549   0.247531  -0.047645
     4  C    0.000186   0.008136  -0.000386   0.001510  -0.031293   0.360976
     5  C   -0.001103  -0.000121  -0.000029  -0.000053  -0.000221  -0.032528
     6  O   -0.000172   0.000001   0.000000   0.000000   0.000434   0.004521
     7  O    0.000004  -0.000017   0.000008  -0.000265   0.016101   0.003215
     8  C   -0.070321  -0.000401   0.000009  -0.000038   0.001167  -0.042675
     9  C    0.339310  -0.000005   0.000001   0.000000  -0.000006  -0.002271
    10  C   -0.072382   0.000000   0.000000   0.000000  -0.000002  -0.000083
    11  N   -0.084586   0.000000   0.000000   0.000000   0.000000   0.000010
    12  C    0.352868   0.000000   0.000000   0.000000   0.000000  -0.000007
    13  N    6.888661   0.000000   0.000000   0.000000   0.000000   0.003137
    14  C    0.000000   5.308673   0.320101  -0.052203  -0.005970   0.000452
    15  C    0.000000   0.320101   4.944354   0.281001  -0.009064   0.000018
    16  N    0.000000  -0.052203   0.281001   6.957239   0.056608  -0.000043
    17  H    0.000000  -0.005970  -0.009064   0.056608   0.332615   0.003416
    18  H    0.003137   0.000452   0.000018  -0.000043   0.003416   0.560166
    19  H    0.000008   0.000000   0.000000   0.000000  -0.000074  -0.000414
    20  H    0.003956   0.000012   0.000009  -0.000028   0.001662   0.005526
    21  H   -0.004496   0.000181  -0.000065   0.000006  -0.000253  -0.004518
    22  H    0.005071   0.000000   0.000000   0.000000   0.000000   0.000009
    23  H   -0.058863   0.000000   0.000000   0.000000   0.000000   0.000003
    24  H    0.302500   0.000000   0.000000   0.000000   0.000000   0.000647
    25  H    0.000000   0.346872  -0.026646   0.003805   0.000135  -0.000026
    26  H    0.000000   0.354647  -0.037500  -0.004946  -0.000077  -0.000022
    27  H    0.000000  -0.042273   0.385561  -0.041283  -0.001101   0.000001
    28  H    0.000000  -0.043617   0.375599  -0.043451   0.000946   0.000000
    29  H    0.000000  -0.002758  -0.032527   0.308240  -0.001518   0.000001
    30  H    0.000000   0.005611  -0.028869   0.313285  -0.001036   0.000000
              19         20         21         22         23         24
     1  O    0.000000   0.000054   0.009338   0.000000   0.000000   0.000095
     2  C    0.000006   0.000401   0.005437   0.000000   0.000000   0.000007
     3  N   -0.000284  -0.000414  -0.010576  -0.000001   0.000000  -0.000043
     4  C    0.010884  -0.036544  -0.037866   0.000076   0.000001   0.000308
     5  C   -0.007699  -0.008588   0.005699   0.000173  -0.000001   0.000107
     6  O    0.217868   0.000258  -0.000098  -0.000032   0.000001  -0.000018
     7  O    0.010526   0.006664   0.000043   0.000173   0.000000   0.000000
     8  C   -0.000461   0.358545   0.353928  -0.001475  -0.000164  -0.002532
     9  C    0.000111  -0.025870  -0.022101  -0.057627   0.003188  -0.027121
    10  C    0.000127  -0.004534   0.002967   0.380336   0.007280   0.008495
    11  N   -0.000004   0.000077  -0.000158  -0.042670  -0.038880   0.005199
    12  C   -0.000008  -0.000062   0.000021   0.007388   0.381366  -0.023881
    13  N    0.000008   0.003956  -0.004496   0.005071  -0.058863   0.302500
    14  C    0.000000   0.000012   0.000181   0.000000   0.000000   0.000000
    15  C    0.000000   0.000009  -0.000065   0.000000   0.000000   0.000000
    16  N    0.000000  -0.000028   0.000006   0.000000   0.000000   0.000000
    17  H   -0.000074   0.001662  -0.000253   0.000000   0.000000   0.000000
    18  H   -0.000414   0.005526  -0.004518   0.000009   0.000003   0.000647
    19  H    0.357086  -0.000027   0.000009   0.000007   0.000000   0.000000
    20  H   -0.000027   0.552970  -0.028756   0.002605   0.000004  -0.000063
    21  H    0.000009  -0.028756   0.549822  -0.000023  -0.000005   0.001891
    22  H    0.000007   0.002605  -0.000023   0.571758  -0.000153  -0.000103
    23  H    0.000000   0.000004  -0.000005  -0.000153   0.552955   0.000472
    24  H    0.000000  -0.000063   0.001891  -0.000103   0.000472   0.396749
    25  H    0.000000  -0.000002   0.000006   0.000000   0.000000   0.000000
    26  H    0.000000   0.000001   0.000002   0.000000   0.000000   0.000000
    27  H    0.000000   0.000051   0.000009   0.000000   0.000000   0.000000
    28  H    0.000000   0.000000   0.000001   0.000000   0.000000   0.000000
    29  H    0.000000   0.000000   0.000000   0.000000   0.000000   0.000000
    30  H    0.000000   0.000001   0.000000   0.000000   0.000000   0.000000
              25         26         27         28         29         30
     1  O    0.005576   0.000642   0.000262  -0.000088   0.000002   0.000002
     2  C   -0.024471  -0.025629  -0.003663   0.003680  -0.000167   0.000050
     3  N    0.005432   0.000616   0.002466  -0.000252   0.000934   0.000710
     4  C   -0.000124  -0.000302  -0.000307   0.000013  -0.000054  -0.000024
     5  C    0.000002  -0.000001  -0.000002   0.000000   0.000003  -0.000001
     6  O    0.000000   0.000000   0.000000   0.000000   0.000000   0.000000
     7  O    0.000000   0.000000   0.000001   0.000000   0.000002   0.000009
     8  C    0.000013   0.000003   0.000092  -0.000002   0.000001   0.000003
     9  C    0.000000   0.000000   0.000002   0.000000   0.000000   0.000000
    10  C    0.000000   0.000000   0.000000   0.000000   0.000000   0.000000
    11  N    0.000000   0.000000   0.000000   0.000000   0.000000   0.000000
    12  C    0.000000   0.000000   0.000000   0.000000   0.000000   0.000000
    13  N    0.000000   0.000000   0.000000   0.000000   0.000000   0.000000
    14  C    0.346872   0.354647  -0.042273  -0.043617  -0.002758   0.005611
    15  C   -0.026646  -0.037500   0.385561   0.375599  -0.032527  -0.028869
    16  N    0.003805  -0.004946  -0.041283  -0.043451   0.308240   0.313285
    17  H    0.000135  -0.000077  -0.001101   0.000946  -0.001518  -0.001036
    18  H   -0.000026  -0.000022   0.000001   0.000000   0.000001   0.000000
    19  H    0.000000   0.000000   0.000000   0.000000   0.000000   0.000000
    20  H   -0.000002   0.000001   0.000051   0.000000   0.000000   0.000001
    21  H    0.000006   0.000002   0.000009   0.000001   0.000000   0.000000
    22  H    0.000000   0.000000   0.000000   0.000000   0.000000   0.000000
    23  H    0.000000   0.000000   0.000000   0.000000   0.000000   0.000000
    24  H    0.000000   0.000000   0.000000   0.000000   0.000000   0.000000
    25  H    0.545089  -0.023938  -0.001155  -0.002427  -0.000175  -0.000179
    26  H   -0.023938   0.569961   0.005670  -0.004029   0.004849   0.000007
    27  H   -0.001155   0.005670   0.575484  -0.041693   0.006203  -0.004845
    28  H   -0.002427  -0.004029  -0.041693   0.624616  -0.006081  -0.001549
    29  H   -0.000175   0.004849   0.006203  -0.006081   0.442168  -0.030029
    30  H   -0.000179   0.000007  -0.004845  -0.001549  -0.030029   0.427582
 Mulliken charges:
               1
     1  O   -0.539174
     2  C    0.585463
     3  N   -0.628301
     4  C    0.014419
     5  C    0.571666
     6  O   -0.556760
     7  O   -0.467288
     8  C   -0.359236
     9  C    0.319074
    10  C   -0.085097
    11  N   -0.430524
    12  C    0.208793
    13  N   -0.603792
    14  C   -0.350203
    15  C   -0.159761
    16  N   -0.738272
    17  H    0.393444
    18  H    0.175695
    19  H    0.412338
    20  H    0.172093
    21  H    0.179554
    22  H    0.134489
    23  H    0.152797
    24  H    0.337292
    25  H    0.172213
    26  H    0.160045
    27  H    0.160521
    28  H    0.138335
    29  H    0.310905
    30  H    0.319273
 Sum of Mulliken charges =   0.00000
 Mulliken charges with hydrogens summed into heavy atoms:
               1
     1  O   -0.539174
     2  C    0.585463
     3  N   -0.234857
     4  C    0.190115
     5  C    0.571666
     6  O   -0.144423
     7  O   -0.467288
     8  C   -0.007589
     9  C    0.319074
    10  C    0.049392
    11  N   -0.430524
    12  C    0.361590
    13  N   -0.266500
    14  C   -0.017945
    15  C    0.139094
    16  N   -0.108095
 APT charges:
               1
     1  O   -0.209143
     2  C    0.058480
     3  N   -0.634129
     4  C   -0.367867
     5  C   -0.198780
     6  O   -0.626151
     7  O   -0.011025
     8  C   -0.796576
     9  C   -0.611263
    10  C   -0.203639
    11  N    0.278321
    12  C   -0.557279
    13  N   -0.687455
    14  C   -0.893455
    15  C   -0.925440
    16  N   -1.556534
    17  H    0.523804
    18  H    0.390667
    19  H    0.882917
    20  H    0.354363
    21  H    0.358964
    22  H    0.445695
    23  H    0.984466
    24  H    0.444042
    25  H    0.578429
    26  H    0.489766
    27  H    0.223553
    28  H    0.764329
    29  H    0.778066
    30  H    0.722875
 Sum of APT charges =   0.00000
 APT charges with hydrogens summed into heavy atoms:
               1
     1  O   -0.209143
     2  C    0.058480
     3  N   -0.110324
     4  C    0.022799
     5  C   -0.198780
     6  O    0.256766
     7  O   -0.011025
     8  C   -0.083248
     9  C   -0.611263
    10  C    0.242055
    11  N    0.278321
    12  C    0.427187
    13  N   -0.243413
    14  C    0.174740
    15  C    0.062441
    16  N   -0.055592
 Electronic spatial extent (au):  <R**2>=           4504.5506
 Charge=              0.0000 electrons
 Dipole moment (field-independent basis, Debye):
    X=              4.8346    Y=             -1.6395    Z=             -0.6814  Tot=              5.1503
 Quadrupole moment (field-independent basis, Debye-Ang):
   XX=            -94.3243   YY=            -88.0721   ZZ=            -92.1469
   XY=              2.4393   XZ=            -17.5467   YZ=              2.3142
 Traceless Quadrupole moment (field-independent basis, Debye-Ang):
   XX=             -2.8099   YY=              3.4424   ZZ=             -0.6325
   XY=              2.4393   XZ=            -17.5467   YZ=              2.3142
 Octapole moment (field-independent basis, Debye-Ang**2):
  XXX=            298.7255  YYY=            -26.7495  ZZZ=             -4.0271  XYY=             44.2046
  XXY=            -44.8817  XXZ=             10.6056  XZZ=             21.8825  YZZ=              9.6155
  YYZ=             -6.3516  XYZ=            -17.0655
 Hexadecapole moment (field-independent basis, Debye-Ang**3):
 XXXX=          -4721.1708 YYYY=           -683.8727 ZZZZ=           -730.2109 XXXY=            376.9362
 XXXZ=           -147.4813 YYYX=            343.3528 YYYZ=            -98.9383 ZZZX=             -2.5289
 ZZZY=           -147.4677 XXYY=           -822.9953 XXZZ=           -692.7615 YYZZ=           -243.8141
 XXYZ=             45.9220 YYXZ=             42.8126 ZZXY=             46.1538
 N-N= 1.127810196672D+03 E-N=-4.113244863314D+03  KE= 7.891581257898D+02
  Exact polarizability:   0.000   0.000   0.000   0.000   0.000   0.000
 Approx polarizability: 196.490   2.294 129.466  -1.561  13.004 207.770
 Calling FoFJK, ICntrl=    100147 FMM=F ISym2X=0 I1Cent= 0 IOpClX= 0 NMat=1 NMatS=1 NMatT=0.
 -------------------------------------------------------------------
 Center     Atomic                   Forces (Hartrees/Bohr)
 Number     Number              X              Y              Z
 -------------------------------------------------------------------
      1        8          -0.003633672    0.005907332    0.011913462
      2        6           0.003759500   -0.004339803   -0.002567393
      3        7          -0.003947622   -0.003759769    0.001468237
      4        6           0.008420376    0.001833532    0.001839817
      5        6          -0.005935280   -0.000477039    0.003790754
      6        8           0.003455761    0.006102581    0.008433179
      7        8           0.002402548   -0.001351392   -0.010266957
      8        6          -0.010195557    0.000522081    0.000917064
      9        6           0.008386609    0.000485861   -0.000655551
     10        6          -0.007270578   -0.001449463   -0.002290965
     11        7          -0.000183538    0.000082182   -0.004682998
     12        6           0.001490066   -0.000405989   -0.002665794
     13        7           0.000598924   -0.000204766    0.004912479
     14        6          -0.002266764   -0.000432497    0.001953245
     15        6           0.003771440   -0.001056705   -0.003780963
     16        7          -0.004116212    0.002853300    0.004751979
     17        1           0.002527551   -0.001950834   -0.007939836
     18        1          -0.001338877   -0.000434607    0.001230797
     19        1          -0.004087550   -0.005357187   -0.006248391
     20        1           0.001610984    0.000117902   -0.003519695
     21        1           0.002955440    0.001774764    0.002366543
     22        1          -0.001193552    0.000691171    0.000290636
     23        1          -0.003652843    0.000325994    0.003014357
     24        1           0.001718609    0.000134837    0.001943606
     25        1           0.001922757    0.000582797    0.000312515
     26        1           0.000737482   -0.001626945    0.001946416
     27        1          -0.001858163    0.002604325   -0.001797714
     28        1           0.003293156    0.001264340    0.000124306
     29        1           0.002519732   -0.004242422    0.001017653
     30        1           0.000109275    0.001806421   -0.005810791
 -------------------------------------------------------------------
 Cartesian Forces:  Max     0.011913462 RMS     0.003837479
 FormGI is forming the generalized inverse of G from B-inverse, IUseBI=4.

 GradGradGradGradGradGradGradGradGradGradGradGradGradGradGradGradGradGrad
 Berny optimization.
 Internal  Forces:  Max     0.013738552 RMS     0.002774354
 Search for a local minimum.
 Step number   1 out of a maximum of  160
 All quantities printed in internal units (Hartrees-Bohrs-Radians)
 Mixed Optimization -- RFO/linear search
 Second derivative matrix not updated -- analytic derivatives used.
 ITU=  0
     Eigenvalues ---    0.00024   0.00095   0.00169   0.00228   0.00311
     Eigenvalues ---    0.00401   0.00462   0.00520   0.00891   0.01204
     Eigenvalues ---    0.01948   0.02266   0.02459   0.02887   0.03447
     Eigenvalues ---    0.03754   0.03788   0.04372   0.04394   0.04530
     Eigenvalues ---    0.04569   0.04720   0.05148   0.05198   0.05424
     Eigenvalues ---    0.05749   0.05895   0.06202   0.08037   0.08066
     Eigenvalues ---    0.08619   0.10184   0.10939   0.11121   0.11460
     Eigenvalues ---    0.11856   0.12974   0.13743   0.14534   0.15235
     Eigenvalues ---    0.15333   0.15815   0.16301   0.17220   0.19327
     Eigenvalues ---    0.19991   0.21333   0.22382   0.23297   0.23413
     Eigenvalues ---    0.24611   0.25026   0.25692   0.27545   0.27983
     Eigenvalues ---    0.31173   0.32262   0.32880   0.33667   0.34159
     Eigenvalues ---    0.34294   0.34397   0.34909   0.35133   0.35194
     Eigenvalues ---    0.35794   0.36265   0.37415   0.38607   0.38736
     Eigenvalues ---    0.42082   0.42570   0.43079   0.45831   0.45895
     Eigenvalues ---    0.46840   0.48061   0.49011   0.50184   0.52569
     Eigenvalues ---    0.59862   0.60136   0.85869   0.91978
 RFO step:  Lambda=-4.02974573D-03 EMin= 2.37188905D-04
 Linear search not attempted -- first point.
 Iteration  1 RMS(Cart)=  0.08537240 RMS(Int)=  0.00321888
 Iteration  2 RMS(Cart)=  0.00563334 RMS(Int)=  0.00021823
 Iteration  3 RMS(Cart)=  0.00001865 RMS(Int)=  0.00021791
 Iteration  4 RMS(Cart)=  0.00000000 RMS(Int)=  0.00021791
 Variable       Old X    -DE/DX   Delta X   Delta X   Delta X     New X
                                 (Linear)    (Quad)   (Total)
    R1        2.30975   0.01374   0.00000   0.01506   0.01506   2.32481
    R2        2.55246   0.00945   0.00000   0.01587   0.01587   2.56832
    R3        2.88226   0.00414   0.00000   0.00692   0.00692   2.88918
    R4        2.74046   0.00261   0.00000  -0.00825  -0.00825   2.73221
    R5        1.91716   0.00848   0.00000   0.01897   0.01897   1.93613
    R6        2.85304   0.00501   0.00000   0.01271   0.01271   2.86575
    R7        2.91281   0.00403   0.00000   0.02593   0.02593   2.93874
    R8        2.05915   0.00154   0.00000   0.00374   0.00374   2.06289
    R9        2.54466   0.00084   0.00000  -0.00001  -0.00001   2.54465
   R10        2.28076   0.01056   0.00000   0.01000   0.01000   2.29076
   R11        1.82758   0.00910   0.00000   0.01734   0.01734   1.84492
   R12        2.82119   0.00006   0.00000  -0.00612  -0.00612   2.81507
   R13        2.05644   0.00372   0.00000   0.01098   0.01098   2.06742
   R14        2.05790   0.00398   0.00000   0.01140   0.01140   2.06930
   R15        2.58469   0.00782   0.00000   0.01456   0.01459   2.59928
   R16        2.60515   0.00484   0.00000   0.01215   0.01217   2.61733
   R17        2.61638  -0.00243   0.00000  -0.00925  -0.00926   2.60712
   R18        2.04546  -0.00039   0.00000  -0.00069  -0.00069   2.04477
   R19        2.48146   0.00299   0.00000   0.00468   0.00465   2.48611
   R20        2.57899   0.00425   0.00000   0.00609   0.00608   2.58507
   R21        2.03202   0.00466   0.00000   0.01165   0.01165   2.04367
   R22        1.90431   0.00253   0.00000   0.00515   0.00515   1.90946
   R23        2.87826   0.00682   0.00000   0.02148   0.02148   2.89974
   R24        2.06096   0.00146   0.00000   0.00431   0.00431   2.06527
   R25        2.07181   0.00212   0.00000   0.00608   0.00608   2.07789
   R26        2.78248   0.00028   0.00000  -0.00116  -0.00116   2.78132
   R27        2.06115   0.00347   0.00000   0.00981   0.00981   2.07097
   R28        2.07204   0.00338   0.00000   0.00918   0.00918   2.08121
   R29        1.91402   0.00499   0.00000   0.01103   0.01103   1.92505
   R30        1.90928   0.00606   0.00000   0.01301   0.01301   1.92229
    A1        2.14313   0.00007   0.00000  -0.00007  -0.00011   2.14301
    A2        2.13113  -0.00195   0.00000  -0.00384  -0.00389   2.12723
    A3        2.00819   0.00192   0.00000   0.00456   0.00451   2.01270
    A4        2.11680  -0.00421   0.00000  -0.02275  -0.02346   2.09334
    A5        2.06142   0.00290   0.00000   0.00889   0.00818   2.06960
    A6        2.10188   0.00124   0.00000   0.00878   0.00806   2.10994
    A7        1.85943   0.00311   0.00000   0.03874   0.03908   1.89851
    A8        1.91561   0.00348   0.00000   0.03093   0.03129   1.94690
    A9        1.89325  -0.00184   0.00000   0.00448   0.00483   1.89809
   A10        1.93216  -0.00447   0.00000  -0.03256  -0.03366   1.89850
   A11        1.93841   0.00014   0.00000  -0.01644  -0.01753   1.92088
   A12        1.92350  -0.00020   0.00000  -0.02164  -0.02246   1.90103
   A13        1.98943  -0.00548   0.00000  -0.02750  -0.02759   1.96184
   A14        2.14640   0.00375   0.00000   0.01823   0.01814   2.16453
   A15        2.14730   0.00173   0.00000   0.00904   0.00895   2.15626
   A16        1.84773   0.00165   0.00000   0.01159   0.01159   1.85932
   A17        1.98140  -0.00139   0.00000  -0.01058  -0.01057   1.97083
   A18        1.89008  -0.00035   0.00000  -0.00345  -0.00341   1.88668
   A19        1.86954  -0.00048   0.00000  -0.01036  -0.01035   1.85919
   A20        1.89900   0.00115   0.00000   0.01460   0.01456   1.91356
   A21        1.93571   0.00114   0.00000   0.00942   0.00931   1.94502
   A22        1.88535  -0.00007   0.00000   0.00018   0.00005   1.88541
   A23        2.30865   0.00147   0.00000   0.01158   0.01143   2.32008
   A24        2.14672  -0.00029   0.00000  -0.00756  -0.00768   2.13904
   A25        1.82730  -0.00119   0.00000  -0.00481  -0.00484   1.82247
   A26        1.93663   0.00113   0.00000   0.00430   0.00429   1.94092
   A27        2.21619   0.00068   0.00000   0.00615   0.00609   2.22227
   A28        2.13022  -0.00180   0.00000  -0.01017  -0.01023   2.11999
   A29        1.83455   0.00032   0.00000   0.00086   0.00085   1.83540
   A30        1.94535   0.00149   0.00000   0.00302   0.00301   1.94835
   A31        2.20766  -0.00166   0.00000  -0.00836  -0.00835   2.19931
   A32        2.13017   0.00017   0.00000   0.00533   0.00534   2.13551
   A33        1.88094  -0.00175   0.00000  -0.00336  -0.00332   1.87762
   A34        2.19499   0.00035   0.00000  -0.00415  -0.00417   2.19083
   A35        2.20721   0.00141   0.00000   0.00751   0.00749   2.21471
   A36        2.00916   0.00236   0.00000   0.00552   0.00550   2.01466
   A37        1.84953   0.00022   0.00000   0.00695   0.00697   1.85651
   A38        1.89113  -0.00131   0.00000   0.00072   0.00066   1.89179
   A39        1.93310  -0.00182   0.00000  -0.01174  -0.01174   1.92137
   A40        1.90008   0.00064   0.00000   0.00779   0.00776   1.90784
   A41        1.87594  -0.00026   0.00000  -0.01040  -0.01039   1.86556
   A42        1.94689  -0.00190   0.00000  -0.00872  -0.00875   1.93814
   A43        1.90838   0.00116   0.00000   0.00039   0.00032   1.90870
   A44        1.89772   0.00032   0.00000   0.00064   0.00066   1.89838
   A45        1.88482  -0.00054   0.00000  -0.00880  -0.00884   1.87598
   A46        1.95965   0.00141   0.00000   0.01538   0.01540   1.97505
   A47        1.86407  -0.00036   0.00000   0.00124   0.00126   1.86533
   A48        1.92578  -0.00076   0.00000  -0.00199  -0.00199   1.92378
   A49        1.92631   0.00090   0.00000   0.00635   0.00635   1.93266
   A50        1.86358   0.00025   0.00000   0.00148   0.00148   1.86506
    D1        0.01058   0.00030   0.00000   0.03760   0.03755   0.04813
    D2        3.06813  -0.00044   0.00000  -0.03082  -0.03080   3.03733
    D3        3.11147   0.00122   0.00000   0.05526   0.05524  -3.11647
    D4       -0.11416   0.00048   0.00000  -0.01316  -0.01311  -0.12727
    D5       -2.44762   0.00113   0.00000   0.01099   0.01098  -2.43664
    D6       -0.30482   0.00048   0.00000   0.00470   0.00470  -0.30011
    D7        1.70405  -0.00033   0.00000  -0.00348  -0.00349   1.70055
    D8        0.73436   0.00017   0.00000  -0.00663  -0.00663   0.72773
    D9        2.87716  -0.00048   0.00000  -0.01292  -0.01290   2.86426
   D10       -1.39716  -0.00129   0.00000  -0.02110  -0.02110  -1.41826
   D11       -2.78402  -0.00103   0.00000  -0.03659  -0.03620  -2.82023
   D12        1.40649   0.00059   0.00000  -0.03729  -0.03765   1.36884
   D13       -0.69600  -0.00012   0.00000  -0.03217  -0.03216  -0.72816
   D14        0.44354  -0.00035   0.00000   0.03344   0.03380   0.47734
   D15       -1.64914   0.00127   0.00000   0.03273   0.03235  -1.61678
   D16        2.53156   0.00057   0.00000   0.03785   0.03784   2.56940
   D17        2.24515  -0.00073   0.00000   0.12151   0.12166   2.36681
   D18       -0.90705  -0.00099   0.00000   0.09754   0.09765  -0.80940
   D19       -1.95609   0.00285   0.00000   0.16398   0.16361  -1.79248
   D20        1.17489   0.00259   0.00000   0.14001   0.13960   1.31450
   D21        0.18666  -0.00045   0.00000   0.10202   0.10229   0.28895
   D22       -2.96554  -0.00071   0.00000   0.07805   0.07828  -2.88725
   D23       -3.11890   0.00129   0.00000   0.02976   0.02966  -3.08924
   D24        1.05341   0.00098   0.00000   0.02052   0.02044   1.07385
   D25       -0.97608   0.00149   0.00000   0.02745   0.02739  -0.94869
   D26        1.11655  -0.00197   0.00000  -0.01710  -0.01673   1.09982
   D27       -0.99433  -0.00228   0.00000  -0.02634  -0.02594  -1.02028
   D28       -3.02382  -0.00177   0.00000  -0.01941  -0.01899  -3.04282
   D29       -1.03485   0.00107   0.00000   0.04121   0.04088  -0.99397
   D30        3.13746   0.00076   0.00000   0.03197   0.03166  -3.11407
   D31        1.10797   0.00127   0.00000   0.03890   0.03861   1.14657
   D32        3.12130  -0.00095   0.00000  -0.06453  -0.06447   3.05683
   D33       -0.00968  -0.00070   0.00000  -0.04060  -0.04066  -0.05034
   D34       -1.79528   0.00014   0.00000   0.00710   0.00711  -1.78817
   D35        1.30639  -0.00022   0.00000  -0.02380  -0.02382   1.28257
   D36        0.31058  -0.00041   0.00000   0.00613   0.00607   0.31666
   D37       -2.87094  -0.00077   0.00000  -0.02477  -0.02485  -2.89579
   D38        2.38200   0.00090   0.00000   0.02106   0.02115   2.40315
   D39       -0.79952   0.00054   0.00000  -0.00984  -0.00978  -0.80930
   D40        3.10613  -0.00014   0.00000  -0.02228  -0.02242   3.08371
   D41       -0.01710  -0.00056   0.00000  -0.03957  -0.03971  -0.05680
   D42       -0.00084   0.00017   0.00000   0.00463   0.00461   0.00377
   D43       -3.12407  -0.00025   0.00000  -0.01266  -0.01267  -3.13675
   D44       -3.11173   0.00015   0.00000   0.02068   0.02046  -3.09127
   D45        0.03813   0.00018   0.00000   0.01958   0.01941   0.05755
   D46       -0.00067  -0.00008   0.00000  -0.00259  -0.00255  -0.00322
   D47       -3.13400  -0.00004   0.00000  -0.00369  -0.00359  -3.13759
   D48        0.00207  -0.00020   0.00000  -0.00490  -0.00489  -0.00283
   D49        3.12635   0.00022   0.00000   0.01158   0.01142   3.13777
   D50       -0.00250   0.00015   0.00000   0.00316   0.00316   0.00066
   D51        3.13638   0.00004   0.00000   0.00002   0.00002   3.13640
   D52        0.00207  -0.00005   0.00000  -0.00040  -0.00040   0.00166
   D53        3.13532  -0.00009   0.00000   0.00064   0.00059   3.13590
   D54       -3.13695   0.00006   0.00000   0.00260   0.00263  -3.13432
   D55       -0.00370   0.00002   0.00000   0.00364   0.00362  -0.00008
   D56       -1.18885   0.00060   0.00000   0.01202   0.01199  -1.17686
   D57        0.89470  -0.00051   0.00000  -0.00412  -0.00414   0.89056
   D58        2.92393  -0.00013   0.00000  -0.00207  -0.00209   2.92183
   D59        2.99687   0.00003   0.00000   0.00791   0.00792   3.00478
   D60       -1.20276  -0.00108   0.00000  -0.00823  -0.00822  -1.21098
   D61        0.82646  -0.00070   0.00000  -0.00618  -0.00617   0.82029
   D62        0.93784   0.00102   0.00000   0.02275   0.02276   0.96060
   D63        3.02139  -0.00009   0.00000   0.00660   0.00662   3.02802
   D64       -1.23257   0.00030   0.00000   0.00866   0.00867  -1.22389
   D65       -1.27155   0.00020   0.00000   0.01550   0.01554  -1.25601
   D66        2.95611  -0.00020   0.00000   0.01100   0.01103   2.96714
   D67        2.91417   0.00027   0.00000   0.02598   0.02594   2.94012
   D68        0.85864  -0.00013   0.00000   0.02147   0.02143   0.88008
   D69        0.86366   0.00024   0.00000   0.02111   0.02111   0.88477
   D70       -1.19187  -0.00016   0.00000   0.01660   0.01660  -1.17527
         Item               Value     Threshold  Converged?
 Maximum Force            0.013739     0.000450     NO 
 RMS     Force            0.002774     0.000300     NO 
 Maximum Displacement     0.534827     0.001800     NO 
 RMS     Displacement     0.086193     0.001200     NO 
 Predicted change in Energy=-2.287123D-03
 GradGradGradGradGradGradGradGradGradGradGradGradGradGradGradGradGradGrad

                          Input orientation:                          
 ---------------------------------------------------------------------
 Center     Atomic      Atomic             Coordinates (Angstroms)
 Number     Number       Type             X           Y           Z
 ---------------------------------------------------------------------
      1          8           0        1.399008    0.439244    2.024245
      2          6           0        1.827416   -0.032857    0.972071
      3          7           0        1.014894   -0.545735    0.010867
      4          6           0       -0.420432   -0.496664    0.177701
      5          6           0       -1.055732   -1.503518   -0.761652
      6          8           0       -2.025683   -2.221712   -0.164454
      7          8           0       -0.754417   -1.625594   -1.929460
      8          6           0       -0.985158    0.915647   -0.146095
      9          6           0       -2.453164    1.020315    0.084406
     10          6           0       -3.537181    1.014776   -0.762245
     11          7           0       -4.721668    1.066768   -0.056794
     12          6           0       -4.366735    1.100200    1.209575
     13          7           0       -3.006583    1.072967    1.352974
     14          6           0        3.324592   -0.109615    0.671947
     15          6           0        3.725591    0.226672   -0.770526
     16          7           0        3.230839   -0.794095   -1.708331
     17          1           0        1.431388   -0.837270   -0.878660
     18          1           0       -0.662154   -0.745810    1.212671
     19          1           0       -2.424967   -2.780375   -0.858438
     20          1           0       -0.760458    1.139683   -1.193103
     21          1           0       -0.430410    1.623600    0.478518
     22          1           0       -3.525009    0.975086   -1.843492
     23          1           0       -5.037170    1.149029    2.056747
     24          1           0       -2.487450    1.093955    2.219611
     25          1           0        3.813738    0.577136    1.367308
     26          1           0        3.676921   -1.121016    0.920925
     27          1           0        3.276471    1.183891   -1.058691
     28          1           0        4.817951    0.360500   -0.812622
     29          1           0        3.762235   -1.656728   -1.602425
     30          1           0        3.353262   -0.488436   -2.670800
 ---------------------------------------------------------------------
                    Distance matrix (angstroms):
                    1          2          3          4          5
     1  O    0.000000
     2  C    1.230238   0.000000
     3  N    2.274076   1.359099   0.000000
     4  C    2.756086   2.428778   1.445822   0.000000
     5  C    4.190621   3.671673   2.408657   1.516492   0.000000
     6  O    4.857942   4.574839   3.476312   2.381112   1.346571
     7  O    4.953038   4.197804   2.839265   2.413743   1.212216
     8  C    3.259077   3.171834   2.482032   1.555115   2.497249
     9  C    4.351993   4.496719   3.805961   2.538095   3.006387
    10  C    5.697519   5.734482   4.873836   3.589161   3.535448
    11  N    6.495166   6.719989   5.959269   4.582569   4.532360
    12  C    5.860404   6.301407   5.753949   4.380416   4.650572
    13  N    4.501271   4.973478   4.538031   3.245487   3.862090
    14  C    2.416161   1.528889   2.441707   3.797274   4.815123
    15  C    3.642653   2.589800   2.924905   4.314146   5.084751
    16  N    4.336918   3.119877   2.815624   4.120359   4.446816
    17  H    3.171340   2.056483   1.024558   2.158969   2.577468
    18  H    2.512249   2.600798   2.072885   1.091634   2.151041
    19  H    5.770493   5.383528   4.193083   3.210464   1.874709
    20  H    3.937669   3.572103   2.728012   2.161562   2.694411
    21  H    2.671842   2.843453   2.648323   2.141520   3.421684
    22  H    6.284303   6.131215   5.134419   3.986185   3.662129
    23  H    6.475278   7.049533   6.609487   5.249132   5.552587
    24  H    3.946057   4.630781   4.453486   3.312405   4.205307
    25  H    2.506292   2.115130   3.306705   4.527295   5.707305
    26  H    2.973317   2.146479   2.871505   4.210760   5.037398
    27  H    3.685630   2.775650   3.041430   4.245000   5.106700
    28  H    4.443331   3.504733   3.995327   5.399641   6.162574
    29  H    4.809436   3.606731   3.374152   4.691407   4.893177
    30  H    5.169444   3.975710   3.558454   4.728086   4.910649
                    6          7          8          9         10
     6  O    0.000000
     7  O    2.255376   0.000000
     8  C    3.305459   3.113124   0.000000
     9  C    3.279544   3.733929   1.489673   0.000000
    10  C    3.621717   4.009703   2.627220   1.375479   0.000000
    11  N    4.253708   5.147307   3.740631   2.273370   1.379629
    12  C    4.289939   5.507479   3.647870   2.221292   2.140918
    13  N    3.757614   4.809247   2.521531   1.385031   2.181530
    14  C    5.812570   5.069894   4.504920   5.916452   7.099654
    15  C    6.280053   4.984425   4.801641   6.287908   7.305411
    16  N    5.661508   4.077076   4.810242   6.230078   7.069171
    17  H    3.791848   2.550172   3.073933   4.412239   5.303800
    18  H    2.435975   3.264279   2.170487   2.756790   3.907138
    19  H    0.976291   2.295941   4.030020   3.915992   3.955938
    20  H    3.736026   2.861645   1.094033   2.124036   2.812726
    21  H    4.212450   4.057166   1.095027   2.147280   3.400321
    22  H    3.909817   3.800935   3.055410   2.206284   1.082043
    23  H    5.036336   6.475365   4.617984   3.253273   3.196046
    24  H    4.109822   5.254915   2.808066   2.136749   3.162225
    25  H    6.654223   6.048862   5.043251   6.412199   7.665672
    26  H    5.908408   5.293019   5.198222   6.546984   7.709600
    27  H    6.364797   4.989940   4.366494   5.844839   6.822194
    28  H    7.343247   6.020231   5.867582   7.355890   8.380861
    29  H    5.990573   4.528583   5.592473   6.974463   7.818204
    30  H    6.182158   4.326170   5.212243   6.601672   7.306192
                   11         12         13         14         15
    11  N    0.000000
    12  C    1.315593   0.000000
    13  N    2.220136   1.367961   0.000000
    14  C    8.164389   7.804435   6.476579   0.000000
    15  C    8.518883   8.376729   7.109686   1.534476   0.000000
    16  N    8.332632   8.356174   7.194647   2.478513   1.471810
    17  H    6.493144   6.460088   5.322103   2.553054   2.531212
    18  H    4.623487   4.139043   2.970518   4.073239   4.912342
    19  H    4.551701   4.806870   4.480721   6.521692   6.846855
    20  H    4.121614   4.333549   3.395885   4.661201   4.597478
    21  H    4.360220   4.037703   2.775705   4.140228   4.558932
    22  H    2.152368   3.169443   3.239713   7.377062   7.367672
    23  H    2.138542   1.081466   2.150433   8.568601   9.253658
    24  H    3.189747   2.133524   1.010444   6.133814   6.949458
    25  H    8.667235   8.198695   6.838335   1.092894   2.168162
    26  H    8.733764   8.349701   7.047656   1.099571   2.163247
    27  H    8.061498   7.973119   6.730914   2.161153   1.095909
    28  H    9.595542   9.433710   8.149892   2.157562   1.101332
    29  H    9.043397   9.032615   7.874168   2.785292   2.059270
    30  H    8.628800   8.785182   7.686116   3.364266   2.064232
                   16         17         18         19         20
    16  N    0.000000
    17  H    1.981979   0.000000
    18  H    4.867235   2.960566   0.000000
    19  H    6.054400   4.318279   3.396535   0.000000
    20  H    4.464909   2.968401   3.058184   4.271937   0.000000
    21  H    4.902275   3.371068   2.491342   5.016045   1.771278
    22  H    6.984966   5.364830   4.527422   4.035333   2.844792
    23  H    9.290399   7.375922   4.841863   5.546361   5.371394
    24  H    7.189735   5.355950   2.780353   4.948607   3.825075
    25  H    3.417543   3.566582   4.669873   7.426187   5.272137
    26  H    2.686793   2.891615   4.365028   6.569067   5.410195
    27  H    2.082437   2.742596   4.939191   6.947078   4.039408
    28  H    2.157385   3.592746   5.946199   7.894748   5.645400
    29  H    1.018692   2.574528   5.322571   6.332264   5.333124
    30  H    1.017233   2.650859   5.592063   6.474996   4.664446
                   21         22         23         24         25
    21  H    0.000000
    22  H    3.922862   0.000000
    23  H    4.892674   4.186735   0.000000
    24  H    2.746514   4.195171   2.555510   0.000000
    25  H    4.460697   8.020274   8.896120   6.379536   0.000000
    26  H    4.959718   7.993963   9.076264   6.677735   1.761163
    27  H    4.036995   6.849792   8.878277   6.631601   2.557788
    28  H    5.550473   8.428843  10.294584   7.943631   2.409869
    29  H    5.715693   7.751676   9.934351   7.825137   3.716465
    30  H    5.356779   7.080745   9.768846   7.780360   4.201642
                   26         27         28         29         30
    26  H    0.000000
    27  H    3.064610   0.000000
    28  H    2.549906   1.764846   0.000000
    29  H    2.581000   2.932699   2.409882   0.000000
    30  H    3.661339   2.324106   2.513728   1.635112   0.000000
 Symmetry turned off by external request.
 Stoichiometry    C9H14N4O3
 Framework group  C1[X(C9H14N4O3)]
 Deg. of freedom    84
 Full point group                 C1      NOp   1
 Rotational constants (GHZ):      0.9808836      0.2827397      0.2498713
 Standard basis: 6-31G(d) (6D, 7F)
   268 basis functions,   504 primitive gaussians,   268 cartesian basis functions
    60 alpha electrons       60 beta electrons
       nuclear repulsion energy      1127.4349996367 Hartrees.
 NAtoms=   30 NActive=   30 NUniq=   30 SFac= 1.00D+00 NAtFMM=   60 NAOKFM=F Big=F
 Integral buffers will be    131072 words long.
 Raffenetti 2 integral format.
 Two-electron integral symmetry is turned off.
 Nuclear repulsion after empirical dispersion term =     1127.3804235607 Hartrees.
 One-electron integrals computed using PRISM.
 NBasis=   268 RedAO= T EigKep=  1.22D-03  NBF=   268
 NBsUse=   268 1.00D-06 EigRej= -1.00D+00 NBFU=   268
 Initial guess from the checkpoint file:  "conf-338.chk"
 B after Tr=    -0.009592   -0.012887   -0.004731
         Rot=    1.000000   -0.000383   -0.000372    0.000339 Ang=  -0.07 deg.
 ExpMin= 1.61D-01 ExpMax= 5.48D+03 ExpMxC= 8.25D+02 IAcc=2 IRadAn=         4 AccDes= 0.00D+00
 Harris functional with IExCor=  402 and IRadAn=       4 diagonalized for initial guess.
 HarFok:  IExCor=  402 AccDes= 0.00D+00 IRadAn=         4 IDoV= 1 UseB2=F ITyADJ=14
 ICtDFT=  3500011 ScaDFX=  1.000000  1.000000  1.000000  1.000000
 FoFCou: FMM=F IPFlag=           0 FMFlag=      100000 FMFlg1=           0
         NFxFlg=           0 DoJE=T BraDBF=F KetDBF=T FulRan=T
         wScrn=  0.000000 ICntrl=     500 IOpCl=  0 I1Cent=   200000004 NGrid=           0
[...]
 .00066159,-0.00017716,0.00017834,-0.00029353,-0.00019900,-0.00007208,0
 .00013987,0.00037574,0.00000944,-0.00018691,-0.00006606,-0.00128401,-0
 .00047306,-0.00004825,0.00002078,-0.00003508,0.00005275,-0.00035266,0.
 00005520,-0.00023254,-0.00000865,0.00033766,-0.00021276,0.00192561,-0.
 00037717,-0.00034774,-0.00105724,0.00008423,-0.04650861,0.03116677,-0.
 00388822,0.00164269,-0.00472292,0.00261029,-0.00072571,-0.00044899,-0.
 00002318,0.00002753,-0.00052051,0.00070454,-0.00044264,-0.00007714,-0.
 00018614,-0.00051133,-0.00041024,0.00019414,0.00023071,0.00008884,-0.0
 0010114,0.00027631,0.00029540,0.00018330,0.00037218,0.00075368,-0.0282
 1857,0.00736836,-0.00274569,-0.00164789,-0.00190499,-0.00753111,0.0073
 3537,-0.00289708,-0.00022064,0.01048200,0.00313412,0.01729469,-0.12887
 657,0.00467389,-0.13392406,-0.00007252,-0.00046732,0.00033893,-0.00008
 849,-0.00000548,0.00000384,-0.00010553,-0.00000681,-0.00001645,0.00010
 303,-0.00003881,-0.00012560,0.00000629,-0.00053272,0.00002374,-0.00003
 200,-0.00003800,0.00000384,-0.00002092,0.00026565,0.00034684,0.0004325
 1,0.00013265,-0.00060642,-0.00132396,-0.00012091,0.00055455,-0.0001559
 3,0.00014366,-0.00064148,0.14269905,-0.01059679,0.13227836,0.00331468,
 0.00222814,0.00072056,-0.00834320,-0.02948367,-0.02486385,-0.00706256,
 0.00082806,0.00102004,0.00027520,-0.00011377,-0.00159754,-0.00038345,0
 .00039254,0.00029538,-0.00013074,-0.00024269,-0.00018561,0.00006699,-0
 .00013054,-0.00016492,-0.00014219,-0.00019890,-0.00007342,-0.00002292,
 0.00002626,-0.00015499,0.00006399,0.00000960,0.00001404,0.00003310,0.0
 0001122,0.00009648,-0.00011798,0.00003049,0.00005960,0.00015880,-0.000
 03946,-0.00000904,-0.05805175,-0.03948044,-0.03062355,0.00300567,0.013
 90531,0.00855075,-0.00103990,-0.00129851,0.00407831,-0.00045517,0.0000
 5833,0.00084826,0.00003004,-0.00003217,-0.00001062,-0.00003052,-0.0000
 3081,0.00000013,-0.00005543,0.00007855,-0.00000933,-0.00000608,0.00000
 997,0.00000011,0.00000895,-0.00000328,0.00000333,-0.00000834,0.0000009
 0,0.00000763,-0.00023556,0.00006318,-0.00005169,0.06641091,0.00048875,
 0.00106927,0.00170311,0.00253343,-0.00210914,-0.00185156,-0.00082011,0
 .00061430,-0.00001135,0.00043451,0.00038521,-0.00008580,0.00012050,0.0
 0005245,0.00006314,-0.00008044,-0.00004145,-0.00002597,-0.00007085,-0.
 00000436,-0.00003533,-0.00010681,-0.00005312,-0.00005008,-0.00000633,0
 .00000921,-0.00004748,0.00002273,0.00000370,0.00001395,-0.00001672,0.0
 0000802,0.00003918,-0.00002198,0.00000255,0.00000130,0.00000165,-0.000
 00757,-0.00001004,-0.04272363,-0.20371824,-0.12786331,0.00172556,0.005
 10516,0.00458322,-0.00036068,0.00079105,0.00104089,0.00004852,-0.00014
 682,0.00041853,-0.00003436,-0.00002129,0.00001156,0.00001425,0.0000087
 0,0.00000865,-0.00003433,0.00002792,-0.00000785,-0.00001430,-0.0000254
 8,0.00001003,0.00000333,-0.00000063,0.00000004,-0.00000395,0.00000362,
 0.00000404,-0.00002037,0.00001304,-0.00002694,0.04437966,0.21737632,0.
 00207086,0.00146870,0.00065101,-0.00204158,-0.00364402,-0.00486675,-0.
 00101006,-0.00003708,0.00146381,0.00013217,-0.00029041,-0.00006843,0.0
 0002004,-0.00002880,-0.00005923,-0.00007227,-0.00003010,-0.00001854,-0
 .00008445,0.00000989,0.00006211,0.00002118,-0.00003595,0.00001189,-0.0
 0000789,-0.00000369,-0.00003809,0.00000925,0.00000077,-0.00000851,0.00
 002985,0.00000093,0.00001529,-0.00004112,0.00001169,0.00002995,0.00006
 150,-0.00000150,0.00000615,-0.03344906,-0.12794312,-0.15537154,-0.0072
 0180,-0.02200036,-0.01455073,0.00237491,0.00219840,-0.00562751,0.00081
 893,0.00033906,-0.00022444,-0.00004826,0.00000654,0.00003603,0.0000006
 9,-0.00000353,-0.00000287,0.00001291,0.00000261,0.00000616,0.00000716,
 0.00000867,-0.00002453,0.00000264,-0.00000192,0.00000184,0.,-0.0000027
 9,0.00000066,-0.00008959,0.00003288,0.00002141,0.03458477,0.13945827,0
 .16747603,-0.00216726,-0.00380368,0.00240937,-0.01100840,0.03195849,-0
 .01486516,-0.00085152,-0.00193167,0.00038717,-0.00001502,-0.00133708,0
 .00041183,-0.00026098,0.00033810,0.00042555,-0.00011445,-0.00020945,-0
 .00018192,0.00006906,-0.00021768,-0.00016122,0.00025203,-0.00015491,0.
 00002081,0.00003791,0.00001688,0.00005171,0.00001785,0.00000965,0.0000
 1766,-0.00010033,0.00001502,0.00002430,0.00005916,-0.00001259,-0.00003
 990,-0.00014480,0.00004952,-0.00010701,-0.07658018,0.07414454,-0.03869
 366,0.00634538,-0.01553941,0.00865632,0.00053421,-0.00041380,-0.001369
 50,-0.00066296,0.00066864,-0.00036842,-0.00023708,-0.00003716,-0.00018
 913,-0.00002735,0.00000949,-0.00002781,-0.00003776,0.00000119,-0.00001
 241,0.00005161,-0.00002296,0.00004646,-0.00000344,-0.00000055,-0.00000
 444,-0.00000305,0.00000498,0.00000619,0.00030117,-0.00024423,0.0000677
 4,0.00215379,-0.00583231,0.00353202,0.08253408,0.00093163,0.00072704,0
 .00017097,-0.00074573,0.00281110,-0.00258233,-0.00035928,-0.00017319,-
 0.00057387,0.00019222,-0.00021865,0.00023657,-0.00005897,-0.00004554,0
 .00002939,0.00001609,0.00001036,-0.00001896,0.00001607,0.00002033,-0.0
 0000625,-0.00003684,-0.00003804,-0.00000033,-0.00001925,-0.00000096,-0
 .00005554,0.00001130,0.00000217,0.00000202,0.00003697,-0.00000069,0.00
 000981,-0.00004188,0.00001471,0.00003668,0.00009698,-0.00000770,-0.000
 00528,0.06996650,-0.22599433,0.09175870,0.00160119,-0.00482321,0.00191
 013,-0.00045326,0.00174770,-0.00103119,-0.00017171,-0.00001678,0.00005
 140,-0.00006698,-0.00003767,-0.00001972,-0.00000853,-0.00000940,-0.000
 00225,-0.00001089,0.00000876,-0.00000222,0.00001774,-0.00000733,-0.000
 00802,0.00000180,-0.00000166,0.00000171,0.00000037,-0.00000468,-0.0000
 0082,-0.00014828,0.00000970,0.00003066,0.00823855,-0.02070733,0.011650
 03,-0.07742410,0.24513745,0.00087592,0.00066352,-0.00038729,-0.0018297
 9,0.00240024,-0.00257048,-0.00071523,-0.00079426,0.00036799,-0.0000451
 0,-0.00031474,-0.00001068,-0.00019486,0.00007490,0.00011473,0.00004148
 ,-0.00002960,-0.00004357,0.00010038,-0.00007240,-0.00001073,0.00005646
 ,-0.00001360,-0.00000007,-0.00001376,-0.00001839,-0.00003763,0.0000132
 2,-0.00000374,0.00000274,0.00002187,-0.00000084,0.00001743,-0.00003851
 ,0.00001522,0.00002676,0.00003311,-0.00000466,0.00000084,-0.03690313,0
 .09172663,-0.09212805,-0.00936388,0.02664742,-0.01642628,-0.00087555,0
 .00051264,0.00291614,-0.00037512,0.00048720,-0.00028667,-0.00005356,-0
 .00002360,-0.00002432,-0.00002080,-0.00000140,-0.00001311,0.00000029,0
 .00000526,0.00000086,0.00002014,-0.00001561,-0.00000681,0.00000247,0.0
 0000084,0.00000050,0.00000018,-0.00000063,-0.00000006,-0.00010268,0.00
 001603,-0.00000677,0.00758314,-0.01730952,0.01029433,0.03792783,-0.102
 69660,0.10200300,0.00036230,0.00004672,-0.00018808,0.00101384,-0.00098
 811,0.00042873,0.00007578,0.00023481,-0.00015227,-0.00016515,0.0000996
 5,-0.00013699,-0.00004610,-0.00011769,-0.00011339,0.00007258,0.0000628
 0,0.00004827,0.00002477,0.00007825,0.00006008,-0.00009221,-0.00004997,
 0.00003966,0.00000709,0.00000663,-0.00001887,-0.00002095,0.00000424,-0
 .00000848,0.00004441,-0.00002078,-0.00002739,-0.00000881,0.00000556,0.
 00001565,0.00006772,-0.00001421,0.00001879,0.00645099,-0.01448476,0.00
 917454,-0.09522729,0.08183383,-0.05262812,0.00240144,-0.00299628,0.003
 20161,0.00011688,-0.00051271,0.00007136,0.00007939,0.00002015,0.000023
 18,-0.00000705,-0.00000731,-0.00000185,0.00002024,0.00000544,0.0000074
 3,0.00003252,0.00005304,-0.00001835,0.00000126,0.00000198,0.00000263,0
 .00000215,-0.00000031,-0.00000444,-0.00009240,0.00003491,0.00002423,0.
 00027199,0.00036356,-0.00074300,-0.00119122,-0.00114084,0.00350229,0.0
 9729548,-0.00030441,-0.00007113,-0.00006155,0.00087076,0.00032982,0.00
 072458,-0.00061374,0.00057550,-0.00068581,-0.00014204,-0.00004309,0.00
 003959,0.00007412,-0.00013826,-0.00010748,-0.00002845,0.00003500,0.000
 02836,-0.00009913,0.00012816,0.00002347,-0.00007926,-0.00007998,0.0000
 3966,-0.00000048,0.00003731,0.00001156,-0.00001741,0.00001113,-0.00000
 690,0.00001048,-0.00001254,-0.00003254,0.00002071,-0.00000596,-0.00001
 243,-0.00000370,0.00001414,0.00000484,0.00042622,-0.00223115,0.0031824
 1,0.07749275,-0.20512269,0.09445384,0.01021288,-0.02880543,0.01056008,
 0.00084342,-0.00087052,-0.00003382,0.00003232,0.00001163,-0.00000559,0
 .00000731,-0.00001300,0.00000920,-0.00000747,-0.00000176,-0.00000268,-
 0.00002169,0.00007088,0.00000191,-0.00000289,-0.00000185,0.00000103,0.
 00000159,-0.00000268,-0.00000281,0.00002234,-0.00002353,0.00002369,-0.
 00027124,0.00025417,0.00038181,-0.00011097,0.00108562,0.00042269,-0.08
 676960,0.23135960,0.00053695,-0.00031029,-0.00011238,-0.00236102,-0.00
 007958,0.00030754,0.00045056,-0.00019190,0.00079011,0.00003022,0.00014
 227,0.00007114,0.00003669,-0.00000945,-0.00001290,-0.00000285,0.000001
 79,0.00001730,-0.00000953,0.00001181,0.00000102,0.00006055,0.00005466,
 -0.00003893,-0.00000037,-0.00001749,-0.00000994,0.00001177,-0.00000770
 ,0.00000372,0.00000631,0.00000085,0.00001928,-0.00001789,0.00000397,0.
 00000906,0.00002628,-0.00003802,0.00000357,-0.00970779,0.02323282,-0.0
 1509354,-0.05273660,0.10214582,-0.11229581,0.00898612,-0.02282682,0.01
 018939,0.00026418,0.00018866,-0.00014669,-0.00002793,-0.00000388,0.000
 00874,0.00000454,0.00000639,-0.00000179,-0.00000981,-0.00001418,0.0000
 0265,0.00000532,-0.00001983,0.00002460,0.00000194,0.00000133,0.0000000
 2,-0.00000059,0.00000477,0.00000005,-0.00007028,0.00007454,-0.00003135
 ,-0.00042543,-0.00042434,0.00055506,0.00349534,0.00022203,-0.00473805,
 0.05352624,-0.10209819,0.12362498,-0.00191627,0.00060630,0.00035762,0.
 00252665,-0.00063677,0.00337789,-0.00004172,-0.00019233,-0.00005430,0.
 00038874,0.00022693,-0.00003216,0.00029134,0.00021652,0.00008971,-0.00
 024358,-0.00013915,-0.00007405,-0.00018301,-0.00012652,-0.00006800,-0.
 00002397,-0.00008954,-0.00003408,0.00002955,0.00003230,0.00004742,0.00
 001444,0.00001035,0.00001680,-0.00013479,0.00003236,0.00002954,0.00007
 824,-0.00003170,-0.00007095,-0.00022028,0.00007354,-0.00002000,-0.0171
 3180,-0.00210775,-0.00213278,-0.27709818,-0.04079938,-0.04406697,0.003
 85479,-0.00547972,-0.00388183,0.00065618,0.00010961,-0.00023535,-0.000
 03928,0.00001167,0.00002868,0.00003477,0.00002140,0.00001101,-0.000041
 83,0.00002250,-0.00002214,0.00000413,-0.00004980,0.00003003,-0.0000030
 3,-0.00000420,-0.00000656,-0.00000370,0.00000072,0.00000996,0.00032954
 ,-0.00014047,-0.00005811,0.00020385,0.00049509,0.00034242,0.00079830,-
 0.00044541,-0.00021384,-0.01261271,-0.00143728,-0.00234083,0.29853023,
 -0.00061959,0.00025202,0.00020056,0.00014102,0.00070145,0.00131421,-0.
 00014620,0.00071690,0.00022345,-0.00011037,0.00004989,0.00018505,0.000
 47631,-0.00017704,-0.00030140,-0.00026372,-0.00000994,0.00005199,-0.00
 040353,0.00007193,0.00015394,-0.00003764,-0.00005805,0.00004007,0.0000
 0865,0.00003101,0.00000244,0.00000145,0.00000836,-0.00000409,-0.000015
 73,0.00000184,0.00000450,0.00000954,-0.00000486,-0.00001220,-0.0000307
 1,0.00002329,-0.00000045,-0.00668050,-0.00023580,0.00029788,-0.0411551
 7,-0.06118775,-0.00476619,-0.02878587,-0.01525651,-0.01582874,0.002111
 39,-0.00094515,-0.00123809,-0.00001757,0.00001278,-0.00000454,0.000045
 38,0.00001820,0.00001211,0.00000646,-0.00000425,0.00000100,-0.00002268
 ,0.00003083,-0.00000914,0.00000043,-0.00000287,0.00000066,-0.00000126,
 -0.00000051,0.00000208,0.00004786,-0.00004264,-0.00000071,0.00047332,0
 .00044811,-0.00001893,-0.00008192,0.00002349,-0.00077771,0.02489137,0.
 00644638,0.00464292,0.05076722,0.06714659,0.00305254,-0.00091860,-0.00
 004213,-0.00234063,0.00105582,-0.00689063,-0.00006368,0.00070627,0.002
 03230,-0.00024635,0.00004177,0.00027643,0.00044704,-0.00031314,-0.0004
 0642,-0.00019781,0.00005356,0.00009822,-0.00036192,0.00014917,0.000252
 84,0.00009282,0.00004565,0.00002381,-0.00002060,-0.00002718,-0.0000871
 9,0.00004162,-0.00001219,-0.00000774,0.00009333,0.00000068,0.00005516,
 -0.00011304,0.00004090,0.00009170,0.00023957,-0.00008116,-0.00001285,0
 .03187872,0.00558580,0.00419340,-0.04500843,-0.00500821,-0.05977176,-0
 .02156984,-0.01396037,-0.00806244,0.00239963,-0.00054461,-0.00124683,-
 0.00003359,-0.00002687,-0.00002412,0.00004265,0.00001734,0.00000762,0.
 00004323,-0.00002413,0.00002697,0.00000313,0.00001837,-0.00003059,0.00
 000997,-0.00000080,0.00000583,-0.00000072,-0.00000067,-0.00000096,-0.0
 0038790,0.00014248,0.00002224,-0.00038930,-0.00041869,0.00106741,-0.00
 090566,0.00002613,0.00120261,-0.01642118,-0.00256850,-0.00225067,0.049
 57461,0.01473353,0.06854105,0.00000392,0.00005595,0.00005711,-0.000360
 89,0.00034181,-0.00017103,-0.00152713,-0.00111878,0.00159337,-0.000031
 43,-0.00002211,0.00025979,-0.00056510,0.00038422,0.00037096,0.00030129
 ,-0.00000154,-0.00008856,0.00051056,-0.00050138,-0.00002768,0.00002244
 ,0.00005339,-0.00001820,0.00000062,-0.00003415,0.00000311,-0.00000609,
 -0.00001078,-0.00000068,0.00001592,-0.00000662,-0.00000155,-0.00001383
 ,0.00000468,0.00000752,0.00001690,-0.00002263,0.00000938,-0.00048658,0
 .00099625,-0.00013838,-0.00061729,-0.01126165,-0.00104876,-0.13103611,
 0.18807776,-0.08027766,0.00104779,0.00328377,-0.00243157,-0.00016942,-
 0.00001405,-0.00000263,-0.00006791,0.00000208,-0.00003963,0.00001578,0
 .00000688,0.00000085,0.00001853,-0.00005347,-0.00001141,-0.00000008,0.
 00000592,-0.00000063,0.,0.00000403,-0.00000146,-0.00002401,0.00004011,
 -0.00000718,0.00003400,-0.00043869,0.00026969,0.00024414,0.00003985,0.
 00074746,0.00086642,-0.00076606,-0.00017604,0.00148468,-0.00072738,0.0
 0112436,0.12586583,-0.00033689,0.00012937,0.00020151,0.00027049,-0.000
 05729,-0.00001638,-0.00076033,-0.00029678,0.00069859,0.00011087,0.0000
 5387,0.00007844,-0.00012259,0.00021620,0.00018724,0.00005019,-0.000045
 20,-0.00005769,0.00012486,-0.00026155,-0.00006477,-0.00003475,-0.00001
 415,-0.00000564,0.00000636,0.00000381,0.00001168,-0.00000212,0.0000007
 2,0.00000384,-0.00002424,0.00000052,-0.00000089,0.00001790,-0.00000568
 ,-0.00001218,-0.00004235,0.00000861,-0.00000723,-0.00041128,0.00121892
 ,0.00022199,0.01797007,-0.02686639,0.01237907,0.14078918,-0.25782942,0
 .09871693,0.00131981,0.00088275,-0.00116754,-0.00006894,-0.00000330,0.
 00000930,-0.00002264,0.00001004,-0.00001327,-0.00000560,0.00001352,-0.
 00000737,0.00000368,-0.00002339,0.00000070,-0.00000136,0.00000176,-0.0
 0000219,0.00000028,0.00000148,0.00000056,0.00007282,-0.00002248,-0.000
 00152,-0.00027635,0.00017261,0.00007019,0.00046619,0.00029923,-0.00086
 205,-0.00128570,-0.00356211,-0.00509496,-0.00062842,0.00173909,0.00126
 257,-0.16273081,0.28958799,-0.00027290,0.00000582,0.00004824,0.0005008
 1,0.00004315,0.00008360,-0.00004789,0.00006487,-0.00032210,0.00015313,
 -0.00003131,0.00001051,-0.00005737,0.00016250,0.00017546,0.00002210,-0
 .00004108,-0.00006248,0.00009573,-0.00017434,-0.00010042,-0.00002274,-
 0.00001595,-0.00001294,0.00000905,0.00000604,0.00001643,0.00000069,0.0
 0000263,0.00000615,-0.00003473,0.00000602,-0.00000258,0.00002847,-0.00
 000786,-0.00001370,-0.00005384,0.00001802,-0.00001516,0.00023130,-0.00
 110330,0.00216883,0.01315336,-0.02094673,0.00986608,-0.06017065,0.1027
 5003,-0.11500563,-0.00025674,-0.00012466,0.00010824,-0.00001511,-0.000
 00688,-0.00001368,-0.00001063,0.00000497,0.00000490,-0.00000735,0.0000
 1418,-0.00000837,-0.00000330,-0.00001659,0.00000030,-0.00000167,-0.000
 00009,-0.00000290,0.00000095,-0.00000115,0.00000075,0.00008187,-0.0000
 4101,0.00000580,-0.00029397,0.00044405,-0.00008122,-0.00032740,0.00093
 945,-0.00078820,0.00007530,-0.00448525,-0.00223142,-0.00009909,0.00007
 324,0.00054843,0.07138504,-0.10795086,0.11794427,-0.00040918,0.0001764
 3,0.00008759,0.00104062,-0.00050293,-0.00036339,-0.00291978,0.00069230
 ,-0.00022345,0.00037004,0.00030393,0.00041211,-0.00078027,0.00052630,0
 .00084039,0.00042436,-0.00008675,-0.00017367,0.00066334,-0.00008379,-0
 .00080703,-0.00019936,-0.00009718,-0.00001330,-0.00001268,0.00007141,0
 .00002149,-0.00001883,0.00001618,0.00001116,-0.00003609,-0.00001429,-0
 .00004455,0.00005779,-0.00002221,-0.00004017,-0.00007322,0.00001770,-0
 .00002581,0.00022843,0.00085443,0.00057198,-0.00301555,-0.00323373,-0.
 00904383,-0.07680220,-0.02283053,0.16334322,0.00266995,-0.00092833,0.0
 0244535,-0.00013000,-0.00003513,-0.00004184,-0.00008797,-0.00006346,0.
 00000588,-0.00010237,0.00003895,-0.00003948,0.00002636,0.00001278,0.00
 005630,-0.00001057,0.00000181,-0.00000513,0.00000423,-0.00000111,-0.00
 000491,0.00016375,-0.00004869,0.00001556,0.00005383,-0.00004569,0.0004
 9809,0.00000710,-0.00003532,-0.00018043,0.00025665,0.00066091,0.000443
 93,0.00046873,0.00011943,-0.00098256,0.00445707,0.00555167,-0.02406242
 ,0.07370582,0.00027423,0.00008727,0.00027671,-0.00075248,-0.00041648,-
 0.00052824,-0.00028786,0.00036286,0.00032588,0.00010119,0.00011388,0.0
 0012461,-0.00015365,0.00018913,0.00024073,0.00013359,-0.00003024,-0.00
 004546,0.00021096,-0.00011682,-0.00024310,-0.00002265,0.00003685,-0.00
 001904,-0.00000503,-0.00001311,-0.00001158,0.00000754,-0.00000627,0.00
 000528,0.00000071,0.00000051,0.00001302,-0.00001217,0.00000445,0.00000
 727,0.00001545,-0.00001345,-0.00000559,-0.00144632,-0.00560941,-0.0028
 5960,0.01255942,0.00693592,-0.03216854,-0.01558942,-0.07727605,0.07743
 700,0.00077921,-0.00040236,0.00034780,-0.00003601,-0.00002142,-0.00001
 177,-0.00002621,-0.00000042,0.00000129,-0.00000073,0.00001412,-0.00000
 259,-0.00000692,-0.00002775,-0.00001212,0.00000169,0.00000343,-0.00000
 088,-0.00000040,0.00000150,0.00000030,-0.00002930,0.00001728,-0.000004
 32,0.00086777,0.00049002,-0.00159823,-0.00030821,0.00018950,-0.0000332
 4,0.00064533,0.00062633,0.00040202,-0.00031807,0.00020322,0.00002505,-
 0.01558655,-0.00535273,0.03041207,0.01898490,0.08001023,0.00009129,0.0
 0020515,0.00023059,-0.00028620,-0.00040073,-0.00037273,-0.00087298,0.0
 0034587,0.00045870,0.00008076,0.00013739,0.00014630,-0.00003530,0.0000
 9062,0.00011977,0.00002982,-0.00002109,-0.00003037,0.00003078,-0.00004
 244,-0.00015865,-0.00003078,-0.00001255,-0.00000817,-0.00000291,0.0000
 0981,-0.00000411,0.00000402,0.00000164,0.00000507,-0.00000601,0.,0.000
 00157,0.00000021,-0.00000090,-0.00000210,-0.00000444,-0.00000097,-0.00
 000918,-0.00183957,-0.00517066,-0.00131890,0.01040587,0.00651772,-0.01
 831705,0.11442113,0.06782663,-0.35289399,0.00165859,-0.00032688,-0.000
 03578,-0.00004177,-0.00001362,0.00000125,-0.00000887,-0.00000886,0.000
 00984,-0.00002054,0.00000807,-0.00000762,0.00000484,-0.00000487,0.0000
 0664,-0.00000147,0.00000027,-0.00000101,-0.00000002,0.00000008,-0.0000
 0034,0.00000839,-0.00000023,-0.00000279,0.00099075,0.00036829,-0.00075
 673,-0.00022667,-0.00007230,0.00053085,0.00024241,0.00019483,0.0013352
 8,-0.00050465,0.00102257,0.00038834,0.00861440,0.00142191,-0.01232718,
 -0.13270107,-0.07207472,0.38301249\\-0.00000754,0.00000605,-0.00000004
 ,0.00001859,0.00000299,0.00002581,-0.00000087,-0.00001097,-0.00000425,
 -0.00002366,0.00001135,-0.00002192,-0.00000635,-0.00000117,-0.00000177
 ,-0.00000235,-0.00000202,-0.00000205,-0.00000020,-0.00000067,0.0000037
 0,0.00001609,-0.00000481,-0.00000071,-0.00000031,0.00000067,-0.0000005
 1,-0.00000095,-0.00000175,-0.00000274,0.00000118,-0.00000023,0.0000024
 1,-0.00000224,0.00000054,0.00000261,0.00000999,0.00000021,0.00000464,-
 0.00000082,0.00000399,0.00000095,0.00000116,-0.00000019,-0.00000158,-0
 .00000347,0.00000060,0.00000226,0.00000440,0.00000157,-0.00000589,0.00
 000244,-0.00000476,-0.00000218,0.00000048,-0.00000115,0.00000068,0.000
 00293,-0.00000418,0.00000057,-0.00000914,0.00000394,-0.00000196,0.0000
 0075,-0.00000043,0.00000045,0.00000002,0.00000043,0.00000014,-0.000000
 06,-0.00000146,-0.00000084,0.00000142,0.00000057,0.00000058,-0.0000013
 8,0.00000026,0.00000007,-0.00000006,-0.00000006,-0.00000001,0.00000026
 ,0.00000063,0.00000069,0.00000001,-0.00000009,0.00000070,-0.00000031,0
 .00000016,0.00000021\\\@


 ... FOR AFTERWARDS A MAN FINDS PLEASURE IN HIS PAINS,
 WHEN HE HAS SUFFERED LONG AND WANDERED FAR.

                                    -- HOMER
 Job cpu time:       0 days  1 hours  4 minutes  9.3 seconds.
 File lengths (MBytes):  RWF=    260 Int=      0 D2E=      0 Chk=      8 Scr=      1
 Normal termination of Gaussian 09 at Tue Jul 27 02:22:19 2021.
