 Entering Gaussian System, Link 0=g09
 Input=opt_freq-conf-640.com
 Output=opt_freq-conf-640.log
 Initial command:
 /aerosol/software/g09/l1.exe "/scratch/nicole/10543/Gau-85352.inp" -scrdir="/scratch/nicole/10543/"
 Entering Link 1 = /aerosol/software/g09/l1.exe PID=     85355.
  
 Copyright (c) 1988,1990,1992,1993,1995,1998,2003,2009,2013,
            Gaussian, Inc.  All Rights Reserved.
  
 This is part of the Gaussian(R) 09 program.  It is based on
 the Gaussian(R) 03 system (copyright 2003, Gaussian, Inc.),
 the Gaussian(R) 98 system (copyright 1998, Gaussian, Inc.),
 the Gaussian(R) 94 system (copyright 1995, Gaussian, Inc.),
 the Gaussian 92(TM) system (copyright 1992, Gaussian, Inc.),
 the Gaussian 90(TM) system (copyright 1990, Gaussian, Inc.),
 the Gaussian 88(TM) system (copyright 1988, Gaussian, Inc.),
 the Gaussian 86(TM) system (copyright 1986, Carnegie Mellon
 University), and the Gaussian 82(TM) system (copyright 1983,
 Carnegie Mellon University). Gaussian is a federally registered
 trademark of Gaussian, Inc.
  
 This software contains proprietary and confidential information,
 including trade secrets, belonging to Gaussian, Inc.
  
 This software is provided under written license and may be
 used, copied, transmitted, or stored only in accord with that
 written license.
  
 The following legend is applicable only to US Government
 contracts under FAR:
  
                    RESTRICTED RIGHTS LEGEND
  
 Use, reproduction and disclosure by the US Government is
 subject to restrictions as set forth in subparagraphs (a)
 and (c) of the Commercial Computer Software - Restricted
 Rights clause in FAR 52.227-19.
  
 Gaussian, Inc.
 340 Quinnipiac St., Bldg. 40, Wallingford CT 06492
  
  
 ---------------------------------------------------------------
 Warning -- This program may not be used in any manner that
 competes with the business of Gaussian, Inc. or will provide
 assistance to any competitor of Gaussian, Inc.  The licensee
 of this program is prohibited from giving any competitor of
 Gaussian, Inc. access to this program.  By using this program,
 the user acknowledges that Gaussian, Inc. is engaged in the
 business of creating and licensing software in the field of
 computational chemistry and represents and warrants to the
 licensee that it is not a competitor of Gaussian, Inc. and that
 it will not use this program in any manner prohibited above.
 ---------------------------------------------------------------
  

 Cite this work as:
 Gaussian 09, Revision D.01,
 M. J. Frisch, G. W. Trucks, H. B. Schlegel, G. E. Scuseria, 
 M. A. Robb, J. R. Cheeseman, G. Scalmani, V. Barone, B. Mennucci, 
 G. A. Petersson, H. Nakatsuji, M. Caricato, X. Li, H. P. Hratchian, 
 A. F. Izmaylov, J. Bloino, G. Zheng, J. L. Sonnenberg, M. Hada, 
 M. Ehara, K. Toyota, R. Fukuda, J. Hasegawa, M. Ishida, T. Nakajima, 
 Y. Honda, O. Kitao, H. Nakai, T. Vreven, J. A. Montgomery, Jr., 
 J. E. Peralta, F. Ogliaro, M. Bearpark, J. J. Heyd, E. Brothers, 
 K. N. Kudin, V. N. Staroverov, T. Keith, R. Kobayashi, J. Normand, 
 K. Raghavachari, A. Rendell, J. C. Burant, S. S. Iyengar, J. Tomasi, 
 M. Cossi, N. Rega, J. M. Millam, M. Klene, J. E. Knox, J. B. Cross, 
 V. Bakken, C. Adamo, J. Jaramillo, R. Gomperts, R. E. Stratmann, 
 O. Yazyev, A. J. Austin, R. Cammi, C. Pomelli, J. W. Ochterski, 
 R. L. Martin, K. Morokuma, V. G. Zakrzewski, G. A. Voth, 
 P. Salvador, J. J. Dannenberg, S. Dapprich, A. D. Daniels, 
 O. Farkas, J. B. Foresman, J. V. Ortiz, J. Cioslowski, 
 and D. J. Fox, Gaussian, Inc., Wallingford CT, 2013.
 
 ******************************************
 Gaussian 09:  ES64L-G09RevD.01 24-Apr-2013
                27-Jul-2021 
 ******************************************
 %mem=2gb
 %nproc=4
 Will use up to    4 processors via shared memory.
 %chk=conf-640.chk
 ----------------------------------------------------------------------
 # B3LYP/6-31G(d) EmpiricalDispersion=GD3BJ opt=calcfc freq=noraman nos
 ymm integral(ultrafinegrid)
 ----------------------------------------------------------------------
 1/10=4,14=-1,18=20,19=15,26=4,38=1/1,3;
 2/9=110,12=2,15=1,17=6,18=5,40=1/2;
 3/5=1,6=6,7=1,11=2,16=1,25=1,30=1,71=2,74=-5,75=-5,124=41,140=1/1,2,3;
 4//1;
 5/5=2,38=5/2;
 8/6=4,10=90,11=11/1;
 11/6=1,8=1,9=11,15=111,16=1,31=1/1,2,10;
 10/6=1,13=1,31=1/2;
 6/7=2,8=2,9=2,10=2,28=1/1;
 7/10=1,18=20,25=1,30=1/1,2,3,16;
 1/10=4,14=-1,18=20,19=15,26=4/3(2);
 2/9=110,15=1/2;
 99//99;
 2/9=110,15=1/2;
 3/5=1,6=6,7=1,11=2,16=1,25=1,30=1,71=1,74=-5,75=-5,124=41/1,2,3;
 4/5=5,16=3,69=1/1;
 5/5=2,38=5/2;
 7/30=1/1,2,3,16;
 1/14=-1,18=20,19=15,26=4/3(-5);
 2/9=110,15=1/2;
 6/7=2,8=2,9=2,10=2,19=2,28=1/1;
 99/9=1/99;
 ------------------------------------------------------------
 Candidate Structure: Conf:640 OPT and FREQ calc in gas phase
 ------------------------------------------------------------
 Symbolic Z-matrix:
 Charge =  0 Multiplicity = 1
 O                     0.92904  -1.24196  -0.873 
 C                     1.14845  -0.10723  -0.44526 
 N                     0.2273    0.87891  -0.54866 
 C                    -0.97462   0.70331  -1.33263 
 C                    -1.08429   1.83216  -2.33354 
 O                    -1.97773   1.54387  -3.30167 
 O                    -0.49299   2.87836  -2.27439 
 C                    -2.26049   0.68855  -0.4937 
 C                    -2.33041  -0.37329   0.56466 
 C                    -3.14952  -0.49021   1.64953 
 N                    -2.89099  -1.66012   2.3362 
 C                    -1.92679  -2.23652   1.662 
 N                    -1.55644  -1.50578   0.58175 
 C                     2.45641   0.27932   0.21253 
 C                     3.08644  -0.86428   1.00797 
 N                     4.40372  -0.56311   1.56443 
 H                     0.49677   1.83106  -0.35097 
 H                    -0.88867  -0.23908  -1.87118 
 H                    -2.00681   2.31839  -3.87722 
 H                    -3.09639   0.5662   -1.18687 
 H                    -2.4066    1.65964  -0.01709 
 H                    -3.91554   0.19426   1.98446 
 H                    -1.45505  -3.17397   1.89963 
 H                    -0.77922  -1.70241  -0.03841 
 H                     2.29431   1.15407   0.84898 
 H                     3.14994   0.58266  -0.5804 
 H                     2.43604  -1.14432   1.83845 
 H                     3.16991  -1.73687   0.3616 
 H                     4.3486    0.23292   2.18976 
 H                     5.04569  -0.30467   0.82302 
 

 GradGradGradGradGradGradGradGradGradGradGradGradGradGradGradGradGradGrad
 Berny optimization.
 Initialization pass.
                           ----------------------------
                           !    Initial Parameters    !
                           ! (Angstroms and Degrees)  !
 --------------------------                            --------------------------
 ! Name  Definition              Value          Derivative Info.                !
 --------------------------------------------------------------------------------
 ! R1    R(1,2)                  1.2324         calculate D2E/DX2 analytically  !
 ! R2    R(2,3)                  1.3534         calculate D2E/DX2 analytically  !
 ! R3    R(2,14)                 1.5142         calculate D2E/DX2 analytically  !
 ! R4    R(3,4)                  1.4457         calculate D2E/DX2 analytically  !
 ! R5    R(3,17)                 1.0091         calculate D2E/DX2 analytically  !
 ! R6    R(4,5)                  1.5127         calculate D2E/DX2 analytically  !
 ! R7    R(4,8)                  1.5354         calculate D2E/DX2 analytically  !
 ! R8    R(4,18)                 1.0888         calculate D2E/DX2 analytically  !
 ! R9    R(5,6)                  1.3486         calculate D2E/DX2 analytically  !
 ! R10   R(5,7)                  1.2032         calculate D2E/DX2 analytically  !
 ! R11   R(6,19)                 0.9654         calculate D2E/DX2 analytically  !
 ! R12   R(8,9)                  1.5008         calculate D2E/DX2 analytically  !
 ! R13   R(8,20)                 1.0928         calculate D2E/DX2 analytically  !
 ! R14   R(8,21)                 1.0916         calculate D2E/DX2 analytically  !
 ! R15   R(9,10)                 1.3644         calculate D2E/DX2 analytically  !
 ! R16   R(9,13)                 1.3718         calculate D2E/DX2 analytically  !
 ! R17   R(10,11)                1.381          calculate D2E/DX2 analytically  !
 ! R18   R(10,22)                1.0805         calculate D2E/DX2 analytically  !
 ! R19   R(11,12)                1.3101         calculate D2E/DX2 analytically  !
 ! R20   R(12,13)                1.3558         calculate D2E/DX2 analytically  !
 ! R21   R(12,23)                1.076          calculate D2E/DX2 analytically  !
 ! R22   R(13,24)                1.0136         calculate D2E/DX2 analytically  !
 ! R23   R(14,15)                1.5289         calculate D2E/DX2 analytically  !
 ! R24   R(14,25)                1.0939         calculate D2E/DX2 analytically  !
 ! R25   R(14,26)                1.0962         calculate D2E/DX2 analytically  !
 ! R26   R(15,16)                1.4614         calculate D2E/DX2 analytically  !
 ! R27   R(15,27)                1.0914         calculate D2E/DX2 analytically  !
 ! R28   R(15,28)                1.0891         calculate D2E/DX2 analytically  !
 ! R29   R(16,29)                1.0138         calculate D2E/DX2 analytically  !
 ! R30   R(16,30)                1.0142         calculate D2E/DX2 analytically  !
 ! A1    A(1,2,3)              121.5484         calculate D2E/DX2 analytically  !
 ! A2    A(1,2,14)             122.6579         calculate D2E/DX2 analytically  !
 ! A3    A(3,2,14)             115.7913         calculate D2E/DX2 analytically  !
 ! A4    A(2,3,4)              121.2506         calculate D2E/DX2 analytically  !
 ! A5    A(2,3,17)             119.3924         calculate D2E/DX2 analytically  !
 ! A6    A(4,3,17)             116.2863         calculate D2E/DX2 analytically  !
 ! A7    A(3,4,5)              109.175          calculate D2E/DX2 analytically  !
 ! A8    A(3,4,8)              113.6491         calculate D2E/DX2 analytically  !
 ! A9    A(3,4,18)             107.922          calculate D2E/DX2 analytically  !
 ! A10   A(5,4,8)              107.9384         calculate D2E/DX2 analytically  !
 ! A11   A(5,4,18)             108.9258         calculate D2E/DX2 analytically  !
 ! A12   A(8,4,18)             109.1496         calculate D2E/DX2 analytically  !
 ! A13   A(4,5,6)              111.317          calculate D2E/DX2 analytically  !
 ! A14   A(4,5,7)              125.5017         calculate D2E/DX2 analytically  !
 ! A15   A(6,5,7)              123.1454         calculate D2E/DX2 analytically  !
 ! A16   A(5,6,19)             106.0485         calculate D2E/DX2 analytically  !
 ! A17   A(4,8,9)              115.5387         calculate D2E/DX2 analytically  !
 ! A18   A(4,8,20)             107.1636         calculate D2E/DX2 analytically  !
 ! A19   A(4,8,21)             110.0055         calculate D2E/DX2 analytically  !
 ! A20   A(9,8,20)             109.4183         calculate D2E/DX2 analytically  !
 ! A21   A(9,8,21)             108.3769         calculate D2E/DX2 analytically  !
 ! A22   A(20,8,21)            105.9131         calculate D2E/DX2 analytically  !
 ! A23   A(8,9,10)             130.4895         calculate D2E/DX2 analytically  !
 ! A24   A(8,9,13)             124.5113         calculate D2E/DX2 analytically  !
 ! A25   A(10,9,13)            104.9555         calculate D2E/DX2 analytically  !
 ! A26   A(9,10,11)            110.8288         calculate D2E/DX2 analytically  !
 ! A27   A(9,10,22)            128.1563         calculate D2E/DX2 analytically  !
 ! A28   A(11,10,22)           121.0148         calculate D2E/DX2 analytically  !
 ! A29   A(10,11,12)           104.7504         calculate D2E/DX2 analytically  !
 ! A30   A(11,12,13)           111.9587         calculate D2E/DX2 analytically  !
 ! A31   A(11,12,23)           126.3198         calculate D2E/DX2 analytically  !
 ! A32   A(13,12,23)           121.7214         calculate D2E/DX2 analytically  !
 ! A33   A(9,13,12)            107.5037         calculate D2E/DX2 analytically  !
 ! A34   A(9,13,24)            125.8148         calculate D2E/DX2 analytically  !
 ! A35   A(12,13,24)           126.3288         calculate D2E/DX2 analytically  !
 ! A36   A(2,14,15)            113.0179         calculate D2E/DX2 analytically  !
 ! A37   A(2,14,25)            109.2018         calculate D2E/DX2 analytically  !
 ! A38   A(2,14,26)            107.6311         calculate D2E/DX2 analytically  !
 ! A39   A(15,14,25)           110.8868         calculate D2E/DX2 analytically  !
 ! A40   A(15,14,26)           108.8199         calculate D2E/DX2 analytically  !
 ! A41   A(25,14,26)           107.0571         calculate D2E/DX2 analytically  !
 ! A42   A(14,15,16)           114.5457         calculate D2E/DX2 analytically  !
 ! A43   A(14,15,27)           110.0138         calculate D2E/DX2 analytically  !
 ! A44   A(14,15,28)           108.7903         calculate D2E/DX2 analytically  !
 ! A45   A(16,15,27)           107.476          calculate D2E/DX2 analytically  !
 ! A46   A(16,15,28)           108.7849         calculate D2E/DX2 analytically  !
 ! A47   A(27,15,28)           106.9591         calculate D2E/DX2 analytically  !
 ! A48   A(15,16,29)           110.346          calculate D2E/DX2 analytically  !
 ! A49   A(15,16,30)           110.1652         calculate D2E/DX2 analytically  !
 ! A50   A(29,16,30)           106.5732         calculate D2E/DX2 analytically  !
 ! D1    D(1,2,3,4)             -9.0351         calculate D2E/DX2 analytically  !
 ! D2    D(1,2,3,17)          -168.4865         calculate D2E/DX2 analytically  !
 ! D3    D(14,2,3,4)           170.4087         calculate D2E/DX2 analytically  !
 ! D4    D(14,2,3,17)           10.9574         calculate D2E/DX2 analytically  !
 ! D5    D(1,2,14,15)          -33.549          calculate D2E/DX2 analytically  !
 ! D6    D(1,2,14,25)         -157.4765         calculate D2E/DX2 analytically  !
 ! D7    D(1,2,14,26)           86.6363         calculate D2E/DX2 analytically  !
 ! D8    D(3,2,14,15)          147.014          calculate D2E/DX2 analytically  !
 ! D9    D(3,2,14,25)           23.0865         calculate D2E/DX2 analytically  !
 ! D10   D(3,2,14,26)          -92.8008         calculate D2E/DX2 analytically  !
 ! D11   D(2,3,4,5)           -125.8807         calculate D2E/DX2 analytically  !
 ! D12   D(2,3,4,8)            113.5711         calculate D2E/DX2 analytically  !
 ! D13   D(2,3,4,18)            -7.6271         calculate D2E/DX2 analytically  !
 ! D14   D(17,3,4,5)            34.1759         calculate D2E/DX2 analytically  !
 ! D15   D(17,3,4,8)           -86.3724         calculate D2E/DX2 analytically  !
 ! D16   D(17,3,4,18)          152.4295         calculate D2E/DX2 analytically  !
 ! D17   D(3,4,5,6)            164.2008         calculate D2E/DX2 analytically  !
 ! D18   D(3,4,5,7)            -17.9287         calculate D2E/DX2 analytically  !
 ! D19   D(8,4,5,6)            -71.8144         calculate D2E/DX2 analytically  !
 ! D20   D(8,4,5,7)            106.0562         calculate D2E/DX2 analytically  !
 ! D21   D(18,4,5,6)            46.5777         calculate D2E/DX2 analytically  !
 ! D22   D(18,4,5,7)          -135.5517         calculate D2E/DX2 analytically  !
 ! D23   D(3,4,8,9)            -58.5958         calculate D2E/DX2 analytically  !
 ! D24   D(3,4,8,20)           179.1816         calculate D2E/DX2 analytically  !
 ! D25   D(3,4,8,21)            64.4837         calculate D2E/DX2 analytically  !
 ! D26   D(5,4,8,9)           -179.8379         calculate D2E/DX2 analytically  !
 ! D27   D(5,4,8,20)            57.9396         calculate D2E/DX2 analytically  !
 ! D28   D(5,4,8,21)           -56.7584         calculate D2E/DX2 analytically  !
 ! D29   D(18,4,8,9)            61.9133         calculate D2E/DX2 analytically  !
 ! D30   D(18,4,8,20)          -60.3092         calculate D2E/DX2 analytically  !
 ! D31   D(18,4,8,21)         -175.0072         calculate D2E/DX2 analytically  !
 ! D32   D(4,5,6,19)           178.314          calculate D2E/DX2 analytically  !
 ! D33   D(7,5,6,19)             0.3845         calculate D2E/DX2 analytically  !
 ! D34   D(4,8,9,10)           163.5485         calculate D2E/DX2 analytically  !
 ! D35   D(4,8,9,13)           -19.2303         calculate D2E/DX2 analytically  !
 ! D36   D(20,8,9,10)          -75.4396         calculate D2E/DX2 analytically  !
 ! D37   D(20,8,9,13)          101.7816         calculate D2E/DX2 analytically  !
 ! D38   D(21,8,9,10)           39.6128         calculate D2E/DX2 analytically  !
 ! D39   D(21,8,9,13)         -143.166          calculate D2E/DX2 analytically  !
 ! D40   D(8,9,10,11)          178.0604         calculate D2E/DX2 analytically  !
 ! D41   D(8,9,10,22)           -1.8368         calculate D2E/DX2 analytically  !
 ! D42   D(13,9,10,11)           0.4303         calculate D2E/DX2 analytically  !
 ! D43   D(13,9,10,22)        -179.4669         calculate D2E/DX2 analytically  !
 ! D44   D(8,9,13,12)         -178.3463         calculate D2E/DX2 analytically  !
 ! D45   D(8,9,13,24)            8.1382         calculate D2E/DX2 analytically  !
 ! D46   D(10,9,13,12)          -0.5334         calculate D2E/DX2 analytically  !
 ! D47   D(10,9,13,24)        -174.049          calculate D2E/DX2 analytically  !
 ! D48   D(9,10,11,12)          -0.1528         calculate D2E/DX2 analytically  !
 ! D49   D(22,10,11,12)        179.7528         calculate D2E/DX2 analytically  !
 ! D50   D(10,11,12,13)         -0.201          calculate D2E/DX2 analytically  !
 ! D51   D(10,11,12,23)        179.7219         calculate D2E/DX2 analytically  !
 ! D52   D(11,12,13,9)           0.4761         calculate D2E/DX2 analytically  !
 ! D53   D(11,12,13,24)        173.949          calculate D2E/DX2 analytically  !
 ! D54   D(23,12,13,9)        -179.4508         calculate D2E/DX2 analytically  !
 ! D55   D(23,12,13,24)         -5.978          calculate D2E/DX2 analytically  !
 ! D56   D(2,14,15,16)         175.1479         calculate D2E/DX2 analytically  !
 ! D57   D(2,14,15,27)         -63.6736         calculate D2E/DX2 analytically  !
 ! D58   D(2,14,15,28)          53.1883         calculate D2E/DX2 analytically  !
 ! D59   D(25,14,15,16)        -61.8547         calculate D2E/DX2 analytically  !
 ! D60   D(25,14,15,27)         59.3238         calculate D2E/DX2 analytically  !
 ! D61   D(25,14,15,28)        176.1857         calculate D2E/DX2 analytically  !
 ! D62   D(26,14,15,16)         55.645          calculate D2E/DX2 analytically  !
 ! D63   D(26,14,15,27)        176.8234         calculate D2E/DX2 analytically  !
 ! D64   D(26,14,15,28)        -66.3147         calculate D2E/DX2 analytically  !
 ! D65   D(14,15,16,29)         59.4691         calculate D2E/DX2 analytically  !
 ! D66   D(14,15,16,30)        -57.9352         calculate D2E/DX2 analytically  !
 ! D67   D(27,15,16,29)        -63.0946         calculate D2E/DX2 analytically  !
 ! D68   D(27,15,16,30)        179.5011         calculate D2E/DX2 analytically  !
 ! D69   D(28,15,16,29)       -178.5683         calculate D2E/DX2 analytically  !
 ! D70   D(28,15,16,30)         64.0274         calculate D2E/DX2 analytically  !
 --------------------------------------------------------------------------------
 Trust Radius=3.00D-01 FncErr=1.00D-07 GrdErr=1.00D-06
 Number of steps in this run=    160 maximum allowed number of steps=    180.
 GradGradGradGradGradGradGradGradGradGradGradGradGradGradGradGradGradGrad

                          Input orientation:                          
 ---------------------------------------------------------------------
 Center     Atomic      Atomic             Coordinates (Angstroms)
 Number     Number       Type             X           Y           Z
 ---------------------------------------------------------------------
      1          8           0        0.929043   -1.241963   -0.873004
      2          6           0        1.148453   -0.107229   -0.445265
      3          7           0        0.227295    0.878910   -0.548664
      4          6           0       -0.974618    0.703315   -1.332629
      5          6           0       -1.084293    1.832158   -2.333541
      6          8           0       -1.977728    1.543869   -3.301668
      7          8           0       -0.492986    2.878356   -2.274390
      8          6           0       -2.260494    0.688548   -0.493701
      9          6           0       -2.330413   -0.373288    0.564662
     10          6           0       -3.149524   -0.490207    1.649530
     11          7           0       -2.890995   -1.660122    2.336198
     12          6           0       -1.926786   -2.236516    1.661995
     13          7           0       -1.556443   -1.505777    0.581748
     14          6           0        2.456413    0.279321    0.212533
     15          6           0        3.086444   -0.864276    1.007965
     16          7           0        4.403718   -0.563113    1.564429
     17          1           0        0.496774    1.831061   -0.350975
     18          1           0       -0.888672   -0.239080   -1.871181
     19          1           0       -2.006809    2.318387   -3.877224
     20          1           0       -3.096390    0.566200   -1.186873
     21          1           0       -2.406602    1.659641   -0.017086
     22          1           0       -3.915536    0.194263    1.984460
     23          1           0       -1.455054   -3.173967    1.899627
     24          1           0       -0.779216   -1.702408   -0.038411
     25          1           0        2.294314    1.154066    0.848976
     26          1           0        3.149944    0.582658   -0.580398
     27          1           0        2.436040   -1.144321    1.838451
     28          1           0        3.169914   -1.736868    0.361604
     29          1           0        4.348596    0.232922    2.189758
     30          1           0        5.045691   -0.304669    0.823024
 ---------------------------------------------------------------------
                    Distance matrix (angstroms):
                    1          2          3          4          5
     1  O    0.000000
     2  C    1.232365   0.000000
     3  N    2.257377   1.353401   0.000000
     4  C    2.760306   2.439637   1.445694   0.000000
     5  C    3.954354   3.508841   2.411375   1.512660   0.000000
     6  O    4.701977   4.545126   3.589335   2.364291   1.348557
     7  O    4.578546   3.867007   2.737648   2.418612   1.203193
     8  C    3.747518   3.500932   2.495667   1.535413   2.465016
     9  C    3.666815   3.632251   3.057673   2.568456   3.849206
    10  C    4.854176   4.796607   4.255520   3.879173   5.052070
    11  N    5.006648   5.144429   4.949025   4.766406   6.104642
    12  C    3.946025   4.293192   4.385540   4.303139   5.764391
    13  N    2.891979   3.213588   3.185324   2.980511   4.456865
    14  C    2.413619   1.514225   2.430616   3.786723   4.629298
    15  C    2.887053   2.537875   3.692767   4.942464   5.985940
    16  N    4.298288   3.852720   4.897663   6.238853   7.144912
    17  H    3.146880   2.047082   1.009104   2.097726   2.535812
    18  H    2.303523   2.490080   2.060178   1.088821   2.131213
    19  H    5.506419   5.255248   4.259416   3.185724   1.862904
    20  H    4.424034   4.361442   3.398820   2.131187   2.639323
    21  H    4.503158   3.992941   2.798130   2.166978   2.672869
    22  H    5.804979   5.624805   4.903928   4.462198   5.416989
    23  H    4.135703   4.656355   5.024962   5.070662   6.566465
    24  H    1.956197   2.534963   2.817203   2.738739   4.225382
    25  H    3.251175   2.139842   2.510314   3.955818   4.690758
    26  H    2.889163   2.121361   2.937796   4.194332   4.750108
    27  H    3.103637   2.819361   3.830188   5.010200   6.217531
    28  H    2.605895   2.719019   4.041025   5.099222   6.172522
    29  H    4.821737   4.159323   4.990128   6.400398   7.248040
    30  H    4.549926   4.103170   5.147749   6.473561   7.218493
                    6          7          8          9         10
     6  O    0.000000
     7  O    2.245131   0.000000
     8  C    2.948933   3.330194   0.000000
     9  C    4.329940   4.691432   1.500838   0.000000
    10  C    5.479500   5.813911   2.602552   1.364387   0.000000
    11  N    6.548675   6.899692   3.731235   2.260207   1.380960
    12  C    6.239539   6.611567   3.648888   2.199698   2.131862
    13  N    4.955677   5.339390   2.543097   1.371806   2.170126
    14  C    5.797439   4.651745   4.787007   4.843923   5.838121
    15  C    7.072336   6.131352   5.766802   5.457099   6.280034
    16  N    8.297055   7.110412   7.086203   6.810586   7.554073
    17  H    3.861636   2.403327   2.988015   3.700072   4.762961
    18  H    2.532043   3.168209   2.154028   2.833718   4.191649
    19  H    0.965395   2.274709   3.764167   5.203862   6.303888
    20  H    2.584491   3.647803   1.092785   2.130078   3.027210
    21  H    3.314486   3.200408   1.091573   2.115901   2.819821
    22  H    5.789618   6.087364   3.020722   2.202397   1.080487
    23  H    7.041635   7.414756   4.614734   3.223692   3.183762
    24  H    4.756426   5.105383   2.849236   2.129899   3.152290
    25  H    5.969098   4.527432   4.771348   4.878703   5.742811
    26  H    5.884068   4.627178   5.412168   5.679727   6.768080
    27  H    7.288932   6.455741   5.554797   4.993606   5.626906
    28  H    7.119060   6.454889   6.008620   5.670465   6.568730
    29  H    8.479193   7.097032   7.147630   6.900550   7.552256
    30  H    8.352161   7.099476   7.490032   7.380946   8.238876
                   11         12         13         14         15
    11  N    0.000000
    12  C    1.310143   0.000000
    13  N    2.209738   1.355753   0.000000
    14  C    6.071751   5.257642   4.407482   0.000000
    15  C    6.174735   5.238633   4.706334   1.528877   0.000000
    16  N    7.417000   6.548670   6.113738   2.515813   1.461356
    17  H    5.557539   5.144986   4.027426   2.562347   3.977179
    18  H    4.871416   4.189363   2.840299   3.974946   4.947919
    19  H    7.430809   7.171923   5.891476   6.387821   7.741812
    20  H    4.172617   4.164041   3.129305   5.733607   6.714984
    21  H    4.097976   4.269610   3.331853   5.060328   6.131431
    22  H    2.147591   3.157181   3.228475   6.614278   7.148550
    23  H    2.131724   1.076018   2.128366   5.483707   5.172517
    24  H    3.178075   2.119804   1.013579   3.802567   4.091540
    25  H    6.084316   5.474918   4.687696   1.093853   2.174041
    26  H    7.073156   6.224890   5.278467   1.096239   2.149546
    27  H    5.375044   4.500919   4.201175   2.161199   1.091402
    28  H    6.374914   5.283656   4.737121   2.143903   1.089113
    29  H    7.484433   6.764398   6.362252   2.737139   2.047805
    30  H    8.192553   7.283635   6.714837   2.723620   2.045974
                   16         17         18         19         20
    16  N    0.000000
    17  H    4.966392   0.000000
    18  H    6.318054   2.918214   0.000000
    19  H    8.888728   4.351994   3.437306   0.000000
    20  H    8.068248   3.899926   2.447605   3.390476   0.000000
    21  H    7.336367   2.927535   3.057273   3.936299   1.743509
    22  H    8.364211   5.253745   4.920940   6.520312   3.296466
    23  H    6.422937   5.824530   4.811792   7.990143   5.119504
    24  H    5.543455   3.769782   2.347841   5.693001   3.440181
    25  H    2.812501   2.264808   4.412653   6.495558   5.792232
    26  H    2.735877   2.941166   4.318772   6.361912   6.275728
    27  H    2.069939   4.172198   5.063056   8.024848   6.533471
    28  H    2.084889   4.514816   4.868348   7.823759   6.853354
    29  H    1.013779   4.883227   6.644019   9.030427   8.181719
    30  H    1.014201   5.160645   6.517646   8.871894   8.431582
                   21         22         23         24         25
    21  H    0.000000
    22  H    2.903515   0.000000
    23  H    5.286114   4.172067   0.000000
    24  H    3.735267   4.186390   2.525516   0.000000
    25  H    4.806691   6.385356   5.821811   4.288763   0.000000
    26  H    5.687918   7.526642   6.439624   4.577508   1.761170
    27  H    5.895456   6.492737   4.389056   3.764564   2.506338
    28  H    6.540429   7.521072   5.081446   3.969487   3.059690
    29  H    7.248337   8.266772   6.735980   5.916477   2.620358
    30  H    7.752481   9.049942   7.186906   6.051883   3.114266
                   26         27         28         29         30
    26  H    0.000000
    27  H    3.056623   0.000000
    28  H    2.503591   1.752359   0.000000
    29  H    3.038559   2.382874   2.934538   0.000000
    30  H    2.520079   2.923421   2.404713   1.625701   0.000000
 Symmetry turned off by external request.
 Stoichiometry    C9H14N4O3
 Framework group  C1[X(C9H14N4O3)]
 Deg. of freedom    84
 Full point group                 C1      NOp   1
 Rotational constants (GHZ):      0.5050640      0.4053310      0.2477507
 Standard basis: 6-31G(d) (6D, 7F)
   268 basis functions,   504 primitive gaussians,   268 cartesian basis functions
    60 alpha electrons       60 beta electrons
       nuclear repulsion energy      1124.8072977319 Hartrees.
 NAtoms=   30 NActive=   30 NUniq=   30 SFac= 1.00D+00 NAtFMM=   60 NAOKFM=F Big=F
 Integral buffers will be    131072 words long.
 Raffenetti 2 integral format.
 Two-electron integral symmetry is turned off.
 Nuclear repulsion after empirical dispersion term =     1124.7532306770 Hartrees.
 One-electron integrals computed using PRISM.
 NBasis=   268 RedAO= T EigKep=  1.12D-03  NBF=   268
 NBsUse=   268 1.00D-06 EigRej= -1.00D+00 NBFU=   268
 ExpMin= 1.61D-01 ExpMax= 5.48D+03 ExpMxC= 8.25D+02 IAcc=3 IRadAn=         5 AccDes= 0.00D+00
 Harris functional with IExCor=  402 and IRadAn=       5 diagonalized for initial guess.
 HarFok:  IExCor=  402 AccDes= 0.00D+00 IRadAn=         5 IDoV= 1 UseB2=F ITyADJ=14
 ICtDFT=  3500011 ScaDFX=  1.000000  1.000000  1.000000  1.000000
 FoFCou: FMM=F IPFlag=           0 FMFlag=      100000 FMFlg1=           0
         NFxFlg=           0 DoJE=T BraDBF=F KetDBF=T FulRan=T
         wScrn=  0.000000 ICntrl=     500 IOpCl=  0 I1Cent=   200000004 NGrid=           0
         NMat0=    1 NMatS0=      1 NMatT0=    0 NMatD0=    1 NMtDS0=    0 NMtDT0=    0
 Symmetry not used in FoFCou.
 Requested convergence on RMS density matrix=1.00D-08 within 128 cycles.
 Requested convergence on MAX density matrix=1.00D-06.
 Requested convergence on             energy=1.00D-06.
 No special actions if energy rises.
 Integral accuracy reduced to 1.0D-05 until final iterations.
 Initial convergence to 1.0D-05 achieved.  Increase integral accuracy.
 SCF Done:  E(RB3LYP) =  -796.136257536     A.U. after   14 cycles
            NFock= 14  Conv=0.76D-08     -V/T= 2.0088
 DoSCS=F DFT=T ScalE2(SS,OS)=  1.000000  1.000000
 Range of M.O.s used for correlation:     1   268
 NBasis=   268 NAE=    60 NBE=    60 NFC=     0 NFV=     0
 NROrb=    268 NOA=    60 NOB=    60 NVA=   208 NVB=   208
 Symmetrizing basis deriv contribution to polar:
 IMax=3 JMax=2 DiffMx= 0.00D+00
 G2DrvN: will do    31 centers at a time, making    1 passes.
 Calling FoFCou, ICntrl=  3107 FMM=F I1Cent=   0 AccDes= 0.00D+00.
 End of G2Drv F.D. properties file   721 does not exist.
 End of G2Drv F.D. properties file   722 does not exist.
 End of G2Drv F.D. properties file   788 does not exist.
          IDoAtm=111111111111111111111111111111
          Differentiating once with respect to nuclear coordinates.
          There are    93 degrees of freedom in the 1st order CPHF.  IDoFFX=6 NUNeed=     0.
     87 vectors produced by pass  0 Test12= 1.34D-14 1.08D-09 XBig12= 1.44D-01 8.76D-02.
 AX will form    87 AO Fock derivatives at one time.
     87 vectors produced by pass  1 Test12= 1.34D-14 1.08D-09 XBig12= 2.61D-02 4.69D-02.
     87 vectors produced by pass  2 Test12= 1.34D-14 1.08D-09 XBig12= 1.83D-04 2.24D-03.
     87 vectors produced by pass  3 Test12= 1.34D-14 1.08D-09 XBig12= 5.65D-07 1.07D-04.
     87 vectors produced by pass  4 Test12= 1.34D-14 1.08D-09 XBig12= 9.47D-10 3.77D-06.
     70 vectors produced by pass  5 Test12= 1.34D-14 1.08D-09 XBig12= 8.19D-13 1.26D-07.
     13 vectors produced by pass  6 Test12= 1.34D-14 1.08D-09 XBig12= 6.91D-16 2.38D-09.
 InvSVY:  IOpt=1 It=  1 EMax= 5.00D-16
 Solved reduced A of dimension   518 with    93 vectors.
 End of Minotr F.D. properties file   721 does not exist.
 End of Minotr F.D. properties file   722 does not exist.
 End of Minotr F.D. properties file   788 does not exist.

 **********************************************************************

            Population analysis using the SCF density.

 **********************************************************************

 Alpha  occ. eigenvalues --  -19.22326 -19.17049 -19.13798 -14.38436 -14.36976
 Alpha  occ. eigenvalues --  -14.31946 -14.29474 -10.34787 -10.31019 -10.26203
 Alpha  occ. eigenvalues --  -10.22016 -10.21621 -10.21599 -10.20901 -10.20847
 Alpha  occ. eigenvalues --  -10.18023  -1.13890  -1.06062  -1.04904  -1.00175
 Alpha  occ. eigenvalues --   -0.95330  -0.89102  -0.85543  -0.81906  -0.77061
 Alpha  occ. eigenvalues --   -0.74330  -0.68019  -0.65859  -0.62054  -0.61374
 Alpha  occ. eigenvalues --   -0.59493  -0.57808  -0.54711  -0.52151  -0.51847
 Alpha  occ. eigenvalues --   -0.51373  -0.50005  -0.49043  -0.48036  -0.46400
 Alpha  occ. eigenvalues --   -0.44721  -0.44178  -0.43189  -0.42247  -0.42046
 Alpha  occ. eigenvalues --   -0.41239  -0.39975  -0.39394  -0.39121  -0.38653
 Alpha  occ. eigenvalues --   -0.37445  -0.35395  -0.34793  -0.30982  -0.28636
 Alpha  occ. eigenvalues --   -0.27874  -0.26421  -0.25023  -0.24021  -0.21128
 Alpha virt. eigenvalues --   -0.01651  -0.00007   0.04533   0.05719   0.06745
 Alpha virt. eigenvalues --    0.07735   0.07786   0.10483   0.12121   0.12174
 Alpha virt. eigenvalues --    0.13638   0.14274   0.15207   0.15590   0.17359
 Alpha virt. eigenvalues --    0.17631   0.18096   0.19072   0.19210   0.20203
 Alpha virt. eigenvalues --    0.20824   0.22961   0.23177   0.24908   0.26412
 Alpha virt. eigenvalues --    0.28825   0.30313   0.30590   0.33418   0.34618
 Alpha virt. eigenvalues --    0.35914   0.38939   0.41024   0.45597   0.49806
 Alpha virt. eigenvalues --    0.50502   0.52084   0.53262   0.53745   0.54463
 Alpha virt. eigenvalues --    0.55115   0.56491   0.56813   0.57480   0.59393
 Alpha virt. eigenvalues --    0.60619   0.62292   0.62820   0.63570   0.64506
 Alpha virt. eigenvalues --    0.65354   0.66000   0.66798   0.67493   0.68235
 Alpha virt. eigenvalues --    0.70273   0.71766   0.72835   0.74457   0.74694
 Alpha virt. eigenvalues --    0.75740   0.78256   0.79497   0.80451   0.80898
 Alpha virt. eigenvalues --    0.81965   0.82644   0.83205   0.84208   0.84740
 Alpha virt. eigenvalues --    0.85404   0.86700   0.87552   0.88622   0.89191
 Alpha virt. eigenvalues --    0.90258   0.90433   0.90502   0.91438   0.91921
 Alpha virt. eigenvalues --    0.92587   0.93941   0.94328   0.95349   0.97206
 Alpha virt. eigenvalues --    0.99748   1.01315   1.03072   1.04708   1.05582
 Alpha virt. eigenvalues --    1.06326   1.09355   1.11482   1.12660   1.13335
 Alpha virt. eigenvalues --    1.14970   1.20832   1.22400   1.25411   1.26834
 Alpha virt. eigenvalues --    1.28915   1.31810   1.33894   1.36705   1.37938
 Alpha virt. eigenvalues --    1.38106   1.40109   1.41002   1.43563   1.44677
 Alpha virt. eigenvalues --    1.47210   1.48617   1.50770   1.52613   1.54189
 Alpha virt. eigenvalues --    1.56114   1.58000   1.61936   1.65080   1.65926
 Alpha virt. eigenvalues --    1.67227   1.67626   1.72533   1.75794   1.76336
 Alpha virt. eigenvalues --    1.77188   1.78315   1.79674   1.80708   1.83350
 Alpha virt. eigenvalues --    1.83942   1.85051   1.86637   1.87405   1.88745
 Alpha virt. eigenvalues --    1.91132   1.92266   1.94839   1.95947   1.97267
 Alpha virt. eigenvalues --    1.98192   1.98881   2.00873   2.05285   2.07580
 Alpha virt. eigenvalues --    2.08694   2.09144   2.10306   2.13502   2.14834
 Alpha virt. eigenvalues --    2.16827   2.18719   2.21705   2.23783   2.25120
 Alpha virt. eigenvalues --    2.27598   2.29758   2.31080   2.31584   2.33109
 Alpha virt. eigenvalues --    2.34107   2.37209   2.39495   2.42431   2.42848
 Alpha virt. eigenvalues --    2.43244   2.46922   2.48264   2.50252   2.52262
 Alpha virt. eigenvalues --    2.54924   2.59659   2.60511   2.61418   2.62839
 Alpha virt. eigenvalues --    2.65630   2.67871   2.70321   2.73875   2.75588
 Alpha virt. eigenvalues --    2.76031   2.78306   2.83948   2.88441   2.91118
 Alpha virt. eigenvalues --    2.96632   3.01537   3.02294   3.06758   3.10480
 Alpha virt. eigenvalues --    3.13422   3.19030   3.77999   3.83084   3.95143
 Alpha virt. eigenvalues --    4.01327   4.06561   4.10946   4.14105   4.17785
 Alpha virt. eigenvalues --    4.21160   4.26686   4.31332   4.31930   4.40022
 Alpha virt. eigenvalues --    4.48994   4.53887   4.68479
          Condensed to atoms (all electrons):
               1          2          3          4          5          6
     1  O    8.150484   0.513728  -0.100245  -0.004151   0.000498  -0.000001
     2  C    0.513728   4.397926   0.275223  -0.022965   0.004101  -0.000011
     3  N   -0.100245   0.275223   7.124333   0.241376  -0.041235   0.002255
     4  C   -0.004151  -0.022965   0.241376   5.186422   0.294172  -0.100377
     5  C    0.000498   0.004101  -0.041235   0.294172   4.360911   0.282839
     6  O   -0.000001  -0.000011   0.002255  -0.100377   0.282839   8.228308
     7  O   -0.000003   0.000678  -0.007390  -0.081851   0.590183  -0.087107
     8  C    0.000285  -0.001603  -0.055585   0.318702  -0.038166   0.002524
     9  C   -0.001136   0.000748   0.001464  -0.025763   0.001268   0.000087
    10  C    0.000008  -0.000107  -0.000200   0.002463  -0.000138  -0.000001
    11  N   -0.000007  -0.000017   0.000007  -0.000139   0.000002   0.000000
    12  C    0.000147   0.000163  -0.000001   0.000084   0.000006   0.000000
    13  N   -0.021707   0.004344   0.000499  -0.002868   0.000171   0.000001
    14  C   -0.086190   0.282259  -0.099351   0.006716  -0.000207   0.000000
    15  C    0.002265  -0.020232   0.001497  -0.000120  -0.000001   0.000000
    16  N    0.000193   0.005558  -0.000080   0.000001   0.000000   0.000000
    17  H    0.003017  -0.015826   0.292786  -0.037757  -0.002580   0.000448
    18  H    0.021392  -0.000878  -0.055544   0.358499  -0.020435   0.002775
    19  H    0.000000   0.000000  -0.000268   0.010863  -0.006815   0.220330
    20  H   -0.000013   0.000078   0.004856  -0.039037  -0.002172   0.005892
    21  H   -0.000021  -0.000093  -0.003427  -0.030886  -0.003076  -0.000113
    22  H    0.000000   0.000001  -0.000011   0.000022   0.000002   0.000000
    23  H   -0.000007   0.000012   0.000000  -0.000005   0.000000   0.000000
    24  H    0.056064  -0.003390  -0.006748   0.002390  -0.000075   0.000002
    25  H    0.002620  -0.030904   0.004020   0.000356  -0.000048   0.000000
    26  H   -0.000185  -0.018488  -0.001312  -0.000319   0.000041   0.000000
    27  H    0.000667   0.000482   0.000081  -0.000011   0.000000   0.000000
    28  H    0.009899  -0.001583   0.000413   0.000008   0.000000   0.000000
    29  H    0.000001   0.000102  -0.000002   0.000000   0.000000   0.000000
    30  H    0.000012   0.000176  -0.000003   0.000000   0.000000   0.000000
               7          8          9         10         11         12
     1  O   -0.000003   0.000285  -0.001136   0.000008  -0.000007   0.000147
     2  C    0.000678  -0.001603   0.000748  -0.000107  -0.000017   0.000163
     3  N   -0.007390  -0.055585   0.001464  -0.000200   0.000007  -0.000001
     4  C   -0.081851   0.318702  -0.025763   0.002463  -0.000139   0.000084
     5  C    0.590183  -0.038166   0.001268  -0.000138   0.000002   0.000006
     6  O   -0.087107   0.002524   0.000087  -0.000001   0.000000   0.000000
     7  O    8.014320  -0.003076  -0.000091   0.000000   0.000000   0.000000
     8  C   -0.003076   5.226685   0.344975  -0.062919   0.006966   0.006712
     9  C   -0.000091   0.344975   4.686757   0.568168  -0.039621  -0.090746
    10  C    0.000000  -0.062919   0.568168   4.967259   0.424366  -0.125821
    11  N    0.000000   0.006966  -0.039621   0.424366   6.666981   0.539118
    12  C    0.000000   0.006712  -0.090746  -0.125821   0.539118   4.736308
    13  N    0.000000  -0.073015   0.373898  -0.067970  -0.087123   0.366368
    14  C   -0.000078  -0.000248  -0.000061   0.000000   0.000000   0.000003
    15  C    0.000000   0.000010   0.000003   0.000001   0.000000  -0.000012
    16  N    0.000000   0.000000   0.000000   0.000000   0.000000   0.000000
    17  H    0.020163   0.001206  -0.000219   0.000006  -0.000001   0.000005
    18  H    0.001910  -0.037505  -0.006611  -0.000036  -0.000007   0.000006
    19  H    0.010342  -0.000295   0.000012   0.000000   0.000000   0.000000
    20  H    0.000131   0.359470  -0.032071  -0.002698   0.000006   0.000201
    21  H    0.001705   0.359203  -0.034706  -0.002919   0.000060   0.000011
    22  H    0.000000  -0.001630  -0.061726   0.382302  -0.043878   0.007794
    23  H    0.000000  -0.000199   0.003037   0.007760  -0.040186   0.382224
    24  H   -0.000001  -0.003474  -0.025112   0.008185   0.003951  -0.019715
    25  H   -0.000006  -0.000006   0.000011   0.000000   0.000000  -0.000001
    26  H    0.000003  -0.000007   0.000000   0.000000   0.000000   0.000000
    27  H    0.000000  -0.000001  -0.000001  -0.000002   0.000000   0.000068
    28  H    0.000000   0.000000   0.000001   0.000000   0.000000  -0.000001
    29  H    0.000000   0.000000   0.000000   0.000000   0.000000   0.000000
    30  H    0.000000   0.000000   0.000000   0.000000   0.000000   0.000000
              13         14         15         16         17         18
     1  O   -0.021707  -0.086190   0.002265   0.000193   0.003017   0.021392
     2  C    0.004344   0.282259  -0.020232   0.005558  -0.015826  -0.000878
     3  N    0.000499  -0.099351   0.001497  -0.000080   0.292786  -0.055544
     4  C   -0.002868   0.006716  -0.000120   0.000001  -0.037757   0.358499
     5  C    0.000171  -0.000207  -0.000001   0.000000  -0.002580  -0.020435
     6  O    0.000001   0.000000   0.000000   0.000000   0.000448   0.002775
     7  O    0.000000  -0.000078   0.000000   0.000000   0.020163   0.001910
     8  C   -0.073015  -0.000248   0.000010   0.000000   0.001206  -0.037505
     9  C    0.373898  -0.000061   0.000003   0.000000  -0.000219  -0.006611
    10  C   -0.067970   0.000000   0.000001   0.000000   0.000006  -0.000036
    11  N   -0.087123   0.000000   0.000000   0.000000  -0.000001  -0.000007
    12  C    0.366368   0.000003  -0.000012   0.000000   0.000005   0.000006
    13  N    6.934303  -0.000244  -0.000053   0.000000   0.000017   0.002061
    14  C   -0.000244   5.408711   0.341671  -0.063241  -0.000098   0.001281
    15  C   -0.000053   0.341671   4.867491   0.338654  -0.000023  -0.000028
    16  N    0.000000  -0.063241   0.338654   6.860877  -0.000003   0.000000
    17  H    0.000017  -0.000098  -0.000023  -0.000003   0.384478   0.004659
    18  H    0.002061   0.001281  -0.000028   0.000000   0.004659   0.518340
    19  H    0.000000   0.000000   0.000000   0.000000  -0.000048  -0.000367
    20  H    0.000253   0.000003   0.000000   0.000000  -0.000147  -0.003249
    21  H    0.002641  -0.000002   0.000000   0.000000   0.001700   0.005465
    22  H    0.004992   0.000000   0.000000   0.000000   0.000000   0.000001
    23  H   -0.058311  -0.000001   0.000000   0.000000   0.000000   0.000002
    24  H    0.252166   0.000876   0.000197   0.000001   0.000006   0.000727
    25  H    0.000035   0.344735  -0.034239   0.001428   0.002621  -0.000033
    26  H   -0.000001   0.351095  -0.032632  -0.001079   0.000248  -0.000017
    27  H    0.000088  -0.051404   0.385408  -0.037891  -0.000007  -0.000001
    28  H    0.000015  -0.052360   0.384570  -0.036033  -0.000006  -0.000007
    29  H    0.000000  -0.003057  -0.043417   0.315988   0.000002   0.000000
    30  H    0.000000  -0.002820  -0.047119   0.318359   0.000000   0.000000
              19         20         21         22         23         24
     1  O    0.000000  -0.000013  -0.000021   0.000000  -0.000007   0.056064
     2  C    0.000000   0.000078  -0.000093   0.000001   0.000012  -0.003390
     3  N   -0.000268   0.004856  -0.003427  -0.000011   0.000000  -0.006748
     4  C    0.010863  -0.039037  -0.030886   0.000022  -0.000005   0.002390
     5  C   -0.006815  -0.002172  -0.003076   0.000002   0.000000  -0.000075
     6  O    0.220330   0.005892  -0.000113   0.000000   0.000000   0.000002
     7  O    0.010342   0.000131   0.001705   0.000000   0.000000  -0.000001
     8  C   -0.000295   0.359470   0.359203  -0.001630  -0.000199  -0.003474
     9  C    0.000012  -0.032071  -0.034706  -0.061726   0.003037  -0.025112
    10  C    0.000000  -0.002698  -0.002919   0.382302   0.007760   0.008185
    11  N    0.000000   0.000006   0.000060  -0.043878  -0.040186   0.003951
    12  C    0.000000   0.000201   0.000011   0.007794   0.382224  -0.019715
    13  N    0.000000   0.000253   0.002641   0.004992  -0.058311   0.252166
    14  C    0.000000   0.000003  -0.000002   0.000000  -0.000001   0.000876
    15  C    0.000000   0.000000   0.000000   0.000000   0.000000   0.000197
    16  N    0.000000   0.000000   0.000000   0.000000   0.000000   0.000001
    17  H   -0.000048  -0.000147   0.001700   0.000000   0.000000   0.000006
    18  H   -0.000367  -0.003249   0.005465   0.000001   0.000002   0.000727
    19  H    0.347531  -0.000021  -0.000101   0.000000   0.000000   0.000000
    20  H   -0.000021   0.557759  -0.035427   0.000248   0.000003  -0.000101
    21  H   -0.000101  -0.035427   0.574675   0.001611   0.000004  -0.000109
    22  H    0.000000   0.000248   0.001611   0.588273  -0.000165  -0.000093
    23  H    0.000000   0.000003   0.000004  -0.000165   0.555465   0.000497
    24  H    0.000000  -0.000101  -0.000109  -0.000093   0.000497   0.361878
    25  H    0.000000   0.000000   0.000002   0.000000   0.000000  -0.000116
    26  H    0.000000   0.000000   0.000000   0.000000   0.000000   0.000002
    27  H    0.000000   0.000000   0.000000   0.000000   0.000011   0.000028
    28  H    0.000000   0.000000   0.000000   0.000000   0.000000  -0.000047
    29  H    0.000000   0.000000   0.000000   0.000000   0.000000   0.000000
    30  H    0.000000   0.000000   0.000000   0.000000   0.000000   0.000000
              25         26         27         28         29         30
     1  O    0.002620  -0.000185   0.000667   0.009899   0.000001   0.000012
     2  C   -0.030904  -0.018488   0.000482  -0.001583   0.000102   0.000176
     3  N    0.004020  -0.001312   0.000081   0.000413  -0.000002  -0.000003
     4  C    0.000356  -0.000319  -0.000011   0.000008   0.000000   0.000000
     5  C   -0.000048   0.000041   0.000000   0.000000   0.000000   0.000000
     6  O    0.000000   0.000000   0.000000   0.000000   0.000000   0.000000
     7  O   -0.000006   0.000003   0.000000   0.000000   0.000000   0.000000
     8  C   -0.000006  -0.000007  -0.000001   0.000000   0.000000   0.000000
     9  C    0.000011   0.000000  -0.000001   0.000001   0.000000   0.000000
    10  C    0.000000   0.000000  -0.000002   0.000000   0.000000   0.000000
    11  N    0.000000   0.000000   0.000000   0.000000   0.000000   0.000000
    12  C   -0.000001   0.000000   0.000068  -0.000001   0.000000   0.000000
    13  N    0.000035  -0.000001   0.000088   0.000015   0.000000   0.000000
    14  C    0.344735   0.351095  -0.051404  -0.052360  -0.003057  -0.002820
    15  C   -0.034239  -0.032632   0.385408   0.384570  -0.043417  -0.047119
    16  N    0.001428  -0.001079  -0.037891  -0.036033   0.315988   0.318359
    17  H    0.002621   0.000248  -0.000007  -0.000006   0.000002   0.000000
    18  H   -0.000033  -0.000017  -0.000001  -0.000007   0.000000   0.000000
    19  H    0.000000   0.000000   0.000000   0.000000   0.000000   0.000000
    20  H    0.000000   0.000000   0.000000   0.000000   0.000000   0.000000
    21  H    0.000002   0.000000   0.000000   0.000000   0.000000   0.000000
    22  H    0.000000   0.000000   0.000000   0.000000   0.000000   0.000000
    23  H    0.000000   0.000000   0.000011   0.000000   0.000000   0.000000
    24  H   -0.000116   0.000002   0.000028  -0.000047   0.000000   0.000000
    25  H    0.591990  -0.032126  -0.004385   0.005490   0.004564  -0.000248
    26  H   -0.032126   0.557166   0.005292  -0.003894  -0.000423   0.005807
    27  H   -0.004385   0.005292   0.571269  -0.029547  -0.004945   0.006580
    28  H    0.005490  -0.003894  -0.029547   0.544524   0.006082  -0.004367
    29  H    0.004564  -0.000423  -0.004945   0.006082   0.465055  -0.034918
    30  H   -0.000248   0.005807   0.006580  -0.004367  -0.034918   0.464293
 Mulliken charges:
               1
     1  O   -0.547612
     2  C    0.630517
     3  N   -0.577407
     4  C   -0.075827
     5  C    0.580754
     6  O   -0.557853
     7  O   -0.459833
     8  C   -0.349009
     9  C    0.337436
    10  C   -0.097706
    11  N   -0.430477
    12  C    0.197080
    13  N   -0.630557
    14  C   -0.377989
    15  C   -0.143890
    16  N   -0.702732
    17  H    0.345351
    18  H    0.207601
    19  H    0.418837
    20  H    0.186036
    21  H    0.163801
    22  H    0.122256
    23  H    0.149859
    24  H    0.372011
    25  H    0.144240
    26  H    0.170829
    27  H    0.158222
    28  H    0.176845
    29  H    0.294969
    30  H    0.294248
 Sum of Mulliken charges =   0.00000
 Mulliken charges with hydrogens summed into heavy atoms:
               1
     1  O   -0.547612
     2  C    0.630517
     3  N   -0.232056
     4  C    0.131774
     5  C    0.580754
     6  O   -0.139016
     7  O   -0.459833
     8  C    0.000829
     9  C    0.337436
    10  C    0.024551
    11  N   -0.430477
    12  C    0.346939
    13  N   -0.258546
    14  C   -0.062920
    15  C    0.191177
    16  N   -0.113515
 APT charges:
               1
     1  O   -0.356595
     2  C    0.173190
     3  N   -0.627383
     4  C   -0.431210
     5  C   -0.328251
     6  O   -0.768062
     7  O    0.162030
     8  C   -1.043745
     9  C   -0.370236
    10  C   -0.340818
    11  N    0.273541
    12  C   -0.519355
    13  N   -0.655017
    14  C   -0.722611
    15  C   -0.684266
    16  N   -1.138528
    17  H    0.589309
    18  H    0.371902
    19  H    1.072744
    20  H    0.607970
    21  H    0.439036
    22  H    0.730384
    23  H    0.605369
    24  H    0.270267
    25  H    0.301335
    26  H    0.528428
    27  H    0.256983
    28  H    0.417638
    29  H    0.514389
    30  H    0.671563
 Sum of APT charges =   0.00000
 APT charges with hydrogens summed into heavy atoms:
               1
     1  O   -0.356595
     2  C    0.173190
     3  N   -0.038074
     4  C   -0.059308
     5  C   -0.328251
     6  O    0.304682
     7  O    0.162030
     8  C    0.003260
     9  C   -0.370236
    10  C    0.389565
    11  N    0.273541
    12  C    0.086015
    13  N   -0.384750
    14  C    0.107152
    15  C   -0.009645
    16  N    0.047423
 Electronic spatial extent (au):  <R**2>=           4425.4891
 Charge=              0.0000 electrons
 Dipole moment (field-independent basis, Debye):
    X=              1.8251    Y=              4.2394    Z=             -3.6611  Tot=              5.8913
 Quadrupole moment (field-independent basis, Debye-Ang):
   XX=            -97.4245   YY=            -96.3456   ZZ=            -96.2417
   XY=             -2.6458   XZ=             11.0121   YZ=              3.4838
 Traceless Quadrupole moment (field-independent basis, Debye-Ang):
   XX=             -0.7539   YY=              0.3250   ZZ=              0.4289
   XY=             -2.6458   XZ=             11.0121   YZ=              3.4838
 Octapole moment (field-independent basis, Debye-Ang**2):
  XXX=            115.4831  YYY=            -10.6131  ZZZ=            -43.7140  XYY=             19.9951
  XXY=             74.7997  XXZ=            -50.7506  XZZ=             30.2572  YZZ=             46.3878
  YYZ=              3.6309  XYZ=              9.8164
 Hexadecapole moment (field-independent basis, Debye-Ang**3):
 XXXX=          -3091.5513 YYYY=          -1142.5693 ZZZZ=          -1382.2204 XXXY=             43.8058
 XXXZ=           -126.1258 YYYX=             -4.4185 YYYZ=            475.0885 ZZZX=             60.2904
 ZZZY=            406.5176 XXYY=           -739.7426 XXZZ=           -843.2156 YYZZ=           -410.1238
 XXYZ=            265.0497 YYXZ=             30.3088 ZZXY=            -85.3242
 N-N= 1.124753230677D+03 E-N=-4.106021293333D+03  KE= 7.891988014667D+02
  Exact polarizability:   0.000   0.000   0.000   0.000   0.000   0.000
 Approx polarizability: 171.076  -9.892 193.998  -8.858 -10.867 165.657
 Calling FoFJK, ICntrl=    100147 FMM=F ISym2X=0 I1Cent= 0 IOpClX= 0 NMat=1 NMatS=1 NMatT=0.
 -------------------------------------------------------------------
 Center     Atomic                   Forces (Hartrees/Bohr)
 Number     Number              X              Y              Z
 -------------------------------------------------------------------
      1        8           0.000283914   -0.006801984    0.001801520
      2        6           0.004327972   -0.001010875   -0.002703427
      3        7          -0.003610969    0.002694951   -0.000961022
      4        6          -0.001133984    0.002400104    0.001709160
      5        6          -0.005740686   -0.008838185   -0.004730142
      6        8           0.000307549   -0.007665600    0.004780335
      7        8           0.008566504    0.011656766    0.002675522
      8        6          -0.007696101   -0.005956914    0.004504691
      9        6           0.003819515    0.009737020   -0.009089052
     10        6          -0.005871919   -0.002229755    0.011145319
     11        7          -0.007236939    0.003110342    0.004190444
     12        6           0.001946910   -0.004913611    0.002319913
     13        7           0.005407772   -0.003033935   -0.007171771
     14        6          -0.003172010    0.001735376   -0.001406451
     15        6           0.004763628    0.000810026    0.003133423
     16        7          -0.001340350   -0.005335465    0.000687700
     17        1           0.000182281    0.002920307    0.000917030
     18        1           0.001592360   -0.001998550   -0.001158848
     19        1          -0.001711030    0.007981848   -0.006824104
     20        1          -0.001793376    0.000210823   -0.003122874
     21        1           0.001405331    0.003902082    0.000800873
     22        1          -0.000710680    0.001195119    0.000152212
     23        1           0.001592319   -0.003682705    0.001787455
     24        1           0.004049513   -0.000763449   -0.002863103
     25        1           0.001593070    0.002169116    0.001821829
     26        1           0.000859595    0.001019889   -0.001888470
     27        1          -0.003012895   -0.001207287    0.001208193
     28        1          -0.000181247   -0.002541027   -0.001368634
     29        1          -0.000200465    0.003402055    0.002356195
     30        1           0.002714418    0.001033518   -0.002703915
 -------------------------------------------------------------------
 Cartesian Forces:  Max     0.011656766 RMS     0.004175074
 FormGI is forming the generalized inverse of G from B-inverse, IUseBI=4.
 GSVD:  received Info=                   1 from GESDD.

 GradGradGradGradGradGradGradGradGradGradGradGradGradGradGradGradGradGrad
 Berny optimization.
 Internal  Forces:  Max     0.014477658 RMS     0.003051302
 Search for a local minimum.
 Step number   1 out of a maximum of  160
 All quantities printed in internal units (Hartrees-Bohrs-Radians)
 Mixed Optimization -- RFO/linear search
 Second derivative matrix not updated -- analytic derivatives used.
 ITU=  0
     Eigenvalues ---   -0.00015   0.00055   0.00241   0.00248   0.00334
     Eigenvalues ---    0.00517   0.00533   0.00862   0.00965   0.01566
     Eigenvalues ---    0.01926   0.02178   0.02200   0.02810   0.03138
     Eigenvalues ---    0.03659   0.03821   0.04237   0.04303   0.04496
     Eigenvalues ---    0.04574   0.04745   0.04945   0.05317   0.05463
     Eigenvalues ---    0.05944   0.06202   0.06307   0.07974   0.08631
     Eigenvalues ---    0.08757   0.10956   0.11016   0.11668   0.11911
     Eigenvalues ---    0.12127   0.13125   0.13905   0.14971   0.15730
     Eigenvalues ---    0.16201   0.17643   0.18353   0.18881   0.19102
     Eigenvalues ---    0.21132   0.21575   0.22688   0.23620   0.23773
     Eigenvalues ---    0.25220   0.25280   0.26016   0.28232   0.29105
     Eigenvalues ---    0.31274   0.33456   0.33866   0.34156   0.34287
     Eigenvalues ---    0.34596   0.34910   0.34993   0.35224   0.35632
     Eigenvalues ---    0.36689   0.37681   0.38099   0.38577   0.38677
     Eigenvalues ---    0.43046   0.43312   0.44533   0.45333   0.45622
     Eigenvalues ---    0.47269   0.47554   0.49313   0.50078   0.53205
     Eigenvalues ---    0.61222   0.69765   0.81852   0.93776
 RFO step:  Lambda=-4.04732967D-03 EMin=-1.46026855D-04
 Linear search not attempted -- first point.
 Iteration  1 RMS(Cart)=  0.16507397 RMS(Int)=  0.04282338
 Iteration  2 RMS(Cart)=  0.11702257 RMS(Int)=  0.00790883
 Iteration  3 RMS(Cart)=  0.01274526 RMS(Int)=  0.00020860
 Iteration  4 RMS(Cart)=  0.00012254 RMS(Int)=  0.00019976
 Iteration  5 RMS(Cart)=  0.00000004 RMS(Int)=  0.00019976
 Variable       Old X    -DE/DX   Delta X   Delta X   Delta X     New X
                                 (Linear)    (Quad)   (Total)
    R1        2.32883   0.00559   0.00000   0.00794   0.00794   2.33678
    R2        2.55756   0.00949   0.00000   0.00988   0.00988   2.56744
    R3        2.86147   0.00283   0.00000   0.00251   0.00251   2.86398
    R4        2.73197   0.00302   0.00000   0.00570   0.00570   2.73766
    R5        1.90693   0.00298   0.00000   0.00517   0.00517   1.91210
    R6        2.85851   0.00495   0.00000   0.01462   0.01462   2.87314
    R7        2.90151   0.00573   0.00000   0.02726   0.02726   2.92877
    R8        2.05757   0.00243   0.00000   0.00826   0.00826   2.06583
    R9        2.54840   0.00233   0.00000  -0.00337  -0.00337   2.54504
   R10        2.27370   0.01448   0.00000   0.01591   0.01591   2.28962
   R11        1.82433   0.01052   0.00000   0.01975   0.01975   1.84408
   R12        2.83617   0.00060   0.00000  -0.00469  -0.00469   2.83149
   R13        2.06506   0.00333   0.00000   0.00949   0.00949   2.07455
   R14        2.06277   0.00363   0.00000   0.00994   0.00994   2.07271
   R15        2.57832   0.01293   0.00000   0.02397   0.02391   2.60223
   R16        2.59234   0.01029   0.00000   0.02023   0.02040   2.61274
   R17        2.60964   0.00052   0.00000  -0.00687  -0.00707   2.60257
   R18        2.04182   0.00131   0.00000   0.00372   0.00372   2.04554
   R19        2.47581   0.00927   0.00000   0.01451   0.01444   2.49026
   R20        2.56200   0.01034   0.00000   0.01783   0.01798   2.57998
   R21        2.03338   0.00430   0.00000   0.01027   0.01027   2.04365
   R22        1.91539   0.00501   0.00000   0.01237   0.01237   1.92776
   R23        2.88916   0.00573   0.00000   0.03148   0.03148   2.92064
   R24        2.06708   0.00256   0.00000   0.00529   0.00529   2.07237
   R25        2.07159   0.00219   0.00000   0.00350   0.00350   2.07509
   R26        2.76156   0.00100   0.00000  -0.00650  -0.00650   2.75506
   R27        2.06245   0.00302   0.00000   0.01007   0.01007   2.07252
   R28        2.05813   0.00283   0.00000   0.00788   0.00788   2.06600
   R29        1.91576   0.00414   0.00000   0.00923   0.00923   1.92499
   R30        1.91656   0.00396   0.00000   0.00862   0.00862   1.92518
    A1        2.12142   0.00321   0.00000   0.01100   0.01071   2.13213
    A2        2.14078  -0.00323   0.00000  -0.02407  -0.02434   2.11644
    A3        2.02094   0.00004   0.00000   0.01345   0.01317   2.03411
    A4        2.11622   0.00365   0.00000   0.01820   0.01767   2.13390
    A5        2.08379  -0.00070   0.00000   0.00403   0.00351   2.08730
    A6        2.02958  -0.00261   0.00000  -0.00424  -0.00480   2.02478
    A7        1.90546  -0.00293   0.00000  -0.01953  -0.01957   1.88590
    A8        1.98355  -0.00055   0.00000   0.00593   0.00601   1.98956
    A9        1.88359   0.00048   0.00000  -0.00846  -0.00847   1.87512
   A10        1.88388   0.00402   0.00000   0.01308   0.01307   1.89696
   A11        1.90111  -0.00010   0.00000   0.00622   0.00605   1.90717
   A12        1.90502  -0.00094   0.00000   0.00291   0.00285   1.90787
   A13        1.94285   0.00170   0.00000   0.00872   0.00872   1.95157
   A14        2.19042  -0.00379   0.00000  -0.01788  -0.01788   2.17254
   A15        2.14929   0.00209   0.00000   0.00899   0.00899   2.15828
   A16        1.85090   0.00269   0.00000   0.01279   0.01279   1.86368
   A17        2.01653  -0.00493   0.00000  -0.00706  -0.00714   2.00939
   A18        1.87036   0.00101   0.00000  -0.00703  -0.00703   1.86333
   A19        1.91996  -0.00069   0.00000  -0.02341  -0.02354   1.89642
   A20        1.90971   0.00239   0.00000   0.02813   0.02810   1.93781
   A21        1.89153   0.00271   0.00000   0.00222   0.00191   1.89344
   A22        1.84853  -0.00014   0.00000   0.00896   0.00872   1.85726
   A23        2.27747   0.00111   0.00000  -0.00069  -0.00086   2.27661
   A24        2.17313  -0.00064   0.00000   0.00395   0.00378   2.17691
   A25        1.83182  -0.00047   0.00000  -0.00378  -0.00354   1.82828
   A26        1.93433   0.00083   0.00000   0.00485   0.00480   1.93913
   A27        2.23675  -0.00088   0.00000  -0.01007  -0.01005   2.22670
   A28        2.11211   0.00006   0.00000   0.00521   0.00523   2.11734
   A29        1.82824   0.00155   0.00000   0.00228   0.00218   1.83042
   A30        1.95405   0.00036   0.00000   0.00197   0.00221   1.95626
   A31        2.20470  -0.00103   0.00000  -0.00728  -0.00740   2.19729
   A32        2.12444   0.00067   0.00000   0.00530   0.00517   2.12961
   A33        1.87629  -0.00227   0.00000  -0.00539  -0.00579   1.87050
   A34        2.19588   0.00106   0.00000  -0.00290  -0.00397   2.19191
   A35        2.20485   0.00118   0.00000   0.00033  -0.00078   2.20407
   A36        1.97253  -0.00254   0.00000  -0.03834  -0.03840   1.93414
   A37        1.90593   0.00237   0.00000   0.04130   0.04110   1.94703
   A38        1.87852  -0.00001   0.00000  -0.00151  -0.00190   1.87662
   A39        1.93534  -0.00061   0.00000  -0.01102  -0.01062   1.92471
   A40        1.89926   0.00157   0.00000   0.00319   0.00296   1.90222
   A41        1.86850  -0.00068   0.00000   0.00877   0.00858   1.87708
   A42        1.99920   0.00249   0.00000   0.01902   0.01905   2.01825
   A43        1.92010  -0.00166   0.00000  -0.01802  -0.01818   1.90193
   A44        1.89875  -0.00043   0.00000  -0.01211  -0.01223   1.88652
   A45        1.87581   0.00034   0.00000   0.01001   0.01011   1.88592
   A46        1.89866  -0.00082   0.00000   0.00272   0.00279   1.90144
   A47        1.86679  -0.00007   0.00000  -0.00255  -0.00277   1.86401
   A48        1.92590  -0.00013   0.00000   0.00132   0.00132   1.92723
   A49        1.92274   0.00045   0.00000   0.00104   0.00104   1.92379
   A50        1.86005  -0.00019   0.00000  -0.00191  -0.00192   1.85814
    D1       -0.15769  -0.00196   0.00000   0.01408   0.01390  -0.14379
    D2       -2.94064  -0.00252   0.00000  -0.04306  -0.04344  -2.98408
    D3        2.97419  -0.00023   0.00000   0.05705   0.05743   3.03162
    D4        0.19124  -0.00079   0.00000  -0.00009   0.00009   0.19133
    D5       -0.58554   0.00027   0.00000  -0.36847  -0.36896  -0.95450
    D6       -2.74848   0.00109   0.00000  -0.35797  -0.35784  -3.10632
    D7        1.51209   0.00066   0.00000  -0.38909  -0.38931   1.12278
    D8        2.56588  -0.00152   0.00000  -0.41218  -0.41228   2.15359
    D9        0.40293  -0.00071   0.00000  -0.40168  -0.40116   0.00178
   D10       -1.61968  -0.00113   0.00000  -0.43279  -0.43263  -2.05231
   D11       -2.19703  -0.00013   0.00000  -0.07160  -0.07165  -2.26868
   D12        1.98219  -0.00281   0.00000  -0.07829  -0.07827   1.90392
   D13       -0.13312  -0.00160   0.00000  -0.07980  -0.07971  -0.21283
   D14        0.59648   0.00074   0.00000  -0.01471  -0.01480   0.58168
   D15       -1.50748  -0.00194   0.00000  -0.02139  -0.02142  -1.52890
   D16        2.66040  -0.00074   0.00000  -0.02291  -0.02287   2.63753
   D17        2.86584  -0.00028   0.00000   0.00679   0.00680   2.87264
   D18       -0.31291  -0.00029   0.00000   0.00233   0.00235  -0.31056
   D19       -1.25340  -0.00022   0.00000   0.01021   0.01014  -1.24326
   D20        1.85103  -0.00023   0.00000   0.00575   0.00569   1.85672
   D21        0.81293   0.00087   0.00000   0.02451   0.02455   0.83748
   D22       -2.36582   0.00086   0.00000   0.02005   0.02010  -2.34572
   D23       -1.02269   0.00004   0.00000   0.05247   0.05240  -0.97029
   D24        3.12731  -0.00053   0.00000   0.02615   0.02619  -3.12969
   D25        1.12545  -0.00057   0.00000   0.03128   0.03133   1.15679
   D26       -3.13876   0.00126   0.00000   0.06415   0.06406  -3.07470
   D27        1.01124   0.00069   0.00000   0.03782   0.03785   1.04909
   D28       -0.99062   0.00065   0.00000   0.04295   0.04300  -0.94762
   D29        1.08059  -0.00038   0.00000   0.04768   0.04759   1.12819
   D30       -1.05259  -0.00095   0.00000   0.02135   0.02138  -1.03121
   D31       -3.05445  -0.00099   0.00000   0.02648   0.02653  -3.02793
   D32        3.11217  -0.00055   0.00000  -0.02035  -0.02038   3.09179
   D33        0.00671  -0.00039   0.00000  -0.01534  -0.01531  -0.00860
   D34        2.85446  -0.00098   0.00000  -0.08804  -0.08805   2.76641
   D35       -0.33563  -0.00106   0.00000  -0.10495  -0.10498  -0.44061
   D36       -1.31667  -0.00126   0.00000  -0.08055  -0.08061  -1.39728
   D37        1.77642  -0.00134   0.00000  -0.09745  -0.09753   1.67889
   D38        0.69137   0.00133   0.00000  -0.05375  -0.05365   0.63772
   D39       -2.49872   0.00124   0.00000  -0.07066  -0.07057  -2.56929
   D40        3.10774  -0.00038   0.00000  -0.01509  -0.01509   3.09265
   D41       -0.03206  -0.00010   0.00000  -0.00966  -0.00966  -0.04172
   D42        0.00751  -0.00029   0.00000  -0.00083  -0.00086   0.00665
   D43       -3.13229  -0.00002   0.00000   0.00460   0.00457  -3.12772
   D44       -3.11273   0.00008   0.00000   0.00745   0.00752  -3.10521
   D45        0.14204   0.00032   0.00000   0.08031   0.08020   0.22224
   D46       -0.00931   0.00006   0.00000  -0.00583  -0.00579  -0.01509
   D47       -3.03773   0.00029   0.00000   0.06703   0.06690  -2.97083
   D48       -0.00267   0.00044   0.00000   0.00736   0.00738   0.00471
   D49        3.13728   0.00018   0.00000   0.00236   0.00232   3.13960
   D50       -0.00351  -0.00042   0.00000  -0.01129  -0.01132  -0.01483
   D51        3.13674  -0.00036   0.00000  -0.01751  -0.01752   3.11922
   D52        0.00831   0.00024   0.00000   0.01118   0.01113   0.01944
   D53        3.03598  -0.00001   0.00000  -0.06243  -0.06247   2.97351
   D54       -3.13201   0.00019   0.00000   0.01708   0.01707  -3.11494
   D55       -0.10434  -0.00006   0.00000  -0.05653  -0.05654  -0.16087
   D56        3.05691  -0.00057   0.00000   0.00039   0.00035   3.05726
   D57       -1.11131   0.00037   0.00000   0.01321   0.01304  -1.09828
   D58        0.92831  -0.00090   0.00000  -0.00710  -0.00706   0.92125
   D59       -1.07957   0.00021   0.00000   0.01813   0.01827  -1.06129
   D60        1.03539   0.00115   0.00000   0.03095   0.03096   1.06635
   D61        3.07502  -0.00012   0.00000   0.01065   0.01086   3.08588
   D62        0.97119  -0.00002   0.00000   0.02434   0.02430   0.99549
   D63        3.08615   0.00092   0.00000   0.03717   0.03699   3.12314
   D64       -1.15741  -0.00035   0.00000   0.01686   0.01689  -1.14052
   D65        1.03793  -0.00035   0.00000  -0.00892  -0.00889   1.02904
   D66       -1.01116  -0.00031   0.00000  -0.00801  -0.00798  -1.01914
   D67       -1.10121  -0.00013   0.00000  -0.00586  -0.00593  -1.10714
   D68        3.13288  -0.00009   0.00000  -0.00494  -0.00501   3.12787
   D69       -3.11660   0.00019   0.00000  -0.00952  -0.00949  -3.12609
   D70        1.11749   0.00023   0.00000  -0.00861  -0.00857   1.10892
         Item               Value     Threshold  Converged?
 Maximum Force            0.014478     0.000450     NO 
 RMS     Force            0.003051     0.000300     NO 
 Maximum Displacement     1.074001     0.001800     NO 
 RMS     Displacement     0.276890     0.001200     NO 
 Predicted change in Energy=-2.943198D-03
 GradGradGradGradGradGradGradGradGradGradGradGradGradGradGradGradGradGrad

                          Input orientation:                          
 ---------------------------------------------------------------------
 Center     Atomic      Atomic             Coordinates (Angstroms)
 Number     Number       Type             X           Y           Z
 ---------------------------------------------------------------------
      1          8           0        0.933239   -1.262856   -1.020419
      2          6           0        1.174896   -0.119043   -0.617436
      3          7           0        0.259777    0.882399   -0.691907
      4          6           0       -0.994164    0.732917   -1.401869
      5          6           0       -1.153814    1.924718   -2.332316
      6          8           0       -2.106152    1.711138   -3.260346
      7          8           0       -0.536196    2.962091   -2.230273
      8          6           0       -2.236013    0.654386   -0.477940
      9          6           0       -2.187244   -0.421752    0.563514
     10          6           0       -2.869420   -0.544848    1.753354
     11          7           0       -2.564487   -1.733186    2.379136
     12          6           0       -1.699921   -2.324502    1.579490
     13          7           0       -1.446612   -1.584682    0.460357
     14          6           0        2.502058    0.222929    0.029559
     15          6           0        2.792929   -0.720843    1.218409
     16          7           0        4.096376   -0.556045    1.850377
     17          1           0        0.539264    1.831479   -0.479891
     18          1           0       -0.927121   -0.182265   -1.996019
     19          1           0       -2.178708    2.531638   -3.783591
     20          1           0       -3.109469    0.530891   -1.131391
     21          1           0       -2.360103    1.620672    0.025981
     22          1           0       -3.568737    0.157160    2.189066
     23          1           0       -1.221156   -3.277796    1.757138
     24          1           0       -0.718196   -1.765275   -0.230625
     25          1           0        2.532496    1.268730    0.358220
     26          1           0        3.283837    0.091793   -0.730330
     27          1           0        2.022532   -0.575984    1.985432
     28          1           0        2.697422   -1.751087    0.865225
     29          1           0        4.203576    0.394170    2.201474
     30          1           0        4.839188   -0.697075    1.167573
 ---------------------------------------------------------------------
                    Distance matrix (angstroms):
                    1          2          3          4          5
     1  O    0.000000
     2  C    1.236569   0.000000
     3  N    2.272354   1.358629   0.000000
     4  C    2.800624   2.458859   1.448710   0.000000
     5  C    4.029577   3.541279   2.403250   1.520398   0.000000
     6  O    4.806226   4.593452   3.589054   2.376419   1.346776
     7  O    4.633914   3.875882   2.706522   2.421818   1.211613
     8  C    3.743562   3.500279   2.515301   1.549839   2.494716
     9  C    3.599127   3.576348   3.043814   2.572826   3.867781
    10  C    4.761257   4.707276   4.219977   3.886477   5.072944
    11  N    4.900232   5.056470   4.924334   4.779496   6.129278
    12  C    3.849695   4.237347   4.391341   4.328326   5.801408
    13  N    2.821339   3.190931   3.213404   3.007301   4.494513
    14  C    2.402334   1.515555   2.446066   3.812170   4.673322
    15  C    2.960503   2.520024   3.554792   4.829218   5.931561
    16  N    4.329722   3.849172   4.822014   6.176741   7.156368
    17  H    3.165801   2.056084   1.011838   2.099591   2.511311
    18  H    2.362290   2.514550   2.059842   1.093191   2.145662
    19  H    5.631831   5.319521   4.269042   3.211097   1.877488
    20  H    4.424175   4.363754   3.415922   2.142076   2.685062
    21  H    4.500643   3.992094   2.814993   2.166254   2.666297
    22  H    5.708329   5.518586   4.845977   4.455866   5.422085
    23  H    4.051694   4.621406   5.049575   5.110447   6.617728
    24  H    1.898271   2.538405   2.859964   2.772893   4.268831
    25  H    3.296543   2.172762   2.533232   3.977730   4.610659
    26  H    2.728469   2.122459   3.125935   4.377590   5.061494
    27  H    3.270091   2.775285   3.521694   4.720962   5.914865
    28  H    2.627997   2.679541   3.911780   4.993776   6.210300
    29  H    4.880722   4.169238   4.915645   6.333667   7.183276
    30  H    4.512633   4.116724   5.188776   6.532603   7.418833
                    6          7          8          9         10
     6  O    0.000000
     7  O    2.256257   0.000000
     8  C    2.979156   3.359397   0.000000
     9  C    4.379234   4.688453   1.498358   0.000000
    10  C    5.550607   5.797572   2.611137   1.377039   0.000000
    11  N    6.623986   6.885219   3.737818   2.271268   1.377220
    12  C    6.314699   6.619412   3.659807   2.211368   2.136615
    13  N    5.014085   5.361109   2.552838   1.382601   2.185745
    14  C    5.854386   4.673418   4.784666   4.763432   5.693306
    15  C    7.069283   6.044872   5.482619   5.031945   5.690284
    16  N    8.350507   7.105611   6.854586   6.415445   6.966481
    17  H    3.839744   2.344938   3.014584   3.687762   4.717355
    18  H    2.563905   3.177211   2.172038   2.862949   4.238136
    19  H    0.975844   2.301290   3.801933   5.255465   6.371783
    20  H    2.632883   3.706752   1.097805   2.151913   3.088138
    21  H    3.297365   3.196361   1.096833   2.119037   2.816505
    22  H    5.852358   6.049339   3.022632   2.210448   1.082453
    23  H    7.130766   7.436720   4.635468   3.242693   3.191519
    24  H    4.815711   5.136118   2.867001   2.143319   3.170707
    25  H    5.899728   4.357136   4.880087   5.017551   5.866528
    26  H    6.170514   5.008102   5.554184   5.645396   6.666076
    27  H    7.056567   6.069368   5.071214   4.446105   4.897552
    28  H    7.216762   6.500187   5.650591   5.071305   5.764852
    29  H    8.448583   6.978541   6.979633   6.647648   7.149115
    30  H    8.581591   7.336866   7.388682   7.057722   7.732331
                   11         12         13         14         15
    11  N    0.000000
    12  C    1.317787   0.000000
    13  N    2.225627   1.365268   0.000000
    14  C    5.917498   5.152507   4.364062   0.000000
    15  C    5.574409   4.784121   4.392558   1.545534   0.000000
    16  N    6.784715   6.066126   5.806459   2.542446   1.457915
    17  H    5.523961   5.150455   4.061764   2.588345   3.804941
    18  H    4.922226   4.239182   2.875835   4.003301   4.945846
    19  H    7.504450   7.250792   5.957446   6.463732   7.766326
    20  H    4.212701   4.181982   3.126405   5.738631   6.475083
    21  H    4.102131   4.291111   3.361168   5.059082   5.784317
    22  H    2.148965   3.165865   3.244359   6.443784   6.494910
    23  H    2.139449   1.081455   2.144553   5.394621   4.789689
    24  H    3.196979   2.133785   1.020127   3.793506   3.939358
    25  H    6.250987   5.684731   4.897518   1.096651   2.183151
    26  H    6.870388   6.000967   5.158047   1.098092   2.167706
    27  H    4.747090   4.132646   3.921515   2.166483   1.096732
    28  H    5.475394   4.491727   4.167088   2.152497   1.093281
    29  H    7.096752   6.529114   6.234739   2.764363   2.049292
    30  H    7.573362   6.751158   6.387431   2.757473   2.047027
                   16         17         18         19         20
    16  N    0.000000
    17  H    4.876830   0.000000
    18  H    6.337981   2.916178   0.000000
    19  H    8.980650   4.334978   3.482407   0.000000
    20  H    7.873791   3.928007   2.453327   3.450141   0.000000
    21  H    7.053556   2.950708   3.064720   3.921174   1.757465
    22  H    7.705669   5.177099   4.960674   6.575939   3.372839
    23  H    5.974342   5.848767   4.873906   8.084932   5.139594
    24  H    5.382649   3.818374   2.380375   5.763691   3.435396
    25  H    2.828791   2.234298   4.429083   6.398826   5.881761
    26  H    2.782079   3.259127   4.405593   6.716744   6.420905
    27  H    2.078333   3.751504   4.970657   7.783917   6.105505
    28  H    2.087036   4.393377   4.877011   7.983099   6.550869
    29  H    1.018661   4.762642   6.653968   9.006849   8.037868
    30  H    1.018763   5.253291   6.597247   9.175483   8.365063
                   21         22         23         24         25
    21  H    0.000000
    22  H    2.877778   0.000000
    23  H    5.318750   4.182896   0.000000
    24  H    3.771783   4.204313   2.547919   0.000000
    25  H    4.916479   6.466268   6.059519   4.485412   0.000000
    26  H    5.896061   7.448820   6.151146   4.440121   1.770490
    27  H    5.279417   5.642805   4.227696   3.719800   2.512141
    28  H    6.136094   6.682717   4.299024   3.587135   3.066520
    29  H    7.022746   7.775936   6.565705   5.899335   2.637224
    30  H    7.648854   8.512717   6.613280   5.829281   3.136920
                   26         27         28         29         30
    26  H    0.000000
    27  H    3.067929   0.000000
    28  H    2.507167   1.758183   0.000000
    29  H    3.087528   2.396837   2.942140   0.000000
    30  H    2.577492   2.935491   2.406141   1.632105   0.000000
 Symmetry turned off by external request.
 Stoichiometry    C9H14N4O3
 Framework group  C1[X(C9H14N4O3)]
 Deg. of freedom    84
 Full point group                 C1      NOp   1
 Rotational constants (GHZ):      0.5140556      0.4150971      0.2567426
 Standard basis: 6-31G(d) (6D, 7F)
   268 basis functions,   504 primitive gaussians,   268 cartesian basis functions
    60 alpha electrons       60 beta electrons
       nuclear repulsion energy      1127.4522105873 Hartrees.
 NAtoms=   30 NActive=   30 NUniq=   30 SFac= 1.00D+00 NAtFMM=   60 NAOKFM=F Big=F
 Integral buffers will be    131072 words long.
 Raffenetti 2 integral format.
 Two-electron integral symmetry is turned off.
 Nuclear repulsion after empirical dispersion term =     1127.3978671840 Hartrees.
 One-electron integrals computed using PRISM.
 NBasis=   268 RedAO= T EigKep=  1.18D-03  NBF=   268
 NBsUse=   268 1.00D-06 EigRej= -1.00D+00 NBFU=   268
 Initial guess from the checkpoint file:  "conf-640.chk"
 B after Tr=     0.026378    0.012662   -0.016009
         Rot=    0.999931   -0.009047   -0.000630   -0.007531 Ang=  -1.35 deg.
 ExpMin= 1.61D-01 ExpMax= 5.48D+03 ExpMxC= 8.25D+02 IAcc=2 IRadAn=         4 AccDes= 0.00D+00
 Harris functional with IExCor=  402 and IRadAn=       4 diagonalized for initial guess.
 HarFok:  IExCor=  402 AccDes= 0.00D+00 IRadAn=         4 IDoV= 1 UseB2=F ITyADJ=14
 ICtDFT=  3500011 ScaDFX=  1.000000  1.000000  1.000000  1.000000
 FoFCou: FMM=F IPFlag=           0 FMFlag=      100000 FMFlg1=           0
         NFxFlg=           0 DoJE=T BraDBF=F KetDBF=T FulRan=T
[...]
 0.00003992,0.00000088,0.00002897,-0.00017106,0.00014292,0.00000351,-0.
 00022897,0.00006570,0.00003451,0.00061981,0.00069424,-0.00125232,-0.00
 011254,-0.00066217,-0.00037858,-0.07071214,0.07656418,-0.00224157,-0.0
 0707754,-0.00370133,-0.00163698,0.00910027,0.00325020,0.00232902,-0.00
 331337,-0.00075282,-0.00087634,0.00045099,0.00063125,-0.00001770,0.000
 09928,-0.00061817,0.00025437,-0.00015555,0.00017358,0.00011050,-0.0001
 9690,0.00028992,-0.00113201,-0.00100880,0.00077895,-0.00316079,-0.0056
 1925,0.00365414,-0.00040296,0.00214693,0.00336594,0.00058010,0.0059649
 8,-0.00252613,0.01168487,-0.01214794,-0.01411747,0.17977402,-0.0447514
 3,-0.25743729,-0.00007544,-0.00077936,-0.00118049,-0.00052656,-0.00067
 587,0.00079788,0.00002220,0.00034718,-0.00058247,0.00002270,-0.0000785
 5,0.00035323,-0.00011932,0.00115949,-0.00092760,-0.00004150,0.00002200
 ,0.00002930,-0.00006435,0.00046466,-0.00048996,0.00008472,0.00012581,-
 0.00025645,0.00069827,0.00044079,0.00095402,-0.00108562,-0.00009490,0.
 00001969,-0.18408341,0.05581671,0.26857342,-0.00629908,-0.00255340,-0.
 00503668,0.00286043,-0.02943752,-0.00359046,-0.00006648,0.00102272,0.0
 0053417,0.00033312,0.00021674,0.00029147,-0.00005172,-0.00015293,-0.00
 004087,0.00007115,0.00002839,0.00006987,0.00007635,0.00011566,0.000050
 32,0.00005063,-0.00001259,0.00001585,0.00009982,-0.00013092,-0.0000310
 1,-0.00000674,0.00001724,0.00006962,-0.00004325,0.00006861,0.00010800,
 -0.00001337,0.00008409,-0.00018649,-0.00014245,-0.00004810,0.00021505,
 -0.05565337,-0.01645705,-0.00342394,-0.00028074,0.00130175,-0.00007726
 ,0.00030433,0.00045025,0.00089561,-0.00172168,0.00054365,-0.00117064,0
 .00033489,-0.00024334,0.00010519,-0.00000877,-0.00000249,-0.00000635,0
 .00001703,0.00000557,-0.00001329,-0.00002237,0.00001441,0.00000132,-0.
 00001467,0.00000204,0.00001000,-0.00000063,0.00000023,-0.00000284,0.00
 034602,0.00012334,-0.00034049,0.05562764,-0.00219151,0.00153911,-0.000
 75448,0.00428191,-0.00725185,0.00031045,0.00078275,0.00085887,0.001051
 16,-0.00051971,0.00058090,-0.00020433,-0.00019055,-0.00029062,0.000006
 88,0.00005434,0.00007445,0.00002261,0.00012620,0.00018681,0.00000384,0
 .00002098,-0.00002391,-0.00001877,0.00008883,-0.00009356,-0.00001800,0
 .00001290,0.00001391,0.00004362,-0.00006434,0.00005941,0.00007014,0.00
 000180,0.00003487,-0.00015694,-0.00014195,-0.00004387,0.00014722,-0.02
 072289,-0.28811053,-0.06428292,-0.00239089,-0.01950111,-0.00500281,0.0
 0008152,0.00259309,-0.00062548,-0.00026376,0.00112331,-0.00014505,0.00
 017451,0.00009993,0.00016431,-0.00001315,-0.00000612,-0.00001148,-0.00
 000613,0.00000315,-0.00001571,-0.00002806,0.00002061,0.00000305,-0.000
 02095,0.00000921,0.00000880,0.00002638,0.00004001,-0.00000819,0.000256
 62,0.00005342,-0.00011604,0.02071711,0.31480096,-0.00618613,-0.0016852
 0,-0.00075807,0.00437249,-0.01731198,-0.00537524,0.00028505,0.00094263
 ,0.00018275,0.00018194,0.00025713,-0.00003146,-0.00016667,-0.00030711,
 0.00001657,0.00006401,0.00008230,0.00003767,0.00016747,0.00018825,-0.0
 0003026,0.00005484,0.00002620,0.00002690,0.00006981,-0.00013848,-0.000
 01798,-0.00002122,-0.00001678,0.00004838,-0.00003930,0.00005353,0.0001
 0853,-0.00002516,0.00011884,-0.00014510,-0.00017115,-0.00003692,0.0002
 2697,-0.00551673,-0.06102013,-0.06357549,0.00196597,0.02950960,0.00636
 493,0.00178973,-0.00099583,0.00254376,-0.00123961,0.00033855,0.0003108
 9,0.00018246,-0.00009499,0.00009033,-0.00001983,-0.00000105,-0.0000057
 2,0.00000875,-0.00000590,-0.00001496,-0.00000935,0.00000261,0.00001310
 ,0.00000217,0.00000006,0.00000920,-0.00001957,-0.00002967,0.00000087,0
 .00035181,0.00015163,-0.00040440,0.00784489,0.06624967,0.06874691,0.00
 378095,0.00001267,-0.00235538,-0.02343129,0.00999900,0.01980969,-0.003
 85682,-0.00163911,-0.00318697,0.00045965,0.00128002,-0.00065498,-0.000
 33615,-0.00063789,0.00013382,-0.00015186,0.00025791,-0.00028500,0.0000
 4780,0.00021088,-0.00013775,0.00012405,0.00003688,-0.00001350,-0.00002
 726,0.00001477,-0.00000889,0.00001276,-0.00001718,-0.00006334,0.000018
 76,-0.00006340,0.00003433,0.00001377,0.00000536,0.00000849,0.00000637,
 0.00003631,-0.00007710,-0.20219573,0.04827357,0.11925573,0.00029584,-0
 .00077982,-0.00070325,0.00206339,-0.00047311,-0.00063142,-0.00015234,-
 0.00042582,0.00041233,-0.00008318,0.00001188,-0.00003859,-0.00003425,0
 .00000547,-0.00001676,-0.00003817,-0.00001680,0.00002731,-0.00000930,-
 0.00000251,0.00002074,0.00000125,0.00000213,-0.00000278,0.00000058,-0.
 00000387,0.00000599,-0.00007681,0.00003261,0.00016506,0.00348805,-0.00
 067006,-0.00274002,0.21882634,-0.00032139,-0.00028859,-0.00092078,-0.0
 0209428,0.00013463,0.00444065,0.00023742,0.00023379,0.00036126,-0.0000
 8025,0.00030820,0.00019878,-0.00001657,0.00003742,-0.00007346,0.000014
 80,-0.00000574,0.00003160,-0.00001222,-0.00000974,0.00007226,0.0000044
 4,-0.00004083,-0.00001153,0.00003587,-0.00003688,0.00000564,0.00001242
 ,-0.00000195,0.00001913,-0.00001729,0.00000680,0.00001091,-0.00003185,
 0.00005485,-0.00005794,-0.00006467,-0.00005325,0.00004255,0.04910836,-
 0.06585802,-0.04380619,-0.01586721,0.00380387,0.01505475,-0.00109945,0
 .00029819,-0.00203609,-0.00031301,0.00046063,-0.00063981,0.00015687,-0
 .00001654,0.00007366,0.00000656,-0.00000409,-0.00001061,0.00000231,0.0
 0000990,-0.00000836,-0.00001261,0.00001050,-0.00000814,-0.00000899,0.0
 0000123,0.00000422,0.00000445,0.00001062,0.00000663,0.00012223,0.00007
 314,0.00000671,0.02473190,-0.00689425,-0.01802120,-0.05533224,0.068025
 77,0.00132687,0.00113878,-0.00060585,-0.01596747,0.00377643,0.01173441
 ,-0.00193572,-0.00027504,-0.00191839,-0.00000723,0.00086031,-0.0007971
 5,-0.00028617,-0.00029830,-0.00001009,-0.00004506,0.00013213,-0.000110
 28,0.00005835,0.00008577,-0.00002594,0.00013503,0.00003328,0.00002820,
 -0.00002039,-0.00001579,-0.00002748,-0.00000934,0.00001401,0.00000089,
 0.00003645,0.00001449,0.00006513,0.00002399,-0.00004076,-0.00001744,0.
 00002885,0.00004148,0.00000201,0.12032749,-0.04386259,-0.13699912,0.02
 299594,-0.00525565,-0.02040720,0.00052991,-0.00110600,0.00356868,-0.00
 028663,-0.00005154,0.00017273,0.00002467,-0.00000103,0.00000930,-0.000
 02277,0.00000819,-0.00003104,0.00000758,-0.00000879,0.00001305,-0.0000
 1166,-0.00000114,0.00000702,-0.00000509,-0.00000396,-0.00000179,-0.000
 01584,-0.00002683,-0.00000458,0.00000532,0.00001390,0.00000476,0.00512
 308,-0.00155956,-0.00451629,-0.12909352,0.04232692,0.15295801,0.000190
 87,0.00018223,0.00023529,0.00004912,-0.00027334,-0.00023265,0.00054302
 ,-0.00019489,0.00009583,-0.00007166,-0.00005191,-0.00001630,0.00000789
 ,0.00005006,-0.00000825,0.00001602,-0.00002184,0.00001604,0.00001073,-
 0.00002539,0.00000308,0.00000167,-0.00000943,0.00005151,-0.00004768,0.
 00000772,-0.00004755,-0.00001589,0.00007514,0.00001601,0.00000753,0.00
 003482,-0.00002243,0.00006782,-0.00011516,-0.00000999,-0.00005653,-0.0
 0006759,-0.00005315,0.00247984,-0.00056175,0.00041814,-0.19998143,0.04
 418565,0.11718037,-0.03013908,0.01005644,0.01203142,0.00001440,0.00001
 815,0.00009998,0.00000077,-0.00000287,0.00000290,-0.00000066,0.0000013
 7,0.00000506,0.00001619,0.00000285,-0.00001656,0.00000974,-0.00000259,
 -0.00000260,0.00001375,-0.00000066,0.00000284,0.00000743,0.00003914,0.
 00001044,-0.00003272,0.00000537,0.00010409,0.00000751,-0.00020052,0.00
 006830,0.00084168,0.00046672,-0.00105911,0.22638821,-0.00015621,0.0002
 6704,-0.00008624,-0.00143923,0.00038714,-0.00036298,0.00005596,-0.0000
 8586,-0.00045475,0.00010633,-0.00007460,0.00008119,0.00000030,0.000084
 19,0.00000068,-0.00001717,-0.00001031,-0.00000376,-0.00002013,-0.00006
 416,-0.00002432,0.00003871,0.00009597,-0.00009604,-0.00015509,-0.00010
 984,-0.00002358,-0.00017297,-0.00006299,-0.00003270,0.00007266,0.00024
 857,0.00016952,0.00032030,-0.00018962,0.00013371,0.00017205,0.00033538
 ,-0.00012653,-0.01399708,0.00368947,0.01533103,0.04666274,-0.06809397,
 -0.03846077,-0.00349543,0.00225338,0.00187934,-0.00001388,-0.00006655,
 0.00020451,-0.00002680,0.00000171,-0.00002721,-0.00000161,0.00000316,-
 0.00000425,-0.00001648,-0.00002942,0.00005384,0.00001470,-0.00002723,0
 .00001343,0.00004038,-0.00002108,-0.00000155,-0.00010603,-0.00016588,-
 0.00003951,0.00001027,-0.00002769,-0.00022231,-0.00046019,0.00095197,-
 0.00096359,0.00006360,-0.00149705,0.00397298,-0.05077458,0.06648010,-0
 .00116234,-0.00054899,-0.00007342,0.00388674,0.00005517,0.00012333,-0.
 00117104,0.00030485,0.00061220,-0.00008183,0.00007569,-0.00008255,0.00
 000110,0.00011706,-0.00004482,-0.00000249,-0.00002318,0.00002531,-0.00
 004699,-0.00007444,0.00003621,0.00000349,0.00004966,-0.00010420,-0.000
 15904,0.00020937,-0.00010383,-0.00003022,-0.00002724,0.00009359,0.0000
 1530,0.00003031,-0.00003166,-0.00007129,-0.00024506,0.00029407,0.00036
 947,0.00012894,-0.00001846,0.01843796,-0.00566403,-0.01923105,0.123118
 03,-0.03897895,-0.14448867,-0.01978482,0.00678672,0.01211428,0.0001843
 1,0.00009606,-0.00027707,0.00004621,-0.00000634,0.00001391,0.00000843,
 -0.00000328,-0.00001405,0.00000164,-0.00001800,0.00004517,-0.00001355,
 -0.00000771,0.00001199,0.00000798,-0.00000979,-0.00000530,-0.00002565,
 -0.00005267,-0.00000414,0.00001612,-0.00006994,-0.00028293,-0.00036848
 ,0.00014678,0.00132943,-0.00077375,0.00376989,-0.00383770,-0.12439531,
 0.03646208,0.15841986,-0.00068041,-0.00074241,-0.00008783,0.00022188,0
 .00190907,0.00058238,0.00012618,-0.00035655,-0.00040609,0.00004097,-0.
 00002478,-0.00004621,-0.00002052,0.00009610,-0.00006335,0.00000974,-0.
 00002040,0.00002653,-0.00001090,-0.00006935,0.00001799,0.00002890,0.00
 003041,-0.00000095,-0.00005039,0.00004084,-0.00001415,-0.00002404,-0.0
 0009137,-0.00000311,0.00005982,0.00001889,-0.00004449,-0.00001637,-0.0
 0002781,0.00021939,0.00015287,0.00008682,-0.00010978,0.00100158,-0.001
 00902,0.00121089,-0.05374713,-0.01558202,-0.00094477,-0.00628784,-0.03
 064368,-0.01590158,0.00005902,-0.00002688,0.00012807,-0.00004541,0.000
 02395,-0.00002122,-0.00000136,0.00000102,-0.00000677,0.00000835,-0.000
 00901,0.00001259,0.00001181,-0.00001771,0.00000722,0.00001696,-0.00001
 670,-0.00000556,-0.00007340,-0.00012417,0.00001448,-0.00020545,0.00002
 781,-0.00017471,0.00053692,-0.00018057,-0.00064743,0.00020931,-0.00048
 230,-0.00055752,0.00362689,0.02501107,0.00634311,0.05999780,-0.0002238
 7,0.00299235,-0.00064720,-0.00174881,-0.00392962,-0.00175547,0.0002050
 9,0.00053669,0.00033782,-0.00004745,0.00005203,-0.00012728,-0.00006657
 ,-0.00011169,0.00000411,0.00004561,0.00002265,0.00003377,0.00007291,0.
 00009504,0.00000562,0.00001022,-0.00003914,0.00005613,0.00006661,-0.00
 006389,0.00000853,0.00000995,0.00005919,0.00002060,-0.00005527,0.00001
 683,0.00002655,0.00000805,0.00000385,-0.00017624,-0.00014494,-0.000068
 20,0.00007217,0.00072475,-0.02033367,-0.00172558,-0.02048422,-0.294961
 12,-0.06947908,-0.00240227,0.00055341,-0.00256786,-0.00020979,0.000165
 26,-0.00000934,0.00007272,-0.00000759,0.00004085,-0.00000636,-0.000001
 88,-0.00000202,0.00001347,0.00001348,-0.00003151,-0.00001083,0.0000149
 3,-0.00000700,-0.00001740,0.00001160,0.00000601,0.00004772,0.00009906,
 -0.00001095,0.00018419,-0.00000251,0.00012389,-0.00004874,-0.00076834,
 0.00347246,-0.00029002,0.00111741,-0.00021765,0.00010690,-0.00555751,-
 0.00164118,0.02487003,0.31807889,0.00028324,-0.00165739,-0.00045365,0.
 00105352,0.00323974,0.00181129,-0.00029859,-0.00058399,-0.00011180,-0.
 00003215,-0.00007265,0.00002951,0.00004984,0.00005593,-0.00001631,-0.0
 0002102,-0.00001362,-0.00002004,-0.00004395,-0.00004099,0.00001455,-0.
 00004754,-0.00004302,0.00000166,-0.00001930,0.00012138,0.00001196,0.00
 003740,0.00006378,-0.00004622,-0.00000962,-0.00004142,-0.00006572,-0.0
 0003114,-0.00013349,0.00002484,-0.00001751,-0.00007336,-0.00001589,0.0
 0088656,0.02880268,0.00374705,-0.00314432,-0.06860783,-0.06724713,-0.0
 0479263,-0.01931693,-0.00922178,0.00038071,-0.00012471,-0.00004433,-0.
 00009341,0.00002458,-0.00003570,0.00000371,0.00000009,0.00000407,-0.00
 000850,0.00000835,-0.00001152,0.00000339,0.00000954,-0.00001078,-0.000
 01334,0.00001257,-0.00000425,0.00007319,0.00011165,0.00001715,-0.00016
 251,-0.00004356,0.00019006,-0.00080793,0.00374916,-0.00466568,0.000360
 34,-0.00066154,0.00157926,-0.00193681,-0.01834692,-0.00461511,0.012159
 83,0.07338076,0.07885305,0.00006184,0.00071841,-0.00013418,-0.00015078
 ,-0.00076443,0.00004565,-0.00009714,0.00017008,0.00015165,-0.00000655,
 0.00001493,-0.00001782,-0.00002580,-0.00001941,-0.00002626,0.00001712,
 0.00000517,0.00002124,0.00000864,0.00001834,0.00002362,0.00000386,-0.0
 0000967,-0.00001002,0.00002870,-0.00003262,-0.00001826,0.00001014,0.00
 004054,0.00000786,0.00000345,0.00002348,0.00005190,0.00002648,-0.00002
 543,-0.00008754,-0.00005990,0.00000315,0.00006005,0.00076415,-0.000515
 93,0.00066703,-0.00374267,-0.03656537,-0.01090004,-0.06856448,-0.03553
 283,-0.01242768,-0.00001723,0.00002575,-0.00011762,0.00001981,0.000000
 31,0.00001149,-0.00000080,-0.00000088,-0.00000775,0.00000049,0.0000040
 9,0.00000375,-0.00001070,0.00000925,-0.00000367,-0.00002011,0.00000362
 ,-0.00000071,0.00001609,0.00002943,-0.00001100,0.00006777,-0.00001947,
 0.00003409,0.00015846,0.00090925,-0.00042798,-0.00000812,0.00022436,0.
 00007097,0.00057144,-0.00007472,0.00076058,-0.00580320,-0.00024283,-0.
 00401435,0.07206581,-0.00000252,0.00010930,-0.00000358,0.00038126,-0.0
 0029174,0.00038998,-0.00019242,0.00013218,-0.00000239,0.00009063,0.000
 01849,0.00003906,0.00004485,-0.00003605,0.00006456,-0.00004641,0.00001
 809,-0.00004909,-0.00003336,0.00002345,-0.00003369,-0.00000146,0.00000
 159,-0.00002394,0.00001496,-0.00003264,-0.00001032,0.00000087,0.000018
 25,-0.00000995,-0.00001042,0.00000748,0.00005720,0.00002367,-0.0000081
 9,-0.00007625,-0.00006979,0.00000151,0.00006483,0.00111881,0.00244061,
 0.00039018,0.00236652,-0.00520900,0.00597145,-0.03360577,-0.37925334,-
 0.13883382,0.00003721,-0.00003330,-0.00000860,-0.00000066,-0.00000802,
 -0.00000065,0.00000782,-0.00000286,0.00000518,-0.00001368,-0.00000373,
 0.00000659,-0.00000096,0.00000425,0.00000265,-0.00000662,0.00000629,-0
 .00000118,0.00001680,0.00001959,-0.00000838,0.00008018,0.00000781,0.00
 000417,-0.00010296,0.00015249,-0.00082981,-0.00001975,-0.00008872,-0.0
 0004305,-0.00047078,0.00015736,0.00002783,-0.00202934,0.00200594,-0.00
 027425,0.03699378,0.39026548,0.00079478,0.00105837,0.00028260,-0.00206
 369,-0.00051545,-0.00026780,0.00098904,-0.00025529,0.00004653,-0.00025
 830,-0.00010347,-0.00022418,-0.00013709,0.00009388,-0.00020279,0.00014
 651,-0.00005383,0.00015143,0.00011738,-0.00005764,0.00009495,0.0000061
 1,-0.00002750,0.00014055,-0.00002072,0.00009151,0.00005256,0.00000194,
 -0.00000991,0.00001905,-0.00000495,-0.00000255,-0.00017198,-0.00002553
 ,-0.00002950,0.00015056,0.00016115,-0.00003053,-0.00018977,0.00206165,
 -0.00247114,0.00178854,-0.00713820,-0.02072017,-0.01220905,-0.00527809
 ,-0.08582914,-0.04790496,-0.00013855,0.00013287,0.00006140,-0.00001019
 ,0.00004104,0.00000639,-0.00002541,0.00000821,-0.00000944,0.00005621,0
 .00002316,-0.00004864,0.00000452,-0.00000552,-0.00001450,0.00001222,-0
 .00000736,0.00000327,-0.00000351,0.00000513,0.00000879,-0.00021936,-0.
 00009296,0.00014600,-0.00034095,0.00092883,-0.00039360,-0.00002115,0.0
 0008408,-0.00038216,0.00069562,0.00093418,0.00073453,-0.00267477,0.000
 77620,-0.00019004,0.01575279,0.12935694,0.06830895,0.00034038,0.000262
 18,0.00000137,-0.00032533,-0.00069766,0.00016665,0.00060324,-0.0000459
 9,0.00006589,-0.00005339,-0.00009218,-0.00003535,-0.00001643,0.0000197
 5,-0.00004698,0.00004073,-0.00001780,0.00004123,0.00003411,-0.00000488
 ,0.00002338,-0.00000262,-0.00002966,0.00006860,0.00002344,0.00000079,0
 .00004037,0.00001931,-0.00000952,-0.00001087,-0.00002388,-0.00002664,-
 0.00006251,-0.00002343,0.00005897,-0.00000067,-0.00002964,-0.00006096,
 -0.00005149,0.00211677,0.00042231,0.00118902,-0.02938414,0.00670295,0.
 02260103,-0.27883461,0.06864235,0.15191209,-0.00004670,0.00001838,0.00
 005021,-0.00001079,0.00001062,0.00000175,-0.00000633,0.00000245,0.0000
 0157,0.00001696,0.00001329,-0.00002867,0.00000384,0.00000200,-0.000007
 24,-0.00000056,0.00000199,0.00000142,0.00001130,0.00002392,0.00000522,
 -0.00005864,-0.00000363,0.00011572,0.00001295,0.00006997,-0.00017956,0
 .00021073,0.00062560,-0.00137099,-0.00452690,-0.00164147,-0.00511367,0
 .00085742,-0.00043884,0.00020290,0.00468324,-0.00457047,-0.00243946,0.
 30436900,-0.00036180,-0.00064045,-0.00029058,0.00085943,0.00076524,0.0
 0053681,-0.00055951,-0.00003765,-0.00014991,0.00014234,0.00010957,0.00
 010983,0.00010339,-0.00006871,0.00015691,-0.00011185,0.00003608,-0.000
 12651,-0.00008186,0.00003226,-0.00007361,0.00000378,0.00001010,-0.0000
 5997,0.00001948,-0.00006190,-0.00000519,0.00001108,-0.00002213,-0.0000
 1803,-0.00001802,-0.00005287,0.00005411,-0.00002901,0.00011403,-0.0000
 7924,-0.00012819,-0.00003943,0.00007237,-0.00020874,-0.00028538,-0.001
 83335,-0.00051084,0.00072844,0.00696723,0.03809237,-0.05780668,-0.0547
 0155,0.00006632,-0.00009326,-0.00000824,0.00000545,-0.00001745,-0.0000
 0035,0.00001685,-0.00000255,0.00001278,-0.00003426,-0.00001000,0.00001
 754,0.00000058,0.00000057,0.00000993,0.00000314,0.00000345,0.00000149,
 0.00000003,0.00000557,0.00000422,0.00013423,0.00010743,-0.00003608,0.0
 0020651,-0.00021230,0.00006517,0.00012852,0.00020871,0.00034903,-0.002
 45929,0.00112832,-0.00088962,-0.00066194,0.00000653,0.00045546,0.03460
 964,-0.01042256,-0.02332245,-0.06923782,0.06651699,0.00044764,0.000356
 93,0.00016422,-0.00092486,-0.00043650,-0.00047336,0.00056955,-0.000081
 24,0.00008346,-0.00012819,-0.00010610,-0.00005749,-0.00008116,0.000079
 53,-0.00013790,0.00009647,-0.00003865,0.00010833,0.00006518,-0.0000431
 0,0.00006862,-0.00000503,-0.00001621,0.00005365,-0.00000306,0.00003628
 ,0.00001449,0.00000252,0.00001617,0.00000643,0.00001971,0.00002228,-0.
 00004918,0.00001385,-0.00004417,0.00004819,0.00006802,0.00000478,-0.00
 006230,-0.00130322,0.00008400,0.00268462,-0.02427434,0.00879369,0.0073
 7825,0.18379005,-0.08510095,-0.15884077,-0.00005511,0.00006916,0.00000
 324,-0.00000987,0.00001556,-0.00000043,-0.00001506,0.00000439,-0.00001
 067,0.00002744,0.00001092,-0.00001619,-0.00000003,-0.00000028,-0.00001
 102,-0.00000629,-0.00000353,-0.00000205,-0.00000202,-0.00000172,0.0000
 0010,-0.00011863,-0.00006393,0.00006517,0.00010324,0.00001321,-0.00012
 296,0.00057030,-0.00025401,-0.00045094,-0.00323621,0.00004051,-0.00063
 895,0.00098783,0.00003286,0.00049149,0.01054221,0.00382833,-0.00978717
 ,-0.16714092,0.07278179,0.15949112\\0.00000143,-0.00000153,0.00000054,
 -0.00000115,0.00000283,0.00000489,0.00000332,-0.00000064,-0.00000453,0
 .00000043,-0.00000057,-0.00000126,0.00000210,0.00000133,0.00000062,0.0
 0000108,0.00000109,-0.00000124,0.,-0.00000180,-0.00000084,0.00000002,0
 .00000161,-0.00000009,-0.00000243,-0.00000245,0.00000193,-0.00000010,0
 .00000087,-0.00000114,-0.00000077,0.00000169,-0.00000072,-0.00000164,0
 .00000130,-0.00000073,-0.00000005,0.00000146,0.00000088,-0.00000160,0.
 00000089,-0.00000189,-0.00000120,-0.00000208,0.00000130,-0.00000049,-0
 .00000002,0.00000031,0.00000017,-0.00000064,0.00000070,0.00000029,0.00
 000096,0.,0.00000178,-0.00000104,-0.00000011,0.00000040,0.00000068,0.,
 -0.00000006,-0.00000045,-0.00000085,-0.00000020,0.00000081,-0.00000059
 ,-0.00000123,0.00000116,0.00000007,0.00000057,0.00000008,-0.00000128,0
 .00000091,-0.00000163,0.00000015,-0.00000018,-0.00000220,0.00000138,-0
 .00000003,0.00000042,0.00000092,0.00000018,0.00000016,-0.00000051,-0.0
 0000066,-0.00000151,0.00000096,-0.00000089,-0.00000078,0.00000114\\\@


 AND HERE I AM, FOR ALL MY LORE,
 THE WRETCHED FOOL I WAS BEFORE.
 CALLED MASTER OF ARTS, AND DOCTOR TO BOOT,
 FOR TEN YEARS ALMOST I CONFUTE
 AND UP AND DOWN, WHEREVER IT GOES
 I DRAG MY STUDENTS BY THE NOSE --
 AND SEE THAT FOR ALL OUR SCIENCE AND ART
 WE CAN KNOW NOTHING.  IT BURNS MY HEART.

                                       -- FAUST
 Job cpu time:       0 days  1 hours  8 minutes 12.5 seconds.
 File lengths (MBytes):  RWF=    260 Int=      0 D2E=      0 Chk=      8 Scr=      1
 Normal termination of Gaussian 09 at Tue Jul 27 02:16:48 2021.
