 Entering Gaussian System, Link 0=g09
 Input=opt_freq-conf-150.com
 Output=opt_freq-conf-150.log
 Initial command:
 /aerosol/software/g09/l1.exe "/scratch/nicole/10542/Gau-85351.inp" -scrdir="/scratch/nicole/10542/"
 Entering Link 1 = /aerosol/software/g09/l1.exe PID=     85354.
  
 Copyright (c) 1988,1990,1992,1993,1995,1998,2003,2009,2013,
            Gaussian, Inc.  All Rights Reserved.
  
 This is part of the Gaussian(R) 09 program.  It is based on
 the Gaussian(R) 03 system (copyright 2003, Gaussian, Inc.),
 the Gaussian(R) 98 system (copyright 1998, Gaussian, Inc.),
 the Gaussian(R) 94 system (copyright 1995, Gaussian, Inc.),
 the Gaussian 92(TM) system (copyright 1992, Gaussian, Inc.),
 the Gaussian 90(TM) system (copyright 1990, Gaussian, Inc.),
 the Gaussian 88(TM) system (copyright 1988, Gaussian, Inc.),
 the Gaussian 86(TM) system (copyright 1986, Carnegie Mellon
 University), and the Gaussian 82(TM) system (copyright 1983,
 Carnegie Mellon University). Gaussian is a federally registered
 trademark of Gaussian, Inc.
  
 This software contains proprietary and confidential information,
 including trade secrets, belonging to Gaussian, Inc.
  
 This software is provided under written license and may be
 used, copied, transmitted, or stored only in accord with that
 written license.
  
 The following legend is applicable only to US Government
 contracts under FAR:
  
                    RESTRICTED RIGHTS LEGEND
  
 Use, reproduction and disclosure by the US Government is
 subject to restrictions as set forth in subparagraphs (a)
 and (c) of the Commercial Computer Software - Restricted
 Rights clause in FAR 52.227-19.
  
 Gaussian, Inc.
 340 Quinnipiac St., Bldg. 40, Wallingford CT 06492
  
  
 ---------------------------------------------------------------
 Warning -- This program may not be used in any manner that
 competes with the business of Gaussian, Inc. or will provide
 assistance to any competitor of Gaussian, Inc.  The licensee
 of this program is prohibited from giving any competitor of
 Gaussian, Inc. access to this program.  By using this program,
 the user acknowledges that Gaussian, Inc. is engaged in the
 business of creating and licensing software in the field of
 computational chemistry and represents and warrants to the
 licensee that it is not a competitor of Gaussian, Inc. and that
 it will not use this program in any manner prohibited above.
 ---------------------------------------------------------------
  

 Cite this work as:
 Gaussian 09, Revision D.01,
 M. J. Frisch, G. W. Trucks, H. B. Schlegel, G. E. Scuseria, 
 M. A. Robb, J. R. Cheeseman, G. Scalmani, V. Barone, B. Mennucci, 
 G. A. Petersson, H. Nakatsuji, M. Caricato, X. Li, H. P. Hratchian, 
 A. F. Izmaylov, J. Bloino, G. Zheng, J. L. Sonnenberg, M. Hada, 
 M. Ehara, K. Toyota, R. Fukuda, J. Hasegawa, M. Ishida, T. Nakajima, 
 Y. Honda, O. Kitao, H. Nakai, T. Vreven, J. A. Montgomery, Jr., 
 J. E. Peralta, F. Ogliaro, M. Bearpark, J. J. Heyd, E. Brothers, 
 K. N. Kudin, V. N. Staroverov, T. Keith, R. Kobayashi, J. Normand, 
 K. Raghavachari, A. Rendell, J. C. Burant, S. S. Iyengar, J. Tomasi, 
 M. Cossi, N. Rega, J. M. Millam, M. Klene, J. E. Knox, J. B. Cross, 
 V. Bakken, C. Adamo, J. Jaramillo, R. Gomperts, R. E. Stratmann, 
 O. Yazyev, A. J. Austin, R. Cammi, C. Pomelli, J. W. Ochterski, 
 R. L. Martin, K. Morokuma, V. G. Zakrzewski, G. A. Voth, 
 P. Salvador, J. J. Dannenberg, S. Dapprich, A. D. Daniels, 
 O. Farkas, J. B. Foresman, J. V. Ortiz, J. Cioslowski, 
 and D. J. Fox, Gaussian, Inc., Wallingford CT, 2013.
 
 ******************************************
 Gaussian 09:  ES64L-G09RevD.01 24-Apr-2013
                27-Jul-2021 
 ******************************************
 %mem=2gb
 %nproc=4
 Will use up to    4 processors via shared memory.
 %chk=conf-150.chk
 ----------------------------------------------------------------------
 # B3LYP/6-31G(d) EmpiricalDispersion=GD3BJ opt=calcfc freq=noraman nos
 ymm integral(ultrafinegrid)
 ----------------------------------------------------------------------
 1/10=4,14=-1,18=20,19=15,26=4,38=1/1,3;
 2/9=110,12=2,15=1,17=6,18=5,40=1/2;
 3/5=1,6=6,7=1,11=2,16=1,25=1,30=1,71=2,74=-5,75=-5,124=41,140=1/1,2,3;
 4//1;
 5/5=2,38=5/2;
 8/6=4,10=90,11=11/1;
 11/6=1,8=1,9=11,15=111,16=1,31=1/1,2,10;
 10/6=1,13=1,31=1/2;
 6/7=2,8=2,9=2,10=2,28=1/1;
 7/10=1,18=20,25=1,30=1/1,2,3,16;
 1/10=4,14=-1,18=20,19=15,26=4/3(2);
 2/9=110,15=1/2;
 99//99;
 2/9=110,15=1/2;
 3/5=1,6=6,7=1,11=2,16=1,25=1,30=1,71=1,74=-5,75=-5,124=41/1,2,3;
 4/5=5,16=3,69=1/1;
 5/5=2,38=5/2;
 7/30=1/1,2,3,16;
 1/14=-1,18=20,19=15,26=4/3(-5);
 2/9=110,15=1/2;
 6/7=2,8=2,9=2,10=2,19=2,28=1/1;
 99/9=1/99;
 ------------------------------------------------------------
 Candidate Structure: Conf:150 OPT and FREQ calc in gas phase
 ------------------------------------------------------------
 Symbolic Z-matrix:
 Charge =  0 Multiplicity = 1
 O                    -1.06735  -1.81842  -0.60329 
 C                    -1.26017  -0.71113  -0.11548 
 N                    -0.37381  -0.15491   0.75102 
 C                     0.74849  -0.91195   1.26099 
 C                     1.24686  -0.18699   2.48905 
 O                     2.24552  -0.85447   3.09518 
 O                     0.81057   0.86267   2.89123 
 C                     1.87855  -1.12462   0.22713 
 C                     2.46418   0.14329  -0.29805 
 C                     3.69731   0.71644  -0.1525 
 N                     3.75634   1.9277   -0.81778 
 C                     2.56761   2.08131  -1.35632 
 N                     1.75201   1.03     -1.0682 
 C                    -2.47144   0.14825  -0.43245 
 C                    -3.42446  -0.50714  -1.41911 
 N                    -4.55073   0.39607  -1.66837 
 H                    -0.59336   0.68832   1.26101 
 H                     0.41775  -1.90971   1.56604 
 H                     2.49526  -0.33255   3.86831 
 H                     1.46214  -1.72179  -0.58553 
 H                     2.6673   -1.71113   0.6993 
 H                     4.54572   0.32738   0.3952 
 H                     2.23723   2.91305  -1.95358 
 H                     0.78257   0.92701  -1.32349 
 H                    -2.13351   1.11041  -0.83235 
 H                    -3.0062    0.37498   0.49757 
 H                    -2.89971  -0.67889  -2.36095 
 H                    -3.71838  -1.49025  -1.03227 
 H                    -5.14058   0.44323  -0.845 
 H                    -5.13542   0.02345  -2.40678 
 

 GradGradGradGradGradGradGradGradGradGradGradGradGradGradGradGradGradGrad
 Berny optimization.
 Initialization pass.
                           ----------------------------
                           !    Initial Parameters    !
                           ! (Angstroms and Degrees)  !
 --------------------------                            --------------------------
 ! Name  Definition              Value          Derivative Info.                !
 --------------------------------------------------------------------------------
 ! R1    R(1,2)                  1.2252         calculate D2E/DX2 analytically  !
 ! R2    R(2,3)                  1.3586         calculate D2E/DX2 analytically  !
 ! R3    R(2,14)                 1.5186         calculate D2E/DX2 analytically  !
 ! R4    R(3,4)                  1.4466         calculate D2E/DX2 analytically  !
 ! R5    R(3,17)                 1.0096         calculate D2E/DX2 analytically  !
 ! R6    R(4,5)                  1.5107         calculate D2E/DX2 analytically  !
 ! R7    R(4,8)                  1.5463         calculate D2E/DX2 analytically  !
 ! R8    R(4,18)                 1.0945         calculate D2E/DX2 analytically  !
 ! R9    R(5,6)                  1.3454         calculate D2E/DX2 analytically  !
 ! R10   R(5,7)                  1.2058         calculate D2E/DX2 analytically  !
 ! R11   R(6,19)                 0.9657         calculate D2E/DX2 analytically  !
 ! R12   R(8,9)                  1.4921         calculate D2E/DX2 analytically  !
 ! R13   R(8,20)                 1.0911         calculate D2E/DX2 analytically  !
 ! R14   R(8,21)                 1.0904         calculate D2E/DX2 analytically  !
 ! R15   R(9,10)                 1.3676         calculate D2E/DX2 analytically  !
 ! R16   R(9,13)                 1.3735         calculate D2E/DX2 analytically  !
 ! R17   R(10,11)                1.3832         calculate D2E/DX2 analytically  !
 ! R18   R(10,22)                1.0822         calculate D2E/DX2 analytically  !
 ! R19   R(11,12)                1.314          calculate D2E/DX2 analytically  !
 ! R20   R(12,13)                1.3614         calculate D2E/DX2 analytically  !
 ! R21   R(12,23)                1.0759         calculate D2E/DX2 analytically  !
 ! R22   R(13,24)                1.0078         calculate D2E/DX2 analytically  !
 ! R23   R(14,15)                1.5203         calculate D2E/DX2 analytically  !
 ! R24   R(14,25)                1.0954         calculate D2E/DX2 analytically  !
 ! R25   R(14,26)                1.0965         calculate D2E/DX2 analytically  !
 ! R26   R(15,16)                1.4651         calculate D2E/DX2 analytically  !
 ! R27   R(15,27)                1.0918         calculate D2E/DX2 analytically  !
 ! R28   R(15,28)                1.0966         calculate D2E/DX2 analytically  !
 ! R29   R(16,29)                1.0139         calculate D2E/DX2 analytically  !
 ! R30   R(16,30)                1.0129         calculate D2E/DX2 analytically  !
 ! A1    A(1,2,3)              121.4156         calculate D2E/DX2 analytically  !
 ! A2    A(1,2,14)             123.6309         calculate D2E/DX2 analytically  !
 ! A3    A(3,2,14)             114.9485         calculate D2E/DX2 analytically  !
 ! A4    A(2,3,4)              121.1124         calculate D2E/DX2 analytically  !
 ! A5    A(2,3,17)             121.4815         calculate D2E/DX2 analytically  !
 ! A6    A(4,3,17)             115.3222         calculate D2E/DX2 analytically  !
 ! A7    A(3,4,5)              106.9408         calculate D2E/DX2 analytically  !
 ! A8    A(3,4,8)              113.7809         calculate D2E/DX2 analytically  !
 ! A9    A(3,4,18)             109.9301         calculate D2E/DX2 analytically  !
 ! A10   A(5,4,8)              111.6184         calculate D2E/DX2 analytically  !
 ! A11   A(5,4,18)             108.0944         calculate D2E/DX2 analytically  !
 ! A12   A(8,4,18)             106.3679         calculate D2E/DX2 analytically  !
 ! A13   A(4,5,6)              111.9023         calculate D2E/DX2 analytically  !
 ! A14   A(4,5,7)              124.7182         calculate D2E/DX2 analytically  !
 ! A15   A(6,5,7)              123.3794         calculate D2E/DX2 analytically  !
 ! A16   A(5,6,19)             106.5298         calculate D2E/DX2 analytically  !
 ! A17   A(4,8,9)              113.9092         calculate D2E/DX2 analytically  !
 ! A18   A(4,8,20)             107.1182         calculate D2E/DX2 analytically  !
 ! A19   A(4,8,21)             108.2449         calculate D2E/DX2 analytically  !
 ! A20   A(9,8,20)             110.654          calculate D2E/DX2 analytically  !
 ! A21   A(9,8,21)             109.0            calculate D2E/DX2 analytically  !
 ! A22   A(20,8,21)            107.7091         calculate D2E/DX2 analytically  !
 ! A23   A(8,9,10)             132.265          calculate D2E/DX2 analytically  !
 ! A24   A(8,9,13)             122.849          calculate D2E/DX2 analytically  !
 ! A25   A(10,9,13)            104.8708         calculate D2E/DX2 analytically  !
 ! A26   A(9,10,11)            110.7501         calculate D2E/DX2 analytically  !
 ! A27   A(9,10,22)            127.5957         calculate D2E/DX2 analytically  !
 ! A28   A(11,10,22)           121.654          calculate D2E/DX2 analytically  !
 ! A29   A(10,11,12)           105.1223         calculate D2E/DX2 analytically  !
 ! A30   A(11,12,13)           111.404          calculate D2E/DX2 analytically  !
 ! A31   A(11,12,23)           126.5587         calculate D2E/DX2 analytically  !
 ! A32   A(13,12,23)           122.0373         calculate D2E/DX2 analytically  !
 ! A33   A(9,13,12)            107.8523         calculate D2E/DX2 analytically  !
 ! A34   A(9,13,24)            125.0893         calculate D2E/DX2 analytically  !
 ! A35   A(12,13,24)           126.9841         calculate D2E/DX2 analytically  !
 ! A36   A(2,14,15)            113.0481         calculate D2E/DX2 analytically  !
 ! A37   A(2,14,25)            109.0995         calculate D2E/DX2 analytically  !
 ! A38   A(2,14,26)            109.2064         calculate D2E/DX2 analytically  !
 ! A39   A(15,14,25)           109.58           calculate D2E/DX2 analytically  !
 ! A40   A(15,14,26)           109.5044         calculate D2E/DX2 analytically  !
 ! A41   A(25,14,26)           106.1692         calculate D2E/DX2 analytically  !
 ! A42   A(14,15,16)           109.06           calculate D2E/DX2 analytically  !
 ! A43   A(14,15,27)           109.0502         calculate D2E/DX2 analytically  !
 ! A44   A(14,15,28)           108.9996         calculate D2E/DX2 analytically  !
 ! A45   A(16,15,27)           108.6456         calculate D2E/DX2 analytically  !
 ! A46   A(16,15,28)           113.9951         calculate D2E/DX2 analytically  !
 ! A47   A(27,15,28)           106.9842         calculate D2E/DX2 analytically  !
 ! A48   A(15,16,29)           109.7385         calculate D2E/DX2 analytically  !
 ! A49   A(15,16,30)           109.9378         calculate D2E/DX2 analytically  !
 ! A50   A(29,16,30)           105.8604         calculate D2E/DX2 analytically  !
 ! D1    D(1,2,3,4)             -7.7326         calculate D2E/DX2 analytically  !
 ! D2    D(1,2,3,17)          -170.55           calculate D2E/DX2 analytically  !
 ! D3    D(14,2,3,4)           173.0511         calculate D2E/DX2 analytically  !
 ! D4    D(14,2,3,17)           10.2337         calculate D2E/DX2 analytically  !
 ! D5    D(1,2,14,15)            0.0395         calculate D2E/DX2 analytically  !
 ! D6    D(1,2,14,25)         -122.151          calculate D2E/DX2 analytically  !
 ! D7    D(1,2,14,26)          122.2102         calculate D2E/DX2 analytically  !
 ! D8    D(3,2,14,15)          179.2362         calculate D2E/DX2 analytically  !
 ! D9    D(3,2,14,25)           57.0457         calculate D2E/DX2 analytically  !
 ! D10   D(3,2,14,26)          -58.593          calculate D2E/DX2 analytically  !
 ! D11   D(2,3,4,5)           -162.1572         calculate D2E/DX2 analytically  !
 ! D12   D(2,3,4,8)             74.1256         calculate D2E/DX2 analytically  !
 ! D13   D(2,3,4,18)           -45.0406         calculate D2E/DX2 analytically  !
 ! D14   D(17,3,4,5)             1.6593         calculate D2E/DX2 analytically  !
 ! D15   D(17,3,4,8)          -122.0579         calculate D2E/DX2 analytically  !
 ! D16   D(17,3,4,18)          118.7759         calculate D2E/DX2 analytically  !
 ! D17   D(3,4,5,6)            176.1661         calculate D2E/DX2 analytically  !
 ! D18   D(3,4,5,7)             -3.71           calculate D2E/DX2 analytically  !
 ! D19   D(8,4,5,6)            -58.7944         calculate D2E/DX2 analytically  !
 ! D20   D(8,4,5,7)            121.3295         calculate D2E/DX2 analytically  !
 ! D21   D(18,4,5,6)            57.8457         calculate D2E/DX2 analytically  !
 ! D22   D(18,4,5,7)          -122.0304         calculate D2E/DX2 analytically  !
 ! D23   D(3,4,8,9)             59.2523         calculate D2E/DX2 analytically  !
 ! D24   D(3,4,8,20)           -63.4489         calculate D2E/DX2 analytically  !
 ! D25   D(3,4,8,21)          -179.34           calculate D2E/DX2 analytically  !
 ! D26   D(5,4,8,9)            -61.8885         calculate D2E/DX2 analytically  !
 ! D27   D(5,4,8,20)           175.4103         calculate D2E/DX2 analytically  !
 ! D28   D(5,4,8,21)            59.5192         calculate D2E/DX2 analytically  !
 ! D29   D(18,4,8,9)          -179.5724         calculate D2E/DX2 analytically  !
 ! D30   D(18,4,8,20)           57.7264         calculate D2E/DX2 analytically  !
 ! D31   D(18,4,8,21)          -58.1646         calculate D2E/DX2 analytically  !
 ! D32   D(4,5,6,19)          -179.3425         calculate D2E/DX2 analytically  !
 ! D33   D(7,5,6,19)             0.5355         calculate D2E/DX2 analytically  !
 ! D34   D(4,8,9,10)           112.3787         calculate D2E/DX2 analytically  !
 ! D35   D(4,8,9,13)           -65.9767         calculate D2E/DX2 analytically  !
 ! D36   D(20,8,9,10)         -126.8774         calculate D2E/DX2 analytically  !
 ! D37   D(20,8,9,13)           54.7673         calculate D2E/DX2 analytically  !
 ! D38   D(21,8,9,10)           -8.6089         calculate D2E/DX2 analytically  !
 ! D39   D(21,8,9,13)          173.0358         calculate D2E/DX2 analytically  !
 ! D40   D(8,9,10,11)         -178.7634         calculate D2E/DX2 analytically  !
 ! D41   D(8,9,10,22)            1.0879         calculate D2E/DX2 analytically  !
 ! D42   D(13,9,10,11)          -0.1929         calculate D2E/DX2 analytically  !
 ! D43   D(13,9,10,22)         179.6584         calculate D2E/DX2 analytically  !
 ! D44   D(8,9,13,12)          178.9476         calculate D2E/DX2 analytically  !
 ! D45   D(8,9,13,24)            1.9019         calculate D2E/DX2 analytically  !
 ! D46   D(10,9,13,12)           0.2068         calculate D2E/DX2 analytically  !
 ! D47   D(10,9,13,24)        -176.8389         calculate D2E/DX2 analytically  !
 ! D48   D(9,10,11,12)           0.1026         calculate D2E/DX2 analytically  !
 ! D49   D(22,10,11,12)       -179.759          calculate D2E/DX2 analytically  !
 ! D50   D(10,11,12,13)          0.0338         calculate D2E/DX2 analytically  !
 ! D51   D(10,11,12,23)        179.9779         calculate D2E/DX2 analytically  !
 ! D52   D(11,12,13,9)          -0.1556         calculate D2E/DX2 analytically  !
 ! D53   D(11,12,13,24)        176.8181         calculate D2E/DX2 analytically  !
 ! D54   D(23,12,13,9)         179.8974         calculate D2E/DX2 analytically  !
 ! D55   D(23,12,13,24)         -3.1289         calculate D2E/DX2 analytically  !
 ! D56   D(2,14,15,16)        -179.6173         calculate D2E/DX2 analytically  !
 ! D57   D(2,14,15,27)         -61.1172         calculate D2E/DX2 analytically  !
 ! D58   D(2,14,15,28)          55.3532         calculate D2E/DX2 analytically  !
 ! D59   D(25,14,15,16)        -57.6961         calculate D2E/DX2 analytically  !
 ! D60   D(25,14,15,27)         60.804          calculate D2E/DX2 analytically  !
 ! D61   D(25,14,15,28)        177.2744         calculate D2E/DX2 analytically  !
 ! D62   D(26,14,15,16)         58.3789         calculate D2E/DX2 analytically  !
 ! D63   D(26,14,15,27)        176.879          calculate D2E/DX2 analytically  !
 ! D64   D(26,14,15,28)        -66.6506         calculate D2E/DX2 analytically  !
 ! D65   D(14,15,16,29)        -70.7929         calculate D2E/DX2 analytically  !
 ! D66   D(14,15,16,30)        173.1656         calculate D2E/DX2 analytically  !
 ! D67   D(27,15,16,29)        170.4539         calculate D2E/DX2 analytically  !
 ! D68   D(27,15,16,30)         54.4125         calculate D2E/DX2 analytically  !
 ! D69   D(28,15,16,29)         51.2678         calculate D2E/DX2 analytically  !
 ! D70   D(28,15,16,30)        -64.7736         calculate D2E/DX2 analytically  !
 --------------------------------------------------------------------------------
 Trust Radius=3.00D-01 FncErr=1.00D-07 GrdErr=1.00D-06
 Number of steps in this run=    160 maximum allowed number of steps=    180.
 GradGradGradGradGradGradGradGradGradGradGradGradGradGradGradGradGradGrad

                          Input orientation:                          
 ---------------------------------------------------------------------
 Center     Atomic      Atomic             Coordinates (Angstroms)
 Number     Number       Type             X           Y           Z
 ---------------------------------------------------------------------
      1          8           0       -1.067352   -1.818420   -0.603290
      2          6           0       -1.260171   -0.711133   -0.115475
      3          7           0       -0.373807   -0.154908    0.751020
      4          6           0        0.748491   -0.911949    1.260987
      5          6           0        1.246864   -0.186995    2.489052
      6          8           0        2.245519   -0.854468    3.095176
      7          8           0        0.810575    0.862669    2.891227
      8          6           0        1.878554   -1.124616    0.227129
      9          6           0        2.464176    0.143289   -0.298052
     10          6           0        3.697311    0.716443   -0.152500
     11          7           0        3.756344    1.927702   -0.817782
     12          6           0        2.567610    2.081312   -1.356324
     13          7           0        1.752005    1.029997   -1.068196
     14          6           0       -2.471439    0.148251   -0.432449
     15          6           0       -3.424457   -0.507137   -1.419106
     16          7           0       -4.550733    0.396069   -1.668368
     17          1           0       -0.593358    0.688317    1.261006
     18          1           0        0.417752   -1.909712    1.566043
     19          1           0        2.495261   -0.332548    3.868311
     20          1           0        1.462143   -1.721790   -0.585530
     21          1           0        2.667299   -1.711131    0.699298
     22          1           0        4.545724    0.327378    0.395204
     23          1           0        2.237229    2.913050   -1.953578
     24          1           0        0.782573    0.927013   -1.323490
     25          1           0       -2.133510    1.110413   -0.832347
     26          1           0       -3.006197    0.374981    0.497574
     27          1           0       -2.899706   -0.678894   -2.360952
     28          1           0       -3.718382   -1.490250   -1.032268
     29          1           0       -5.140584    0.443227   -0.844998
     30          1           0       -5.135425    0.023449   -2.406784
 ---------------------------------------------------------------------
                    Distance matrix (angstroms):
                    1          2          3          4          5
     1  O    0.000000
     2  C    1.225245   0.000000
     3  N    2.254425   1.358618   0.000000
     4  C    2.755813   2.443297   1.446626   0.000000
     5  C    4.192818   3.652877   2.376627   1.510655   0.000000
     6  O    5.057961   4.755911   3.584036   2.368258   1.345444
     7  O    4.788162   3.975563   2.649285   2.410561   1.205772
     8  C    3.138364   3.184328   2.507573   1.546328   2.528727
     9  C    4.051316   3.825458   3.040332   2.547097   3.059230
    10  C    5.415788   5.159067   4.260235   3.653101   3.714659
    11  N    6.111258   5.711576   4.884316   4.629478   4.658818
    12  C    5.384043   4.897894   4.253647   4.372541   4.655803
    13  N    4.034649   3.607273   3.038523   3.194258   3.793448
    14  C    2.422486   1.518612   2.427460   3.789419   4.740604
    15  C    2.817971   2.534798   3.760316   4.975969   6.098969
    16  N    4.262898   3.803310   4.858367   6.194660   7.157949
    17  H    3.159747   2.073114   1.009612   2.088398   2.379219
    18  H    2.630566   2.660737   2.090493   1.094522   2.122999
    19  H    5.907219   5.487909   4.240354   3.191402   1.866021
    20  H    2.531403   2.941662   2.759021   2.138871   3.443109
    21  H    3.956750   4.133869   3.416552   2.153140   2.746607
    22  H    6.091639   5.920111   4.955905   4.087113   3.940972
    23  H    5.927085   5.361449   4.852291   5.213481   5.507092
    24  H    3.387966   2.883683   2.609859   3.172139   3.999007
    25  H    3.125256   2.143515   2.684147   4.096086   4.913439
    26  H    3.127623   2.145711   2.697127   4.041864   4.729728
    27  H    2.783058   2.780517   4.042165   5.146075   6.399886
    28  H    2.705490   2.736847   4.018637   5.054345   6.225097
    29  H    4.665264   4.113679   5.062333   6.399444   7.232743
    30  H    4.816045   4.561502   5.716340   6.996283   8.046559
                    6          7          8          9         10
     6  O    0.000000
     7  O    2.247047   0.000000
     8  C    2.904020   3.491031   0.000000
     9  C    3.543632   3.663796   1.492096   0.000000
    10  C    3.888812   4.197487   2.615624   1.367594   0.000000
    11  N    5.033319   4.854749   3.732904   2.263613   1.383197
    12  C    5.342134   4.755413   3.641441   2.210559   2.142028
    13  N    4.596567   4.073244   2.517188   1.373520   2.172793
    14  C    5.974886   4.725339   4.580139   4.937446   6.201184
    15  C    7.255894   6.196033   5.586886   6.029578   7.336281
    16  N    8.393107   7.053456   6.873218   7.151966   8.392302
    17  H    3.715317   2.158482   3.235116   3.475087   4.517591
    18  H    2.606246   3.097824   2.131434   3.446377   4.539338
    19  H    0.965665   2.285039   3.777023   4.193562   4.325763
    20  H    3.861803   4.380846   1.091069   2.136641   3.335937
    21  H    2.579148   3.856997   1.090441   2.115382   2.771209
    22  H    3.738657   4.524158   3.041435   2.201667   1.082199
    23  H    6.299538   5.450829   4.602920   3.234787   3.193870
    24  H    4.983824   4.215301   2.795492   2.119796   3.148215
    25  H    6.201781   4.753316   4.713226   4.728585   5.883526
    26  H    5.986618   4.531574   5.116906   5.532782   6.743605
    27  H    7.501566   6.612714   5.452394   5.805408   7.095411
    28  H    7.280668   6.437507   5.748519   6.436734   7.786912
    29  H    8.471334   7.039290   7.271581   7.630301   8.869194
    30  H    9.247737   8.008004   7.579674   7.887651   9.142170
                   11         12         13         14         15
    11  N    0.000000
    12  C    1.314044   0.000000
    13  N    2.210420   1.361430   0.000000
    14  C    6.488467   5.475608   4.361092   0.000000
    15  C    7.606177   6.527547   5.411255   1.520286   0.000000
    16  N    8.489813   7.321764   6.362907   2.431538   1.465063
    17  H    4.977684   4.333886   3.323049   2.585855   4.077650
    18  H    5.617344   5.393551   4.166693   4.071438   5.063685
    19  H    5.353365   5.755759   5.174751   6.587549   7.939163
    20  H    4.316954   4.034819   2.808793   4.358160   5.103831
    21  H    4.090067   4.314874   3.387562   5.580751   6.561001
    22  H    2.157659   3.171289   3.231111   7.068074   8.216564
    23  H    2.137441   1.075942   2.136641   5.668289   6.636115
    24  H    3.178118   2.125992   1.007760   3.462516   4.445788
    25  H    5.946305   4.828843   3.893497   1.095386   2.151116
    26  H    7.062086   6.116848   5.051848   1.096501   2.150984
    27  H    7.312914   6.206412   5.121517   2.141660   1.091760
    28  H    8.221917   7.237041   6.023128   2.144607   1.096607
    29  H    9.019963   7.896901   6.921121   2.716900   2.043987
    30  H    9.231178   8.042078   7.088135   3.318192   2.045591
                   16         17         18         19         20
    16  N    0.000000
    17  H    4.932288   0.000000
    18  H    6.361123   2.804486   0.000000
    19  H    8.990647   4.168905   3.479069   0.000000
    20  H    6.466262   3.666524   2.399028   4.778496   0.000000
    21  H    7.883281   4.087145   2.418914   3.460164   1.761618
    22  H    9.327839   5.223988   4.838966   4.086854   3.830065
    23  H    7.245203   4.826511   6.241575   6.670447   4.894289
    24  H    5.370754   2.937649   4.065650   5.610222   2.832413
    25  H    2.655596   2.632938   4.624107   6.753061   4.583777
    26  H    2.660327   2.550059   4.252631   6.490647   5.053279
    27  H    2.088327   4.506339   5.285994   8.247989   4.823430
    28  H    2.157691   4.446464   4.902528   7.997832   5.204904
    29  H    1.013946   5.017230   6.499580   9.006844   6.953462
    30  H    1.012901   5.875807   7.096354   9.885895   7.063337
                   21         22         23         24         25
    21  H    0.000000
    22  H    2.788632   0.000000
    23  H    5.348435   4.187079   0.000000
    24  H    3.821475   4.180285   2.541137   0.000000
    25  H    5.775363   6.836095   4.859014   2.962836   0.000000
    26  H    6.048232   7.552765   6.320083   4.239787   1.752465
    27  H    6.436007   8.002712   6.281410   4.149029   2.474936
    28  H    6.619972   8.581195   7.463723   5.117281   3.052088
    29  H    8.245554   9.766069   7.858823   5.962113   3.080227
    30  H    8.575489  10.083063   7.931659   6.083802   3.559753
                   26         27         28         29         30
    26  H    0.000000
    27  H    3.048469   0.000000
    28  H    2.515295   1.758957   0.000000
    29  H    2.522453   2.928960   2.407501   0.000000
    30  H    3.618353   2.343891   2.487687   1.617224   0.000000
 Symmetry turned off by external request.
 Stoichiometry    C9H14N4O3
 Framework group  C1[X(C9H14N4O3)]
 Deg. of freedom    84
 Full point group                 C1      NOp   1
 Rotational constants (GHZ):      0.7284732      0.3114858      0.2544644
 Standard basis: 6-31G(d) (6D, 7F)
   268 basis functions,   504 primitive gaussians,   268 cartesian basis functions
    60 alpha electrons       60 beta electrons
       nuclear repulsion energy      1129.0975961519 Hartrees.
 NAtoms=   30 NActive=   30 NUniq=   30 SFac= 1.00D+00 NAtFMM=   60 NAOKFM=F Big=F
 Integral buffers will be    131072 words long.
 Raffenetti 2 integral format.
 Two-electron integral symmetry is turned off.
 Nuclear repulsion after empirical dispersion term =     1129.0430875942 Hartrees.
 One-electron integrals computed using PRISM.
 NBasis=   268 RedAO= T EigKep=  1.23D-03  NBF=   268
 NBsUse=   268 1.00D-06 EigRej= -1.00D+00 NBFU=   268
 ExpMin= 1.61D-01 ExpMax= 5.48D+03 ExpMxC= 8.25D+02 IAcc=3 IRadAn=         5 AccDes= 0.00D+00
 Harris functional with IExCor=  402 and IRadAn=       5 diagonalized for initial guess.
 HarFok:  IExCor=  402 AccDes= 0.00D+00 IRadAn=         5 IDoV= 1 UseB2=F ITyADJ=14
 ICtDFT=  3500011 ScaDFX=  1.000000  1.000000  1.000000  1.000000
 FoFCou: FMM=F IPFlag=           0 FMFlag=      100000 FMFlg1=           0
         NFxFlg=           0 DoJE=T BraDBF=F KetDBF=T FulRan=T
         wScrn=  0.000000 ICntrl=     500 IOpCl=  0 I1Cent=   200000004 NGrid=           0
         NMat0=    1 NMatS0=      1 NMatT0=    0 NMatD0=    1 NMtDS0=    0 NMtDT0=    0
 Symmetry not used in FoFCou.
 Requested convergence on RMS density matrix=1.00D-08 within 128 cycles.
 Requested convergence on MAX density matrix=1.00D-06.
 Requested convergence on             energy=1.00D-06.
 No special actions if energy rises.
 Integral accuracy reduced to 1.0D-05 until final iterations.
 Initial convergence to 1.0D-05 achieved.  Increase integral accuracy.
 SCF Done:  E(RB3LYP) =  -796.133996720     A.U. after   14 cycles
            NFock= 14  Conv=0.73D-08     -V/T= 2.0089
 DoSCS=F DFT=T ScalE2(SS,OS)=  1.000000  1.000000
 Range of M.O.s used for correlation:     1   268
 NBasis=   268 NAE=    60 NBE=    60 NFC=     0 NFV=     0
 NROrb=    268 NOA=    60 NOB=    60 NVA=   208 NVB=   208
 Symmetrizing basis deriv contribution to polar:
 IMax=3 JMax=2 DiffMx= 0.00D+00
 G2DrvN: will do    31 centers at a time, making    1 passes.
 Calling FoFCou, ICntrl=  3107 FMM=F I1Cent=   0 AccDes= 0.00D+00.
 End of G2Drv F.D. properties file   721 does not exist.
 End of G2Drv F.D. properties file   722 does not exist.
 End of G2Drv F.D. properties file   788 does not exist.
          IDoAtm=111111111111111111111111111111
          Differentiating once with respect to nuclear coordinates.
          There are    93 degrees of freedom in the 1st order CPHF.  IDoFFX=6 NUNeed=     0.
     87 vectors produced by pass  0 Test12= 1.34D-14 1.08D-09 XBig12= 1.60D-01 1.01D-01.
 AX will form    87 AO Fock derivatives at one time.
     87 vectors produced by pass  1 Test12= 1.34D-14 1.08D-09 XBig12= 3.21D-02 5.41D-02.
     87 vectors produced by pass  2 Test12= 1.34D-14 1.08D-09 XBig12= 1.70D-04 2.15D-03.
     87 vectors produced by pass  3 Test12= 1.34D-14 1.08D-09 XBig12= 6.96D-07 1.05D-04.
     87 vectors produced by pass  4 Test12= 1.34D-14 1.08D-09 XBig12= 1.15D-09 3.49D-06.
     67 vectors produced by pass  5 Test12= 1.34D-14 1.08D-09 XBig12= 8.49D-13 7.75D-08.
     12 vectors produced by pass  6 Test12= 1.34D-14 1.08D-09 XBig12= 5.90D-16 2.46D-09.
 InvSVY:  IOpt=1 It=  1 EMax= 4.72D-16
 Solved reduced A of dimension   514 with    93 vectors.
 End of Minotr F.D. properties file   721 does not exist.
 End of Minotr F.D. properties file   722 does not exist.
 End of Minotr F.D. properties file   788 does not exist.

 **********************************************************************

            Population analysis using the SCF density.

 **********************************************************************

 Alpha  occ. eigenvalues --  -19.21861 -19.16514 -19.12479 -14.38394 -14.37000
 Alpha  occ. eigenvalues --  -14.31733 -14.30309 -10.34278 -10.29714 -10.25521
 Alpha  occ. eigenvalues --  -10.23122 -10.21296 -10.21264 -10.20648 -10.20216
 Alpha  occ. eigenvalues --  -10.18852  -1.13365  -1.04921  -1.04276  -1.00912
 Alpha  occ. eigenvalues --   -0.94057  -0.88817  -0.86236  -0.81226  -0.76664
 Alpha  occ. eigenvalues --   -0.74066  -0.68319  -0.65244  -0.61135  -0.60772
 Alpha  occ. eigenvalues --   -0.59669  -0.58526  -0.53562  -0.53218  -0.50883
 Alpha  occ. eigenvalues --   -0.50076  -0.49725  -0.48725  -0.46681  -0.46082
 Alpha  occ. eigenvalues --   -0.44951  -0.43805  -0.43659  -0.42010  -0.41344
 Alpha  occ. eigenvalues --   -0.40149  -0.40057  -0.39475  -0.38465  -0.38213
 Alpha  occ. eigenvalues --   -0.36902  -0.35216  -0.34258  -0.30283  -0.27571
 Alpha  occ. eigenvalues --   -0.26949  -0.26290  -0.25724  -0.23928  -0.21856
 Alpha virt. eigenvalues --   -0.01169   0.01348   0.03410   0.05501   0.06136
 Alpha virt. eigenvalues --    0.07419   0.07747   0.10405   0.12302   0.12512
 Alpha virt. eigenvalues --    0.13698   0.14807   0.15210   0.16009   0.16783
 Alpha virt. eigenvalues --    0.17516   0.17984   0.19222   0.20502   0.21102
 Alpha virt. eigenvalues --    0.22069   0.22502   0.24084   0.24790   0.24833
 Alpha virt. eigenvalues --    0.27705   0.27959   0.30523   0.32651   0.33641
 Alpha virt. eigenvalues --    0.38679   0.39611   0.42062   0.43990   0.47678
 Alpha virt. eigenvalues --    0.51067   0.51969   0.53082   0.53669   0.54534
 Alpha virt. eigenvalues --    0.55717   0.56446   0.57961   0.58667   0.60621
 Alpha virt. eigenvalues --    0.61644   0.63227   0.63501   0.63919   0.64945
 Alpha virt. eigenvalues --    0.65456   0.66248   0.66954   0.67596   0.68760
 Alpha virt. eigenvalues --    0.70814   0.73048   0.73167   0.74132   0.74498
 Alpha virt. eigenvalues --    0.76013   0.76335   0.77802   0.80631   0.81205
 Alpha virt. eigenvalues --    0.82172   0.82805   0.83475   0.83982   0.84691
 Alpha virt. eigenvalues --    0.85892   0.86509   0.87580   0.88227   0.89122
 Alpha virt. eigenvalues --    0.89566   0.89959   0.90529   0.91534   0.92065
 Alpha virt. eigenvalues --    0.92919   0.94644   0.95115   0.96385   0.96895
 Alpha virt. eigenvalues --    0.97295   0.99159   1.01383   1.02864   1.04993
 Alpha virt. eigenvalues --    1.07435   1.08429   1.10671   1.11207   1.13303
 Alpha virt. eigenvalues --    1.16631   1.20288   1.23690   1.26659   1.27471
 Alpha virt. eigenvalues --    1.30732   1.33054   1.34190   1.35280   1.36839
 Alpha virt. eigenvalues --    1.37380   1.40150   1.40388   1.42855   1.43138
 Alpha virt. eigenvalues --    1.45573   1.47757   1.51739   1.52678   1.54450
 Alpha virt. eigenvalues --    1.56324   1.57174   1.62126   1.64304   1.68819
 Alpha virt. eigenvalues --    1.70152   1.71794   1.73329   1.74840   1.75837
 Alpha virt. eigenvalues --    1.76617   1.77775   1.79140   1.80774   1.82846
 Alpha virt. eigenvalues --    1.83258   1.83677   1.87129   1.88896   1.89720
 Alpha virt. eigenvalues --    1.90848   1.92281   1.93845   1.94740   1.96915
 Alpha virt. eigenvalues --    1.97713   2.00904   2.02781   2.04644   2.06957
 Alpha virt. eigenvalues --    2.08579   2.09625   2.10787   2.12472   2.14105
 Alpha virt. eigenvalues --    2.15461   2.20607   2.22392   2.24372   2.25392
 Alpha virt. eigenvalues --    2.26846   2.29253   2.31537   2.32201   2.33323
 Alpha virt. eigenvalues --    2.36120   2.37680   2.39681   2.40580   2.42652
 Alpha virt. eigenvalues --    2.44267   2.46238   2.48074   2.48692   2.52211
 Alpha virt. eigenvalues --    2.55871   2.59272   2.60855   2.61776   2.63654
 Alpha virt. eigenvalues --    2.64545   2.67479   2.69923   2.73029   2.75331
 Alpha virt. eigenvalues --    2.76122   2.80481   2.84609   2.86469   2.93005
 Alpha virt. eigenvalues --    2.97098   3.00401   3.01153   3.04836   3.10997
 Alpha virt. eigenvalues --    3.14331   3.20233   3.77735   3.85599   3.92219
 Alpha virt. eigenvalues --    4.01507   4.04235   4.07829   4.15009   4.19174
 Alpha virt. eigenvalues --    4.22216   4.26152   4.29445   4.40148   4.44140
 Alpha virt. eigenvalues --    4.53204   4.58019   4.64118
          Condensed to atoms (all electrons):
               1          2          3          4          5          6
     1  O    8.093875   0.570679  -0.101728   0.009949   0.000664   0.000000
     2  C    0.570679   4.366126   0.255604  -0.020344   0.006027  -0.000029
     3  N   -0.101728   0.255604   7.220073   0.240720  -0.034452   0.001906
     4  C    0.009949  -0.020344   0.240720   5.138174   0.294860  -0.094650
     5  C    0.000664   0.006027  -0.034452   0.294860   4.357920   0.285796
     6  O    0.000000  -0.000029   0.001906  -0.094650   0.285796   8.222966
     7  O   -0.000005   0.000837  -0.011946  -0.083271   0.569825  -0.082677
     8  C   -0.007937  -0.004554  -0.052362   0.310423  -0.034939   0.002856
     9  C   -0.000473  -0.000615  -0.003978  -0.045272   0.003176  -0.001960
    10  C   -0.000004  -0.000017   0.000007  -0.002369   0.003511   0.000285
    11  N    0.000000   0.000001  -0.000013  -0.000122  -0.000063   0.000003
    12  C    0.000000   0.000021   0.000217   0.000151  -0.000064   0.000000
    13  N    0.000073   0.000726  -0.003841  -0.001247  -0.001268   0.000022
    14  C   -0.085000   0.309041  -0.125097   0.006996  -0.000113   0.000000
    15  C    0.005864  -0.024431   0.004240  -0.000140   0.000000   0.000000
    16  N    0.000278   0.003457  -0.000029   0.000000   0.000000   0.000000
    17  H    0.002854  -0.017803   0.288763  -0.044689  -0.004494   0.000813
    18  H    0.008082  -0.000923  -0.052870   0.365369  -0.030474   0.001277
    19  H    0.000000   0.000003  -0.000204   0.010505  -0.006646   0.222609
    20  H    0.013736   0.002920  -0.007898  -0.038152   0.004518   0.000059
    21  H    0.000176   0.000178   0.004068  -0.030754  -0.006330   0.005984
    22  H    0.000000   0.000000   0.000003   0.000015  -0.000005   0.000176
    23  H    0.000000  -0.000001  -0.000002  -0.000001   0.000000   0.000000
    24  H   -0.000162   0.002871   0.008087  -0.000649   0.000064   0.000000
    25  H    0.000867  -0.025113   0.001068   0.000150  -0.000012   0.000000
    26  H    0.001318  -0.024571   0.000408  -0.000256  -0.000022   0.000000
    27  H    0.004028  -0.002881   0.000178  -0.000007   0.000000   0.000000
    28  H    0.003557   0.004171   0.000209   0.000012   0.000000   0.000000
    29  H    0.000003  -0.000198  -0.000001   0.000000   0.000000   0.000000
    30  H    0.000008  -0.000155   0.000002   0.000000   0.000000   0.000000
               7          8          9         10         11         12
     1  O   -0.000005  -0.007937  -0.000473  -0.000004   0.000000   0.000000
     2  C    0.000837  -0.004554  -0.000615  -0.000017   0.000001   0.000021
     3  N   -0.011946  -0.052362  -0.003978   0.000007  -0.000013   0.000217
     4  C   -0.083271   0.310423  -0.045272  -0.002369  -0.000122   0.000151
     5  C    0.569825  -0.034939   0.003176   0.003511  -0.000063  -0.000064
     6  O   -0.082677   0.002856  -0.001960   0.000285   0.000003   0.000000
     7  O    8.030435  -0.001385   0.001007  -0.000268  -0.000002   0.000036
     8  C   -0.001385   5.245961   0.348898  -0.054126   0.006920   0.005978
     9  C    0.001007   0.348898   4.723441   0.575162  -0.044549  -0.090428
    10  C   -0.000268  -0.054126   0.575162   4.941035   0.422561  -0.121928
    11  N   -0.000002   0.006920  -0.044549   0.422561   6.667760   0.538139
    12  C    0.000036   0.005978  -0.090428  -0.121928   0.538139   4.740388
    13  N   -0.000140  -0.070611   0.350301  -0.072587  -0.084593   0.355068
    14  C   -0.000099  -0.000471  -0.000016   0.000000   0.000000  -0.000001
    15  C    0.000000   0.000009   0.000000   0.000000   0.000000   0.000000
    16  N    0.000000   0.000000   0.000000   0.000000   0.000000   0.000000
    17  H    0.033331   0.003694   0.000307  -0.000056   0.000000   0.000053
    18  H    0.001194  -0.039962   0.005571  -0.000066   0.000001   0.000005
    19  H    0.009477  -0.000288  -0.000064   0.000031  -0.000001   0.000000
    20  H   -0.000094   0.359465  -0.030102   0.001853  -0.000145   0.000075
    21  H    0.000069   0.356338  -0.027233  -0.004316   0.000052  -0.000049
    22  H   -0.000006  -0.001530  -0.058535   0.380003  -0.043232   0.007547
    23  H    0.000000  -0.000170   0.003207   0.007303  -0.038529   0.381422
    24  H   -0.000023  -0.003040  -0.026136   0.008385   0.005238  -0.023156
    25  H   -0.000001   0.000001   0.000027   0.000000   0.000000  -0.000008
    26  H   -0.000004   0.000005  -0.000002   0.000000   0.000000   0.000000
    27  H    0.000000   0.000001   0.000000   0.000000   0.000000   0.000000
    28  H    0.000000   0.000000   0.000000   0.000000   0.000000   0.000000
    29  H    0.000000   0.000000   0.000000   0.000000   0.000000   0.000000
    30  H    0.000000   0.000000   0.000000   0.000000   0.000000   0.000000
              13         14         15         16         17         18
     1  O    0.000073  -0.085000   0.005864   0.000278   0.002854   0.008082
     2  C    0.000726   0.309041  -0.024431   0.003457  -0.017803  -0.000923
     3  N   -0.003841  -0.125097   0.004240  -0.000029   0.288763  -0.052870
     4  C   -0.001247   0.006996  -0.000140   0.000000  -0.044689   0.365369
     5  C   -0.001268  -0.000113   0.000000   0.000000  -0.004494  -0.030474
     6  O    0.000022   0.000000   0.000000   0.000000   0.000813   0.001277
     7  O   -0.000140  -0.000099   0.000000   0.000000   0.033331   0.001194
     8  C   -0.070611  -0.000471   0.000009   0.000000   0.003694  -0.039962
     9  C    0.350301  -0.000016   0.000000   0.000000   0.000307   0.005571
    10  C   -0.072587   0.000000   0.000000   0.000000  -0.000056  -0.000066
    11  N   -0.084593   0.000000   0.000000   0.000000   0.000000   0.000001
    12  C    0.355068  -0.000001   0.000000   0.000000   0.000053   0.000005
    13  N    6.880874  -0.000218   0.000001   0.000000   0.000321   0.000006
    14  C   -0.000218   5.354302   0.349664  -0.057566   0.000533   0.000473
    15  C    0.000001   0.349664   4.859658   0.300697  -0.000073  -0.000003
    16  N    0.000000  -0.057566   0.300697   6.937827  -0.000007   0.000000
    17  H    0.000321   0.000533  -0.000073  -0.000007   0.377472   0.003613
    18  H    0.000006   0.000473  -0.000003   0.000000   0.003613   0.552374
    19  H    0.000001   0.000000   0.000000   0.000000  -0.000092  -0.000372
    20  H   -0.003284   0.000291  -0.000005   0.000000  -0.000222  -0.005604
    21  H    0.004017   0.000006   0.000000   0.000000  -0.000125   0.000590
    22  H    0.005067   0.000000   0.000000   0.000000   0.000000   0.000001
    23  H   -0.058778   0.000000   0.000000   0.000000   0.000000   0.000000
    24  H    0.294673   0.000439  -0.000025  -0.000001  -0.000085   0.000045
    25  H    0.000051   0.347766  -0.030332   0.006509   0.000832  -0.000012
    26  H    0.000004   0.356050  -0.035096  -0.002538   0.001701  -0.000009
    27  H   -0.000001  -0.033260   0.384301  -0.039250   0.000001   0.000000
    28  H    0.000000  -0.059283   0.386365  -0.047537   0.000001  -0.000004
    29  H    0.000000  -0.004700  -0.035268   0.308564   0.000000   0.000000
    30  H    0.000000   0.006296  -0.034339   0.313111   0.000000   0.000000
              19         20         21         22         23         24
     1  O    0.000000   0.013736   0.000176   0.000000   0.000000  -0.000162
     2  C    0.000003   0.002920   0.000178   0.000000  -0.000001   0.002871
     3  N   -0.000204  -0.007898   0.004068   0.000003  -0.000002   0.008087
     4  C    0.010505  -0.038152  -0.030754   0.000015  -0.000001  -0.000649
     5  C   -0.006646   0.004518  -0.006330  -0.000005   0.000000   0.000064
     6  O    0.222609   0.000059   0.005984   0.000176   0.000000   0.000000
     7  O    0.009477  -0.000094   0.000069  -0.000006   0.000000  -0.000023
     8  C   -0.000288   0.359465   0.356338  -0.001530  -0.000170  -0.003040
     9  C   -0.000064  -0.030102  -0.027233  -0.058535   0.003207  -0.026136
    10  C    0.000031   0.001853  -0.004316   0.380003   0.007303   0.008385
    11  N   -0.000001  -0.000145   0.000052  -0.043232  -0.038529   0.005238
    12  C    0.000000   0.000075  -0.000049   0.007547   0.381422  -0.023156
    13  N    0.000001  -0.003284   0.004017   0.005067  -0.058778   0.294673
    14  C    0.000000   0.000291   0.000006   0.000000   0.000000   0.000439
    15  C    0.000000  -0.000005   0.000000   0.000000   0.000000  -0.000025
    16  N    0.000000   0.000000   0.000000   0.000000   0.000000  -0.000001
    17  H   -0.000092  -0.000222  -0.000125   0.000000   0.000000  -0.000085
    18  H   -0.000372  -0.005604   0.000590   0.000001   0.000000   0.000045
    19  H    0.344227   0.000015  -0.000122   0.000010   0.000000   0.000000
    20  H    0.000015   0.528486  -0.024018  -0.000036  -0.000003   0.001048
    21  H   -0.000122  -0.024018   0.540512   0.002706   0.000004  -0.000021
    22  H    0.000010  -0.000036   0.002706   0.578660  -0.000155  -0.000109
    23  H    0.000000  -0.000003   0.000004  -0.000155   0.552456   0.000402
    24  H    0.000000   0.001048  -0.000021  -0.000109   0.000402   0.394816
    25  H    0.000000  -0.000021  -0.000001   0.000000   0.000000   0.000955
    26  H    0.000000  -0.000004   0.000000   0.000000   0.000000  -0.000010
    27  H    0.000000  -0.000003   0.000000   0.000000   0.000000   0.000015
    28  H    0.000000   0.000000   0.000000   0.000000   0.000000   0.000001
    29  H    0.000000   0.000000   0.000000   0.000000   0.000000   0.000000
    30  H    0.000000   0.000000   0.000000   0.000000   0.000000   0.000000
              25         26         27         28         29         30
     1  O    0.000867   0.001318   0.004028   0.003557   0.000003   0.000008
     2  C   -0.025113  -0.024571  -0.002881   0.004171  -0.000198  -0.000155
     3  N    0.001068   0.000408   0.000178   0.000209  -0.000001   0.000002
     4  C    0.000150  -0.000256  -0.000007   0.000012   0.000000   0.000000
     5  C   -0.000012  -0.000022   0.000000   0.000000   0.000000   0.000000
     6  O    0.000000   0.000000   0.000000   0.000000   0.000000   0.000000
     7  O   -0.000001  -0.000004   0.000000   0.000000   0.000000   0.000000
     8  C    0.000001   0.000005   0.000001   0.000000   0.000000   0.000000
     9  C    0.000027  -0.000002   0.000000   0.000000   0.000000   0.000000
    10  C    0.000000   0.000000   0.000000   0.000000   0.000000   0.000000
    11  N    0.000000   0.000000   0.000000   0.000000   0.000000   0.000000
    12  C   -0.000008   0.000000   0.000000   0.000000   0.000000   0.000000
    13  N    0.000051   0.000004  -0.000001   0.000000   0.000000   0.000000
    14  C    0.347766   0.356050  -0.033260  -0.059283  -0.004700   0.006296
    15  C   -0.030332  -0.035096   0.384301   0.386365  -0.035268  -0.034339
    16  N    0.006509  -0.002538  -0.039250  -0.047537   0.308564   0.313111
    17  H    0.000832   0.001701   0.000001   0.000001   0.000000   0.000000
    18  H   -0.000012  -0.000009   0.000000  -0.000004   0.000000   0.000000
    19  H    0.000000   0.000000   0.000000   0.000000   0.000000   0.000000
    20  H   -0.000021  -0.000004  -0.000003   0.000000   0.000000   0.000000
    21  H   -0.000001   0.000000   0.000000   0.000000   0.000000   0.000000
    22  H    0.000000   0.000000   0.000000   0.000000   0.000000   0.000000
    23  H    0.000000   0.000000   0.000000   0.000000   0.000000   0.000000
    24  H    0.000955  -0.000010   0.000015   0.000001   0.000000   0.000000
    25  H    0.560395  -0.033049  -0.006509   0.006383  -0.000702  -0.000089
    26  H   -0.033049   0.573226   0.005491  -0.005675   0.005105  -0.000037
    27  H   -0.006509   0.005491   0.571958  -0.042404   0.006374  -0.004361
    28  H    0.006383  -0.005675  -0.042404   0.621773  -0.005894  -0.001787
    29  H   -0.000702   0.005105   0.006374  -0.005894   0.466625  -0.033338
    30  H   -0.000089  -0.000037  -0.004361  -0.001787  -0.033338   0.452423
 Mulliken charges:
               1
     1  O   -0.520702
     2  C    0.598971
     3  N   -0.631129
     4  C   -0.015402
     5  C    0.592518
     6  O   -0.565438
     7  O   -0.466291
     8  C   -0.369175
     9  C    0.318267
    10  C   -0.084399
    11  N   -0.429426
    12  C    0.206535
    13  N   -0.594638
    14  C   -0.366031
    15  C   -0.131088
    16  N   -0.723517
    17  H    0.353354
    18  H    0.191697
    19  H    0.420911
    20  H    0.197126
    21  H    0.178270
    22  H    0.129418
    23  H    0.152846
    24  H    0.336379
    25  H    0.170843
    26  H    0.157963
    27  H    0.156328
    28  H    0.140111
    29  H    0.293430
    30  H    0.302268
 Sum of Mulliken charges =   0.00000
 Mulliken charges with hydrogens summed into heavy atoms:
               1
     1  O   -0.520702
     2  C    0.598971
     3  N   -0.277775
     4  C    0.176295
     5  C    0.592518
     6  O   -0.144527
     7  O   -0.466291
     8  C    0.006221
     9  C    0.318267
    10  C    0.045019
    11  N   -0.429426
    12  C    0.359381
    13  N   -0.258259
    14  C   -0.037225
    15  C    0.165351
    16  N   -0.127819
 APT charges:
               1
     1  O   -0.193508
     2  C   -0.000374
     3  N   -0.564438
     4  C   -0.557879
     5  C   -0.109935
     6  O   -0.645290
     7  O   -0.080841
     8  C   -0.978380
     9  C   -0.484812
    10  C   -0.259094
    11  N    0.357978
    12  C   -0.564385
    13  N   -0.617872
    14  C   -0.606163
    15  C   -0.561803
    16  N   -1.775132
    17  H    0.510487
    18  H    0.485689
    19  H    0.986286
    20  H    0.339710
    21  H    0.623538
    22  H    0.760530
    23  H    0.629157
    24  H    0.215086
    25  H    0.281281
    26  H    0.447498
    27  H    0.299244
    28  H    0.446885
    29  H    0.642928
    30  H    0.973609
 Sum of APT charges =   0.00000
 APT charges with hydrogens summed into heavy atoms:
               1
     1  O   -0.193508
     2  C   -0.000374
     3  N   -0.053950
     4  C   -0.072190
     5  C   -0.109935
     6  O    0.340996
     7  O   -0.080841
     8  C   -0.015132
     9  C   -0.484812
    10  C    0.501436
    11  N    0.357978
    12  C    0.064772
    13  N   -0.402786
    14  C    0.122615
    15  C    0.184326
    16  N   -0.158595
 Electronic spatial extent (au):  <R**2>=           4487.8788
 Charge=              0.0000 electrons
 Dipole moment (field-independent basis, Debye):
    X=             -3.4623    Y=             -1.2489    Z=              1.9036  Tot=              4.1438
 Quadrupole moment (field-independent basis, Debye-Ang):
   XX=            -94.6239   YY=           -103.0114   ZZ=            -84.9837
   XY=             -8.3442   XZ=              8.3905   YZ=             -3.9339
 Traceless Quadrupole moment (field-independent basis, Debye-Ang):
   XX=             -0.4176   YY=             -8.8051   ZZ=              9.2226
   XY=             -8.3442   XZ=              8.3905   YZ=             -3.9339
 Octapole moment (field-independent basis, Debye-Ang**2):
  XXX=           -240.1213  YYY=            -12.6117  ZZZ=             -7.9732  XYY=            -45.9897
  XXY=            -70.5173  XXZ=             23.0259  XZZ=            -17.9243  YZZ=            -14.7109
  YYZ=            -14.2910  XYZ=             -6.1648
 Hexadecapole moment (field-independent basis, Debye-Ang**3):
 XXXX=          -3459.7339 YYYY=           -767.0026 ZZZZ=          -1136.6487 XXXY=           -369.3576
 XXXZ=           -108.3732 YYYX=           -302.7209 YYYZ=             93.8796 ZZZX=           -182.5885
 ZZZY=             90.9903 XXYY=           -882.8140 XXZZ=           -725.4668 YYZZ=           -364.3824
 XXYZ=            132.4800 YYXZ=           -146.5240 ZZXY=            -56.1941
 N-N= 1.129043087594D+03 E-N=-4.114903647180D+03  KE= 7.891250841949D+02
  Exact polarizability:   0.000   0.000   0.000   0.000   0.000   0.000
 Approx polarizability: 186.858  -0.344 191.012  21.641  -4.287 151.552
 Calling FoFJK, ICntrl=    100147 FMM=F ISym2X=0 I1Cent= 0 IOpClX= 0 NMat=1 NMatS=1 NMatT=0.
 -------------------------------------------------------------------
 Center     Atomic                   Forces (Hartrees/Bohr)
 Number     Number              X              Y              Z
 -------------------------------------------------------------------
      1        8          -0.000874502   -0.004429998   -0.003832985
      2        6          -0.004004531   -0.002009839    0.000843096
      3        7           0.003857447    0.000430508    0.000606462
      4        6           0.000441766   -0.002522244    0.000059044
      5        6           0.005263343   -0.006573719   -0.001667717
      6        8          -0.001775813   -0.006126735   -0.006482689
      7        8          -0.004626993    0.009907323    0.004530443
      8        6           0.002340351    0.003487663   -0.003383213
      9        6          -0.003102515   -0.009900951    0.007547739
     10        6           0.005867150    0.006489344   -0.000517490
     11        7           0.004116279   -0.000597489    0.001212648
     12        6           0.002470234    0.000350369    0.001503984
     13        7          -0.007090603    0.001802657   -0.005076104
     14        6           0.001260382    0.000530589   -0.000400788
     15        6          -0.002386907    0.001199709    0.000101712
     16        7           0.004061706    0.003292141   -0.002320732
     17        1          -0.000701992    0.003593381    0.001086523
     18        1          -0.002113536   -0.001724628    0.000791645
     19        1           0.003482065    0.005441014    0.007235656
     20        1          -0.002169110   -0.002101371   -0.000424676
     21        1           0.001184207   -0.001074699    0.000578480
     22        1           0.000090129    0.000199514   -0.000581344
     23        1          -0.000293914    0.003757382   -0.002135510
     24        1          -0.000866078   -0.000533601   -0.000474321
     25        1          -0.000979941    0.002197695   -0.000298484
     26        1           0.000304540    0.000956812    0.002417729
     27        1           0.000257708   -0.000946737   -0.001643775
     28        1           0.000633278   -0.003385611    0.000170342
     29        1          -0.002414409    0.000280437    0.003880163
     30        1          -0.002229742   -0.001988916   -0.003325840
 -------------------------------------------------------------------
 Cartesian Forces:  Max     0.009907323 RMS     0.003353126
 FormGI is forming the generalized inverse of G from B-inverse, IUseBI=4.

 GradGradGradGradGradGradGradGradGradGradGradGradGradGradGradGradGradGrad
 Berny optimization.
 Internal  Forces:  Max     0.011809580 RMS     0.002380880
 Search for a local minimum.
 Step number   1 out of a maximum of  160
 All quantities printed in internal units (Hartrees-Bohrs-Radians)
 Mixed Optimization -- RFO/linear search
 Second derivative matrix not updated -- analytic derivatives used.
 ITU=  0
     Eigenvalues ---   -0.00226  -0.00078   0.00204   0.00268   0.00279
     Eigenvalues ---    0.00364   0.00397   0.00521   0.00806   0.00961
     Eigenvalues ---    0.01569   0.01950   0.02115   0.02458   0.03346
     Eigenvalues ---    0.03392   0.04100   0.04215   0.04308   0.04356
     Eigenvalues ---    0.04584   0.04688   0.05148   0.05215   0.05253
     Eigenvalues ---    0.05402   0.06054   0.06220   0.07835   0.08246
     Eigenvalues ---    0.08512   0.10275   0.10846   0.10919   0.11047
     Eigenvalues ---    0.11871   0.11954   0.13729   0.15447   0.15483
     Eigenvalues ---    0.15929   0.17256   0.17539   0.19017   0.19359
     Eigenvalues ---    0.20927   0.21777   0.22689   0.23589   0.23685
     Eigenvalues ---    0.24371   0.25229   0.25495   0.26274   0.28196
     Eigenvalues ---    0.30760   0.32489   0.33287   0.33456   0.33832
     Eigenvalues ---    0.34301   0.34506   0.34757   0.35123   0.35533
     Eigenvalues ---    0.36042   0.37344   0.37935   0.38004   0.38607
     Eigenvalues ---    0.39713   0.42520   0.43881   0.45359   0.45928
     Eigenvalues ---    0.46272   0.46868   0.47740   0.48538   0.49322
     Eigenvalues ---    0.53155   0.60095   0.84040   0.92364
 RFO step:  Lambda=-3.34143274D-03 EMin=-2.25700967D-03
 Linear search not attempted -- first point.
 Iteration  1 RMS(Cart)=  0.30689296 RMS(Int)=  0.03285723
 Iteration  2 RMS(Cart)=  0.09646466 RMS(Int)=  0.00328818
 Iteration  3 RMS(Cart)=  0.00527894 RMS(Int)=  0.00076930
 Iteration  4 RMS(Cart)=  0.00001717 RMS(Int)=  0.00076925
 Iteration  5 RMS(Cart)=  0.00000000 RMS(Int)=  0.00076925
 Variable       Old X    -DE/DX   Delta X   Delta X   Delta X     New X
                                 (Linear)    (Quad)   (Total)
    R1        2.31538   0.00539   0.00000  -0.00146  -0.00146   2.31391
    R2        2.56742   0.00873   0.00000   0.03049   0.03049   2.59790
    R3        2.86976   0.00269   0.00000   0.00605   0.00605   2.87581
    R4        2.73373   0.00330   0.00000   0.01485   0.01485   2.74857
    R5        1.90789   0.00370   0.00000   0.00913   0.00913   1.91702
    R6        2.85472   0.00498   0.00000   0.01126   0.01126   2.86598
    R7        2.92214   0.00277   0.00000   0.00098   0.00098   2.92312
    R8        2.06835   0.00243   0.00000   0.00410   0.00410   2.07245
    R9        2.54252   0.00195   0.00000  -0.00191  -0.00191   2.54062
   R10        2.27858   0.01181   0.00000   0.01325   0.01325   2.29183
   R11        1.82484   0.00963   0.00000   0.01851   0.01851   1.84336
   R12        2.81965   0.00128   0.00000   0.00003   0.00003   2.81968
   R13        2.06182   0.00229   0.00000   0.00969   0.00969   2.07151
   R14        2.06063   0.00168   0.00000   0.00524   0.00524   2.06587
   R15        2.58438   0.00886   0.00000   0.01573   0.01567   2.60005
   R16        2.59558   0.00866   0.00000   0.02118   0.02137   2.61695
   R17        2.61386  -0.00137   0.00000  -0.00788  -0.00810   2.60576
   R18        2.04506  -0.00030   0.00000  -0.00036  -0.00036   2.04470
   R19        2.48318   0.00260   0.00000   0.00329   0.00321   2.48639
   R20        2.57273   0.00664   0.00000   0.01176   0.01193   2.58466
   R21        2.03324   0.00418   0.00000   0.01056   0.01056   2.04380
   R22        1.90439   0.00101   0.00000   0.00323   0.00323   1.90762
   R23        2.87292   0.00401   0.00000   0.01101   0.01101   2.88393
   R24        2.06998   0.00174   0.00000   0.00574   0.00574   2.07572
   R25        2.07209   0.00210   0.00000   0.00588   0.00588   2.07796
   R26        2.76857   0.00172   0.00000   0.00264   0.00264   2.77121
   R27        2.06313   0.00169   0.00000   0.00287   0.00287   2.06600
   R28        2.07229   0.00293   0.00000   0.01085   0.01085   2.08314
   R29        1.91608   0.00457   0.00000   0.01047   0.01047   1.92655
   R30        1.91411   0.00444   0.00000   0.00994   0.00994   1.92404
    A1        2.11910   0.00311   0.00000   0.00135   0.00131   2.12041
    A2        2.15777  -0.00238   0.00000  -0.00478  -0.00482   2.15294
    A3        2.00623  -0.00073   0.00000   0.00322   0.00318   2.00941
    A4        2.11381   0.00183   0.00000  -0.03038  -0.03530   2.07851
    A5        2.12025  -0.00142   0.00000  -0.01534  -0.02038   2.09987
    A6        2.01275  -0.00038   0.00000  -0.00025  -0.00563   2.00712
    A7        1.86647   0.00195   0.00000   0.01484   0.01462   1.88109
    A8        1.98585  -0.00001   0.00000  -0.03254  -0.03256   1.95329
    A9        1.91864  -0.00139   0.00000  -0.02092  -0.02085   1.89780
   A10        1.94811  -0.00255   0.00000  -0.00736  -0.00745   1.94066
   A11        1.88660   0.00036   0.00000   0.02108   0.02104   1.90764
   A12        1.85647   0.00159   0.00000   0.02659   0.02627   1.88274
   A13        1.95306  -0.00046   0.00000  -0.00117  -0.00119   1.95187
   A14        2.17674   0.00049   0.00000  -0.00322  -0.00324   2.17350
   A15        2.15338  -0.00003   0.00000   0.00442   0.00440   2.15777
   A16        1.85929   0.00077   0.00000   0.00199   0.00199   1.86128
   A17        1.98809   0.00025   0.00000  -0.01578  -0.01578   1.97231
   A18        1.86956  -0.00138   0.00000  -0.01682  -0.01669   1.85287
   A19        1.88923  -0.00011   0.00000   0.01281   0.01268   1.90191
   A20        1.93128   0.00216   0.00000   0.04112   0.04115   1.97243
   A21        1.90241  -0.00099   0.00000  -0.01572  -0.01570   1.88671
   A22        1.87988   0.00002   0.00000  -0.00552  -0.00543   1.87445
   A23        2.30846  -0.00036   0.00000  -0.00898  -0.00915   2.29931
   A24        2.14412   0.00321   0.00000   0.01669   0.01649   2.16061
   A25        1.83034  -0.00284   0.00000  -0.00799  -0.00768   1.82266
   A26        1.93295   0.00251   0.00000   0.00840   0.00834   1.94129
   A27        2.22697  -0.00089   0.00000  -0.00517  -0.00517   2.22179
   A28        2.12326  -0.00162   0.00000  -0.00320  -0.00320   2.12006
   A29        1.83473   0.00053   0.00000  -0.00007  -0.00018   1.83455
   A30        1.94437   0.00150   0.00000   0.00490   0.00518   1.94954
   A31        2.20887  -0.00190   0.00000  -0.01052  -0.01066   2.19821
   A32        2.12995   0.00040   0.00000   0.00562   0.00548   2.13543
   A33        1.88238  -0.00169   0.00000  -0.00521  -0.00573   1.87665
   A34        2.18322   0.00059   0.00000  -0.01160  -0.01281   2.17041
   A35        2.21629   0.00110   0.00000   0.01277   0.01131   2.22761
   A36        1.97306  -0.00168   0.00000  -0.01191  -0.01195   1.96111
   A37        1.90415   0.00160   0.00000   0.00702   0.00687   1.91102
   A38        1.90601  -0.00052   0.00000   0.00598   0.00600   1.91201
   A39        1.91253  -0.00040   0.00000  -0.01306  -0.01306   1.89947
   A40        1.91121   0.00186   0.00000   0.01835   0.01841   1.92962
   A41        1.85300  -0.00081   0.00000  -0.00604  -0.00598   1.84702
   A42        1.90346   0.00091   0.00000   0.00701   0.00696   1.91042
   A43        1.90329   0.00031   0.00000  -0.00716  -0.00716   1.89613
   A44        1.90240  -0.00065   0.00000   0.00144   0.00133   1.90373
   A45        1.89622  -0.00105   0.00000  -0.00146  -0.00143   1.89480
   A46        1.98959   0.00100   0.00000   0.01072   0.01067   2.00026
   A47        1.86723  -0.00057   0.00000  -0.01167  -0.01167   1.85555
   A48        1.91530  -0.00016   0.00000  -0.00041  -0.00042   1.91488
   A49        1.91878  -0.00075   0.00000  -0.00776  -0.00777   1.91101
   A50        1.84761   0.00040   0.00000  -0.00092  -0.00093   1.84668
    D1       -0.13496  -0.00019   0.00000  -0.03658  -0.03576  -0.17072
    D2       -2.97666  -0.00026   0.00000   0.14844   0.14759  -2.82907
    D3        3.02031   0.00039   0.00000  -0.02001  -0.01915   3.00116
    D4        0.17861   0.00031   0.00000   0.16502   0.16420   0.34281
    D5        0.00069  -0.00020   0.00000   0.22395   0.22392   0.22461
    D6       -2.13194   0.00030   0.00000   0.24368   0.24369  -1.88824
    D7        2.13297   0.00067   0.00000   0.24370   0.24368   2.37665
    D8        3.12826  -0.00074   0.00000   0.20702   0.20702  -2.94790
    D9        0.99564  -0.00024   0.00000   0.22675   0.22679   1.22243
   D10       -1.02264   0.00013   0.00000   0.22677   0.22677  -0.79587
   D11       -2.83018  -0.00016   0.00000   0.18540   0.18530  -2.64488
   D12        1.29374   0.00167   0.00000   0.20541   0.20549   1.49923
   D13       -0.78611   0.00064   0.00000   0.20774   0.20729  -0.57882
   D14        0.02896  -0.00029   0.00000   0.00906   0.00927   0.03823
   D15       -2.13031   0.00154   0.00000   0.02906   0.02947  -2.10085
   D16        2.07303   0.00051   0.00000   0.03140   0.03126   2.10429
   D17        3.07468   0.00047   0.00000   0.04182   0.04197   3.11665
   D18       -0.06475   0.00019   0.00000   0.03069   0.03086  -0.03390
   D19       -1.02616   0.00016   0.00000   0.00649   0.00644  -1.01971
   D20        2.11760  -0.00013   0.00000  -0.00464  -0.00467   2.11293
   D21        1.00960   0.00087   0.00000   0.04744   0.04732   1.05692
   D22       -2.12983   0.00058   0.00000   0.03631   0.03621  -2.09362
   D23        1.03415   0.00205   0.00000   0.18803   0.18829   1.22244
   D24       -1.10739   0.00013   0.00000   0.15815   0.15833  -0.94906
   D25       -3.13007   0.00087   0.00000   0.16684   0.16704  -2.96303
   D26       -1.08016   0.00142   0.00000   0.19781   0.19782  -0.88234
   D27        3.06149  -0.00050   0.00000   0.16794   0.16786  -3.05383
   D28        1.03881   0.00024   0.00000   0.17663   0.17657   1.21537
   D29       -3.13413   0.00141   0.00000   0.16042   0.16030  -2.97383
   D30        1.00752  -0.00052   0.00000   0.13055   0.13034   1.13786
   D31       -1.01516   0.00022   0.00000   0.13924   0.13905  -0.87612
   D32       -3.13012  -0.00105   0.00000  -0.05520  -0.05522   3.09785
   D33        0.00935  -0.00077   0.00000  -0.04425  -0.04423  -0.03488
   D34        1.96138  -0.00041   0.00000   0.13610   0.13627   2.09765
   D35       -1.15151  -0.00072   0.00000   0.15117   0.15128  -1.00023
   D36       -2.21443  -0.00042   0.00000   0.13358   0.13357  -2.08086
   D37        0.95587  -0.00074   0.00000   0.14865   0.14858   1.10445
   D38       -0.15025   0.00028   0.00000   0.14159   0.14152  -0.00874
   D39        3.02004  -0.00003   0.00000   0.15666   0.15653  -3.10661
   D40       -3.12001  -0.00019   0.00000   0.01398   0.01367  -3.10634
   D41        0.01899   0.00009   0.00000   0.02645   0.02630   0.04528
   D42       -0.00337   0.00015   0.00000   0.00121   0.00111  -0.00226
   D43        3.13563   0.00043   0.00000   0.01367   0.01374  -3.13382
   D44        3.12322  -0.00010   0.00000  -0.02050  -0.02041   3.10282
   D45        0.03319  -0.00001   0.00000   0.05950   0.05879   0.09199
   D46        0.00361  -0.00035   0.00000  -0.00883  -0.00871  -0.00510
   D47       -3.08642  -0.00026   0.00000   0.07116   0.07050  -3.01592
   D48        0.00179   0.00010   0.00000   0.00703   0.00711   0.00890
   D49       -3.13739  -0.00016   0.00000  -0.00457  -0.00466   3.14114
   D50        0.00059  -0.00032   0.00000  -0.01278  -0.01285  -0.01226
   D51        3.14121  -0.00001   0.00000  -0.01103  -0.01133   3.12988
   D52       -0.00272   0.00043   0.00000   0.01402   0.01400   0.01128
   D53        3.08606   0.00031   0.00000  -0.06886  -0.06953   3.01652
   D54        3.13980   0.00013   0.00000   0.01238   0.01255  -3.13083
   D55       -0.05461   0.00002   0.00000  -0.07050  -0.07098  -0.12559
   D56       -3.13491   0.00048   0.00000   0.05616   0.05612  -3.07879
   D57       -1.06670  -0.00007   0.00000   0.05432   0.05425  -1.01244
   D58        0.96610  -0.00095   0.00000   0.03718   0.03714   1.00323
   D59       -1.00699   0.00109   0.00000   0.04759   0.04767  -0.95932
   D60        1.06123   0.00054   0.00000   0.04575   0.04580   1.10703
   D61        3.09402  -0.00033   0.00000   0.02861   0.02868   3.12270
   D62        1.01890   0.00095   0.00000   0.04335   0.04335   1.06225
   D63        3.08712   0.00040   0.00000   0.04150   0.04148   3.12860
   D64       -1.16327  -0.00047   0.00000   0.02437   0.02436  -1.13891
   D65       -1.23557  -0.00004   0.00000  -0.00797  -0.00800  -1.24357
   D66        3.02231   0.00000   0.00000  -0.00215  -0.00219   3.02012
   D67        2.97498  -0.00033   0.00000  -0.00254  -0.00254   2.97244
   D68        0.94968  -0.00030   0.00000   0.00328   0.00327   0.95295
   D69        0.89479   0.00048   0.00000   0.00644   0.00649   0.90128
   D70       -1.13051   0.00052   0.00000   0.01227   0.01230  -1.11821
         Item               Value     Threshold  Converged?
 Maximum Force            0.011810     0.000450     NO 
 RMS     Force            0.002381     0.000300     NO 
 Maximum Displacement     1.320157     0.001800     NO 
 RMS     Displacement     0.385216     0.001200     NO 
 Predicted change in Energy=-2.891283D-03
 GradGradGradGradGradGradGradGradGradGradGradGradGradGradGradGradGradGrad

                          Input orientation:                          
 ---------------------------------------------------------------------
 Center     Atomic      Atomic             Coordinates (Angstroms)
 Number     Number       Type             X           Y           Z
 ---------------------------------------------------------------------
      1          8           0       -1.230472   -1.933664   -0.536494
      2          6           0       -1.352666   -0.751461   -0.241887
      3          7           0       -0.382585   -0.084274    0.467863
      4          6           0        0.707748   -0.842922    1.060440
      5          6           0        1.182814   -0.089270    2.287808
      6          8           0        2.175870   -0.738618    2.920021
      7          8           0        0.734596    0.975446    2.657027
      8          6           0        1.865441   -1.067791    0.059481
      9          6           0        2.616281    0.182892   -0.254245
     10          6           0        3.939047    0.523226   -0.088330
     11          7           0        4.174159    1.822161   -0.486924
     12          6           0        3.004485    2.276615   -0.882543
     13          7           0        2.028378    1.324949   -0.771772
     14          6           0       -2.546477    0.095529   -0.658223
     15          6           0       -3.697852   -0.748883   -1.197035
     16          7           0       -4.776019    0.132085   -1.657431
     17          1           0       -0.599536    0.790116    0.934201
     18          1           0        0.328743   -1.826498    1.363204
     19          1           0        2.448488   -0.173202    3.666687
     20          1           0        1.416928   -1.532021   -0.826505
     21          1           0        2.568654   -1.788314    0.485456
     22          1           0        4.735094   -0.104432    0.289954
     23          1           0        2.802906    3.271784   -1.254980
     24          1           0        1.035392    1.441341   -0.911263
     25          1           0       -2.236953    0.809152   -1.433770
     26          1           0       -2.880388    0.704930    0.193997
     27          1           0       -3.335787   -1.330427   -2.049076
     28          1           0       -3.998873   -1.479807   -0.428717
     29          1           0       -5.234036    0.563286   -0.855158
     30          1           0       -5.493067   -0.422320   -2.121246
 ---------------------------------------------------------------------
                    Distance matrix (angstroms):
                    1          2          3          4          5
     1  O    0.000000
     2  C    1.224470   0.000000
     3  N    2.268895   1.374751   0.000000
     4  C    2.737994   2.439207   1.454483   0.000000
     5  C    4.147580   3.642323   2.400563   1.516612   0.000000
     6  O    4.997879   4.737974   3.603739   2.371561   1.344436
     7  O    4.745839   3.967692   2.676479   2.419973   1.212782
     8  C    3.269495   3.247630   2.487510   1.546848   2.527633
     9  C    4.399657   4.077464   3.096130   2.534401   2.931030
    10  C    5.741174   5.445240   4.399422   3.691521   3.690258
    11  N    6.581695   6.101588   5.030908   4.638212   4.505647
    12  C    5.981727   5.344572   4.343920   4.333785   4.355115
    13  N    4.614544   4.002964   3.055381   3.130611   3.475058
    14  C    2.421634   1.521812   2.445981   3.797956   4.756139
    15  C    2.815668   2.532234   3.768897   4.951197   6.033252
    16  N    4.253789   3.808380   4.885278   6.197512   7.149937
    17  H    3.159114   2.080108   1.014445   2.095648   2.404650
    18  H    2.459977   2.561086   2.083978   1.096692   2.145295
    19  H    5.856680   5.482710   4.272629   3.204875   1.873575
    20  H    2.693352   2.936273   2.647566   2.130341   3.440245
    21  H    3.936859   4.120782   3.407913   2.165027   2.838271
    22  H    6.294210   6.145106   5.120810   4.166357   4.075579
    23  H    6.624277   5.872107   4.937476   5.165430   5.145166
    24  H    4.082309   3.310478   2.498029   3.035263   3.549445
    25  H    3.056329   2.153615   2.802338   4.197820   5.133431
    26  H    3.196563   2.155227   2.633793   4.002661   4.639441
    27  H    2.661607   2.744795   4.075448   5.124151   6.384888
    28  H    2.807427   2.750964   3.978555   4.977499   6.013567
    29  H    4.729147   4.143632   5.070137   6.399354   7.174958
    30  H    4.792214   4.558864   5.738883   6.982130   8.007376
                    6          7          8          9         10
     6  O    0.000000
     7  O    2.254873   0.000000
     8  C    2.896103   3.492975   0.000000
     9  C    3.334533   3.555894   1.492111   0.000000
    10  C    3.708264   4.243818   2.617829   1.375887   0.000000
    11  N    4.707231   4.736238   3.739059   2.273395   1.378908
    12  C    4.923182   4.401589   3.656485   2.220165   2.139755
    13  N    4.231949   3.681397   2.538254   1.384831   2.181858
    14  C    5.983326   4.746638   4.618813   5.179276   6.524547
    15  C    7.172926   6.121577   5.712335   6.451770   7.821107
    16  N    8.368987   7.049303   6.963941   7.524467   8.863827
    17  H    3.739437   2.186866   3.208281   3.481753   4.659993
    18  H    2.649347   3.112810   2.153316   3.447698   4.545597
    19  H    0.975462   2.297005   3.761937   3.940643   4.099626
    20  H    3.904092   4.346028   1.096195   2.169529   3.336170
    21  H    2.680158   3.964576   1.093214   2.105963   2.747804
    22  H    3.724120   4.772122   3.035801   2.206371   1.082009
    23  H    5.822983   4.985466   4.630180   3.252315   3.194755
    24  H    4.553202   3.611126   2.815505   2.124753   3.154579
    25  H    6.389373   5.058890   4.752089   5.033623   6.327316
    26  H    5.922903   4.382671   5.067892   5.539568   6.827695
    27  H    7.444496   6.635697   5.618519   6.398333   7.759108
    28  H    7.063346   6.160829   5.899006   6.823142   8.193813
    29  H    8.417460   6.937570   7.341631   7.882466   9.205165
    30  H    9.182974   7.973044   7.701938   8.343471   9.694925
                   11         12         13         14         15
    11  N    0.000000
    12  C    1.315743   0.000000
    13  N    2.220976   1.367744   0.000000
    14  C    6.941005   5.968302   4.738530   0.000000
    15  C    8.311624   7.360290   6.105026   1.526112   0.000000
    16  N    9.183253   8.107756   6.964706   2.443483   1.466462
    17  H    5.086539   4.301070   3.178416   2.609376   4.063281
    18  H    5.614527   5.388739   4.168753   4.005901   4.891784
    19  H    4.920559   5.196752   4.703283   6.612620   7.859052
    20  H    4.355247   4.126643   2.922181   4.287868   5.187636
    21  H    4.069239   4.311034   3.400725   5.569688   6.571171
    22  H    2.151731   3.168460   3.239861   7.345767   8.587260
    23  H    2.138143   1.081530   2.150245   6.249848   7.643885
    24  H    3.190133   2.139121   1.009469   3.834712   5.223250
    25  H    6.559349   5.470829   4.347107   1.098424   2.148894
    26  H    7.174852   6.185537   5.041143   1.099612   2.171818
    27  H    8.293275   7.387191   6.120196   2.142623   1.093279
    28  H    8.815035   7.960131   6.656733   2.154951   1.102350
    29  H    9.499184   8.414836   7.302721   2.735060   2.049031
    30  H   10.058030   9.001502   7.838761   3.330315   2.045386
                   16         17         18         19         20
    16  N    0.000000
    17  H    4.959090   0.000000
    18  H    6.246509   2.809344   0.000000
    19  H    8.979584   4.205343   3.540161   0.000000
    20  H    6.466241   3.543802   2.462861   4.806171   0.000000
    21  H    7.888226   4.109392   2.406055   3.569770   1.764483
    22  H    9.711308   5.447343   4.851114   4.078679   3.780835
    23  H    8.213390   4.746346   6.242504   6.018003   5.018074
    24  H    6.003616   2.550063   4.043677   5.055811   2.998939
    25  H    2.637290   2.879025   4.620877   6.995215   4.381861
    26  H    2.710969   2.399468   4.251317   6.420873   4.950989
    27  H    2.089640   4.569871   5.031751   8.213827   4.911579
    28  H    2.170688   4.308781   4.696747   7.749066   5.430640
    29  H    1.019488   4.973112   6.448000   8.944868   6.973266
    30  H    1.018159   5.895117   6.928678   9.830083   7.117290
                   21         22         23         24         25
    21  H    0.000000
    22  H    2.750844   0.000000
    23  H    5.356173   4.185571   0.000000
    24  H    3.838279   4.185705   2.567639   0.000000
    25  H    5.790001   7.239841   5.612192   3.373561   0.000000
    26  H    5.999439   7.658971   6.402195   4.134880   1.753424
    27  H    6.441733   8.491951   7.713267   5.299483   2.482708
    28  H    6.638019   8.870756   8.338137   5.840357   3.058403
    29  H    8.258888  10.056872   8.490480   6.330865   3.062311
    30  H    8.582085  10.513335   9.122499   6.896236   3.548440
                   26         27         28         29         30
    26  H    0.000000
    27  H    3.062915   0.000000
    28  H    2.532165   1.757146   0.000000
    29  H    2.580784   2.935122   2.425224   0.000000
    30  H    3.668397   2.341736   2.493100   1.625268   0.000000
 Symmetry turned off by external request.
 Stoichiometry    C9H14N4O3
 Framework group  C1[X(C9H14N4O3)]
 Deg. of freedom    84
 Full point group                 C1      NOp   1
 Rotational constants (GHZ):      0.8426571      0.2753931      0.2422073
 Standard basis: 6-31G(d) (6D, 7F)
   268 basis functions,   504 primitive gaussians,   268 cartesian basis functions
    60 alpha electrons       60 beta electrons
       nuclear repulsion energy      1121.9046865083 Hartrees.
 NAtoms=   30 NActive=   30 NUniq=   30 SFac= 1.00D+00 NAtFMM=   60 NAOKFM=F Big=F
 Integral buffers will be    131072 words long.
 Raffenetti 2 integral format.
 Two-electron integral symmetry is turned off.
 Nuclear repulsion after empirical dispersion term =     1121.8504135610 Hartrees.
 One-electron integrals computed using PRISM.
 NBasis=   268 RedAO= T EigKep=  1.31D-03  NBF=   268
 NBsUse=   268 1.00D-06 EigRej= -1.00D+00 NBFU=   268
 Initial guess from the checkpoint file:  "conf-150.chk"
 B after Tr=     0.036738    0.005294   -0.025110
         Rot=    0.999964   -0.001605    0.008123   -0.001763 Ang=  -0.97 deg.
 ExpMin= 1.61D-01 ExpMax= 5.48D+03 ExpMxC= 8.25D+02 IAcc=2 IRadAn=         4 AccDes= 0.00D+00
 Harris functional with IExCor=  402 and IRadAn=       4 diagonalized for initial guess.
 HarFok:  IExCor=  402 AccDes= 0.00D+00 IRadAn=         4 IDoV= 1 UseB2=F ITyADJ=14
 ICtDFT=  3500011 ScaDFX=  1.000000  1.000000  1.000000  1.000000
 FoFCou: FMM=F IPFlag=           0 FMFlag=      100000 FMFlg1=           0
         NFxFlg=           0 DoJE=T BraDBF=F KetDBF=T FulRan=T
[...]
 63,-0.01716799,0.01176813,-0.01634605,-0.02048922,-0.06552316,0.017138
 30,-0.00006807,0.00003815,0.00005790,-0.00010145,-0.00009321,-0.000022
 82,0.00009616,-0.00005479,0.00007451,0.00014711,0.00049236,-0.00008665
 ,-0.00003407,0.00004424,0.00000638,0.00003818,0.00002735,-0.00003396,-
 0.00033872,-0.00092596,-0.00021660,-0.00004586,0.00002707,-0.00039693,
 0.00068420,0.00130747,0.00087167,0.00072068,-0.00062379,0.00003843,0.0
 1708819,0.05293243,0.00000731,-0.00167275,-0.00143320,0.00270501,0.002
 51276,0.00328412,-0.00323832,-0.00313253,0.00087276,-0.00108136,0.0015
 8057,-0.00107671,-0.00075385,0.00071414,-0.00045316,0.00056567,-0.0002
 3038,0.00030212,0.00027072,-0.00050323,0.00034046,0.00092758,-0.000193
 81,-0.00045337,-0.01015250,-0.00880937,-0.00763307,-0.00227718,0.00386
 183,-0.00063218,-0.00066446,0.00251121,0.00582346,0.00623215,-0.005020
 84,-0.00460777,-0.15585756,0.01762825,-0.07771518,-0.00017311,-0.00008
 773,0.00014181,0.00021277,0.00012350,-0.00002335,-0.00011914,0.0000236
 7,-0.00014634,0.00111622,0.00040046,-0.00136160,0.00022301,-0.00015019
 ,-0.00006424,-0.00006732,0.00002766,-0.00004162,-0.00013671,-0.0001228
 4,0.00003319,0.00003897,-0.00020481,-0.00007332,-0.00121086,0.00013957
 ,0.00141909,0.00023769,-0.00032341,-0.00092036,0.16328385,-0.00915661,
 0.08455463,-0.00176668,-0.00082872,0.00232201,0.00804283,0.01308173,-0
 .02537072,-0.00251643,-0.00050832,0.00079122,-0.00065845,-0.00058234,0
 .00104304,0.00010737,0.00003090,0.00027351,-0.00007284,0.00001457,-0.0
 0009888,-0.00005477,-0.00007001,-0.00012508,-0.00022941,0.00015632,-0.
 00031638,-0.00001810,0.00021213,-0.00010656,0.00007614,0.00002692,0.00
 003804,0.00011849,-0.00005871,0.00007749,-0.00012791,-0.00021286,0.000
 02356,-0.00004615,0.00004142,0.00001288,-0.05808759,-0.02455593,0.0502
 5778,-0.00954188,-0.01588171,0.02562639,0.00251464,0.00110988,0.000386
 45,0.00013286,0.00055921,-0.00041544,0.00003155,0.00002134,0.00003469,
 0.00001366,0.00000494,0.00000082,0.00007892,0.00000101,-0.00005950,-0.
 00013147,0.00001433,0.00007720,0.00001525,0.00000257,0.00000768,-0.000
 00678,-0.00001099,0.00000269,-0.00022366,-0.00003353,-0.00014106,0.067
 13686,0.00265444,0.00044316,-0.00245363,-0.00580453,-0.01023918,0.0167
 8416,0.00036569,0.00002128,-0.00060820,0.00032962,0.00012385,-0.000119
 07,0.00003311,-0.00003753,-0.00011104,0.00001026,0.00001235,0.00002775
 ,-0.00002442,0.00003381,0.00005236,0.00005434,-0.00001653,0.00007249,0
 .00004258,-0.00005869,0.00004358,-0.00002090,-0.00001005,-0.00001189,-
 0.00003678,0.00000771,-0.00002306,0.00004030,0.00007297,-0.00002069,0.
 00004265,-0.00001891,-0.00006277,-0.02773578,-0.10345585,0.10356801,-0
 .00787239,-0.01156645,0.01763429,0.00203367,0.00142510,-0.00077548,0.0
 0016512,0.00010346,-0.00009789,-0.00006532,-0.00000577,-0.00007530,-0.
 00000285,-0.00000401,0.00000606,-0.00006290,-0.00001130,0.00006381,0.0
 0002827,0.00000732,-0.00001160,-0.00000628,-0.00000089,0.00000326,-0.0
 0000686,0.00000014,0.00000700,0.00010804,0.00011968,0.00013719,0.03268
 077,0.11234452,-0.00017535,-0.00086428,0.00044374,0.00069813,0.0034484
 3,-0.00772414,-0.00130616,0.00030925,0.00088142,-0.00051812,-0.0002698
 6,0.00034469,0.00008470,0.00000543,0.00003431,-0.00006123,0.00001093,-
 0.00003723,-0.00008406,-0.00001759,0.00001385,-0.00007818,0.00013879,-
 0.00018151,-0.00004145,0.00019149,-0.00010184,0.00005880,0.00002571,0.
 00003404,0.00013125,-0.00004383,0.00007022,-0.00014923,-0.00017537,0.0
 0000470,-0.00000398,-0.00005834,0.00002711,0.05571797,0.10234984,-0.23
 558566,-0.00148378,-0.00213359,0.00451747,0.00000702,-0.00089985,0.000
 40249,0.00053005,0.00055049,-0.00040588,0.00008078,-0.00003332,0.00002
 730,0.00001338,0.00000967,-0.00001098,-0.00001386,-0.00000408,-0.00001
 861,-0.00006725,-0.00001448,0.00004985,0.00001749,-0.00000022,0.000003
 93,-0.00001469,-0.00001235,0.00000944,-0.00037343,0.00008211,-0.000065
 02,-0.05742566,-0.11283497,0.25438962,-0.00384035,0.00517816,-0.003319
 80,-0.00029934,0.01566951,0.02272513,-0.00033049,-0.00112101,-0.001149
 19,0.00029156,-0.00022330,0.00001975,-0.00007231,0.00027072,0.00014761
 ,0.00006611,-0.00009277,-0.00000266,0.00008395,-0.00020083,-0.00009584
 ,0.00006083,-0.00003075,0.00007457,0.00001327,0.00004472,-0.00003241,0
 .00001458,-0.00000631,0.00000449,0.00000093,-0.00003707,0.00000941,-0.
 00002833,-0.00001961,-0.00000249,0.00003558,-0.00003527,-0.00003503,-0
 .06016238,0.03042991,0.02988949,0.00539407,-0.02121042,-0.02188835,0.0
 0224858,-0.00008266,0.00073262,-0.00172530,0.00061812,-0.00116740,0.00
 012821,-0.00005230,0.00014816,-0.00001374,0.00000803,-0.00000537,0.000
 10980,-0.00001090,-0.00006126,0.00001261,-0.00000542,-0.00002297,-0.00
 000006,0.00000130,0.00000382,-0.00000814,-0.00000614,0.00001008,-0.000
 02408,0.00012309,0.00006918,-0.00170872,0.00546555,0.00539454,0.064154
 82,0.00496022,-0.00214506,0.00198430,-0.00130332,-0.01548129,-0.016044
 80,-0.00109226,0.00128674,0.00045868,-0.00009665,-0.00016964,0.0007210
 8,0.00022504,-0.00027563,-0.00011768,-0.00009272,0.00009649,-0.0000103
 1,-0.00016827,0.00015311,0.00010934,-0.00013503,0.00012408,-0.00015478
 ,-0.00000108,0.00000224,0.00002143,-0.00000576,0.00000683,0.00000555,0
 .00000312,0.00000676,-0.00000055,0.00000325,0.00000438,-0.00000294,-0.
 00001027,0.00000274,0.00001213,0.03236262,-0.17097320,-0.12220269,0.00
 381349,-0.01353404,-0.01326085,0.00044170,0.00110953,0.00093960,0.0010
 3783,0.00092488,0.00039598,-0.00001072,0.00005431,-0.00008959,0.000027
 17,-0.00000518,0.00000603,-0.00009159,-0.00001329,0.00005940,-0.000051
 16,0.00000274,0.00005005,0.00000328,-0.00000162,-0.00000254,0.00000088
 ,0.00000034,-0.00000171,0.00000686,-0.00001351,-0.00001538,-0.00289207
 ,0.01190061,0.01042743,-0.03357779,0.18730741,-0.00162454,0.00263907,0
 .00045508,-0.00280712,0.00731080,0.00583008,0.00001045,0.00044405,-0.0
 0027185,0.00020831,0.00007600,0.00052862,0.00008876,-0.00015319,-0.000
 08574,-0.00000693,0.00003939,0.00003447,-0.00000973,0.00011147,0.00003
 800,-0.00003034,-0.00001016,-0.00004874,-0.00000547,-0.00002447,0.0000
 0162,-0.00001081,0.00000082,-0.00000404,-0.00000315,0.00003299,-0.0000
 0280,0.00002190,-0.00000128,0.00001326,-0.00004172,0.00003989,0.000054
 10,0.03226016,-0.12407530,-0.17165165,0.00106507,-0.00367476,-0.003881
 18,0.00014026,0.00055390,0.00031987,-0.00046787,0.00038265,0.00050213,
 0.00000199,0.00004127,-0.00000384,0.00000298,-0.00000978,0.00000735,0.
 00000971,0.00003531,0.00000905,0.00000339,0.00000178,0.00002005,-0.000
 00152,0.00000016,-0.00000452,0.00001287,0.00000463,-0.00001659,0.00001
 575,-0.00013086,-0.00012150,0.00552489,-0.02050715,-0.01923526,-0.0313
 3354,0.13651110,0.18523125,-0.00090428,0.00159904,0.00108476,0.0006567
 0,-0.00268049,-0.00206276,0.00052754,0.00107536,0.00073225,-0.00017784
 ,0.00025100,-0.00000507,-0.00000194,-0.00009713,-0.00013380,0.00002176
 ,0.00002290,0.00005332,-0.00000514,0.00007936,0.00010081,-0.00000866,-
 0.00002094,-0.00001923,-0.00001449,-0.00002594,0.00001212,-0.00001413,
 0.00000281,-0.00000760,0.00001168,0.00003322,-0.00000602,0.00000799,0.
 00000171,0.00000205,0.00001125,0.00001322,0.00001214,0.00535234,-0.021
 08661,-0.02028628,-0.06066886,0.03798642,0.03992236,-0.00892158,0.0227
 5881,0.01571073,0.00046165,-0.00014788,0.00026212,-0.00006150,-0.00001
 190,-0.00007163,-0.00000010,-0.00000152,-0.00000310,-0.00005475,0.0000
 1192,0.00003303,0.00001337,0.00000227,0.00000545,-0.00000141,-0.000001
 04,-0.00000067,0.00000410,0.00000441,-0.00000469,0.00001627,-0.0000574
 5,-0.00000341,0.00143319,0.00052722,0.00033344,-0.00543376,-0.00315050
 ,-0.00134873,0.07219282,0.00156090,0.00077021,0.00160918,0.00098951,-0
 .00165830,-0.00042997,-0.00011802,0.00002596,-0.00020440,0.00003673,0.
 00000456,0.00001893,0.00004012,-0.00003268,-0.00000819,-0.00003070,0.0
 0001709,-0.00001627,-0.00002992,0.00003788,0.00000370,-0.00000283,0.00
 000127,-0.00001850,-0.00000121,0.00000138,0.00000438,-0.00000003,0.000
 00313,0.00000164,-0.00000004,0.00000108,0.00000417,-0.00000083,-0.0000
 0316,0.00000141,-0.00001199,0.00001187,0.00002242,0.00046744,-0.013819
 47,-0.01402128,0.03967869,-0.17908421,-0.12357936,0.00664892,-0.016909
 81,-0.01156749,0.00005770,0.00007155,0.00012305,-0.00002518,0.00001872
 ,-0.00001360,0.00000212,-0.00000260,0.00000226,-0.00001289,0.00000597,
 0.00000558,-0.00000447,0.00000209,0.00000870,0.00000101,-0.00000037,-0
 .00000148,0.00000262,-0.00000141,-0.00000498,0.00001642,-0.00002611,-0
 .00004816,0.00071485,0.00042159,0.00009903,-0.00281793,-0.00127908,-0.
 00013479,-0.04690156,0.19968461,0.00127091,0.00197579,0.00095446,0.000
 68191,-0.00356788,-0.00112615,0.00010039,0.00074750,0.00047257,-0.0000
 5621,0.00003598,-0.00004672,0.00001709,-0.00006420,-0.00009430,-0.0000
 0626,0.00002071,0.00001772,-0.00002277,0.00006068,0.00007926,0.0000076
 2,-0.00001747,-0.00001124,-0.00000492,-0.00002570,0.00001852,-0.000010
 72,0.00000065,-0.00000409,-0.00000450,0.00002022,-0.00000919,0.0000155
 1,0.00001439,0.00000083,0.00000360,0.00000356,-0.00000174,-0.00008186,
 -0.00338680,-0.00442113,0.04121847,-0.12913641,-0.17983868,-0.00396635
 ,0.01299302,0.01204035,0.00010308,0.00002833,0.00013866,-0.00001127,-0
 .00000101,-0.00004036,0.00000355,-0.00000155,-0.00000261,-0.00003941,0
 .00000245,0.00003011,0.00000652,0.00000204,-0.00000011,-0.00000153,-0.
 00000077,-0.00000154,0.00000292,0.00000369,-0.00000208,0.00002156,-0.0
 0002344,0.00001708,-0.00041860,0.00049600,0.00103268,-0.00119843,-0.00
 020618,0.00129888,-0.04109117,0.13606804,0.18780558,0.00008748,0.00133
 752,-0.00030253,0.00144827,-0.00260124,0.00134286,-0.00047301,0.000336
 19,-0.00062778,0.00008746,-0.00017513,0.00002826,0.00001632,0.00002956
 ,0.00010378,-0.00004754,0.00001336,-0.00007830,-0.00001204,0.00000526,
 -0.00007861,-0.00002594,0.00003276,-0.00001562,0.00004650,-0.00006475,
 0.00004813,-0.00001917,-0.00001274,-0.00000753,-0.00007604,-0.00000551
 ,-0.00003366,0.00007602,0.00008856,-0.00000021,-0.00003580,0.00000287,
 -0.00001663,-0.01046512,-0.01227687,0.02380689,-0.07324418,-0.03074431
 ,0.05961521,0.00262664,0.01895098,-0.02743883,-0.00000017,-0.00002229,
 0.00019780,-0.00004668,0.00005593,0.00000080,-0.00000628,-0.00000833,0
 .00001168,0.00000996,-0.00001650,-0.00000258,-0.00002268,0.00000551,0.
 00000075,-0.00000616,0.00000149,-0.00000244,0.00000515,0.00000399,-0.0
 0000127,0.00013152,0.00000523,0.00001951,-0.00492529,-0.00340436,-0.00
 131598,0.00130914,0.00055490,-0.00062393,-0.00100708,-0.00337190,0.005
 65815,0.08173307,-0.00011041,0.00074854,0.00023907,0.00072131,-0.00132
 225,0.00032256,-0.00020749,0.00029843,-0.00042592,0.00002237,-0.000086
 00,-0.00003012,-0.00006007,0.00006668,0.00006743,0.00000930,-0.0000121
 1,-0.00003487,0.00004465,-0.00001551,-0.00006319,-0.00002067,0.0000045
 7,-0.00000028,0.00002274,-0.00004551,0.00002377,-0.00001572,-0.0000092
 5,-0.00000893,-0.00003958,0.00001245,-0.00002603,0.00004703,0.00004528
 ,0.00000514,-0.00001614,0.00000531,-0.00001069,-0.00939529,-0.00796758
 ,0.01532419,-0.03198254,-0.09892406,0.08327698,0.00446182,-0.01288818,
 0.02101067,-0.00008393,-0.00007202,0.00016097,-0.00003262,0.00003949,-
 0.00000319,-0.00001781,-0.00000645,0.00000457,0.00000761,-0.00000547,-
 0.00000788,-0.00000861,0.00000317,-0.00000306,-0.00000596,0.00000136,-
 0.00000090,0.00000466,0.00000505,-0.00000076,0.00007603,-0.00001731,0.
 00001954,-0.00299626,-0.00142066,-0.00029613,0.00107928,0.00044322,0.0
 0037486,0.00657973,0.01187491,-0.01873812,0.03267404,0.10822326,-0.000
 03427,-0.00094541,0.00058438,0.00006870,0.00129265,0.00033442,0.000405
 32,-0.00026873,0.00004365,0.00002448,0.00009454,0.00000447,0.00003409,
 -0.00001473,-0.00002710,-0.00000326,-0.00000851,0.00003083,-0.00002095
 ,-0.00001518,0.00002705,0.00001202,-0.00001893,0.00000679,-0.00001427,
 0.00001907,-0.00000236,0.00000517,0.00000570,0.00000521,0.00001102,-0.
 00001785,0.00001483,-0.00002185,-0.00001096,-0.00000722,0.00001096,0.0
 0000336,0.00001260,-0.00199144,-0.00390646,0.00513535,0.06269039,0.083
 13638,-0.21899988,-0.00639429,0.01216745,-0.00942643,0.00000260,0.0000
 4728,-0.00011777,0.00002665,-0.00003419,0.00000176,0.00001624,0.000009
 67,-0.00000431,-0.00000505,0.00000466,-0.00000261,0.00001044,-0.000001
 88,-0.00000051,0.00000403,-0.00000122,-0.00000006,-0.00000269,-0.00000
 502,-0.00000014,0.00000803,0.00001153,-0.00001958,-0.00191758,-0.00091
 413,0.00108908,0.00047363,0.00048192,0.00090367,0.00810240,0.01043099,
 -0.01959952,-0.06014602,-0.10074958,0.23812190,-0.00016284,-0.00108465
 ,-0.00035394,-0.00048012,0.00113729,-0.00038358,0.00008108,-0.00019681
 ,0.00001455,-0.00004709,0.00004227,-0.00002569,-0.00007316,0.00006844,
 -0.00002325,0.00005816,-0.00003957,0.00004505,0.00005083,-0.00005828,0
 .00000838,0.00000757,-0.00000637,0.00001547,-0.00001074,0.00001962,-0.
 00001904,0.00000355,0.00000135,-0.00000044,0.00002912,-0.00000375,0.00
 000939,-0.00003046,-0.00002089,-0.00000623,0.00002971,-0.00000880,-0.0
 0000545,0.00104134,0.00128941,0.00175712,-0.00919290,0.01634168,0.0250
 4669,-0.10202620,0.09292929,0.07993463,-0.00008706,0.00000704,-0.00007
 366,0.00001578,-0.00001437,0.00000625,-0.00000652,0.00000809,-0.000011
 11,-0.00000114,0.00000425,-0.00000103,0.00001131,-0.00000143,-0.000001
 26,0.00000136,-0.00000113,0.00000331,-0.00000694,-0.00000285,0.0000056
 0,-0.00003402,0.00002392,0.00001751,-0.00009935,0.00007662,0.00005603,
 -0.00063418,-0.00076634,-0.00098767,-0.00389630,0.00304364,-0.00303378
 ,0.00138287,-0.00064028,-0.00107139,0.10290570,0.00012155,0.00010270,0
 .00011732,0.00011074,-0.00035960,-0.00004239,-0.00007235,-0.00000181,0
 .00007380,0.00000595,0.00000716,-0.00002747,0.00000817,0.00002589,-0.0
 0000699,-0.00000191,-0.00001381,0.00000863,-0.00000987,-0.00002771,0.0
 0001089,0.00000923,0.00000174,-0.00000473,-0.00000290,0.00001488,-0.00
 000280,0.00000389,0.00000238,0.00000357,0.00000959,-0.00001771,0.00000
 828,-0.00001680,-0.00000228,-0.00000804,0.00000762,-0.00000651,0.00000
 190,-0.00079143,0.00121741,0.00050984,0.01085789,-0.01864673,-0.017277
 20,0.06636822,-0.16249072,-0.14992234,0.00001368,0.00006629,-0.0000430
 0,0.00000559,-0.00001132,-0.00000295,0.00000628,0.00000757,-0.00000531
 ,-0.00000476,-0.00000034,0.00000207,0.00000056,-0.00000146,0.00000243,
 0.00000274,-0.00000113,0.00000127,-0.00000530,-0.00000359,0.00000405,-
 0.00000769,0.00002521,-0.00000542,-0.00007277,-0.00004083,0.00027596,0
 .00056762,0.00038810,-0.00020158,0.00342508,-0.00103094,0.00312954,-0.
 00173502,0.00086926,-0.00093884,-0.08831316,0.19537189,-0.00022941,0.0
 0009132,-0.00006029,0.00008680,0.00013362,0.00009759,0.00014255,-0.000
 02825,-0.00003173,-0.00004181,0.00003783,0.00001324,-0.00004543,-0.000
 00790,-0.00003005,0.00003679,-0.00000323,0.00002509,0.00003722,0.00001
 234,0.00001062,-0.00000712,-0.00001361,0.00001125,-0.00000750,-0.00000
 963,-0.00000505,-0.00000534,-0.00000088,-0.00000532,0.00000687,0.00002
 525,-0.00000504,0.00000335,-0.00001166,0.00000735,0.00000913,0.0000072
 8,-0.00000009,0.00077856,0.00026799,0.00071189,-0.00876310,0.01739364,
 0.00818648,0.07688623,-0.19974644,-0.23067840,-0.00004454,-0.00005360,
 0.00001415,0.00000052,0.00000080,0.00000122,-0.00001025,-0.00000386,-0
 .00000109,-0.00000166,0.00000507,-0.00000010,0.00000716,0.00000119,-0.
 00000379,-0.00000261,0.00000037,-0.00000033,0.00000396,0.00000332,-0.0
 0000308,-0.00000376,-0.00003089,0.00001231,0.00010054,-0.00012425,-0.0
 0028512,0.00036557,-0.00030536,-0.00000320,-0.00230457,0.00194205,0.00
 042943,-0.00013044,0.00042116,0.00206363,-0.07602288,0.18269797,0.2309
 4604,0.00003729,0.00074865,0.00020379,-0.00024649,-0.00276487,-0.00042
 487,-0.00095991,0.00061922,-0.00035076,0.00012048,-0.00027508,-0.00010
 576,0.00005394,0.00008724,0.00015973,-0.00010330,0.00000746,-0.0001241
 4,-0.00005310,-0.00001966,-0.00009561,-0.00000512,0.00003325,-0.000046
 79,0.00002619,0.00000585,0.00002101,0.00000544,-0.00000128,0.00000910,
 -0.00003697,-0.00003252,-0.00000218,0.00001924,0.00002744,-0.00000143,
 -0.00004181,-0.00000006,0.00001199,-0.00455359,0.00617477,-0.00227100,
 -0.02135345,-0.02054639,-0.00288268,-0.27573547,-0.15265117,-0.0994988
 1,0.00003119,0.00007664,0.00009465,-0.00002248,0.00002733,0.00000191,0
 .00000250,-0.00000248,0.00000723,0.00002435,-0.00001742,-0.00001059,-0
 .00003381,0.00000023,0.00000995,0.00000147,0.00000068,-0.00000282,0.00
 000092,-0.00000398,-0.00000149,0.00004426,0.00002516,-0.00005032,0.000
 51372,0.00038513,-0.00001117,0.00035715,0.00000516,-0.00006340,0.00046
 117,0.00006883,0.00083651,0.00145279,-0.00011721,-0.00028311,0.0111706
 5,0.00950957,0.00915516,0.28882279,-0.00020731,-0.00001414,-0.00001463
 ,0.00086989,0.00097128,0.00003717,0.00015963,-0.00025200,0.00009318,0.
 00001523,0.00000779,0.00010193,0.00003495,-0.00004049,0.00000368,-0.00
 001020,0.00001210,0.00000224,-0.00001817,0.00001281,-0.00000021,-0.000
 01006,0.00000754,0.00000135,0.00000324,-0.00000454,0.00000310,0.000000
 28,0.00000005,0.00000024,-0.00001043,-0.00000468,-0.00000029,0.0000090
 7,0.00000730,0.00000103,-0.00001018,0.00000198,0.00000034,0.00237137,-
 0.00208989,0.00141734,0.02323716,0.01177955,0.01195982,-0.16153955,-0.
 17442588,-0.08900830,0.00002305,-0.00000131,-0.00003267,0.00000903,-0.
 00000104,0.00000869,0.00000811,0.00000003,0.00000472,0.00000460,-0.000
 00017,-0.00000588,-0.00000131,0.00000018,-0.00000044,0.00000036,0.0000
 0051,-0.00000072,0.00000225,0.00000041,-0.00000171,0.00000863,-0.00000
 466,-0.00000286,0.00003131,-0.00015092,-0.00026627,0.00007447,0.000077
 03,0.00032317,-0.00019151,0.00089426,-0.00043307,0.00034080,0.00015136
 ,0.00014638,-0.02383423,-0.01544399,-0.00270166,0.15862954,0.17850953,
 0.00027783,-0.00001813,-0.00015565,-0.00048901,-0.00022971,0.00059751,
 0.00030678,-0.00005116,0.00009934,-0.00005227,0.00007477,-0.00002345,-
 0.00008296,0.00001893,-0.00006740,0.00007519,-0.00002057,0.00005566,0.
 00006092,-0.00001206,0.00003101,0.00000883,-0.00002030,0.00003087,-0.0
 0001329,-0.00000201,-0.00001682,-0.00000326,-0.00000070,-0.00000743,0.
 00002925,0.00002504,-0.00000337,-0.00001472,-0.00002151,0.00000242,0.0
 0003243,-0.00000503,-0.00001391,0.00000747,0.00186592,-0.00019374,-0.0
 1469273,-0.00542051,-0.00831050,-0.05716394,-0.05507521,-0.04677885,-0
 .00005515,-0.00004948,-0.00002754,-0.00000031,-0.00000743,-0.00000323,
 -0.00001551,-0.00000012,-0.00000415,-0.00001690,0.00000983,0.00000978,
 0.00001949,0.00000056,-0.00000448,-0.00000246,0.,0.00000321,-0.0000024
 2,0.00000367,0.00000380,-0.00004117,-0.00000883,0.00004054,-0.00020541
 ,-0.00014482,0.00027532,0.00024670,0.00023133,0.00008344,0.00098172,-0
 .00029705,0.00086331,-0.00001145,-0.00085126,-0.00017214,-0.02489957,-
 0.01835848,-0.01141760,0.09571592,0.07836433,0.06510408\\0.00000113,-0
 .00000185,-0.00000121,-0.00000113,0.00000172,-0.00000099,0.00000109,0.
 00000049,0.00000091,-0.00000047,0.00000061,-0.00000012,0.00000125,-0.0
 0000363,-0.00000155,-0.00000019,-0.00000104,-0.00000171,-0.00000137,0.
 00000325,0.00000139,-0.00000042,-0.00000072,0.00000073,-0.00000093,-0.
 00000071,-0.00000078,0.00000167,0.00000028,0.00000001,0.00000044,0.000
 00073,0.00000053,0.00000026,0.00000102,0.00000039,-0.00000122,0.000000
 39,0.00000035,-0.00000044,-0.00000019,0.00000123,0.00000167,-0.0000010
 9,-0.00000162,0.00000083,0.00000008,0.00000077,-0.00000078,-0.00000022
 ,0.00000162,0.00000076,-0.00000036,0.00000008,0.00000040,0.00000037,0.
 00000174,0.00000016,-0.00000005,-0.00000110,-0.00000010,-0.00000045,-0
 .00000044,0.00000003,0.00000040,0.00000006,-0.00000043,0.00000078,0.00
 000006,-0.00000054,0.00000003,-0.00000073,-0.00000005,0.00000070,-0.00
 000011,-0.00000033,0.00000036,-0.00000024,-0.00000023,-0.00000062,0.00
 000073,-0.00000046,-0.00000026,-0.00000017,-0.00000021,0.00000049,0.00
 000043,-0.00000038,-0.00000052,-0.00000022\\\@


 THOSE WHO ARE UNABLE TO LEARN FROM PAST MEETINGS
 ARE CONDEMNED TO REPEAT THEM.
 Job cpu time:       0 days  1 hours  4 minutes 10.6 seconds.
 File lengths (MBytes):  RWF=    260 Int=      0 D2E=      0 Chk=      8 Scr=      1
 Normal termination of Gaussian 09 at Tue Jul 27 02:15:56 2021.
