 Entering Gaussian System, Link 0=g09
 Input=opt_freq-conf-683.com
 Output=opt_freq-conf-683.log
 Initial command:
 /aerosol/software/g09/l1.exe "/scratch/nicole/10539/Gau-86025.inp" -scrdir="/scratch/nicole/10539/"
 Entering Link 1 = /aerosol/software/g09/l1.exe PID=     86032.
  
 Copyright (c) 1988,1990,1992,1993,1995,1998,2003,2009,2013,
            Gaussian, Inc.  All Rights Reserved.
  
 This is part of the Gaussian(R) 09 program.  It is based on
 the Gaussian(R) 03 system (copyright 2003, Gaussian, Inc.),
 the Gaussian(R) 98 system (copyright 1998, Gaussian, Inc.),
 the Gaussian(R) 94 system (copyright 1995, Gaussian, Inc.),
 the Gaussian 92(TM) system (copyright 1992, Gaussian, Inc.),
 the Gaussian 90(TM) system (copyright 1990, Gaussian, Inc.),
 the Gaussian 88(TM) system (copyright 1988, Gaussian, Inc.),
 the Gaussian 86(TM) system (copyright 1986, Carnegie Mellon
 University), and the Gaussian 82(TM) system (copyright 1983,
 Carnegie Mellon University). Gaussian is a federally registered
 trademark of Gaussian, Inc.
  
 This software contains proprietary and confidential information,
 including trade secrets, belonging to Gaussian, Inc.
  
 This software is provided under written license and may be
 used, copied, transmitted, or stored only in accord with that
 written license.
  
 The following legend is applicable only to US Government
 contracts under FAR:
  
                    RESTRICTED RIGHTS LEGEND
  
 Use, reproduction and disclosure by the US Government is
 subject to restrictions as set forth in subparagraphs (a)
 and (c) of the Commercial Computer Software - Restricted
 Rights clause in FAR 52.227-19.
  
 Gaussian, Inc.
 340 Quinnipiac St., Bldg. 40, Wallingford CT 06492
  
  
 ---------------------------------------------------------------
 Warning -- This program may not be used in any manner that
 competes with the business of Gaussian, Inc. or will provide
 assistance to any competitor of Gaussian, Inc.  The licensee
 of this program is prohibited from giving any competitor of
 Gaussian, Inc. access to this program.  By using this program,
 the user acknowledges that Gaussian, Inc. is engaged in the
 business of creating and licensing software in the field of
 computational chemistry and represents and warrants to the
 licensee that it is not a competitor of Gaussian, Inc. and that
 it will not use this program in any manner prohibited above.
 ---------------------------------------------------------------
  

 Cite this work as:
 Gaussian 09, Revision D.01,
 M. J. Frisch, G. W. Trucks, H. B. Schlegel, G. E. Scuseria, 
 M. A. Robb, J. R. Cheeseman, G. Scalmani, V. Barone, B. Mennucci, 
 G. A. Petersson, H. Nakatsuji, M. Caricato, X. Li, H. P. Hratchian, 
 A. F. Izmaylov, J. Bloino, G. Zheng, J. L. Sonnenberg, M. Hada, 
 M. Ehara, K. Toyota, R. Fukuda, J. Hasegawa, M. Ishida, T. Nakajima, 
 Y. Honda, O. Kitao, H. Nakai, T. Vreven, J. A. Montgomery, Jr., 
 J. E. Peralta, F. Ogliaro, M. Bearpark, J. J. Heyd, E. Brothers, 
 K. N. Kudin, V. N. Staroverov, T. Keith, R. Kobayashi, J. Normand, 
 K. Raghavachari, A. Rendell, J. C. Burant, S. S. Iyengar, J. Tomasi, 
 M. Cossi, N. Rega, J. M. Millam, M. Klene, J. E. Knox, J. B. Cross, 
 V. Bakken, C. Adamo, J. Jaramillo, R. Gomperts, R. E. Stratmann, 
 O. Yazyev, A. J. Austin, R. Cammi, C. Pomelli, J. W. Ochterski, 
 R. L. Martin, K. Morokuma, V. G. Zakrzewski, G. A. Voth, 
 P. Salvador, J. J. Dannenberg, S. Dapprich, A. D. Daniels, 
 O. Farkas, J. B. Foresman, J. V. Ortiz, J. Cioslowski, 
 and D. J. Fox, Gaussian, Inc., Wallingford CT, 2013.
 
 ******************************************
 Gaussian 09:  ES64L-G09RevD.01 24-Apr-2013
                27-Jul-2021 
 ******************************************
 %mem=2gb
 %nproc=4
 Will use up to    4 processors via shared memory.
 %chk=conf-683.chk
 ----------------------------------------------------------------------
 # B3LYP/6-31G(d) EmpiricalDispersion=GD3BJ opt=calcfc freq=noraman nos
 ymm integral(ultrafinegrid)
 ----------------------------------------------------------------------
 1/10=4,14=-1,18=20,19=15,26=4,38=1/1,3;
 2/9=110,12=2,15=1,17=6,18=5,40=1/2;
 3/5=1,6=6,7=1,11=2,16=1,25=1,30=1,71=2,74=-5,75=-5,124=41,140=1/1,2,3;
 4//1;
 5/5=2,38=5/2;
 8/6=4,10=90,11=11/1;
 11/6=1,8=1,9=11,15=111,16=1,31=1/1,2,10;
 10/6=1,13=1,31=1/2;
 6/7=2,8=2,9=2,10=2,28=1/1;
 7/10=1,18=20,25=1,30=1/1,2,3,16;
 1/10=4,14=-1,18=20,19=15,26=4/3(2);
 2/9=110,15=1/2;
 99//99;
 2/9=110,15=1/2;
 3/5=1,6=6,7=1,11=2,16=1,25=1,30=1,71=1,74=-5,75=-5,124=41/1,2,3;
 4/5=5,16=3,69=1/1;
 5/5=2,38=5/2;
 7/30=1/1,2,3,16;
 1/14=-1,18=20,19=15,26=4/3(-5);
 2/9=110,15=1/2;
 6/7=2,8=2,9=2,10=2,19=2,28=1/1;
 99/9=1/99;
 ------------------------------------------------------------
 Candidate Structure: Conf:683 OPT and FREQ calc in gas phase
 ------------------------------------------------------------
 Symbolic Z-matrix:
 Charge =  0 Multiplicity = 1
 O                    -0.48714   0.03411  -2.18319 
 C                     0.46127   0.27928  -1.44052 
 N                     0.32789   0.42795  -0.11044 
 C                    -0.9578    0.66545   0.50158 
 C                    -0.92497   2.00031   1.21365 
 O                    -2.15887   2.3984    1.57874 
 O                     0.07049   2.63591   1.45945 
 C                    -1.34629  -0.41772   1.51388 
 C                    -1.55824  -1.78505   0.92941 
 C                    -1.80804  -2.98089   1.53805 
 N                    -1.96662  -3.98554   0.60476 
 C                    -1.81522  -3.39077  -0.55338 
 N                    -1.57259  -2.06509  -0.41431 
 C                     1.88811   0.37371  -1.96848 
 C                     2.67074   1.56211  -1.4079 
 N                     2.95917   1.38592   0.02671 
 H                     1.16423   0.73916   0.38089 
 H                    -1.71051   0.71537  -0.28595 
 H                    -2.04427   3.24021   2.03676 
 H                    -0.58326  -0.47218   2.29309 
 H                    -2.2642   -0.10001   2.01323 
 H                    -1.8861   -3.18906   2.59558 
 H                    -1.86735  -3.85838  -1.52128 
 H                    -1.36912  -1.41053  -1.15988 
 H                     2.42577  -0.54795  -1.71986 
 H                     1.81067   0.4345   -3.05414 
 H                     2.07238   2.46848  -1.52499 
 H                     3.58337   1.70483  -1.9953 
 H                     3.80746   0.85703   0.17254 
 H                     3.07913   2.28043   0.48106 
 

 GradGradGradGradGradGradGradGradGradGradGradGradGradGradGradGradGradGrad
 Berny optimization.
 Initialization pass.
                           ----------------------------
                           !    Initial Parameters    !
                           ! (Angstroms and Degrees)  !
 --------------------------                            --------------------------
 ! Name  Definition              Value          Derivative Info.                !
 --------------------------------------------------------------------------------
 ! R1    R(1,2)                  1.2293         calculate D2E/DX2 analytically  !
 ! R2    R(2,3)                  1.345          calculate D2E/DX2 analytically  !
 ! R3    R(2,14)                 1.5243         calculate D2E/DX2 analytically  !
 ! R4    R(3,4)                  1.4436         calculate D2E/DX2 analytically  !
 ! R5    R(3,17)                 1.0187         calculate D2E/DX2 analytically  !
 ! R6    R(4,5)                  1.5133         calculate D2E/DX2 analytically  !
 ! R7    R(4,8)                  1.5326         calculate D2E/DX2 analytically  !
 ! R8    R(4,18)                 1.0905         calculate D2E/DX2 analytically  !
 ! R9    R(5,6)                  1.3469         calculate D2E/DX2 analytically  !
 ! R10   R(5,7)                  1.2064         calculate D2E/DX2 analytically  !
 ! R11   R(6,19)                 0.9652         calculate D2E/DX2 analytically  !
 ! R12   R(8,9)                  1.502          calculate D2E/DX2 analytically  !
 ! R13   R(8,20)                 1.0919         calculate D2E/DX2 analytically  !
 ! R14   R(8,21)                 1.0922         calculate D2E/DX2 analytically  !
 ! R15   R(9,10)                 1.3649         calculate D2E/DX2 analytically  !
 ! R16   R(9,13)                 1.3727         calculate D2E/DX2 analytically  !
 ! R17   R(10,11)                1.3804         calculate D2E/DX2 analytically  !
 ! R18   R(10,22)                1.0806         calculate D2E/DX2 analytically  !
 ! R19   R(11,12)                1.3107         calculate D2E/DX2 analytically  !
 ! R20   R(12,13)                1.3549         calculate D2E/DX2 analytically  !
 ! R21   R(12,23)                1.0762         calculate D2E/DX2 analytically  !
 ! R22   R(13,24)                1.0128         calculate D2E/DX2 analytically  !
 ! R23   R(14,15)                1.5294         calculate D2E/DX2 analytically  !
 ! R24   R(14,25)                1.0956         calculate D2E/DX2 analytically  !
 ! R25   R(14,26)                1.0901         calculate D2E/DX2 analytically  !
 ! R26   R(15,16)                1.4739         calculate D2E/DX2 analytically  !
 ! R27   R(15,27)                1.0924         calculate D2E/DX2 analytically  !
 ! R28   R(15,28)                1.0947         calculate D2E/DX2 analytically  !
 ! R29   R(16,29)                1.0102         calculate D2E/DX2 analytically  !
 ! R30   R(16,30)                1.0104         calculate D2E/DX2 analytically  !
 ! A1    A(1,2,3)              122.8875         calculate D2E/DX2 analytically  !
 ! A2    A(1,2,14)             121.6868         calculate D2E/DX2 analytically  !
 ! A3    A(3,2,14)             115.3721         calculate D2E/DX2 analytically  !
 ! A4    A(2,3,4)              121.7189         calculate D2E/DX2 analytically  !
 ! A5    A(2,3,17)             115.4249         calculate D2E/DX2 analytically  !
 ! A6    A(4,3,17)             118.4538         calculate D2E/DX2 analytically  !
 ! A7    A(3,4,5)              108.9833         calculate D2E/DX2 analytically  !
 ! A8    A(3,4,8)              112.9234         calculate D2E/DX2 analytically  !
 ! A9    A(3,4,18)             108.4268         calculate D2E/DX2 analytically  !
 ! A10   A(5,4,8)              108.549          calculate D2E/DX2 analytically  !
 ! A11   A(5,4,18)             108.3251         calculate D2E/DX2 analytically  !
 ! A12   A(8,4,18)             109.535          calculate D2E/DX2 analytically  !
 ! A13   A(4,5,6)              111.6154         calculate D2E/DX2 analytically  !
 ! A14   A(4,5,7)              125.3475         calculate D2E/DX2 analytically  !
 ! A15   A(6,5,7)              123.0221         calculate D2E/DX2 analytically  !
 ! A16   A(5,6,19)             106.1193         calculate D2E/DX2 analytically  !
 ! A17   A(4,8,9)              114.9679         calculate D2E/DX2 analytically  !
 ! A18   A(4,8,20)             109.2354         calculate D2E/DX2 analytically  !
 ! A19   A(4,8,21)             108.0247         calculate D2E/DX2 analytically  !
 ! A20   A(9,8,20)             109.3221         calculate D2E/DX2 analytically  !
 ! A21   A(9,8,21)             108.9127         calculate D2E/DX2 analytically  !
 ! A22   A(20,8,21)            105.9938         calculate D2E/DX2 analytically  !
 ! A23   A(8,9,10)             130.5325         calculate D2E/DX2 analytically  !
 ! A24   A(8,9,13)             124.618          calculate D2E/DX2 analytically  !
 ! A25   A(10,9,13)            104.8255         calculate D2E/DX2 analytically  !
 ! A26   A(9,10,11)            110.9276         calculate D2E/DX2 analytically  !
 ! A27   A(9,10,22)            128.1989         calculate D2E/DX2 analytically  !
 ! A28   A(11,10,22)           120.8735         calculate D2E/DX2 analytically  !
 ! A29   A(10,11,12)           104.7069         calculate D2E/DX2 analytically  !
 ! A30   A(11,12,13)           111.9624         calculate D2E/DX2 analytically  !
 ! A31   A(11,12,23)           126.2929         calculate D2E/DX2 analytically  !
 ! A32   A(13,12,23)           121.7446         calculate D2E/DX2 analytically  !
 ! A33   A(9,13,12)            107.5757         calculate D2E/DX2 analytically  !
 ! A34   A(9,13,24)            125.9221         calculate D2E/DX2 analytically  !
 ! A35   A(12,13,24)           126.3561         calculate D2E/DX2 analytically  !
 ! A36   A(2,14,15)            113.5898         calculate D2E/DX2 analytically  !
 ! A37   A(2,14,25)            109.187          calculate D2E/DX2 analytically  !
 ! A38   A(2,14,26)            106.3738         calculate D2E/DX2 analytically  !
 ! A39   A(15,14,25)           108.6248         calculate D2E/DX2 analytically  !
 ! A40   A(15,14,26)           110.9815         calculate D2E/DX2 analytically  !
 ! A41   A(25,14,26)           107.9245         calculate D2E/DX2 analytically  !
 ! A42   A(14,15,16)           111.3475         calculate D2E/DX2 analytically  !
 ! A43   A(14,15,27)           108.9737         calculate D2E/DX2 analytically  !
 ! A44   A(14,15,28)           109.3448         calculate D2E/DX2 analytically  !
 ! A45   A(16,15,27)           108.1028         calculate D2E/DX2 analytically  !
 ! A46   A(16,15,28)           112.0079         calculate D2E/DX2 analytically  !
 ! A47   A(27,15,28)           106.9165         calculate D2E/DX2 analytically  !
 ! A48   A(15,16,29)           111.5564         calculate D2E/DX2 analytically  !
 ! A49   A(15,16,30)           110.7986         calculate D2E/DX2 analytically  !
 ! A50   A(29,16,30)           107.3892         calculate D2E/DX2 analytically  !
 ! D1    D(1,2,3,4)            -16.8472         calculate D2E/DX2 analytically  !
 ! D2    D(1,2,3,17)          -172.909          calculate D2E/DX2 analytically  !
 ! D3    D(14,2,3,4)           165.7775         calculate D2E/DX2 analytically  !
 ! D4    D(14,2,3,17)            9.7158         calculate D2E/DX2 analytically  !
 ! D5    D(1,2,14,15)          136.0055         calculate D2E/DX2 analytically  !
 ! D6    D(1,2,14,25)         -102.5989         calculate D2E/DX2 analytically  !
 ! D7    D(1,2,14,26)           13.6252         calculate D2E/DX2 analytically  !
 ! D8    D(3,2,14,15)          -46.5847         calculate D2E/DX2 analytically  !
 ! D9    D(3,2,14,25)           74.8109         calculate D2E/DX2 analytically  !
 ! D10   D(3,2,14,26)         -168.965          calculate D2E/DX2 analytically  !
 ! D11   D(2,3,4,5)           -118.9752         calculate D2E/DX2 analytically  !
 ! D12   D(2,3,4,8)            120.312          calculate D2E/DX2 analytically  !
 ! D13   D(2,3,4,18)            -1.2603         calculate D2E/DX2 analytically  !
 ! D14   D(17,3,4,5)            36.3919         calculate D2E/DX2 analytically  !
 ! D15   D(17,3,4,8)           -84.3209         calculate D2E/DX2 analytically  !
 ! D16   D(17,3,4,18)          154.1068         calculate D2E/DX2 analytically  !
 ! D17   D(3,4,5,6)            167.8964         calculate D2E/DX2 analytically  !
 ! D18   D(3,4,5,7)            -13.4842         calculate D2E/DX2 analytically  !
 ! D19   D(8,4,5,6)            -68.7433         calculate D2E/DX2 analytically  !
 ! D20   D(8,4,5,7)            109.876          calculate D2E/DX2 analytically  !
 ! D21   D(18,4,5,6)            50.1173         calculate D2E/DX2 analytically  !
 ! D22   D(18,4,5,7)          -131.2634         calculate D2E/DX2 analytically  !
 ! D23   D(3,4,8,9)            -64.9541         calculate D2E/DX2 analytically  !
 ! D24   D(3,4,8,20)            58.3472         calculate D2E/DX2 analytically  !
 ! D25   D(3,4,8,21)           173.2087         calculate D2E/DX2 analytically  !
 ! D26   D(5,4,8,9)            174.086          calculate D2E/DX2 analytically  !
 ! D27   D(5,4,8,20)           -62.6128         calculate D2E/DX2 analytically  !
 ! D28   D(5,4,8,21)            52.2487         calculate D2E/DX2 analytically  !
 ! D29   D(18,4,8,9)            55.9903         calculate D2E/DX2 analytically  !
 ! D30   D(18,4,8,20)          179.2915         calculate D2E/DX2 analytically  !
 ! D31   D(18,4,8,21)          -65.847          calculate D2E/DX2 analytically  !
 ! D32   D(4,5,6,19)           178.8907         calculate D2E/DX2 analytically  !
 ! D33   D(7,5,6,19)             0.2338         calculate D2E/DX2 analytically  !
 ! D34   D(4,8,9,10)           174.4921         calculate D2E/DX2 analytically  !
 ! D35   D(4,8,9,13)            -7.5697         calculate D2E/DX2 analytically  !
 ! D36   D(20,8,9,10)           51.2371         calculate D2E/DX2 analytically  !
 ! D37   D(20,8,9,13)         -130.8247         calculate D2E/DX2 analytically  !
 ! D38   D(21,8,9,10)          -64.1528         calculate D2E/DX2 analytically  !
 ! D39   D(21,8,9,13)          113.7854         calculate D2E/DX2 analytically  !
 ! D40   D(8,9,10,11)          178.6096         calculate D2E/DX2 analytically  !
 ! D41   D(8,9,10,22)           -1.3372         calculate D2E/DX2 analytically  !
 ! D42   D(13,9,10,11)           0.3647         calculate D2E/DX2 analytically  !
 ! D43   D(13,9,10,22)        -179.5821         calculate D2E/DX2 analytically  !
 ! D44   D(8,9,13,12)         -178.8194         calculate D2E/DX2 analytically  !
 ! D45   D(8,9,13,24)            5.359          calculate D2E/DX2 analytically  !
 ! D46   D(10,9,13,12)          -0.4403         calculate D2E/DX2 analytically  !
 ! D47   D(10,9,13,24)        -176.2619         calculate D2E/DX2 analytically  !
 ! D48   D(9,10,11,12)          -0.1419         calculate D2E/DX2 analytically  !
 ! D49   D(22,10,11,12)        179.8093         calculate D2E/DX2 analytically  !
 ! D50   D(10,11,12,13)         -0.1505         calculate D2E/DX2 analytically  !
 ! D51   D(10,11,12,23)        179.7578         calculate D2E/DX2 analytically  !
 ! D52   D(11,12,13,9)           0.3833         calculate D2E/DX2 analytically  !
 ! D53   D(11,12,13,24)        176.1817         calculate D2E/DX2 analytically  !
 ! D54   D(23,12,13,9)        -179.5298         calculate D2E/DX2 analytically  !
 ! D55   D(23,12,13,24)         -3.7314         calculate D2E/DX2 analytically  !
 ! D56   D(2,14,15,16)          68.9177         calculate D2E/DX2 analytically  !
 ! D57   D(2,14,15,27)         -50.2361         calculate D2E/DX2 analytically  !
 ! D58   D(2,14,15,28)        -166.7754         calculate D2E/DX2 analytically  !
 ! D59   D(25,14,15,16)        -52.7915         calculate D2E/DX2 analytically  !
 ! D60   D(25,14,15,27)       -171.9453         calculate D2E/DX2 analytically  !
 ! D61   D(25,14,15,28)         71.5155         calculate D2E/DX2 analytically  !
 ! D62   D(26,14,15,16)       -171.2862         calculate D2E/DX2 analytically  !
 ! D63   D(26,14,15,27)         69.56           calculate D2E/DX2 analytically  !
 ! D64   D(26,14,15,28)        -46.9793         calculate D2E/DX2 analytically  !
 ! D65   D(14,15,16,29)         86.1649         calculate D2E/DX2 analytically  !
 ! D66   D(14,15,16,30)       -154.2452         calculate D2E/DX2 analytically  !
 ! D67   D(27,15,16,29)       -154.1633         calculate D2E/DX2 analytically  !
 ! D68   D(27,15,16,30)        -34.5734         calculate D2E/DX2 analytically  !
 ! D69   D(28,15,16,29)        -36.6262         calculate D2E/DX2 analytically  !
 ! D70   D(28,15,16,30)         82.9637         calculate D2E/DX2 analytically  !
 --------------------------------------------------------------------------------
 Trust Radius=3.00D-01 FncErr=1.00D-07 GrdErr=1.00D-06
 Number of steps in this run=    160 maximum allowed number of steps=    180.
 GradGradGradGradGradGradGradGradGradGradGradGradGradGradGradGradGradGrad

                          Input orientation:                          
 ---------------------------------------------------------------------
 Center     Atomic      Atomic             Coordinates (Angstroms)
 Number     Number       Type             X           Y           Z
 ---------------------------------------------------------------------
      1          8           0       -0.487137    0.034113   -2.183190
      2          6           0        0.461268    0.279282   -1.440517
      3          7           0        0.327894    0.427946   -0.110441
      4          6           0       -0.957804    0.665448    0.501575
      5          6           0       -0.924970    2.000307    1.213651
      6          8           0       -2.158867    2.398398    1.578742
      7          8           0        0.070491    2.635914    1.459449
      8          6           0       -1.346294   -0.417723    1.513882
      9          6           0       -1.558244   -1.785053    0.929409
     10          6           0       -1.808037   -2.980892    1.538055
     11          7           0       -1.966617   -3.985539    0.604764
     12          6           0       -1.815215   -3.390767   -0.553375
     13          7           0       -1.572589   -2.065091   -0.414312
     14          6           0        1.888109    0.373714   -1.968479
     15          6           0        2.670739    1.562111   -1.407896
     16          7           0        2.959170    1.385918    0.026709
     17          1           0        1.164234    0.739164    0.380893
     18          1           0       -1.710505    0.715370   -0.285954
     19          1           0       -2.044274    3.240207    2.036763
     20          1           0       -0.583259   -0.472180    2.293090
     21          1           0       -2.264205   -0.100005    2.013233
     22          1           0       -1.886099   -3.189059    2.595576
     23          1           0       -1.867355   -3.858382   -1.521281
     24          1           0       -1.369122   -1.410531   -1.159878
     25          1           0        2.425773   -0.547949   -1.719863
     26          1           0        1.810668    0.434499   -3.054138
     27          1           0        2.072378    2.468476   -1.524990
     28          1           0        3.583373    1.704834   -1.995297
     29          1           0        3.807463    0.857035    0.172543
     30          1           0        3.079128    2.280426    0.481062
 ---------------------------------------------------------------------
                    Distance matrix (angstroms):
                    1          2          3          4          5
     1  O    0.000000
     2  C    1.229285   0.000000
     3  N    2.261784   1.344987   0.000000
     4  C    2.797870   2.436105   1.443603   0.000000
     5  C    3.949195   3.453720   2.407323   1.513267   0.000000
     6  O    4.747279   4.524564   3.594440   2.367690   1.346949
     7  O    4.511001   3.757156   2.721384   2.420257   1.206381
     8  C    3.822388   3.532926   2.481227   1.532629   2.472755
     9  C    3.760972   3.735834   3.088069   2.559009   3.848477
    10  C    4.968168   4.964913   4.347403   3.884969   5.069258
    11  N    5.110690   5.316625   5.025450   4.760256   6.106236
    12  C    4.018694   4.408930   4.401327   4.277962   5.742699
    13  N    2.951914   3.268908   3.149509   2.944938   4.426865
    14  C    2.408987   1.524315   2.426833   3.779616   4.548095
    15  C    3.592776   2.555089   2.908375   4.197191   4.471425
    16  N    4.311387   3.101114   2.803593   4.010892   4.107657
    17  H    3.130279   2.005789   1.018691   2.126745   2.578514
    18  H    2.358018   2.497957   2.066032   1.090529   2.125310
    19  H    5.523741   5.209250   4.259868   3.188510   1.862178
    20  H    4.505847   3.949120   2.723489   2.154996   2.719402
    21  H    4.559159   4.415931   3.392300   2.139559   2.616141
    22  H    5.931487   5.816318   5.030608   4.483725   5.455547
    23  H    4.182661   4.748608   5.018186   5.038281   6.533925
    24  H    1.977894   2.506901   2.713149   2.690595   4.179082
    25  H    3.006411   2.149797   2.818458   4.225602   5.130944
    26  H    2.489732   2.109205   3.296060   4.512302   5.305609
    27  H    3.593113   2.719445   3.034458   4.066925   4.086983
    28  H    4.404050   3.476711   3.972564   5.285544   5.541643
    29  H    4.966917   3.759359   3.517328   4.780453   4.978644
    30  H    4.986221   3.814476   3.369101   4.348033   4.080190
                    6          7          8          9         10
     6  O    0.000000
     7  O    2.245146   0.000000
     8  C    2.931726   3.366740   0.000000
     9  C    4.275938   4.741167   1.502040   0.000000
    10  C    5.390871   5.923137   2.604539   1.364872   0.000000
    11  N    6.460669   6.980253   3.733712   2.261482   1.380397
    12  C    6.178872   6.627838   3.651361   2.200682   2.131227
    13  N    4.923284   5.320727   2.546167   1.372667   2.169300
    14  C    5.749794   4.491322   4.818151   4.993534   6.100054
    15  C    5.739728   4.016965   5.347250   5.877993   7.026872
    16  N    5.443181   3.458280   4.899165   5.592580   6.639236
    17  H    3.902678   2.440740   2.987441   3.752923   4.900228
    18  H    2.551608   3.147517   2.157767   2.784314   4.122969
    19  H    0.965172   2.273916   3.760456   5.168723   6.245525
    20  H    3.351574   3.283686   1.091949   2.129285   2.892022
    21  H    2.538089   3.639057   1.092180   2.124251   2.955231
    22  H    5.685774   6.248946   3.023533   2.203368   1.080637
    23  H    6.988735   7.403774   4.617560   3.224922   3.183244
    24  H    4.757276   5.030614   2.852224   2.130998   3.152383
    25  H    6.370296   5.078618   4.970166   4.941807   5.870126
    26  H    6.409187   5.314782   5.617784   5.669623   6.771126
    27  H    5.247999   3.597564   5.408531   6.107209   7.357681
    28  H    6.799125   5.014232   6.412581   6.868001   7.969184
    29  H    6.320624   4.334224   5.475893   6.028622   6.937445
    30  H    5.353074   3.183631   5.284986   6.183393   7.258310
                   11         12         13         14         15
    11  N    0.000000
    12  C    1.310710   0.000000
    13  N    2.209501   1.354852   0.000000
    14  C    6.362671   5.467033   4.509949   0.000000
    15  C    7.505484   6.736839   5.670066   1.529396   0.000000
    16  N    7.310956   6.778493   5.713213   2.480424   1.473881
    17  H    5.672316   5.177481   3.998300   2.485377   2.479227
    18  H    4.791400   4.116169   2.786837   3.987185   4.601199
    19  H    7.366685   7.122577   5.863142   6.302569   6.075609
    20  H    4.136159   4.258900   3.293352   4.998417   5.331430
    21  H    4.143636   4.197402   3.198886   5.772361   6.230604
    22  H    2.145739   3.156201   3.228160   6.911483   7.704944
    23  H    2.132155   1.076208   2.127947   5.675750   7.070283
    24  H    3.178305   2.118532   1.012776   3.800911   5.021812
    25  H    6.042682   5.237202   4.471363   1.095607   2.147018
    26  H    6.869657   5.833824   4.966192   1.090113   2.172866
    27  H    7.905925   7.098461   5.922214   2.149108   1.092357
    28  H    8.363196   7.562344   6.579954   2.155578   1.094673
    29  H    7.548333   7.084158   6.150462   2.915732   2.070521
    30  H    8.045940   7.562214   6.428350   3.324805   2.061775
                   16         17         18         19         20
    16  N    0.000000
    17  H    1.940498   0.000000
    18  H    4.727923   2.951165   0.000000
    19  H    5.702031   4.392225   3.446913   0.000000
    20  H    4.597588   2.859648   3.054902   3.997760   0.000000
    21  H    5.782551   3.888822   2.501535   3.347527   1.744251
    22  H    7.141856   5.444289   4.855781   6.455443   3.028253
    23  H    7.293442   5.826340   4.740237   7.942351   5.259723
    24  H    5.287932   3.662384   2.323735   5.683635   3.663478
    25  H    2.659862   2.767909   4.556409   6.960150   5.016354
    26  H    3.422846   3.508581   4.487805   6.974944   5.928390
    27  H    2.089522   2.729036   4.349574   5.498043   5.502509
    28  H    2.140057   3.525767   5.650313   7.091212   6.363213
    29  H    1.010241   2.654046   5.538796   6.587690   5.053907
    30  H    1.010431   2.460150   5.096891   5.439727   4.926800
                   21         22         23         24         25
    21  H    0.000000
    22  H    3.166123   0.000000
    23  H    5.174522   4.170953   0.000000
    24  H    3.547856   4.187344   2.524049   0.000000
    25  H    6.011036   6.647609   5.424882   3.931775   0.000000
    26  H    6.524457   7.662605   5.857161   4.135628   1.767441
    27  H    6.158090   8.040914   7.453230   5.198454   3.043301
    28  H    7.315731   8.656871   7.802852   5.910214   2.547731
    29  H    6.416324   7.393146   7.570188   5.806395   2.732077
    30  H    6.046917   7.683742   8.134004   6.008558   3.642890
                   26         27         28         29         30
    26  H    0.000000
    27  H    2.558095   0.000000
    28  H    2.424331   1.757112   0.000000
    29  H    3.818010   2.913568   2.338484   0.000000
    30  H    4.184982   2.252366   2.591896   1.628404   0.000000
 Symmetry turned off by external request.
 Stoichiometry    C9H14N4O3
 Framework group  C1[X(C9H14N4O3)]
 Deg. of freedom    84
 Full point group                 C1      NOp   1
 Rotational constants (GHZ):      0.6745708      0.3748381      0.2826775
 Standard basis: 6-31G(d) (6D, 7F)
   268 basis functions,   504 primitive gaussians,   268 cartesian basis functions
    60 alpha electrons       60 beta electrons
       nuclear repulsion energy      1148.3601066720 Hartrees.
 NAtoms=   30 NActive=   30 NUniq=   30 SFac= 1.00D+00 NAtFMM=   60 NAOKFM=F Big=F
 Integral buffers will be    131072 words long.
 Raffenetti 2 integral format.
 Two-electron integral symmetry is turned off.
 Nuclear repulsion after empirical dispersion term =     1148.3041973030 Hartrees.
 One-electron integrals computed using PRISM.
 NBasis=   268 RedAO= T EigKep=  1.12D-03  NBF=   268
 NBsUse=   268 1.00D-06 EigRej= -1.00D+00 NBFU=   268
 ExpMin= 1.61D-01 ExpMax= 5.48D+03 ExpMxC= 8.25D+02 IAcc=3 IRadAn=         5 AccDes= 0.00D+00
 Harris functional with IExCor=  402 and IRadAn=       5 diagonalized for initial guess.
 HarFok:  IExCor=  402 AccDes= 0.00D+00 IRadAn=         5 IDoV= 1 UseB2=F ITyADJ=14
 ICtDFT=  3500011 ScaDFX=  1.000000  1.000000  1.000000  1.000000
 FoFCou: FMM=F IPFlag=           0 FMFlag=      100000 FMFlg1=           0
         NFxFlg=           0 DoJE=T BraDBF=F KetDBF=T FulRan=T
         wScrn=  0.000000 ICntrl=     500 IOpCl=  0 I1Cent=   200000004 NGrid=           0
         NMat0=    1 NMatS0=      1 NMatT0=    0 NMatD0=    1 NMtDS0=    0 NMtDT0=    0
 Symmetry not used in FoFCou.
 Requested convergence on RMS density matrix=1.00D-08 within 128 cycles.
 Requested convergence on MAX density matrix=1.00D-06.
 Requested convergence on             energy=1.00D-06.
 No special actions if energy rises.
 Integral accuracy reduced to 1.0D-05 until final iterations.
 Initial convergence to 1.0D-05 achieved.  Increase integral accuracy.
 SCF Done:  E(RB3LYP) =  -796.144175804     A.U. after   14 cycles
            NFock= 14  Conv=0.70D-08     -V/T= 2.0088
 DoSCS=F DFT=T ScalE2(SS,OS)=  1.000000  1.000000
 Range of M.O.s used for correlation:     1   268
 NBasis=   268 NAE=    60 NBE=    60 NFC=     0 NFV=     0
 NROrb=    268 NOA=    60 NOB=    60 NVA=   208 NVB=   208
 Symmetrizing basis deriv contribution to polar:
 IMax=3 JMax=2 DiffMx= 0.00D+00
 G2DrvN: will do    31 centers at a time, making    1 passes.
 Calling FoFCou, ICntrl=  3107 FMM=F I1Cent=   0 AccDes= 0.00D+00.
 End of G2Drv F.D. properties file   721 does not exist.
 End of G2Drv F.D. properties file   722 does not exist.
 End of G2Drv F.D. properties file   788 does not exist.
          IDoAtm=111111111111111111111111111111
          Differentiating once with respect to nuclear coordinates.
          There are    93 degrees of freedom in the 1st order CPHF.  IDoFFX=6 NUNeed=     0.
     87 vectors produced by pass  0 Test12= 1.34D-14 1.08D-09 XBig12= 1.95D-01 9.76D-02.
 AX will form    87 AO Fock derivatives at one time.
     87 vectors produced by pass  1 Test12= 1.34D-14 1.08D-09 XBig12= 4.26D-02 4.78D-02.
     87 vectors produced by pass  2 Test12= 1.34D-14 1.08D-09 XBig12= 2.78D-04 2.11D-03.
     87 vectors produced by pass  3 Test12= 1.34D-14 1.08D-09 XBig12= 1.09D-06 1.09D-04.
     87 vectors produced by pass  4 Test12= 1.34D-14 1.08D-09 XBig12= 1.35D-09 4.84D-06.
     68 vectors produced by pass  5 Test12= 1.34D-14 1.08D-09 XBig12= 1.22D-12 1.51D-07.
      9 vectors produced by pass  6 Test12= 1.34D-14 1.08D-09 XBig12= 1.07D-15 2.52D-09.
 InvSVY:  IOpt=1 It=  1 EMax= 3.33D-16
 Solved reduced A of dimension   512 with    93 vectors.
 End of Minotr F.D. properties file   721 does not exist.
 End of Minotr F.D. properties file   722 does not exist.
 End of Minotr F.D. properties file   788 does not exist.

 **********************************************************************

            Population analysis using the SCF density.

 **********************************************************************

 Alpha  occ. eigenvalues --  -19.21535 -19.15989 -19.12218 -14.36180 -14.35581
 Alpha  occ. eigenvalues --  -14.34335 -14.28721 -10.33769 -10.29266 -10.24988
 Alpha  occ. eigenvalues --  -10.23422 -10.21223 -10.20620 -10.20211 -10.20085
 Alpha  occ. eigenvalues --  -10.17194  -1.12990  -1.04572  -1.03776  -0.99361
 Alpha  occ. eigenvalues --   -0.93760  -0.90739  -0.84708  -0.80815  -0.76889
 Alpha  occ. eigenvalues --   -0.73555  -0.67152  -0.65450  -0.62075  -0.59487
 Alpha  occ. eigenvalues --   -0.58255  -0.56899  -0.54362  -0.52424  -0.51388
 Alpha  occ. eigenvalues --   -0.50664  -0.48985  -0.47655  -0.47278  -0.46569
 Alpha  occ. eigenvalues --   -0.44992  -0.43702  -0.42642  -0.41960  -0.40659
 Alpha  occ. eigenvalues --   -0.40113  -0.39548  -0.38750  -0.38526  -0.38147
 Alpha  occ. eigenvalues --   -0.37595  -0.35588  -0.33865  -0.29818  -0.27092
 Alpha  occ. eigenvalues --   -0.26911  -0.25731  -0.25569  -0.24272  -0.20275
 Alpha virt. eigenvalues --   -0.00745   0.01350   0.05428   0.06245   0.06474
 Alpha virt. eigenvalues --    0.08440   0.10824   0.11424   0.11845   0.13319
 Alpha virt. eigenvalues --    0.14057   0.14664   0.15163   0.16768   0.17085
 Alpha virt. eigenvalues --    0.18125   0.18248   0.20014   0.20208   0.21056
 Alpha virt. eigenvalues --    0.22019   0.22429   0.23637   0.24116   0.26168
 Alpha virt. eigenvalues --    0.29651   0.31454   0.31556   0.35047   0.35529
 Alpha virt. eigenvalues --    0.37058   0.39662   0.41607   0.46332   0.49598
 Alpha virt. eigenvalues --    0.51618   0.52036   0.53546   0.53890   0.54669
 Alpha virt. eigenvalues --    0.55468   0.56943   0.57420   0.58033   0.59433
 Alpha virt. eigenvalues --    0.61599   0.62694   0.63669   0.64046   0.64824
 Alpha virt. eigenvalues --    0.65303   0.66238   0.67077   0.68953   0.69420
 Alpha virt. eigenvalues --    0.71305   0.72687   0.73634   0.75216   0.76043
 Alpha virt. eigenvalues --    0.77524   0.78006   0.80389   0.81120   0.81757
 Alpha virt. eigenvalues --    0.83133   0.83666   0.84529   0.85116   0.85690
 Alpha virt. eigenvalues --    0.86084   0.87102   0.88528   0.88568   0.89052
 Alpha virt. eigenvalues --    0.90968   0.91352   0.91814   0.92662   0.93742
 Alpha virt. eigenvalues --    0.94164   0.95189   0.96074   0.96910   1.00069
 Alpha virt. eigenvalues --    1.01191   1.02640   1.04987   1.05758   1.05906
 Alpha virt. eigenvalues --    1.06886   1.08042   1.10372   1.14482   1.14930
 Alpha virt. eigenvalues --    1.18758   1.21972   1.25183   1.25996   1.28289
 Alpha virt. eigenvalues --    1.32631   1.33598   1.35989   1.36736   1.37698
 Alpha virt. eigenvalues --    1.38445   1.39942   1.40739   1.43859   1.45219
 Alpha virt. eigenvalues --    1.49159   1.50236   1.53232   1.54273   1.57571
 Alpha virt. eigenvalues --    1.58860   1.58930   1.62994   1.65020   1.66197
 Alpha virt. eigenvalues --    1.67602   1.69614   1.72857   1.75305   1.77458
 Alpha virt. eigenvalues --    1.78454   1.79150   1.79625   1.81402   1.82241
 Alpha virt. eigenvalues --    1.83314   1.85734   1.87232   1.88066   1.88901
 Alpha virt. eigenvalues --    1.91595   1.93566   1.95467   1.96227   1.98915
 Alpha virt. eigenvalues --    1.99772   1.99838   2.02362   2.04346   2.06011
 Alpha virt. eigenvalues --    2.08958   2.11316   2.13586   2.14402   2.17476
 Alpha virt. eigenvalues --    2.17603   2.19732   2.21027   2.22188   2.25198
 Alpha virt. eigenvalues --    2.25862   2.28988   2.31579   2.32032   2.34394
 Alpha virt. eigenvalues --    2.36225   2.38884   2.42569   2.42787   2.43706
 Alpha virt. eigenvalues --    2.46834   2.49407   2.49731   2.51693   2.54347
 Alpha virt. eigenvalues --    2.54505   2.59717   2.61271   2.61988   2.63149
 Alpha virt. eigenvalues --    2.64525   2.66429   2.69070   2.72730   2.76192
 Alpha virt. eigenvalues --    2.77331   2.79676   2.84526   2.89501   2.92603
 Alpha virt. eigenvalues --    2.97436   3.02199   3.03468   3.07669   3.11631
 Alpha virt. eigenvalues --    3.14870   3.20109   3.82879   3.85400   3.95662
 Alpha virt. eigenvalues --    4.03556   4.07786   4.11815   4.13796   4.18895
 Alpha virt. eigenvalues --    4.25127   4.27708   4.32624   4.34124   4.39849
 Alpha virt. eigenvalues --    4.50430   4.57673   4.69716
          Condensed to atoms (all electrons):
               1          2          3          4          5          6
     1  O    8.126900   0.531893  -0.108720  -0.004801   0.000491  -0.000001
     2  C    0.531893   4.341756   0.301332  -0.026467   0.003268   0.000019
     3  N   -0.108720   0.301332   7.194479   0.244726  -0.044615   0.002440
     4  C   -0.004801  -0.026467   0.244726   5.175930   0.293675  -0.100514
     5  C    0.000491   0.003268  -0.044615   0.293675   4.371287   0.278027
     6  O   -0.000001   0.000019   0.002440  -0.100514   0.278027   8.234764
     7  O   -0.000003   0.001063  -0.005461  -0.082824   0.591677  -0.087294
     8  C    0.000407   0.000570  -0.056827   0.320161  -0.039141   0.002180
     9  C   -0.001061   0.000044   0.000611  -0.021604   0.001054   0.000040
    10  C   -0.000004  -0.000066  -0.000151   0.002735  -0.000133  -0.000002
    11  N   -0.000005  -0.000007   0.000004  -0.000137   0.000002   0.000000
    12  C    0.000090   0.000107   0.000014   0.000031   0.000007   0.000000
    13  N   -0.021225   0.003225   0.002437  -0.004088   0.000225   0.000001
    14  C   -0.070904   0.353459  -0.121300   0.007349  -0.000179   0.000000
    15  C    0.001196  -0.020651   0.009467  -0.000819   0.000100   0.000000
    16  N   -0.000055  -0.006416  -0.039506   0.002136  -0.000150  -0.000001
    17  H    0.002495  -0.008513   0.247428  -0.025447  -0.002076   0.000256
    18  H    0.020230  -0.000927  -0.053848   0.356552  -0.021065   0.002641
    19  H    0.000000  -0.000003  -0.000283   0.010954  -0.006200   0.218681
    20  H   -0.000017  -0.000085  -0.004056  -0.030458  -0.002884  -0.000001
    21  H   -0.000010   0.000012   0.004699  -0.036609  -0.002022   0.006548
    22  H    0.000000   0.000001  -0.000007   0.000019   0.000002   0.000000
    23  H   -0.000008   0.000007  -0.000001  -0.000006   0.000000   0.000000
    24  H    0.061675  -0.001699  -0.010364   0.002549  -0.000101   0.000003
    25  H    0.000437  -0.025792   0.000680  -0.000114  -0.000002   0.000000
    26  H    0.005223  -0.024561   0.005288  -0.000124   0.000002   0.000000
    27  H    0.000308  -0.003750   0.001359  -0.000311   0.000229   0.000001
    28  H   -0.000081   0.003665  -0.000163   0.000019  -0.000002   0.000000
    29  H    0.000002   0.000028   0.000792  -0.000052   0.000009   0.000000
    30  H    0.000002   0.000139   0.000702  -0.000108   0.000034   0.000001
               7          8          9         10         11         12
     1  O   -0.000003   0.000407  -0.001061  -0.000004  -0.000005   0.000090
     2  C    0.001063   0.000570   0.000044  -0.000066  -0.000007   0.000107
     3  N   -0.005461  -0.056827   0.000611  -0.000151   0.000004   0.000014
     4  C   -0.082824   0.320161  -0.021604   0.002735  -0.000137   0.000031
     5  C    0.591677  -0.039141   0.001054  -0.000133   0.000002   0.000007
     6  O   -0.087294   0.002180   0.000040  -0.000002   0.000000   0.000000
     7  O    8.021995  -0.002501  -0.000076   0.000000   0.000000   0.000000
     8  C   -0.002501   5.227298   0.343026  -0.064667   0.006824   0.006825
     9  C   -0.000076   0.343026   4.680422   0.567906  -0.039487  -0.090832
    10  C    0.000000  -0.064667   0.567906   4.971260   0.424987  -0.126979
    11  N    0.000000   0.006824  -0.039487   0.424987   6.670280   0.538928
    12  C    0.000000   0.006825  -0.090832  -0.126979   0.538928   4.736515
    13  N   -0.000001  -0.071327   0.380197  -0.067472  -0.087094   0.369209
    14  C   -0.000101  -0.000370  -0.000022   0.000000   0.000000  -0.000002
    15  C   -0.000202   0.000029   0.000001   0.000000   0.000000   0.000000
    16  N   -0.000565  -0.000022   0.000002   0.000000   0.000000   0.000000
    17  H    0.013793  -0.000184  -0.000163   0.000003   0.000000   0.000004
    18  H    0.001831  -0.039498  -0.005671   0.000039  -0.000017  -0.000036
    19  H    0.010833  -0.000293   0.000014   0.000000   0.000000   0.000000
    20  H    0.001239   0.357337  -0.034449  -0.002574   0.000044   0.000057
    21  H    0.000138   0.360315  -0.033477  -0.002815   0.000034   0.000139
    22  H    0.000000  -0.001362  -0.062115   0.382208  -0.044307   0.007855
    23  H    0.000000  -0.000198   0.003033   0.007766  -0.040578   0.381822
    24  H   -0.000001  -0.003597  -0.024555   0.007976   0.003861  -0.019955
    25  H    0.000001   0.000023   0.000006   0.000000   0.000000   0.000000
    26  H    0.000000   0.000000   0.000000   0.000000   0.000000   0.000000
    27  H    0.000632   0.000007   0.000000   0.000000   0.000000   0.000000
    28  H    0.000000   0.000000   0.000000   0.000000   0.000000   0.000000
    29  H    0.000036   0.000002   0.000000   0.000000   0.000000   0.000000
    30  H    0.001562   0.000000   0.000000   0.000000   0.000000   0.000000
              13         14         15         16         17         18
     1  O   -0.021225  -0.070904   0.001196  -0.000055   0.002495   0.020230
     2  C    0.003225   0.353459  -0.020651  -0.006416  -0.008513  -0.000927
     3  N    0.002437  -0.121300   0.009467  -0.039506   0.247428  -0.053848
     4  C   -0.004088   0.007349  -0.000819   0.002136  -0.025447   0.356552
     5  C    0.000225  -0.000179   0.000100  -0.000150  -0.002076  -0.021065
     6  O    0.000001   0.000000   0.000000  -0.000001   0.000256   0.002641
     7  O   -0.000001  -0.000101  -0.000202  -0.000565   0.013793   0.001831
     8  C   -0.071327  -0.000370   0.000029  -0.000022  -0.000184  -0.039498
     9  C    0.380197  -0.000022   0.000001   0.000002  -0.000163  -0.005671
    10  C   -0.067472   0.000000   0.000000   0.000000   0.000003   0.000039
    11  N   -0.087094   0.000000   0.000000   0.000000   0.000000  -0.000017
    12  C    0.369209  -0.000002   0.000000   0.000000   0.000004  -0.000036
    13  N    6.932289  -0.000329   0.000000   0.000000   0.000004   0.001719
    14  C   -0.000329   5.302757   0.319659  -0.058775  -0.006362   0.001319
    15  C    0.000000   0.319659   4.940520   0.279514  -0.009619  -0.000132
    16  N    0.000000  -0.058775   0.279514   6.965603   0.059532  -0.000052
    17  H    0.000004  -0.006362  -0.009619   0.059532   0.327782   0.003976
    18  H    0.001719   0.001319  -0.000132  -0.000052   0.003976   0.528206
    19  H    0.000000   0.000000   0.000000   0.000000  -0.000030  -0.000388
    20  H    0.001885   0.000004  -0.000002  -0.000031   0.001871   0.005585
    21  H    0.001050   0.000006   0.000000   0.000000  -0.000093  -0.002376
    22  H    0.004961   0.000000   0.000000   0.000000   0.000000   0.000000
    23  H   -0.058335   0.000000   0.000000   0.000000   0.000000   0.000003
    24  H    0.243721   0.001389   0.000005  -0.000001   0.000019   0.000875
    25  H    0.000098   0.357013  -0.036553  -0.003458  -0.000093  -0.000022
    26  H    0.000003   0.345539  -0.025196   0.003883   0.000227  -0.000018
    27  H    0.000000  -0.044865   0.386138  -0.037469  -0.000361  -0.000031
    28  H    0.000000  -0.045730   0.379172  -0.040729   0.000944   0.000000
    29  H    0.000000  -0.001039  -0.029746   0.309896  -0.000786   0.000000
    30  H    0.000000   0.005421  -0.027939   0.312798  -0.001639   0.000001
              19         20         21         22         23         24
     1  O    0.000000  -0.000017  -0.000010   0.000000  -0.000008   0.061675
     2  C   -0.000003  -0.000085   0.000012   0.000001   0.000007  -0.001699
     3  N   -0.000283  -0.004056   0.004699  -0.000007  -0.000001  -0.010364
     4  C    0.010954  -0.030458  -0.036609   0.000019  -0.000006   0.002549
     5  C   -0.006200  -0.002884  -0.002022   0.000002   0.000000  -0.000101
     6  O    0.218681  -0.000001   0.006548   0.000000   0.000000   0.000003
     7  O    0.010833   0.001239   0.000138   0.000000   0.000000  -0.000001
     8  C   -0.000293   0.357337   0.360315  -0.001362  -0.000198  -0.003597
     9  C    0.000014  -0.034449  -0.033477  -0.062115   0.003033  -0.024555
    10  C    0.000000  -0.002574  -0.002815   0.382208   0.007766   0.007976
    11  N    0.000000   0.000044   0.000034  -0.044307  -0.040578   0.003861
    12  C    0.000000   0.000057   0.000139   0.007855   0.381822  -0.019955
    13  N    0.000000   0.001885   0.001050   0.004961  -0.058335   0.243721
    14  C    0.000000   0.000004   0.000006   0.000000   0.000000   0.001389
    15  C    0.000000  -0.000002   0.000000   0.000000   0.000000   0.000005
    16  N    0.000000  -0.000031   0.000000   0.000000   0.000000  -0.000001
    17  H   -0.000030   0.001871  -0.000093   0.000000   0.000000   0.000019
    18  H   -0.000388   0.005585  -0.002376   0.000000   0.000003   0.000875
    19  H    0.351187  -0.000091  -0.000046   0.000000   0.000000   0.000000
    20  H   -0.000091   0.577907  -0.036342   0.001009   0.000004  -0.000120
    21  H   -0.000046  -0.036342   0.557765   0.000516   0.000004  -0.000121
    22  H    0.000000   0.001009   0.000516   0.592725  -0.000169  -0.000094
    23  H    0.000000   0.000004   0.000004  -0.000169   0.560216   0.000547
    24  H    0.000000  -0.000120  -0.000121  -0.000094   0.000547   0.364697
    25  H    0.000000  -0.000001   0.000000   0.000000   0.000000  -0.000237
    26  H    0.000000   0.000000   0.000000   0.000000   0.000000  -0.000023
    27  H    0.000000   0.000000   0.000000   0.000000   0.000000  -0.000003
    28  H    0.000000   0.000000   0.000000   0.000000   0.000000   0.000001
    29  H    0.000000   0.000001   0.000000   0.000000   0.000000   0.000000
    30  H    0.000000   0.000001   0.000000   0.000000   0.000000   0.000000
              25         26         27         28         29         30
     1  O    0.000437   0.005223   0.000308  -0.000081   0.000002   0.000002
     2  C   -0.025792  -0.024561  -0.003750   0.003665   0.000028   0.000139
     3  N    0.000680   0.005288   0.001359  -0.000163   0.000792   0.000702
     4  C   -0.000114  -0.000124  -0.000311   0.000019  -0.000052  -0.000108
     5  C   -0.000002   0.000002   0.000229  -0.000002   0.000009   0.000034
     6  O    0.000000   0.000000   0.000001   0.000000   0.000000   0.000001
     7  O    0.000001   0.000000   0.000632   0.000000   0.000036   0.001562
     8  C    0.000023   0.000000   0.000007   0.000000   0.000002   0.000000
     9  C    0.000006   0.000000   0.000000   0.000000   0.000000   0.000000
    10  C    0.000000   0.000000   0.000000   0.000000   0.000000   0.000000
    11  N    0.000000   0.000000   0.000000   0.000000   0.000000   0.000000
    12  C    0.000000   0.000000   0.000000   0.000000   0.000000   0.000000
    13  N    0.000098   0.000003   0.000000   0.000000   0.000000   0.000000
    14  C    0.357013   0.345539  -0.044865  -0.045730  -0.001039   0.005421
    15  C   -0.036553  -0.025196   0.386138   0.379172  -0.029746  -0.027939
    16  N   -0.003458   0.003883  -0.037469  -0.040729   0.309896   0.312798
    17  H   -0.000093   0.000227  -0.000361   0.000944  -0.000786  -0.001639
    18  H   -0.000022  -0.000018  -0.000031   0.000000   0.000000   0.000001
    19  H    0.000000   0.000000   0.000000   0.000000   0.000000   0.000000
    20  H   -0.000001   0.000000   0.000000   0.000000   0.000001   0.000001
    21  H    0.000000   0.000000   0.000000   0.000000   0.000000   0.000000
    22  H    0.000000   0.000000   0.000000   0.000000   0.000000   0.000000
    23  H    0.000000   0.000000   0.000000   0.000000   0.000000   0.000000
    24  H   -0.000237  -0.000023  -0.000003   0.000001   0.000000   0.000000
    25  H    0.556089  -0.023108   0.005418  -0.003264   0.003064  -0.000029
    26  H   -0.023108   0.541154  -0.000581  -0.001539  -0.000186  -0.000172
    27  H    0.005418  -0.000581   0.566527  -0.037199   0.005711  -0.006984
    28  H   -0.003264  -0.001539  -0.037199   0.606953  -0.007325   0.000418
    29  H    0.003064  -0.000186   0.005711  -0.007325   0.434105  -0.029106
    30  H   -0.000029  -0.000172  -0.006984   0.000418  -0.029106   0.416592
 Mulliken charges:
               1
     1  O   -0.544457
     2  C    0.578348
     3  N   -0.571157
     4  C   -0.082352
     5  C    0.578482
     6  O   -0.557790
     7  O   -0.465772
     8  C   -0.345018
     9  C    0.337156
    10  C   -0.100015
    11  N   -0.433330
    12  C    0.196202
    13  N   -0.631153
    14  C   -0.343936
    15  C   -0.164941
    16  N   -0.746135
    17  H    0.397032
    18  H    0.201102
    19  H    0.415666
    20  H    0.164169
    21  H    0.182686
    22  H    0.118757
    23  H    0.145891
    24  H    0.373553
    25  H    0.169846
    26  H    0.174188
    27  H    0.165224
    28  H    0.144858
    29  H    0.314595
    30  H    0.328304
 Sum of Mulliken charges =   0.00000
 Mulliken charges with hydrogens summed into heavy atoms:
               1
     1  O   -0.544457
     2  C    0.578348
     3  N   -0.174126
     4  C    0.118750
     5  C    0.578482
     6  O   -0.142124
     7  O   -0.465772
     8  C    0.001837
     9  C    0.337156
    10  C    0.018742
    11  N   -0.433330
    12  C    0.342093
    13  N   -0.257600
    14  C    0.000097
    15  C    0.145140
    16  N   -0.103235
 APT charges:
               1
     1  O   -0.205032
     2  C    0.002721
     3  N   -0.510204
     4  C   -0.463432
     5  C   -0.197713
     6  O   -0.693865
     7  O    0.009437
     8  C   -0.963187
     9  C   -0.503992
    10  C   -0.302429
    11  N    0.385405
    12  C   -0.566649
    13  N   -0.659818
    14  C   -0.765041
    15  C   -1.033652
    16  N   -1.492904
    17  H    0.509759
    18  H    0.402711
    19  H    0.963724
    20  H    0.374655
    21  H    0.575598
    22  H    0.700000
    23  H    0.699298
    24  H    0.260898
    25  H    0.371206
    26  H    0.581937
    27  H    0.354659
    28  H    0.721877
    29  H    0.735952
    30  H    0.708079
 Sum of APT charges =   0.00000
 APT charges with hydrogens summed into heavy atoms:
               1
     1  O   -0.205032
     2  C    0.002721
     3  N   -0.000446
     4  C   -0.060721
     5  C   -0.197713
     6  O    0.269859
     7  O    0.009437
     8  C   -0.012933
     9  C   -0.503992
    10  C    0.397571
    11  N    0.385405
    12  C    0.132649
    13  N   -0.398919
    14  C    0.188102
    15  C    0.042884
    16  N   -0.048873
 Electronic spatial extent (au):  <R**2>=           4034.2550
 Charge=              0.0000 electrons
 Dipole moment (field-independent basis, Debye):
    X=              4.2434    Y=              5.8081    Z=              0.4606  Tot=              7.2078
 Quadrupole moment (field-independent basis, Debye-Ang):
   XX=            -83.5013   YY=           -106.6568   ZZ=            -90.7095
   XY=             -8.7881   XZ=             -5.1807   YZ=              7.1419
 Traceless Quadrupole moment (field-independent basis, Debye-Ang):
   XX=             10.1212   YY=            -13.0342   ZZ=              2.9130
   XY=             -8.7881   XZ=             -5.1807   YZ=              7.1419
 Octapole moment (field-independent basis, Debye-Ang**2):
  XXX=            155.1371  YYY=            170.7392  ZZZ=              6.5398  XYY=             61.3218
  XXY=             59.8282  XXZ=            -10.6990  XZZ=             26.4283  YZZ=             15.2013
  YYZ=            -23.8611  XYZ=            -24.7815
 Hexadecapole moment (field-independent basis, Debye-Ang**3):
 XXXX=          -1607.5227 YYYY=          -2760.4569 ZZZZ=          -1039.4763 XXXY=           -511.2790
 XXXZ=            344.7099 YYYX=           -764.3218 YYYZ=            173.2710 ZZZX=            276.5282
 ZZZY=             11.6356 XXYY=           -721.4369 XXZZ=           -431.5751 YYZZ=           -504.1432
 XXYZ=             49.1962 YYXZ=            113.5358 ZZXY=           -172.9159
 N-N= 1.148304197303D+03 E-N=-4.153942646336D+03  KE= 7.892267191025D+02
  Exact polarizability:   0.000   0.000   0.000   0.000   0.000   0.000
 Approx polarizability: 157.549  17.762 179.384   2.038  10.344 193.078
 Calling FoFJK, ICntrl=    100147 FMM=F ISym2X=0 I1Cent= 0 IOpClX= 0 NMat=1 NMatS=1 NMatT=0.
 -------------------------------------------------------------------
 Center     Atomic                   Forces (Hartrees/Bohr)
 Number     Number              X              Y              Z
 -------------------------------------------------------------------
      1        8          -0.009707502   -0.003261266   -0.008329674
      2        6           0.008094962   -0.004885552   -0.003339672
      3        7          -0.003405903    0.003170187    0.005687859
      4        6           0.001499415   -0.002097910    0.001031721
      5        6          -0.003257766   -0.000369992   -0.001738577
      6        8          -0.003888257   -0.007010711   -0.003893782
      7        8           0.007896888    0.005519477    0.001574131
      8        6          -0.006372906   -0.007625908    0.001345565
      9        6           0.003436392    0.011384449    0.002923220
     10        6          -0.001632298   -0.011894386    0.004320841
     11        7          -0.001651421   -0.004388618    0.007123808
     12        6          -0.000401029   -0.003729824   -0.004456042
     13        7           0.001059665    0.006530007   -0.005170123
     14        6          -0.001320602   -0.000254003    0.001733255
     15        6           0.003188735    0.001934751    0.002035112
     16        7          -0.007400008    0.000372347   -0.001760088
     17        1           0.005894742    0.001999650    0.004567506
     18        1          -0.000935404   -0.000142597   -0.001994032
     19        1           0.000155126    0.008970166    0.005469507
     20        1           0.003686472    0.000838311    0.001711146
     21        1          -0.002355433    0.002082964    0.001118080
     22        1           0.000101535    0.000342155    0.001391787
     23        1          -0.000296635   -0.002496107   -0.003403316
     24        1           0.001033556    0.004873116   -0.005465669
     25        1          -0.000498365   -0.002636506   -0.000715207
     26        1           0.000736687   -0.000012538   -0.001708937
     27        1          -0.000692007    0.001961018    0.000979151
     28        1           0.002020626    0.000618682   -0.003049643
     29        1           0.004672807   -0.004218914   -0.000395912
     30        1           0.000337928    0.004427553    0.002407984
 -------------------------------------------------------------------
 Cartesian Forces:  Max     0.011894386 RMS     0.004176420
 FormGI is forming the generalized inverse of G from B-inverse, IUseBI=4.

 GradGradGradGradGradGradGradGradGradGradGradGradGradGradGradGradGradGrad
 Berny optimization.
 Internal  Forces:  Max     0.013172056 RMS     0.003316520
 Search for a local minimum.
 Step number   1 out of a maximum of  160
 All quantities printed in internal units (Hartrees-Bohrs-Radians)
 Mixed Optimization -- RFO/linear search
 Second derivative matrix not updated -- analytic derivatives used.
 ITU=  0
     Eigenvalues ---    0.00040   0.00064   0.00168   0.00324   0.00553
     Eigenvalues ---    0.00586   0.00876   0.00907   0.01185   0.01865
     Eigenvalues ---    0.02041   0.02189   0.02868   0.03024   0.03135
     Eigenvalues ---    0.03852   0.03925   0.04257   0.04429   0.04553
     Eigenvalues ---    0.04702   0.05327   0.05390   0.05715   0.05797
     Eigenvalues ---    0.05965   0.06299   0.06550   0.07933   0.08615
     Eigenvalues ---    0.08630   0.11036   0.11416   0.11777   0.12124
     Eigenvalues ---    0.12890   0.13878   0.14361   0.15216   0.15600
     Eigenvalues ---    0.16510   0.17708   0.18715   0.19349   0.21886
     Eigenvalues ---    0.22120   0.22618   0.23630   0.24371   0.24920
     Eigenvalues ---    0.25674   0.26321   0.27500   0.28627   0.30702
     Eigenvalues ---    0.32490   0.33156   0.33868   0.33962   0.34177
     Eigenvalues ---    0.34812   0.35084   0.35236   0.35362   0.35841
     Eigenvalues ---    0.36460   0.38008   0.38539   0.38996   0.41748
     Eigenvalues ---    0.43202   0.43343   0.44502   0.46674   0.46980
     Eigenvalues ---    0.47758   0.49857   0.52282   0.53254   0.59073
     Eigenvalues ---    0.61121   0.65966   0.83551   0.91945
 RFO step:  Lambda=-4.41016930D-03 EMin= 3.96957240D-04
 Linear search not attempted -- first point.
 Iteration  1 RMS(Cart)=  0.05497618 RMS(Int)=  0.00102682
 Iteration  2 RMS(Cart)=  0.00191361 RMS(Int)=  0.00010236
 Iteration  3 RMS(Cart)=  0.00000255 RMS(Int)=  0.00010235
 Iteration  4 RMS(Cart)=  0.00000000 RMS(Int)=  0.00010235
 Variable       Old X    -DE/DX   Delta X   Delta X   Delta X     New X
                                 (Linear)    (Quad)   (Total)
    R1        2.32301   0.01317   0.00000   0.01638   0.01638   2.33940
    R2        2.54166   0.01261   0.00000   0.01693   0.01693   2.55859
    R3        2.88054   0.00128   0.00000   0.00018   0.00018   2.88072
    R4        2.72801   0.00264   0.00000   0.00520   0.00520   2.73322
    R5        1.92505   0.00765   0.00000   0.01774   0.01774   1.94278
    R6        2.85966   0.00695   0.00000   0.01911   0.01911   2.87877
    R7        2.89625   0.00470   0.00000   0.02450   0.02450   2.92074
    R8        2.06080   0.00208   0.00000   0.00717   0.00717   2.06797
    R9        2.54536   0.00443   0.00000   0.00675   0.00675   2.55211
   R10        2.27973   0.00975   0.00000   0.00902   0.00902   2.28875
   R11        1.82391   0.01044   0.00000   0.01937   0.01937   1.84328
   R12        2.83844   0.00026   0.00000  -0.00087  -0.00087   2.83757
   R13        2.06348   0.00375   0.00000   0.01044   0.01044   2.07392
   R14        2.06392   0.00310   0.00000   0.00838   0.00838   2.07230
   R15        2.57923   0.01262   0.00000   0.02371   0.02370   2.60293
   R16        2.59396   0.00974   0.00000   0.01849   0.01853   2.61250
   R17        2.60857   0.00099   0.00000  -0.00557  -0.00561   2.60296
   R18        2.04211   0.00129   0.00000   0.00362   0.00362   2.04573
   R19        2.47688   0.00944   0.00000   0.01452   0.01450   2.49138
   R20        2.56030   0.01053   0.00000   0.01785   0.01789   2.57819
   R21        2.03374   0.00416   0.00000   0.01001   0.01001   2.04375
   R22        1.91387   0.00738   0.00000   0.01955   0.01955   1.93342
   R23        2.89014   0.00513   0.00000   0.01470   0.01470   2.90484
   R24        2.07040   0.00181   0.00000   0.00593   0.00593   2.07633
   R25        2.06002   0.00165   0.00000   0.00500   0.00500   2.06502
   R26        2.78523  -0.00029   0.00000  -0.00228  -0.00228   2.78295
   R27        2.06426   0.00190   0.00000   0.00515   0.00515   2.06941
   R28        2.06863   0.00340   0.00000   0.01001   0.01001   2.07864
   R29        1.90908   0.00608   0.00000   0.01369   0.01369   1.92277
   R30        1.90944   0.00504   0.00000   0.01095   0.01095   1.92039
    A1        2.14479   0.00097   0.00000   0.00668   0.00663   2.15142
    A2        2.12383  -0.00036   0.00000  -0.00383  -0.00389   2.11994
    A3        2.01362  -0.00059   0.00000  -0.00207  -0.00212   2.01150
    A4        2.12440  -0.00049   0.00000   0.00846   0.00788   2.13227
    A5        2.01454   0.00193   0.00000   0.00636   0.00575   2.02030
    A6        2.06741  -0.00091   0.00000   0.00812   0.00753   2.07494
    A7        1.90212  -0.00095   0.00000  -0.00931  -0.00957   1.89255
    A8        1.97089  -0.00230   0.00000   0.01028   0.01026   1.98114
    A9        1.89240   0.00068   0.00000  -0.00743  -0.00747   1.88494
   A10        1.89454   0.00501   0.00000   0.02235   0.02234   1.91688
   A11        1.89063  -0.00076   0.00000  -0.00616  -0.00617   1.88446
   A12        1.91175  -0.00166   0.00000  -0.01046  -0.01039   1.90135
   A13        1.94806  -0.00013   0.00000  -0.00289  -0.00289   1.94516
   A14        2.18773   0.00026   0.00000   0.00099   0.00098   2.18871
   A15        2.14714  -0.00013   0.00000   0.00202   0.00201   2.14915
   A16        1.85213   0.00208   0.00000   0.00690   0.00690   1.85903
   A17        2.00657  -0.00900   0.00000  -0.01124  -0.01128   1.99529
   A18        1.90652   0.00087   0.00000  -0.01696  -0.01703   1.88949
   A19        1.88539   0.00222   0.00000  -0.00675  -0.00668   1.87871
   A20        1.90803   0.00363   0.00000   0.00479   0.00453   1.91256
   A21        1.90089   0.00353   0.00000   0.02279   0.02275   1.92363
   A22        1.84994  -0.00065   0.00000   0.00912   0.00892   1.85887
   A23        2.27822   0.00283   0.00000   0.00236   0.00231   2.28053
   A24        2.17499  -0.00327   0.00000  -0.00103  -0.00107   2.17392
   A25        1.82955   0.00045   0.00000  -0.00162  -0.00158   1.82797
   A26        1.93605   0.00021   0.00000   0.00340   0.00338   1.93944
   A27        2.23749  -0.00075   0.00000  -0.01025  -0.01025   2.22725
   A28        2.10964   0.00054   0.00000   0.00685   0.00686   2.11650
   A29        1.82748   0.00158   0.00000   0.00184   0.00180   1.82928
   A30        1.95411   0.00049   0.00000   0.00302   0.00307   1.95718
   A31        2.20423  -0.00103   0.00000  -0.00747  -0.00749   2.19673
   A32        2.12484   0.00054   0.00000   0.00444   0.00442   2.12926
   A33        1.87755  -0.00273   0.00000  -0.00665  -0.00669   1.87086
   A34        2.19776   0.00137   0.00000   0.00359   0.00339   2.20115
   A35        2.20533   0.00137   0.00000   0.00098   0.00079   2.20612
   A36        1.98252   0.00141   0.00000   0.01408   0.01404   1.99655
   A37        1.90567  -0.00171   0.00000  -0.01247  -0.01259   1.89308
   A38        1.85657   0.00029   0.00000   0.00345   0.00343   1.86001
   A39        1.89586   0.00138   0.00000   0.01264   0.01267   1.90853
   A40        1.93699  -0.00109   0.00000  -0.00629  -0.00630   1.93069
   A41        1.88364  -0.00043   0.00000  -0.01334  -0.01334   1.87030
   A42        1.94338  -0.00202   0.00000  -0.00812  -0.00813   1.93525
   A43        1.90195   0.00173   0.00000   0.00590   0.00585   1.90780
   A44        1.90843  -0.00053   0.00000  -0.00753  -0.00750   1.90093
   A45        1.88675  -0.00079   0.00000  -0.00904  -0.00904   1.87771
   A46        1.95491   0.00209   0.00000   0.01797   0.01797   1.97288
   A47        1.86605  -0.00039   0.00000   0.00108   0.00111   1.86715
   A48        1.94703  -0.00197   0.00000  -0.01126  -0.01126   1.93577
   A49        1.93380   0.00068   0.00000   0.00369   0.00369   1.93749
   A50        1.87429   0.00093   0.00000   0.00407   0.00408   1.87837
    D1       -0.29404  -0.00008   0.00000   0.04515   0.04521  -0.24883
    D2       -3.01783  -0.00127   0.00000  -0.01594  -0.01592  -3.03376
    D3        2.89336  -0.00037   0.00000   0.02616   0.02615   2.91951
    D4        0.16957  -0.00156   0.00000  -0.03493  -0.03499   0.13458
    D5        2.37374  -0.00062   0.00000   0.02692   0.02701   2.40075
    D6       -1.79069   0.00086   0.00000   0.04360   0.04357  -1.74712
    D7        0.23780  -0.00034   0.00000   0.02360   0.02362   0.26143
    D8       -0.81306  -0.00030   0.00000   0.04597   0.04600  -0.76705
    D9        1.30570   0.00118   0.00000   0.06265   0.06257   1.36826
   D10       -2.94900  -0.00002   0.00000   0.04265   0.04262  -2.90638
   D11       -2.07651  -0.00081   0.00000  -0.07114  -0.07125  -2.14776
   D12        2.09984  -0.00499   0.00000  -0.09964  -0.09966   2.00018
   D13       -0.02200  -0.00187   0.00000  -0.08788  -0.08789  -0.10989
   D14        0.63516   0.00106   0.00000  -0.00866  -0.00868   0.62648
   D15       -1.47168  -0.00312   0.00000  -0.03717  -0.03709  -1.50877
   D16        2.68967   0.00001   0.00000  -0.02540  -0.02532   2.66435
   D17        2.93035   0.00017   0.00000   0.01835   0.01839   2.94874
   D18       -0.23534   0.00025   0.00000   0.02363   0.02367  -0.21167
   D19       -1.19980  -0.00008   0.00000   0.03928   0.03926  -1.16054
   D20        1.91770   0.00000   0.00000   0.04457   0.04454   1.96224
   D21        0.87471   0.00032   0.00000   0.03587   0.03585   0.91056
   D22       -2.29098   0.00040   0.00000   0.04115   0.04113  -2.24985
   D23       -1.13366   0.00119   0.00000   0.01790   0.01793  -1.11573
   D24        1.01835   0.00015   0.00000   0.00276   0.00289   1.02124
   D25        3.02306   0.00102   0.00000   0.00108   0.00117   3.02423
   D26        3.03837   0.00039   0.00000   0.00751   0.00736   3.04574
   D27       -1.09280  -0.00065   0.00000  -0.00763  -0.00767  -1.10047
   D28        0.91191   0.00023   0.00000  -0.00930  -0.00940   0.90252
   D29        0.97721  -0.00065   0.00000   0.00791   0.00786   0.98508
   D30        3.12923  -0.00169   0.00000  -0.00723  -0.00717   3.12206
   D31       -1.14925  -0.00082   0.00000  -0.00891  -0.00890  -1.15814
   D32        3.12223  -0.00031   0.00000  -0.00751  -0.00751   3.11472
   D33        0.00408  -0.00040   0.00000  -0.01263  -0.01264  -0.00855
   D34        3.04546  -0.00099   0.00000  -0.05622  -0.05621   2.98925
   D35       -0.13212  -0.00105   0.00000  -0.06871  -0.06870  -0.20081
   D36        0.89426   0.00154   0.00000  -0.02947  -0.02937   0.86488
   D37       -2.28332   0.00147   0.00000  -0.04195  -0.04186  -2.32518
   D38       -1.11968  -0.00162   0.00000  -0.05551  -0.05561  -1.17529
   D39        1.98593  -0.00168   0.00000  -0.06799  -0.06810   1.91783
   D40        3.11732  -0.00029   0.00000  -0.01265  -0.01266   3.10467
   D41       -0.02334  -0.00011   0.00000  -0.00976  -0.00977  -0.03311
   D42        0.00636  -0.00016   0.00000  -0.00202  -0.00202   0.00434
   D43       -3.13430   0.00002   0.00000   0.00088   0.00087  -3.13343
   D44       -3.12099   0.00006   0.00000   0.00893   0.00890  -3.11209
   D45        0.09353  -0.00013   0.00000   0.03872   0.03872   0.13225
   D46       -0.00768   0.00007   0.00000  -0.00082  -0.00082  -0.00850
   D47       -3.07635  -0.00012   0.00000   0.02898   0.02900  -3.04735
   D48       -0.00248   0.00020   0.00000   0.00416   0.00415   0.00168
   D49        3.13826   0.00004   0.00000   0.00150   0.00147   3.13973
   D50       -0.00263  -0.00016   0.00000  -0.00474  -0.00475  -0.00738
   D51        3.13737  -0.00002   0.00000  -0.00723  -0.00722   3.13014
   D52        0.00669   0.00006   0.00000   0.00365   0.00363   0.01032
   D53        3.07495   0.00025   0.00000  -0.02618  -0.02616   3.04879
   D54       -3.13339  -0.00007   0.00000   0.00602   0.00600  -3.12738
   D55       -0.06513   0.00012   0.00000  -0.02381  -0.02379  -0.08891
   D56        1.20284  -0.00099   0.00000  -0.01148  -0.01144   1.19140
   D57       -0.87679   0.00012   0.00000   0.00089   0.00094  -0.87584
   D58       -2.91078  -0.00009   0.00000   0.00048   0.00054  -2.91024
   D59       -0.92139  -0.00073   0.00000  -0.01404  -0.01410  -0.93549
   D60       -3.00101   0.00038   0.00000  -0.00167  -0.00172  -3.00273
   D61        1.24818   0.00017   0.00000  -0.00207  -0.00212   1.24606
   D62       -2.98951  -0.00042   0.00000  -0.00182  -0.00184  -2.99134
   D63        1.21405   0.00069   0.00000   0.01054   0.01055   1.22460
   D64       -0.81994   0.00048   0.00000   0.01014   0.01015  -0.80979
   D65        1.50386  -0.00076   0.00000  -0.05972  -0.05976   1.44410
   D66       -2.69209  -0.00043   0.00000  -0.05956  -0.05961  -2.75169
   D67       -2.69066  -0.00035   0.00000  -0.06309  -0.06306  -2.75371
   D68       -0.60342  -0.00002   0.00000  -0.06293  -0.06290  -0.66632
   D69       -0.63925  -0.00011   0.00000  -0.05702  -0.05700  -0.69625
   D70        1.44799   0.00022   0.00000  -0.05686  -0.05685   1.39114
         Item               Value     Threshold  Converged?
 Maximum Force            0.013172     0.000450     NO 
 RMS     Force            0.003317     0.000300     NO 
 Maximum Displacement     0.215098     0.001800     NO 
 RMS     Displacement     0.054870     0.001200     NO 
 Predicted change in Energy=-2.430237D-03
 GradGradGradGradGradGradGradGradGradGradGradGradGradGradGradGradGradGrad

                          Input orientation:                          
 ---------------------------------------------------------------------
 Center     Atomic      Atomic             Coordinates (Angstroms)
 Number     Number       Type             X           Y           Z
 ---------------------------------------------------------------------
      1          8           0       -0.483115   -0.075046   -2.145247
      2          6           0        0.462577    0.230171   -1.406977
      3          7           0        0.322757    0.470710   -0.081927
      4          6           0       -0.970086    0.687728    0.529142
      5          6           0       -0.950914    2.040411    1.229545
      6          8           0       -2.190011    2.414619    1.614907
      7          8           0        0.038291    2.705466    1.444174
      8          6           0       -1.370743   -0.416919    1.533174
      9          6           0       -1.548011   -1.775806    0.919386
     10          6           0       -1.739525   -3.007434    1.505623
     11          7           0       -1.901949   -3.990144    0.554201
     12          6           0       -1.807655   -3.360415   -0.600219
     13          7           0       -1.602057   -2.021221   -0.440058
     14          6           0        1.888318    0.324731   -1.938157
     15          6           0        2.679896    1.536180   -1.419792
     16          7           0        2.960624    1.402860    0.019716
     17          1           0        1.163940    0.810677    0.401576
     18          1           0       -1.718096    0.731054   -0.268446
     19          1           0       -2.091374    3.270058    2.073105
     20          1           0       -0.603516   -0.464371    2.316472
     21          1           0       -2.298235   -0.099058    2.024384
     22          1           0       -1.772273   -3.238023    2.562826
     23          1           0       -1.875899   -3.816785   -1.578340
     24          1           0       -1.422088   -1.341426   -1.183206
     25          1           0        2.420737   -0.598890   -1.672259
     26          1           0        1.813711    0.351509   -3.028038
     27          1           0        2.083696    2.444300   -1.557889
     28          1           0        3.589708    1.653831   -2.026701
     29          1           0        3.780585    0.821443    0.177493
     30          1           0        3.140802    2.309780    0.441318
 ---------------------------------------------------------------------
                    Distance matrix (angstroms):
                    1          2          3          4          5
     1  O    0.000000
     2  C    1.237956   0.000000
     3  N    2.281353   1.353945   0.000000
     4  C    2.823352   2.451620   1.446355   0.000000
     5  C    4.010388   3.496595   2.409596   1.523379   0.000000
     6  O    4.821896   4.576005   3.601671   2.376817   1.350518
     7  O    4.570236   3.799496   2.721036   2.434209   1.211153
     8  C    3.799414   3.524809   2.502874   1.545591   2.511357
     9  C    3.663135   3.671290   3.090183   2.560329   3.875078
    10  C    4.848332   4.880019   4.344054   3.898689   5.116529
    11  N    4.962671   5.219986   5.025255   4.769851   6.142324
    12  C    3.864604   4.324016   4.414159   4.285375   5.766364
    13  N    2.819095   3.204124   3.169051   2.945698   4.439416
    14  C    2.413794   1.524411   2.432670   3.793389   4.586843
    15  C    3.623117   2.573388   2.912253   4.223812   4.522833
    16  N    4.327887   3.106588   2.799567   4.027581   4.143704
    17  H    3.159684   2.024787   1.028077   2.141368   2.582708
    18  H    2.386913   2.510473   2.065829   1.094323   2.132360
    19  H    5.618782   5.279636   4.278848   3.210847   1.877306
    20  H    4.480291   3.934847   2.735813   2.157836   2.752459
    21  H    4.547644   4.416415   3.410393   2.149131   2.650352
    22  H    5.816554   5.725579   5.013837   4.493428   5.505827
    23  H    4.032598   4.677146   5.045390   5.054960   6.560988
    24  H    1.846866   2.464134   2.746113   2.693308   4.180932
    25  H    2.988392   2.142920   2.841606   4.242550   5.172466
    26  H    2.497334   2.113793   3.304047   4.529470   5.350005
    27  H    3.644257   2.748302   3.028932   4.094731   4.140262
    28  H    4.426167   3.491391   3.981820   5.315770   5.600877
    29  H    4.937404   3.724154   3.485239   4.765544   4.997978
    30  H    5.050791   3.861846   3.405487   4.420200   4.175644
                    6          7          8          9         10
     6  O    0.000000
     7  O    2.253680   0.000000
     8  C    2.948811   3.426745   0.000000
     9  C    4.295995   4.782630   1.501577   0.000000
    10  C    5.441833   5.983447   2.616779   1.377411   0.000000
    11  N    6.498389   7.027643   3.742794   2.271987   1.377426
    12  C    6.197096   6.661979   3.661479   2.210792   2.136308
    13  N    4.923946   5.346274   2.553613   1.382475   2.185678
    14  C    5.798678   4.531077   4.818886   4.938234   6.010340
    15  C    5.804917   4.067875   5.379803   5.858003   6.980957
    16  N    5.486104   3.502269   4.935878   5.589374   6.614379
    17  H    3.910728   2.438098   3.035148   3.783212   4.922093
    18  H    2.569847   3.149011   2.164332   2.779248   4.138125
    19  H    0.975424   2.291243   3.795344   5.204523   6.312903
    20  H    3.361212   3.349730   1.097472   2.136301   2.900890
    21  H    2.549108   3.696127   1.096615   2.143675   3.006647
    22  H    5.746774   6.313049   3.029858   2.211169   1.082553
    23  H    7.008987   7.439051   4.636356   3.242182   3.191313
    24  H    4.746263   5.041147   2.869856   2.150682   3.179017
    25  H    6.414491   5.129032   4.968223   4.883924   5.762621
    26  H    6.468629   5.356670   5.615682   5.604355   6.667988
    27  H    5.322789   3.642014   5.447420   6.093888   7.329633
    28  H    6.873519   5.075970   6.447231   6.843829   7.912359
    29  H    6.344477   4.377075   5.468784   5.974114   6.848054
    30  H    5.459476   3.284488   5.383407   6.237429   7.295417
                   11         12         13         14         15
    11  N    0.000000
    12  C    1.318384   0.000000
    13  N    2.226015   1.364318   0.000000
    14  C    6.260680   5.388004   4.464360   0.000000
    15  C    7.445146   6.692268   5.652442   1.537175   0.000000
    16  N    7.281125   6.768278   5.723092   2.479006   1.472673
    17  H    5.698320   5.218426   4.047065   2.497042   2.478278
    18  H    4.795858   4.105875   2.760060   3.994904   4.616943
    19  H    7.419803   7.154742   5.878185   6.372058   6.162117
    20  H    4.150012   4.283002   3.319536   4.993374   5.361219
    21  H    4.178401   4.214933   3.202007   5.780013   6.270418
    22  H    2.148738   3.165610   3.244517   6.808229   7.646965
    23  H    2.139734   1.081504   2.143532   5.608115   7.030978
    24  H    3.203834   2.136551   1.023122   3.782171   5.016260
    25  H    5.928182   5.162808   4.441196   1.098748   2.165508
    26  H    6.744517   5.725991   4.898465   1.092760   2.177195
    27  H    7.858012   7.053683   5.897050   2.162255   1.095083
    28  H    8.286966   7.503935   6.555751   2.160804   1.099971
    29  H    7.455499   7.022905   6.118410   2.881557   2.067289
    30  H    8.070385   7.597574   6.482986   3.342310   2.067516
                   16         17         18         19         20
    16  N    0.000000
    17  H    1.929915   0.000000
    18  H    4.735481   2.959966   0.000000
    19  H    5.764158   4.409040   3.474009   0.000000
    20  H    4.633005   2.901116   3.058289   4.027271   0.000000
    21  H    5.824950   3.930366   2.506535   3.375812   1.758079
    22  H    7.099684   5.448332   4.875716   6.534277   3.019905
    23  H    7.293178   5.879974   4.735353   7.975138   5.294072
    24  H    5.309077   3.718955   2.284640   5.684830   3.699599
    25  H    2.676053   2.804855   4.568302   7.025358   5.007412
    26  H    3.421923   3.520695   4.498118   7.056152   5.922198
    27  H    2.083851   2.711858   4.364802   5.594390   5.540049
    28  H    2.155587   3.534373   5.667077   7.189944   6.397895
    29  H    1.017485   2.626245   5.517475   6.638446   5.044690
    30  H    1.016226   2.481305   5.158007   5.564219   5.023150
                   21         22         23         24         25
    21  H    0.000000
    22  H    3.227949   0.000000
    23  H    5.194178   4.182698   0.000000
    24  H    3.549612   4.213367   2.547446   0.000000
    25  H    6.015289   6.517845   5.368870   3.944343   0.000000
    26  H    6.529784   7.549952   5.752349   4.091434   1.763484
    27  H    6.205051   8.008594   7.408104   5.173261   3.063932
    28  H    7.358790   8.587481   7.746066   5.899250   2.562591
    29  H    6.419532   7.280338   7.522761   5.796319   2.699651
    30  H    6.155625   7.708257   8.171971   6.065505   3.666887
                   26         27         28         29         30
    26  H    0.000000
    27  H    2.571771   0.000000
    28  H    2.419274   1.764284   0.000000
    29  H    3.790101   2.919700   2.363847   0.000000
    30  H    4.199099   2.265479   2.592856   1.641363   0.000000
 Symmetry turned off by external request.
 Stoichiometry    C9H14N4O3
 Framework group  C1[X(C9H14N4O3)]
 Deg. of freedom    84
 Full point group                 C1      NOp   1
 Rotational constants (GHZ):      0.6627972      0.3789482      0.2819244
 Standard basis: 6-31G(d) (6D, 7F)
   268 basis functions,   504 primitive gaussians,   268 cartesian basis functions
    60 alpha electrons       60 beta electrons
       nuclear repulsion energy      1145.6054315043 Hartrees.
 NAtoms=   30 NActive=   30 NUniq=   30 SFac= 1.00D+00 NAtFMM=   60 NAOKFM=F Big=F
 Integral buffers will be    131072 words long.
 Raffenetti 2 integral format.
 Two-electron integral symmetry is turned off.
 Nuclear repulsion after empirical dispersion term =     1145.5496193144 Hartrees.
 One-electron integrals computed using PRISM.
 NBasis=   268 RedAO= T EigKep=  1.18D-03  NBF=   268
 NBsUse=   268 1.00D-06 EigRej= -1.00D+00 NBFU=   268
 Initial guess from the checkpoint file:  "conf-683.chk"
 B after Tr=    -0.000992    0.004724    0.004488
         Rot=    0.999998    0.000627    0.001171   -0.001632 Ang=   0.24 deg.
 ExpMin= 1.61D-01 ExpMax= 5.48D+03 ExpMxC= 8.25D+02 IAcc=2 IRadAn=         4 AccDes= 0.00D+00
 Harris functional with IExCor=  402 and IRadAn=       4 diagonalized for initial guess.
 HarFok:  IExCor=  402 AccDes= 0.00D+00 IRadAn=         4 IDoV= 1 UseB2=F ITyADJ=14
 ICtDFT=  3500011 ScaDFX=  1.000000  1.000000  1.000000  1.000000
 FoFCou: FMM=F IPFlag=           0 FMFlag=      100000 FMFlg1=           0
         NFxFlg=           0 DoJE=T BraDBF=F KetDBF=T FulRan=T
         wScrn=  0.000000 ICntrl=     500 IOpCl=  0 I1Cent=   200000004 NGrid=           0
[...]
 1294025,-0.00078246,-0.00076320,-0.00691286,-0.00215078,-0.00099554,0.
 00045905,-0.00013416,-0.00055620,-0.00008324,0.00024075,0.00000253,-0.
 00020094,0.00061857,0.00040330,0.00007388,-0.00009877,-0.00083389,0.00
 050096,0.00156193,0.02010524,-0.01262150,-0.00053316,-0.00317827,-0.00
 566001,0.00209702,-0.00658400,0.00466487,-0.00092658,0.00186329,0.0144
 6778,0.00519501,0.16551257,-0.26415159,-0.00091083,0.00026413,-0.00079
 007,0.00004858,0.00023424,0.00032965,-0.00015370,-0.00004479,-0.000224
 21,0.00062969,-0.00009113,-0.00009611,0.00022632,-0.00097686,0.0006032
 3,0.00004717,-0.00004358,0.00001172,0.00001319,0.00036311,0.00036822,0
 .00009695,0.00044199,-0.00004848,-0.00039010,0.00079704,0.00025644,-0.
 00015848,-0.00019571,-0.00038945,-0.00369396,-0.17364755,0.26601145,-0
 .00213301,-0.00472110,0.00179026,-0.01235541,0.03124303,-0.00777460,-0
 .00032300,-0.00161241,0.00121519,0.00019024,-0.00139463,0.00063516,0.0
 0019785,-0.00032138,-0.00020657,-0.00006575,0.00007250,0.00005063,0.00
 003860,0.00017851,0.00008181,-0.00040717,0.00039124,0.00003123,-0.0000
 6481,0.00008403,-0.00003947,0.00001056,-0.00007585,0.00002273,0.000109
 57,-0.00015355,0.00006896,-0.00003986,0.00006355,0.00004172,0.00011041
 ,-0.00033299,0.00017201,-0.08638889,0.09321860,-0.01641203,0.00877928,
 -0.02157472,0.00294473,0.00126620,0.00062274,0.00151204,-0.00061188,0.
 00062346,-0.00011034,0.00005289,-0.00003430,-0.00012142,0.00001271,-0.
 00001042,-0.00001035,0.00000669,-0.00001217,0.00001997,-0.00006095,-0.
 00017773,0.00011144,-0.00000141,-0.00000681,0.00000207,-0.00005308,-0.
 00003233,-0.00002058,0.00013218,0.00070371,-0.00035738,0.09369518,-0.0
 0012085,-0.00028281,-0.00031200,0.00095426,0.00022407,-0.00048711,0.00
 020895,0.00070093,0.00023017,0.00015335,-0.00005293,-0.00022714,-0.000
 10384,-0.00007635,-0.00000403,0.00004425,0.00001289,-0.00000223,0.0000
 6595,0.00008893,-0.00003246,-0.00000228,-0.00003575,0.00004093,0.00001
 222,-0.00001653,0.00001034,-0.00001836,0.00001579,0.00000502,-0.000016
 69,0.00000970,-0.00000836,0.00003416,-0.00002868,-0.00000001,0.0000362
 0,0.00001654,0.00002034,0.08918895,-0.25605064,0.03934336,0.00871142,-
 0.02417363,0.00343569,0.00058379,0.00260243,0.00124862,0.00012819,-0.0
 0040494,0.00006451,-0.00003139,0.00000136,0.00003016,-0.00000651,-0.00
 000357,0.00001383,0.00000488,-0.00000109,-0.00001251,-0.00000986,0.000
 00493,0.00000034,0.00000446,0.00000105,-0.00000320,0.00000163,0.000003
 67,-0.00000068,0.00003140,0.00005070,-0.00008543,-0.09630421,0.2815064
 5,-0.00060337,0.00037713,0.00022691,0.00532657,-0.01384305,0.00155444,
 0.00070063,0.00096723,-0.00126042,-0.00016177,0.00091606,-0.00032571,-
 0.00010685,0.00006442,0.00009923,0.00002005,-0.00001008,-0.00000054,-0
 .00000130,-0.00002392,-0.00005965,0.00028744,-0.00019379,-0.00005995,-
 0.00002720,-0.00008711,-0.00005876,-0.00002182,0.00000447,-0.00000555,
 -0.00001047,0.00000250,0.00000295,0.00002368,0.00005641,0.00004614,-0.
 00007492,-0.00000042,0.00004268,-0.01489530,0.03832069,-0.05295644,0.0
 0430234,-0.01393135,0.00095319,0.00117989,-0.00023320,0.00139723,0.000
 61826,-0.00057318,0.00009827,0.00000775,-0.00000644,-0.00001304,-0.000
 00509,0.00000692,0.00000105,-0.00000236,-0.00000552,-0.00001684,0.0000
 3838,0.00008968,-0.00007496,0.00000779,-0.00000085,-0.00000741,-0.0000
 1393,-0.00000821,-0.00000365,0.00006026,0.00002139,0.00000207,0.018122
 73,-0.04154885,0.05489109,0.00210834,0.00118769,-0.00222668,0.00190632
 ,-0.00467182,0.03631167,-0.00660404,0.00052658,0.00080610,0.00063427,0
 .00091135,0.00099675,-0.00050902,-0.00050576,-0.00005764,-0.00005306,0
 .00027449,0.00015093,0.00015368,0.00018597,0.00007026,-0.00008388,0.00
 010706,0.00000164,-0.00000388,0.00004663,0.00005512,-0.00000966,0.0000
 3831,-0.00003254,0.00000167,-0.00002930,-0.00006211,0.00000384,-0.0000
 5832,-0.00000719,0.00001408,0.00011078,-0.00005976,-0.04917800,0.00054
 176,-0.02053361,-0.00109942,0.00523336,-0.01910879,-0.00184888,-0.0046
 7119,-0.00190663,-0.00078610,-0.00044170,-0.00035074,-0.00002109,0.000
 02506,0.00003165,-0.00003857,0.00002606,0.00001409,0.00000370,-0.00001
 173,0.00001023,-0.00002500,-0.00007246,0.00004729,-0.00000492,0.000002
 52,0.00000018,-0.00000395,-0.00001232,-0.00000242,0.00000131,-0.000191
 81,0.00018438,-0.00091012,0.00105393,-0.01287995,0.05611835,-0.0011407
 1,-0.00079355,-0.00011856,0.00282759,-0.00076826,-0.00304101,0.0000994
 1,0.00077576,0.00030888,0.00027102,0.00045537,-0.00032694,-0.00014712,
 -0.00007314,-0.00002814,0.00000298,0.00006132,0.00005560,0.00005035,0.
 00003849,0.00003907,0.00007571,-0.00000922,-0.00005481,-0.00000836,-0.
 00001844,-0.00002339,-0.00001686,0.00000638,-0.00001646,-0.00000093,-0
 .00003580,-0.00000909,0.00001583,0.00004567,0.00005119,-0.00002866,-0.
 00004987,0.00003605,0.00008043,-0.05304813,0.03266664,0.00012258,0.004
 65345,-0.02315864,-0.00242251,-0.00377020,-0.00218067,-0.00054254,-0.0
 0050886,0.00009550,-0.00002081,0.00001372,0.00000819,-0.00000977,0.000
 00684,-0.00000212,0.00000439,-0.00001047,-0.00000022,-0.00000117,0.000
 00640,-0.00000554,0.00000270,-0.00000102,-0.00000212,-0.00001147,-0.00
 001305,-0.00000342,0.00006000,0.00010951,0.00000946,0.00132725,-0.0032
 0423,0.03078893,-0.00037535,0.05448395,-0.00178781,-0.00067056,0.00338
 037,-0.00221868,0.00107387,-0.01603541,0.00332762,0.00020852,0.0003718
 1,-0.00059405,-0.00019430,-0.00018735,0.00007344,0.00019179,0.00006019
 ,0.00011127,-0.00014027,-0.00008824,0.00006003,-0.00006769,-0.00002469
 ,0.00005646,-0.00006756,-0.00003398,0.00000421,-0.00003499,-0.00006681
 ,0.00001796,-0.00003865,0.00002776,0.00001303,0.00000802,0.00007057,-0
 .00001959,0.00007288,0.00000749,-0.00003118,-0.00014319,0.00005102,-0.
 01645694,0.03269685,-0.31474951,0.00057496,0.00278201,-0.00971195,-0.0
 0111252,-0.00274737,-0.00014339,-0.00040034,0.00012938,0.00044569,0.00
 009683,-0.00002522,-0.00005087,0.00000168,0.00000443,-0.00000830,-0.00
 000609,0.00001017,0.00001077,0.00001777,0.00004918,-0.00002541,-0.0000
 0110,-0.00000554,0.00000615,0.00000690,0.00000992,0.00000322,0.0000712
 9,0.00018957,-0.00014327,-0.00024304,0.00089608,-0.00402376,0.01898487
 ,-0.03431316,0.34017261,0.00027685,0.00021739,-0.00007641,0.00139665,-
 0.00100213,0.00014826,0.00006234,0.00025442,-0.00001312,-0.00013441,0.
 00015646,0.00009702,-0.00022668,0.00001911,0.00006725,0.00012376,-0.00
 005920,-0.00003583,0.00012923,0.00000513,-0.00014606,0.00004658,-0.000
 05468,-0.00000681,0.00001977,-0.00002250,-0.00000533,0.00000532,0.0000
 0229,0.00000803,-0.00001340,0.00003971,-0.00000021,0.00000607,-0.00001
 342,-0.00000433,-0.00001295,0.00003587,-0.00002378,0.00890290,-0.02089
 416,0.00173112,-0.10305887,0.10405084,-0.00492103,-0.00269274,0.005695
 72,-0.00348799,-0.00002132,-0.00035358,0.00021809,0.00000929,-0.000012
 45,-0.00000519,-0.00001463,0.00001814,0.00001226,-0.00000404,0.0000078
 3,-0.00000076,0.00001315,0.00003107,-0.00001919,-0.00000118,-0.0000007
 1,0.00000020,0.00000716,0.00000599,0.00000412,-0.00000669,-0.00007105,
 0.00001242,-0.00236056,-0.00383062,-0.00164205,0.00047915,0.00088143,0
 .00024950,0.10852130,-0.00054416,0.00008868,0.00005770,0.00204418,-0.0
 0002851,-0.00098397,-0.00057602,0.00107167,0.00051813,-0.00012348,-0.0
 0003802,0.00016661,-0.00036492,-0.00021884,0.00004154,0.00016343,0.000
 00182,-0.00002353,0.00023469,0.00017530,-0.00016727,-0.00001701,-0.000
 03516,0.00002625,0.00001430,-0.00002715,-0.00003821,0.00000145,-0.0000
 0694,0.00001084,-0.00002485,0.00002682,0.00002598,0.00000240,0.0000300
 7,0.00000889,-0.00005145,-0.00001851,0.00000177,0.00744870,-0.02143542
 ,0.00059195,0.10291909,-0.25977273,0.01579777,0.00234893,-0.00467175,0
 .00244741,0.00054998,-0.00064883,0.00042357,-0.00001454,-0.00002679,-0
 .00002247,-0.00002219,0.00000335,0.00002966,0.00000487,0.00000632,-0.0
 0001219,-0.00000585,0.00001510,-0.00000535,0.00000628,-0.00000087,-0.0
 0000001,0.00001535,0.00000847,0.00000402,0.00006408,-0.00000755,-0.000
 02409,-0.00314311,-0.00191832,-0.00228670,0.00001878,0.00038009,-0.000
 26849,-0.11085964,0.28256170,-0.00032475,0.00003974,-0.00018957,0.0009
 6202,0.00060484,0.00030544,0.00018509,-0.00009606,0.00024607,0.0000802
 9,-0.00006770,0.00010588,0.00051605,0.00023604,0.00008079,-0.00030362,
 0.00004130,0.00001476,-0.00042882,-0.00027921,0.00020601,-0.00004266,0
 .00002948,-0.00005208,-0.00001018,-0.00000061,-0.00001117,0.00000233,0
 .00000265,-0.00001453,0.00000600,-0.00003693,0.00000935,-0.00000498,0.
 00003361,0.00000219,-0.00001874,-0.00004435,0.00004289,0.00546984,-0.0
 1218490,0.00165269,-0.00144235,0.00696527,-0.05180486,-0.01748913,0.03
 602258,-0.00919735,-0.00090657,0.00043692,-0.00029275,0.00001931,-0.00
 001825,-0.00001356,0.00003988,-0.00002457,-0.00002177,-0.00000148,0.00
 000726,0.00001191,-0.00000340,-0.00001484,0.00001946,-0.00000428,-0.00
 000178,0.00000783,0.00000642,0.00000241,0.00000123,0.00005226,0.000040
 73,-0.00002624,-0.00226371,-0.00180526,-0.00061527,0.00046313,0.000330
 79,0.00015901,0.01043379,-0.01651994,0.06300660,-0.00230533,0.00019785
 ,0.00005682,0.00185197,-0.00363379,-0.00323073,0.00016252,-0.00013335,
 0.00064432,0.00044592,0.00019335,-0.00010479,0.00013452,-0.00027248,-0
 .00019746,-0.00019510,0.00018005,0.00013449,-0.00008381,0.00012283,0.0
 0016176,-0.00001468,0.00009367,-0.00001524,-0.00004140,0.00001051,-0.0
 0008595,-0.00001034,-0.00000080,-0.00001538,0.00002194,-0.00012934,0.0
 0004280,-0.00001198,0.00014418,0.00002167,-0.00002771,-0.00016756,0.00
 015948,-0.01914961,-0.00028522,0.00973080,-0.23184308,-0.00160518,0.10
 674134,0.01247128,-0.00015161,-0.00455324,-0.00031014,0.00014913,-0.00
 038813,0.00002432,-0.00001121,-0.00003346,0.00001747,-0.00001428,-0.00
 001203,0.00000882,-0.00001909,0.00001569,-0.00002958,-0.00004766,0.000
 03510,0.00000274,-0.00000154,0.00000914,0.00000085,-0.00000040,-0.0000
 0478,0.00014404,0.00028007,-0.00015779,0.00098892,-0.00012457,0.000233
 18,0.00006536,0.00024188,-0.00044813,-0.01217650,-0.00001214,0.0069491
 7,0.24750574,-0.00253693,0.00039892,0.00016545,0.00041330,-0.00406863,
 -0.00439959,0.00019087,0.00075699,0.00080775,0.00008181,0.00008874,0.0
 0005344,-0.00025142,-0.00028702,-0.00005356,0.00005875,0.00007006,0.00
 004144,0.00012791,0.00022601,-0.00005120,-0.00001199,0.00002550,0.0000
 1508,-0.00001684,-0.00000035,-0.00007906,0.00000289,-0.00001295,0.0000
 0743,0.00001778,-0.00005660,0.00004219,-0.00000965,0.00009906,0.000012
 40,-0.00002229,-0.00011279,0.00008929,-0.02439152,-0.00117169,0.011640
 96,-0.00135220,-0.05564686,0.00184828,-0.00450742,0.00268622,0.0072637
 9,-0.00001102,-0.00021360,0.00034072,0.00002838,-0.00002938,-0.0000346
 2,-0.00001477,0.00000106,0.00001714,0.00000312,-0.00000624,0.00000276,
 -0.00001501,-0.00001648,0.00001107,0.00000066,-0.00000265,0.00000526,-
 0.00000125,0.00000094,-0.00000190,0.00009239,0.00019264,-0.00011942,0.
 00081065,0.00090559,0.00082554,0.00062319,0.00097846,-0.00004340,0.025
 90612,0.00196380,-0.01557850,0.00542657,0.05294225,-0.00119469,0.00036
 353,0.00031474,0.00039351,-0.00287821,-0.00175152,0.00052466,0.0002396
 6,0.00168959,0.00027864,0.00019532,0.00035725,-0.00060055,-0.00020884,
 -0.00009718,0.00025484,0.00002825,-0.00001851,0.00041475,0.00002910,0.
 00011554,-0.00007901,0.00000920,-0.00004314,0.00001554,-0.00001365,-0.
 00005948,0.00002062,-0.00002250,0.00000560,0.00001385,0.00000710,0.000
 04357,-0.00001423,0.00005190,0.00000537,-0.00000841,-0.00004926,0.0000
 3703,-0.01188252,-0.00064249,0.00756326,0.10742544,0.00226096,-0.11182
 414,0.02459188,0.00418660,-0.03475445,-0.00370271,-0.00027520,-0.00118
 803,0.00014327,-0.00003117,-0.00009803,-0.00005258,0.00003495,0.000010
 44,-0.00000975,-0.00000156,0.00005381,0.00000645,-0.00000266,0.0000266
 1,-0.00000898,-0.00000954,0.00001115,0.00000269,0.00000515,0.00000467,
 0.00003106,0.00007659,-0.00007828,0.00049427,0.00023743,0.00001926,0.0
 0010161,0.00046382,0.00068733,-0.00079057,-0.00092343,0.00220078,-0.11
 682422,-0.00254871,0.13468568,0.00006397,-0.00000025,-0.00018392,-0.00
 053480,0.00036666,0.00029746,-0.00177488,-0.00172294,-0.00005868,-0.00
 019481,-0.00018340,-0.00021133,0.00037097,0.00026153,0.00003417,-0.000
 16921,-0.00004405,0.00001572,-0.00030878,-0.00013893,0.00009615,-0.000
 08360,0.00008530,-0.00010650,0.00000959,0.00005155,0.00000532,0.000047
 61,-0.00002703,0.00000384,0.00005725,-0.00001791,0.00000050,-0.0000241
 9,-0.00001107,-0.00002443,0.00007331,-0.00002403,0.00001097,-0.0005190
 6,0.00102216,-0.00010935,-0.00482418,0.00189819,0.00651245,-0.17425034
 ,0.20697692,-0.04739287,0.00166361,0.00355492,-0.00078317,-0.00007100,
 0.00000652,0.00003423,0.00001457,0.00000180,-0.00002692,-0.00002323,0.
 00001505,0.00007153,0.00003013,-0.00003006,0.00004119,-0.00002894,-0.0
 0001113,0.00001844,-0.00001166,-0.00000354,0.00000324,-0.00004734,0.00
 005891,-0.00003104,0.00001864,-0.00082568,-0.00068628,0.00018080,-0.00
 056019,0.00011300,0.00070474,-0.00034634,-0.00145296,0.00166111,-0.001
 23239,-0.00024503,0.16879877,-0.00012787,-0.00000988,-0.00018748,-0.00
 013517,-0.00000463,0.00025775,-0.00094087,-0.00082516,-0.00026468,-0.0
 0004853,-0.00003239,-0.00013832,0.00004448,0.00002200,0.00001203,-0.00
 000156,-0.00000692,-0.00000077,-0.00002950,0.00002365,0.00001501,-0.00
 000723,0.00003708,-0.00001084,-0.00000293,0.00003142,-0.00000899,0.000
 02199,-0.00000723,0.00001155,0.00003742,-0.00002281,-0.00000111,-0.000
 01087,0.00000499,-0.00002000,0.00003442,-0.00002393,0.00002136,-0.0004
 7838,0.00199804,0.00005176,0.00466381,-0.00546339,0.00101301,0.1612662
 4,-0.27746771,0.02164360,0.00171087,0.00135642,-0.00016743,-0.00004805
 ,0.00001043,0.00001063,-0.00000292,0.00000389,0.00000012,-0.00000614,0
 .00000305,0.00001503,0.00000758,-0.00001603,0.00000855,-0.00001368,-0.
 00000232,0.00000754,-0.00000893,-0.00000253,-0.00000046,-0.00001050,0.
 00004833,-0.00002756,0.00059167,-0.00028104,0.00015038,0.00004195,-0.0
 0022280,0.00004363,-0.00053873,0.00175249,0.00160927,-0.00068304,0.000
 54434,-0.00113219,-0.18899445,0.30246995,0.00044768,0.00010457,0.00013
 618,-0.00034348,-0.00005607,0.00005909,0.00117240,0.00081584,-0.000002
 91,-0.00005787,0.00007903,0.00016464,-0.00036340,-0.00009580,0.0000143
 0,0.00025525,-0.00003890,-0.00007844,0.00036356,0.00004065,-0.00010359
 ,0.00007724,-0.00006419,0.00009981,0.00000974,-0.00001395,0.00004753,-
 0.00001999,0.00000683,0.00002905,-0.00003059,0.00005872,-0.00003507,0.
 00001776,-0.00006535,-0.00000363,0.00000068,0.00008935,-0.00009630,0.0
 0065543,0.00087735,0.00114376,-0.02497616,0.03506832,-0.00691138,-0.02
 949236,0.00591540,-0.05314616,-0.00151377,-0.00193586,0.00006672,0.000
 06205,0.00001426,-0.00000986,-0.00002399,0.00000753,0.00002797,0.00000
 767,-0.00001103,-0.00004974,-0.00000495,0.00002919,-0.00004321,0.00002
 032,0.00001081,-0.00002314,-0.00000424,-0.00000232,-0.00000439,-0.0000
 6498,-0.00011312,0.00007182,-0.00016865,-0.00121327,-0.00000154,0.0003
 8402,-0.00018389,0.00013198,-0.00151927,0.00080570,-0.00745911,0.00056
 577,0.00029923,0.00174413,0.04056091,-0.02715864,0.06234879,-0.0004748
 5,0.00008160,0.00017996,0.00131986,-0.00016563,-0.00015192,-0.00259532
 ,0.00057553,0.00067535,0.00022412,0.00001315,-0.00059913,-0.00163340,-
 0.00121340,-0.00044137,0.00086258,0.00017027,-0.00004216,0.00148220,0.
 00071815,0.00028326,-0.00011504,0.00002600,0.00006156,0.00002513,-0.00
 000256,-0.00009567,0.00000646,-0.00001527,0.00001132,-0.00000283,0.000
 01345,0.00006106,-0.00000929,0.00007904,0.00001069,-0.00004236,-0.0000
 4855,0.00005341,-0.00001581,0.00114850,-0.00318767,-0.00595803,-0.0051
 7767,0.00465288,-0.11472451,-0.15154042,-0.10601154,0.00152412,-0.0024
 5737,-0.00170203,-0.00018457,0.00007017,0.00008202,-0.00014424,0.00007
 513,0.00006345,0.00001109,-0.00003688,0.00003780,-0.00002457,-0.000027
 21,0.00004082,0.00000060,-0.00000904,0.00000760,0.00000819,0.00000817,
 0.00000447,0.00008784,0.00007564,-0.00007839,0.00016597,0.00017687,0.0
 0020373,-0.00049129,-0.00077708,-0.00046135,0.00001972,0.00026916,-0.0
 0048798,0.00069172,0.00059032,0.00070015,0.00917094,0.02366892,0.01398
 318,0.11081558,0.00014557,-0.00008660,-0.00001009,-0.00028854,0.000061
 61,0.00017652,0.00030488,0.00008533,-0.00006917,-0.00004261,0.00000177
 ,-0.00001476,0.00011973,0.00016062,0.00004088,-0.00008848,-0.00002358,
 -0.00000378,-0.00008555,-0.00024494,0.00003811,0.00000832,-0.00000954,
 -0.00003575,-0.00000298,-0.00001131,0.00000782,-0.00000440,0.00000536,
 -0.00001302,0.00000084,-0.00000345,-0.00000098,0.00000246,-0.00000139,
 0.00000468,0.00000176,0.00000469,0.00000640,0.00050123,0.00039433,0.00
 119960,0.00365871,0.00813139,0.00722591,-0.11787099,-0.28999031,-0.124
 98103,-0.00067034,-0.00026087,-0.00006268,0.00000972,-0.00000261,0.000
 01484,0.00001789,0.00000584,-0.00001751,-0.00000290,-0.00000083,0.0000
 0817,0.00000734,0.00000631,0.00000028,-0.00000202,-0.00000122,0.000001
 87,-0.00000072,-0.00000044,0.00000052,-0.00000544,-0.00001043,0.000010
 64,-0.00002322,0.00038547,0.00016093,0.00008630,0.00051163,0.00039410,
 0.00038538,0.00076972,0.00026999,0.00025316,-0.00025534,0.00054985,-0.
 02012612,-0.02391731,-0.01327039,0.13371102,0.30429610,-0.00000488,0.0
 0005512,0.00040527,0.00009275,0.00002021,-0.00097114,0.00168629,-0.000
 16636,0.00028291,-0.00008133,0.00000416,0.00049805,0.00047144,0.000417
 16,0.00020544,-0.00024138,-0.00007928,-0.00000471,-0.00045168,-0.00017
 755,-0.00032675,0.00004069,-0.00000700,0.00001157,-0.00000625,0.000009
 72,0.00002341,0.00000900,-0.00000333,0.00001726,0.00000534,-0.00000038
 ,-0.00002126,-0.00000132,-0.00002625,-0.00001298,0.00001332,0.00000227
 ,-0.00002942,0.00029373,0.00334699,-0.00702346,-0.01858147,-0.03132703
 ,-0.01666273,-0.07626581,-0.10440611,-0.10352862,-0.00209385,0.0012556
 4,0.00070281,0.00014802,-0.00004407,-0.00005371,0.00004980,-0.00003328
 ,0.00000435,-0.00000879,0.00002379,-0.00002082,0.00000902,0.00001115,-
 0.00002029,-0.00000032,0.00000558,-0.00000432,-0.00000262,-0.00000123,
 -0.00000225,-0.00003061,-0.00001363,0.00001134,0.00041120,0.00016573,0
 .00014895,-0.00138584,-0.00138595,-0.00029303,-0.00028413,0.00031786,0
 .00162540,0.00056982,-0.00057923,0.00033694,0.00349337,0.00424723,0.00
 188272,0.09214651,0.12836806,0.12281907\\0.00000104,0.00000051,-0.0000
 0002,0.00000061,-0.00000195,-0.00000016,0.00000169,0.00000112,0.000000
 78,-0.00000127,-0.00000010,0.00000094,-0.00000036,0.00000011,-0.000000
 04,-0.00000008,0.00000021,-0.00000041,-0.00000018,-0.00000025,0.000000
 08,0.00000027,0.00000101,-0.00000023,0.00000061,-0.00000012,-0.0000012
 9,-0.00000027,0.00000041,-0.00000026,-0.00000056,0.00000012,-0.0000006
 3,-0.00000035,0.00000024,-0.00000048,-0.00000071,-0.00000047,-0.000000
 21,-0.00000016,0.00000028,-0.00000057,0.00000060,-0.00000055,0.0000011
 6,-0.00000115,-0.00000036,0.00000035,-0.00000061,-0.00000064,0.0000002
 6,-0.00000013,-0.00000012,-0.00000031,-0.00000024,-0.00000002,-0.00000
 050,-0.00000047,0.00000004,0.,-0.00000052,0.00000077,-0.00000102,-0.00
 000055,-0.00000004,-0.00000027,0.00000019,0.00000019,-0.00000033,0.000
 00084,-0.00000012,-0.00000034,0.00000034,0.00000028,0.00000052,0.00000
 062,0.00000012,0.00000025,0.00000062,0.,0.00000045,0.00000043,-0.00000
 021,0.00000069,-0.00000018,-0.00000013,0.00000084,-0.00000006,-0.00000
 032,0.00000077\\\@


 CHARLIE BROWN.."I CAN'T GET THAT STUPID KITE IN THE
 AIR... I CAN'T... I C A N N O T..."
 LUCY.."OH COME NOW CHARLIE BROWN...THAT'S NO WAY TO TALK...
 THE TROUBLE WITH YOU IS YOU DON'T BELIEVE IN YOURSELF... YOU
 DON'T BELIEVE IN YOUR OWN ABILITIES...  YOU'VE GOT TO SAY TO
 YOURSELF...'I BELIEVE I CAN FLY THIS KITE.'... GO AHEAD SAY
 IT...."
 CHARLIE BROWN.."I BELIEVE THAT I CAN FLY THIS STUPID
 KITE.....I BELIEVE THAT I CAN FLY THIS KITE........
 I  A C T U A L L Y  B E L I E V E  T H A T  I  C A N ******"
 LUCY.."I'LL BET YOU TEN-TO-ONE YOU'RE WRONG......."    SCHULZ
 Job cpu time:       0 days  1 hours  6 minutes 49.5 seconds.
 File lengths (MBytes):  RWF=    260 Int=      0 D2E=      0 Chk=      8 Scr=      1
 Normal termination of Gaussian 09 at Tue Jul 27 02:09:36 2021.
