 Entering Gaussian System, Link 0=g09
 Input=opt_freq-conf-455.com
 Output=opt_freq-conf-455.log
 Initial command:
 /aerosol/software/g09/l1.exe "/scratch/nicole/10546/Gau-22331.inp" -scrdir="/scratch/nicole/10546/"
 Entering Link 1 = /aerosol/software/g09/l1.exe PID=     22348.
  
 Copyright (c) 1988,1990,1992,1993,1995,1998,2003,2009,2013,
            Gaussian, Inc.  All Rights Reserved.
  
 This is part of the Gaussian(R) 09 program.  It is based on
 the Gaussian(R) 03 system (copyright 2003, Gaussian, Inc.),
 the Gaussian(R) 98 system (copyright 1998, Gaussian, Inc.),
 the Gaussian(R) 94 system (copyright 1995, Gaussian, Inc.),
 the Gaussian 92(TM) system (copyright 1992, Gaussian, Inc.),
 the Gaussian 90(TM) system (copyright 1990, Gaussian, Inc.),
 the Gaussian 88(TM) system (copyright 1988, Gaussian, Inc.),
 the Gaussian 86(TM) system (copyright 1986, Carnegie Mellon
 University), and the Gaussian 82(TM) system (copyright 1983,
 Carnegie Mellon University). Gaussian is a federally registered
 trademark of Gaussian, Inc.
  
 This software contains proprietary and confidential information,
 including trade secrets, belonging to Gaussian, Inc.
  
 This software is provided under written license and may be
 used, copied, transmitted, or stored only in accord with that
 written license.
  
 The following legend is applicable only to US Government
 contracts under FAR:
  
                    RESTRICTED RIGHTS LEGEND
  
 Use, reproduction and disclosure by the US Government is
 subject to restrictions as set forth in subparagraphs (a)
 and (c) of the Commercial Computer Software - Restricted
 Rights clause in FAR 52.227-19.
  
 Gaussian, Inc.
 340 Quinnipiac St., Bldg. 40, Wallingford CT 06492
  
  
 ---------------------------------------------------------------
 Warning -- This program may not be used in any manner that
 competes with the business of Gaussian, Inc. or will provide
 assistance to any competitor of Gaussian, Inc.  The licensee
 of this program is prohibited from giving any competitor of
 Gaussian, Inc. access to this program.  By using this program,
 the user acknowledges that Gaussian, Inc. is engaged in the
 business of creating and licensing software in the field of
 computational chemistry and represents and warrants to the
 licensee that it is not a competitor of Gaussian, Inc. and that
 it will not use this program in any manner prohibited above.
 ---------------------------------------------------------------
  

 Cite this work as:
 Gaussian 09, Revision D.01,
 M. J. Frisch, G. W. Trucks, H. B. Schlegel, G. E. Scuseria, 
 M. A. Robb, J. R. Cheeseman, G. Scalmani, V. Barone, B. Mennucci, 
 G. A. Petersson, H. Nakatsuji, M. Caricato, X. Li, H. P. Hratchian, 
 A. F. Izmaylov, J. Bloino, G. Zheng, J. L. Sonnenberg, M. Hada, 
 M. Ehara, K. Toyota, R. Fukuda, J. Hasegawa, M. Ishida, T. Nakajima, 
 Y. Honda, O. Kitao, H. Nakai, T. Vreven, J. A. Montgomery, Jr., 
 J. E. Peralta, F. Ogliaro, M. Bearpark, J. J. Heyd, E. Brothers, 
 K. N. Kudin, V. N. Staroverov, T. Keith, R. Kobayashi, J. Normand, 
 K. Raghavachari, A. Rendell, J. C. Burant, S. S. Iyengar, J. Tomasi, 
 M. Cossi, N. Rega, J. M. Millam, M. Klene, J. E. Knox, J. B. Cross, 
 V. Bakken, C. Adamo, J. Jaramillo, R. Gomperts, R. E. Stratmann, 
 O. Yazyev, A. J. Austin, R. Cammi, C. Pomelli, J. W. Ochterski, 
 R. L. Martin, K. Morokuma, V. G. Zakrzewski, G. A. Voth, 
 P. Salvador, J. J. Dannenberg, S. Dapprich, A. D. Daniels, 
 O. Farkas, J. B. Foresman, J. V. Ortiz, J. Cioslowski, 
 and D. J. Fox, Gaussian, Inc., Wallingford CT, 2013.
 
 ******************************************
 Gaussian 09:  ES64L-G09RevD.01 24-Apr-2013
                27-Jul-2021 
 ******************************************
 %mem=2gb
 %nproc=4
 Will use up to    4 processors via shared memory.
 %chk=conf-455.chk
 ----------------------------------------------------------------------
 # B3LYP/6-31G(d) EmpiricalDispersion=GD3BJ opt=calcfc freq=noraman nos
 ymm integral(ultrafinegrid)
 ----------------------------------------------------------------------
 1/10=4,14=-1,18=20,19=15,26=4,38=1/1,3;
 2/9=110,12=2,15=1,17=6,18=5,40=1/2;
 3/5=1,6=6,7=1,11=2,16=1,25=1,30=1,71=2,74=-5,75=-5,124=41,140=1/1,2,3;
 4//1;
 5/5=2,38=5/2;
 8/6=4,10=90,11=11/1;
 11/6=1,8=1,9=11,15=111,16=1,31=1/1,2,10;
 10/6=1,13=1,31=1/2;
 6/7=2,8=2,9=2,10=2,28=1/1;
 7/10=1,18=20,25=1,30=1/1,2,3,16;
 1/10=4,14=-1,18=20,19=15,26=4/3(2);
 2/9=110,15=1/2;
 99//99;
 2/9=110,15=1/2;
 3/5=1,6=6,7=1,11=2,16=1,25=1,30=1,71=1,74=-5,75=-5,124=41/1,2,3;
 4/5=5,16=3,69=1/1;
 5/5=2,38=5/2;
 7/30=1/1,2,3,16;
 1/14=-1,18=20,19=15,26=4/3(-5);
 2/9=110,15=1/2;
 6/7=2,8=2,9=2,10=2,19=2,28=1/1;
 99/9=1/99;
 ------------------------------------------------------------
 Candidate Structure: Conf:455 OPT and FREQ calc in gas phase
 ------------------------------------------------------------
 Symbolic Z-matrix:
 Charge =  0 Multiplicity = 1
 O                     0.28008  -0.25923  -1.27944 
 C                     0.9495   -0.15887  -0.2498 
 N                     0.4937   -0.52865   0.97949 
 C                    -0.61605  -1.43415   1.23982 
 C                    -0.16578  -2.89331   1.09177 
 O                    -1.0117   -3.80859   1.62216 
 O                     0.85198  -3.23587   0.56269 
 C                    -1.87574  -1.18421   0.39051 
 C                    -2.39463   0.209     0.52312 
 C                    -3.31851   0.77342   1.35646 
 N                    -3.40808   2.13496   1.12826 
 C                    -2.54901   2.37777   0.1668 
 N                    -1.91356   1.2507   -0.23435 
 C                     2.35746   0.42422  -0.24031 
 C                     2.66699   1.2558   -1.48472 
 N                     3.99632   1.85969  -1.50811 
 H                     1.17862  -0.50482   1.71547 
 H                    -0.87804  -1.28132   2.29154 
 H                    -1.75658  -3.37408   2.04376 
 H                    -2.65134  -1.87719   0.72534 
 H                    -1.66079  -1.41998  -0.64787 
 H                    -3.9224    0.28943   2.11093 
 H                    -2.33695   3.33354  -0.27858 
 H                    -1.20225   1.15599  -0.94843 
 H                     2.49242   1.02514   0.66613 
 H                     3.07123  -0.40887  -0.17155 
 H                     2.56078   0.62307  -2.36526 
 H                     1.9279    2.05322  -1.57997 
 H                     4.12507   2.46199  -0.70287 
 H                     4.70929   1.14111  -1.45005 
 

 GradGradGradGradGradGradGradGradGradGradGradGradGradGradGradGradGradGrad
 Berny optimization.
 Initialization pass.
                           ----------------------------
                           !    Initial Parameters    !
                           ! (Angstroms and Degrees)  !
 --------------------------                            --------------------------
 ! Name  Definition              Value          Derivative Info.                !
 --------------------------------------------------------------------------------
 ! R1    R(1,2)                  1.2322         calculate D2E/DX2 analytically  !
 ! R2    R(2,3)                  1.3622         calculate D2E/DX2 analytically  !
 ! R3    R(2,14)                 1.524          calculate D2E/DX2 analytically  !
 ! R4    R(3,4)                  1.4558         calculate D2E/DX2 analytically  !
 ! R5    R(3,17)                 1.0057         calculate D2E/DX2 analytically  !
 ! R6    R(4,5)                  1.5342         calculate D2E/DX2 analytically  !
 ! R7    R(4,8)                  1.5397         calculate D2E/DX2 analytically  !
 ! R8    R(4,18)                 1.0946         calculate D2E/DX2 analytically  !
 ! R9    R(5,6)                  1.3545         calculate D2E/DX2 analytically  !
 ! R10   R(5,7)                  1.1971         calculate D2E/DX2 analytically  !
 ! R11   R(6,19)                 0.9599         calculate D2E/DX2 analytically  !
 ! R12   R(8,9)                  1.4926         calculate D2E/DX2 analytically  !
 ! R13   R(8,20)                 1.0927         calculate D2E/DX2 analytically  !
 ! R14   R(8,21)                 1.0863         calculate D2E/DX2 analytically  !
 ! R15   R(9,10)                 1.3662         calculate D2E/DX2 analytically  !
 ! R16   R(9,13)                 1.3749         calculate D2E/DX2 analytically  !
 ! R17   R(10,11)                1.3834         calculate D2E/DX2 analytically  !
 ! R18   R(10,22)                1.0808         calculate D2E/DX2 analytically  !
 ! R19   R(11,12)                1.312          calculate D2E/DX2 analytically  !
 ! R20   R(12,13)                1.3546         calculate D2E/DX2 analytically  !
 ! R21   R(12,23)                1.0756         calculate D2E/DX2 analytically  !
 ! R22   R(13,24)                1.0123         calculate D2E/DX2 analytically  !
 ! R23   R(14,15)                1.5284         calculate D2E/DX2 analytically  !
 ! R24   R(14,25)                1.0959         calculate D2E/DX2 analytically  !
 ! R25   R(14,26)                1.0992         calculate D2E/DX2 analytically  !
 ! R26   R(15,16)                1.4603         calculate D2E/DX2 analytically  !
 ! R27   R(15,27)                1.0895         calculate D2E/DX2 analytically  !
 ! R28   R(15,28)                1.0914         calculate D2E/DX2 analytically  !
 ! R29   R(16,29)                1.0138         calculate D2E/DX2 analytically  !
 ! R30   R(16,30)                1.0139         calculate D2E/DX2 analytically  !
 ! A1    A(1,2,3)              123.3788         calculate D2E/DX2 analytically  !
 ! A2    A(1,2,14)             122.5669         calculate D2E/DX2 analytically  !
 ! A3    A(3,2,14)             114.0402         calculate D2E/DX2 analytically  !
 ! A4    A(2,3,4)              125.8242         calculate D2E/DX2 analytically  !
 ! A5    A(2,3,17)             115.2206         calculate D2E/DX2 analytically  !
 ! A6    A(4,3,17)             113.7692         calculate D2E/DX2 analytically  !
 ! A7    A(3,4,5)              110.5236         calculate D2E/DX2 analytically  !
 ! A8    A(3,4,8)              115.0915         calculate D2E/DX2 analytically  !
 ! A9    A(3,4,18)             105.512          calculate D2E/DX2 analytically  !
 ! A10   A(5,4,8)              109.9549         calculate D2E/DX2 analytically  !
 ! A11   A(5,4,18)             107.2037         calculate D2E/DX2 analytically  !
 ! A12   A(8,4,18)             108.1509         calculate D2E/DX2 analytically  !
 ! A13   A(4,5,6)              114.9362         calculate D2E/DX2 analytically  !
 ! A14   A(4,5,7)              124.355          calculate D2E/DX2 analytically  !
 ! A15   A(6,5,7)              120.707          calculate D2E/DX2 analytically  !
 ! A16   A(5,6,19)             110.5326         calculate D2E/DX2 analytically  !
 ! A17   A(4,8,9)              112.7642         calculate D2E/DX2 analytically  !
 ! A18   A(4,8,20)             107.9844         calculate D2E/DX2 analytically  !
 ! A19   A(4,8,21)             109.2787         calculate D2E/DX2 analytically  !
 ! A20   A(9,8,20)             108.5416         calculate D2E/DX2 analytically  !
 ! A21   A(9,8,21)             110.8736         calculate D2E/DX2 analytically  !
 ! A22   A(20,8,21)            107.201          calculate D2E/DX2 analytically  !
 ! A23   A(8,9,10)             132.4452         calculate D2E/DX2 analytically  !
 ! A24   A(8,9,13)             122.4539         calculate D2E/DX2 analytically  !
 ! A25   A(10,9,13)            105.0494         calculate D2E/DX2 analytically  !
 ! A26   A(9,10,11)            110.4721         calculate D2E/DX2 analytically  !
 ! A27   A(9,10,22)            128.2159         calculate D2E/DX2 analytically  !
 ! A28   A(11,10,22)           121.311          calculate D2E/DX2 analytically  !
 ! A29   A(10,11,12)           105.1067         calculate D2E/DX2 analytically  !
 ! A30   A(11,12,13)           111.7273         calculate D2E/DX2 analytically  !
 ! A31   A(11,12,23)           126.6557         calculate D2E/DX2 analytically  !
 ! A32   A(13,12,23)           121.6167         calculate D2E/DX2 analytically  !
 ! A33   A(9,13,12)            107.644          calculate D2E/DX2 analytically  !
 ! A34   A(9,13,24)            124.304          calculate D2E/DX2 analytically  !
 ! A35   A(12,13,24)           128.0481         calculate D2E/DX2 analytically  !
 ! A36   A(2,14,15)            112.968          calculate D2E/DX2 analytically  !
 ! A37   A(2,14,25)            109.1919         calculate D2E/DX2 analytically  !
 ! A38   A(2,14,26)            108.079          calculate D2E/DX2 analytically  !
 ! A39   A(15,14,25)           110.4976         calculate D2E/DX2 analytically  !
 ! A40   A(15,14,26)           109.3782         calculate D2E/DX2 analytically  !
 ! A41   A(25,14,26)           106.4924         calculate D2E/DX2 analytically  !
 ! A42   A(14,15,16)           114.9869         calculate D2E/DX2 analytically  !
 ! A43   A(14,15,27)           108.8035         calculate D2E/DX2 analytically  !
 ! A44   A(14,15,28)           109.3562         calculate D2E/DX2 analytically  !
 ! A45   A(16,15,27)           108.4196         calculate D2E/DX2 analytically  !
 ! A46   A(16,15,28)           108.2352         calculate D2E/DX2 analytically  !
 ! A47   A(27,15,28)           106.7251         calculate D2E/DX2 analytically  !
 ! A48   A(15,16,29)           110.4008         calculate D2E/DX2 analytically  !
 ! A49   A(15,16,30)           110.2504         calculate D2E/DX2 analytically  !
 ! A50   A(29,16,30)           106.6351         calculate D2E/DX2 analytically  !
 ! D1    D(1,2,3,4)             19.7155         calculate D2E/DX2 analytically  !
 ! D2    D(1,2,3,17)           172.5228         calculate D2E/DX2 analytically  !
 ! D3    D(14,2,3,4)          -161.625          calculate D2E/DX2 analytically  !
 ! D4    D(14,2,3,17)           -8.8176         calculate D2E/DX2 analytically  !
 ! D5    D(1,2,14,15)           18.4503         calculate D2E/DX2 analytically  !
 ! D6    D(1,2,14,25)          141.8325         calculate D2E/DX2 analytically  !
 ! D7    D(1,2,14,26)         -102.7103         calculate D2E/DX2 analytically  !
 ! D8    D(3,2,14,15)         -160.2215         calculate D2E/DX2 analytically  !
 ! D9    D(3,2,14,25)          -36.8393         calculate D2E/DX2 analytically  !
 ! D10   D(3,2,14,26)           78.6178         calculate D2E/DX2 analytically  !
 ! D11   D(2,3,4,5)             79.9655         calculate D2E/DX2 analytically  !
 ! D12   D(2,3,4,8)            -45.3216         calculate D2E/DX2 analytically  !
 ! D13   D(2,3,4,18)          -164.4618         calculate D2E/DX2 analytically  !
 ! D14   D(17,3,4,5)           -73.1791         calculate D2E/DX2 analytically  !
 ! D15   D(17,3,4,8)           161.5337         calculate D2E/DX2 analytically  !
 ! D16   D(17,3,4,18)           42.3935         calculate D2E/DX2 analytically  !
 ! D17   D(3,4,5,6)            164.5717         calculate D2E/DX2 analytically  !
 ! D18   D(3,4,5,7)            -14.9493         calculate D2E/DX2 analytically  !
 ! D19   D(8,4,5,6)            -67.2837         calculate D2E/DX2 analytically  !
 ! D20   D(8,4,5,7)            113.1952         calculate D2E/DX2 analytically  !
 ! D21   D(18,4,5,6)            50.062          calculate D2E/DX2 analytically  !
 ! D22   D(18,4,5,7)          -129.4591         calculate D2E/DX2 analytically  !
 ! D23   D(3,4,8,9)            -56.2643         calculate D2E/DX2 analytically  !
 ! D24   D(3,4,8,20)          -176.1842         calculate D2E/DX2 analytically  !
 ! D25   D(3,4,8,21)            67.5248         calculate D2E/DX2 analytically  !
 ! D26   D(5,4,8,9)            178.1539         calculate D2E/DX2 analytically  !
 ! D27   D(5,4,8,20)            58.234          calculate D2E/DX2 analytically  !
 ! D28   D(5,4,8,21)           -58.057          calculate D2E/DX2 analytically  !
 ! D29   D(18,4,8,9)            61.3994         calculate D2E/DX2 analytically  !
 ! D30   D(18,4,8,20)          -58.5205         calculate D2E/DX2 analytically  !
 ! D31   D(18,4,8,21)         -174.8115         calculate D2E/DX2 analytically  !
 ! D32   D(4,5,6,19)            -2.2359         calculate D2E/DX2 analytically  !
 ! D33   D(7,5,6,19)           177.3042         calculate D2E/DX2 analytically  !
 ! D34   D(4,8,9,10)           -91.9136         calculate D2E/DX2 analytically  !
 ! D35   D(4,8,9,13)            85.0596         calculate D2E/DX2 analytically  !
 ! D36   D(20,8,9,10)           27.6848         calculate D2E/DX2 analytically  !
 ! D37   D(20,8,9,13)         -155.3421         calculate D2E/DX2 analytically  !
 ! D38   D(21,8,9,10)          145.1832         calculate D2E/DX2 analytically  !
 ! D39   D(21,8,9,13)          -37.8436         calculate D2E/DX2 analytically  !
 ! D40   D(8,9,10,11)          177.1271         calculate D2E/DX2 analytically  !
 ! D41   D(8,9,10,22)           -2.4995         calculate D2E/DX2 analytically  !
 ! D42   D(13,9,10,11)          -0.2284         calculate D2E/DX2 analytically  !
 ! D43   D(13,9,10,22)        -179.855          calculate D2E/DX2 analytically  !
 ! D44   D(8,9,13,12)         -177.4772         calculate D2E/DX2 analytically  !
 ! D45   D(8,9,13,24)            1.8542         calculate D2E/DX2 analytically  !
 ! D46   D(10,9,13,12)           0.2103         calculate D2E/DX2 analytically  !
 ! D47   D(10,9,13,24)         179.5417         calculate D2E/DX2 analytically  !
 ! D48   D(9,10,11,12)           0.157          calculate D2E/DX2 analytically  !
 ! D49   D(22,10,11,12)        179.8136         calculate D2E/DX2 analytically  !
 ! D50   D(10,11,12,13)         -0.0184         calculate D2E/DX2 analytically  !
 ! D51   D(10,11,12,23)       -179.8148         calculate D2E/DX2 analytically  !
 ! D52   D(11,12,13,9)          -0.1235         calculate D2E/DX2 analytically  !
 ! D53   D(11,12,13,24)       -179.4222         calculate D2E/DX2 analytically  !
 ! D54   D(23,12,13,9)         179.6847         calculate D2E/DX2 analytically  !
 ! D55   D(23,12,13,24)          0.386          calculate D2E/DX2 analytically  !
 ! D56   D(2,14,15,16)         178.7562         calculate D2E/DX2 analytically  !
 ! D57   D(2,14,15,27)         -59.4451         calculate D2E/DX2 analytically  !
 ! D58   D(2,14,15,28)          56.7759         calculate D2E/DX2 analytically  !
 ! D59   D(25,14,15,16)         56.0991         calculate D2E/DX2 analytically  !
 ! D60   D(25,14,15,27)        177.8978         calculate D2E/DX2 analytically  !
 ! D61   D(25,14,15,28)        -65.8812         calculate D2E/DX2 analytically  !
 ! D62   D(26,14,15,16)        -60.8223         calculate D2E/DX2 analytically  !
 ! D63   D(26,14,15,27)         60.9764         calculate D2E/DX2 analytically  !
 ! D64   D(26,14,15,28)        177.1974         calculate D2E/DX2 analytically  !
 ! D65   D(14,15,16,29)        -58.4127         calculate D2E/DX2 analytically  !
 ! D66   D(14,15,16,30)         59.1529         calculate D2E/DX2 analytically  !
 ! D67   D(27,15,16,29)        179.5809         calculate D2E/DX2 analytically  !
 ! D68   D(27,15,16,30)        -62.8534         calculate D2E/DX2 analytically  !
 ! D69   D(28,15,16,29)         64.1716         calculate D2E/DX2 analytically  !
 ! D70   D(28,15,16,30)       -178.2628         calculate D2E/DX2 analytically  !
 --------------------------------------------------------------------------------
 Trust Radius=3.00D-01 FncErr=1.00D-07 GrdErr=1.00D-06
 Number of steps in this run=    160 maximum allowed number of steps=    180.
 GradGradGradGradGradGradGradGradGradGradGradGradGradGradGradGradGradGrad

                          Input orientation:                          
 ---------------------------------------------------------------------
 Center     Atomic      Atomic             Coordinates (Angstroms)
 Number     Number       Type             X           Y           Z
 ---------------------------------------------------------------------
      1          8           0        0.280076   -0.259227   -1.279438
      2          6           0        0.949501   -0.158872   -0.249798
      3          7           0        0.493702   -0.528654    0.979487
      4          6           0       -0.616052   -1.434154    1.239824
      5          6           0       -0.165782   -2.893307    1.091772
      6          8           0       -1.011697   -3.808590    1.622156
      7          8           0        0.851977   -3.235870    0.562694
      8          6           0       -1.875739   -1.184206    0.390509
      9          6           0       -2.394627    0.209002    0.523119
     10          6           0       -3.318514    0.773416    1.356456
     11          7           0       -3.408081    2.134965    1.128260
     12          6           0       -2.549011    2.377768    0.166802
     13          7           0       -1.913559    1.250695   -0.234345
     14          6           0        2.357461    0.424218   -0.240307
     15          6           0        2.666987    1.255801   -1.484724
     16          7           0        3.996323    1.859687   -1.508106
     17          1           0        1.178621   -0.504817    1.715468
     18          1           0       -0.878044   -1.281316    2.291542
     19          1           0       -1.756579   -3.374081    2.043759
     20          1           0       -2.651343   -1.877186    0.725335
     21          1           0       -1.660789   -1.419981   -0.647874
     22          1           0       -3.922403    0.289426    2.110935
     23          1           0       -2.336948    3.333540   -0.278585
     24          1           0       -1.202253    1.155990   -0.948429
     25          1           0        2.492418    1.025139    0.666134
     26          1           0        3.071227   -0.408875   -0.171547
     27          1           0        2.560782    0.623066   -2.365263
     28          1           0        1.927898    2.053224   -1.579966
     29          1           0        4.125069    2.461991   -0.702866
     30          1           0        4.709286    1.141108   -1.450048
 ---------------------------------------------------------------------
                    Distance matrix (angstroms):
                    1          2          3          4          5
     1  O    0.000000
     2  C    1.232217   0.000000
     3  N    2.284943   1.362216   0.000000
     4  C    2.920647   2.509237   1.455768   0.000000
     5  C    3.572087   3.243578   2.457460   1.534205   0.000000
     6  O    4.762972   4.546531   3.665682   2.437346   1.354482
     7  O    3.546961   3.183955   2.762444   2.420701   1.197125
     8  C    2.879558   3.072993   2.528022   1.539683   2.517289
     9  C    3.259216   3.451945   3.015767   2.525264   3.862051
    10  C    4.578661   4.654585   4.046045   3.491457   4.842997
    11  N    5.013150   5.113634   4.726617   4.532823   5.983088
    12  C    4.129053   4.341391   4.285539   4.406638   5.858291
    13  N    2.860790   3.191274   3.230228   3.326427   4.688930
    14  C    2.421243   1.523954   2.422696   3.806062   4.375747
    15  C    2.834571   2.544819   3.738955   5.043547   5.646062
    16  N    4.283990   3.865365   4.915348   6.298770   6.831796
    17  H    3.136425   2.008593   1.005660   2.076236   2.810925
    18  H    3.890734   3.325389   2.041979   1.094583   2.131965
    19  H    4.989381   4.787572   3.780595   2.389651   1.915217
    20  H    3.902579   4.107257   3.431390   2.145550   2.710127
    21  H    2.348017   2.926171   2.843343   2.157564   2.726189
    22  H    5.427382   5.432262   4.631567   3.829037   5.027989
    23  H    4.556149   4.795677   4.950946   5.291310   6.735388
    24  H    2.075983   2.616676   3.071017   3.441065   4.651182
    25  H    3.213923   2.149746   2.550947   4.004975   4.754095
    26  H    3.006715   2.137837   2.825396   4.079117   4.271605
    27  H    2.675644   2.771795   4.097148   5.226956   5.634724
    28  H    2.855356   2.760430   3.908172   5.156035   5.999154
    29  H    4.745674   4.142273   4.996108   6.436786   7.093049
    30  H    4.648434   4.155301   5.144112   6.498200   6.819358
                    6          7          8          9         10
     6  O    0.000000
     7  O    2.218952   0.000000
     8  C    3.025048   3.417515   0.000000
     9  C    4.388784   4.733831   1.492602   0.000000
    10  C    5.136806   5.839300   2.616665   1.366228   0.000000
    11  N    6.427475   6.878505   3.729510   2.258897   1.383442
    12  C    6.538533   6.575438   3.631941   2.203256   2.140410
    13  N    5.464094   5.330360   2.514084   1.374883   2.175395
    14  C    5.721595   4.038259   4.572192   4.817829   5.906630
    15  C    6.988095   5.259401   5.486939   5.545012   6.643133
    16  N    8.185851   6.335600   6.881216   6.906147   7.930481
    17  H    3.964986   2.982321   3.397970   3.833971   4.689028
    18  H    2.617834   3.130842   2.149128   2.765573   3.324485
    19  H    0.959894   3.002869   2.746450   3.944355   4.484836
    20  H    2.687573   3.761080   1.092652   2.111628   2.805195
    21  H    3.358543   3.328202   1.086293   2.136195   3.402407
    22  H    5.050233   6.133471   3.052915   2.204932   1.080818
    23  H    7.508604   7.350792   4.590254   3.226266   3.192345
    24  H    5.593860   5.078562   2.779003   2.117545   3.152367
    25  H    6.046300   4.567051   4.902854   4.956787   5.857204
    26  H    5.607647   3.668254   5.038802   5.544357   6.675432
    27  H    6.949941   5.136568   5.526593   5.750676   6.959879
    28  H    7.297648   5.807161   5.369486   5.148625   6.146976
    29  H    8.432809   6.691815   7.106330   7.006099   7.905632
    30  H    8.165022   6.171539   7.222000   7.431540   8.512181
                   11         12         13         14         15
    11  N    0.000000
    12  C    1.312005   0.000000
    13  N    2.207312   1.354626   0.000000
    14  C    6.167747   5.296749   4.350254   0.000000
    15  C    6.671362   5.585068   4.748144   1.528369   0.000000
    16  N    7.864566   6.776069   6.076186   2.520666   1.460259
    17  H    5.324574   4.960130   4.055264   2.465324   3.944140
    18  H    4.407413   4.549236   3.723370   4.448325   5.767530
    19  H    5.823674   6.102022   5.157806   6.047260   7.311220
    20  H    4.102725   4.292675   3.353946   5.596162   6.556264
    21  H    4.341120   3.984411   2.714297   4.439990   5.156528
    22  H    2.153181   3.166548   3.234166   6.706951   7.568534
    23  H    2.136147   1.075566   2.125902   5.522960   5.550778
    24  H    3.183820   2.133129   1.012344   3.702498   3.907505
    25  H    6.021724   5.243561   4.502707   1.095881   2.170224
    26  H    7.081105   6.282271   5.254161   1.099197   2.158469
    27  H    7.079398   5.966600   4.995443   2.143903   1.089487
    28  H    5.984467   4.816559   4.148679   2.152411   1.091424
    29  H    7.759402   6.731029   6.176712   2.736954   2.047485
    30  H    8.574793   7.538328   6.734390   2.740162   2.045810
                   16         17         18         19         20
    16  N    0.000000
    17  H    4.890987   0.000000
    18  H    6.932725   2.272594   0.000000
    19  H    8.550085   4.117749   2.283175   0.000000
    20  H    7.946316   4.187168   2.439806   2.186216   0.000000
    21  H    6.595388   3.805938   3.045010   3.327548   1.753835
    22  H    8.846999   5.177611   3.430448   4.256359   2.868743
    23  H    6.617725   5.573908   5.480041   7.121958   5.315859
    24  H    5.275757   3.939948   4.067307   5.457290   3.755197
    25  H    2.772277   2.273308   4.395646   6.269368   5.906375
    26  H    2.790800   2.674321   4.735473   6.083399   5.975629
    27  H    2.079598   4.453634   6.094098   7.352296   6.555097
    28  H    2.078702   4.238499   5.829326   7.494157   6.460029
    29  H    1.013783   4.830305   6.928922   8.729116   8.172390
    30  H    1.013925   5.019478   7.147439   8.625603   8.247499
                   21         22         23         24         25
    21  H    0.000000
    22  H    3.955755   0.000000
    23  H    4.815551   4.182117   0.000000
    24  H    2.633669   4.184478   2.545182   0.000000
    25  H    4.995434   6.616543   5.435437   4.034170   0.000000
    26  H    4.862222   7.389737   6.577650   4.616815   1.758729
    27  H    4.994510   7.885388   5.973998   4.056089   3.058709
    28  H    5.080416   7.138610   4.639150   3.316883   2.533891
    29  H    6.967703   8.797688   6.534315   5.490564   2.569874
    30  H    6.912345   9.376140   7.471847   5.932801   3.066949
                   26         27         28         29         30
    26  H    0.000000
    27  H    2.477467   0.000000
    28  H    3.058230   1.750024   0.000000
    29  H    3.103989   2.931245   2.400823   0.000000
    30  H    2.592343   2.392081   2.930009   1.626137   0.000000
 Symmetry turned off by external request.
 Stoichiometry    C9H14N4O3
 Framework group  C1[X(C9H14N4O3)]
 Deg. of freedom    84
 Full point group                 C1      NOp   1
 Rotational constants (GHZ):      0.5402563      0.4097795      0.2497933
 Standard basis: 6-31G(d) (6D, 7F)
   268 basis functions,   504 primitive gaussians,   268 cartesian basis functions
    60 alpha electrons       60 beta electrons
       nuclear repulsion energy      1133.9479686227 Hartrees.
 NAtoms=   30 NActive=   30 NUniq=   30 SFac= 1.00D+00 NAtFMM=   60 NAOKFM=F Big=F
 Integral buffers will be    131072 words long.
 Raffenetti 2 integral format.
 Two-electron integral symmetry is turned off.
 Nuclear repulsion after empirical dispersion term =     1133.8925071366 Hartrees.
 One-electron integrals computed using PRISM.
 NBasis=   268 RedAO= T EigKep=  1.14D-03  NBF=   268
 NBsUse=   268 1.00D-06 EigRej= -1.00D+00 NBFU=   268
 ExpMin= 1.61D-01 ExpMax= 5.48D+03 ExpMxC= 8.25D+02 IAcc=3 IRadAn=         5 AccDes= 0.00D+00
 Harris functional with IExCor=  402 and IRadAn=       5 diagonalized for initial guess.
 HarFok:  IExCor=  402 AccDes= 0.00D+00 IRadAn=         5 IDoV= 1 UseB2=F ITyADJ=14
 ICtDFT=  3500011 ScaDFX=  1.000000  1.000000  1.000000  1.000000
 FoFCou: FMM=F IPFlag=           0 FMFlag=      100000 FMFlg1=           0
         NFxFlg=           0 DoJE=T BraDBF=F KetDBF=T FulRan=T
         wScrn=  0.000000 ICntrl=     500 IOpCl=  0 I1Cent=   200000004 NGrid=           0
         NMat0=    1 NMatS0=      1 NMatT0=    0 NMatD0=    1 NMtDS0=    0 NMtDT0=    0
 Symmetry not used in FoFCou.
 Requested convergence on RMS density matrix=1.00D-08 within 128 cycles.
 Requested convergence on MAX density matrix=1.00D-06.
 Requested convergence on             energy=1.00D-06.
 No special actions if energy rises.
 Integral accuracy reduced to 1.0D-05 until final iterations.
 Initial convergence to 1.0D-05 achieved.  Increase integral accuracy.
 SCF Done:  E(RB3LYP) =  -796.121756245     A.U. after   14 cycles
            NFock= 14  Conv=0.85D-08     -V/T= 2.0089
 DoSCS=F DFT=T ScalE2(SS,OS)=  1.000000  1.000000
 Range of M.O.s used for correlation:     1   268
 NBasis=   268 NAE=    60 NBE=    60 NFC=     0 NFV=     0
 NROrb=    268 NOA=    60 NOB=    60 NVA=   208 NVB=   208
 Symmetrizing basis deriv contribution to polar:
 IMax=3 JMax=2 DiffMx= 0.00D+00
 G2DrvN: will do    31 centers at a time, making    1 passes.
 Calling FoFCou, ICntrl=  3107 FMM=F I1Cent=   0 AccDes= 0.00D+00.
 End of G2Drv F.D. properties file   721 does not exist.
 End of G2Drv F.D. properties file   722 does not exist.
 End of G2Drv F.D. properties file   788 does not exist.
          IDoAtm=111111111111111111111111111111
          Differentiating once with respect to nuclear coordinates.
          There are    93 degrees of freedom in the 1st order CPHF.  IDoFFX=6 NUNeed=     0.
     87 vectors produced by pass  0 Test12= 1.34D-14 1.08D-09 XBig12= 1.77D-01 9.03D-02.
 AX will form    87 AO Fock derivatives at one time.
     87 vectors produced by pass  1 Test12= 1.34D-14 1.08D-09 XBig12= 2.68D-02 4.28D-02.
     87 vectors produced by pass  2 Test12= 1.34D-14 1.08D-09 XBig12= 2.40D-04 3.59D-03.
     87 vectors produced by pass  3 Test12= 1.34D-14 1.08D-09 XBig12= 8.65D-07 1.36D-04.
     87 vectors produced by pass  4 Test12= 1.34D-14 1.08D-09 XBig12= 1.15D-09 3.49D-06.
     72 vectors produced by pass  5 Test12= 1.34D-14 1.08D-09 XBig12= 9.80D-13 8.01D-08.
     12 vectors produced by pass  6 Test12= 1.34D-14 1.08D-09 XBig12= 7.20D-16 2.41D-09.
 InvSVY:  IOpt=1 It=  1 EMax= 6.38D-16
 Solved reduced A of dimension   519 with    93 vectors.
 End of Minotr F.D. properties file   721 does not exist.
 End of Minotr F.D. properties file   722 does not exist.
 End of Minotr F.D. properties file   788 does not exist.

 **********************************************************************

            Population analysis using the SCF density.

 **********************************************************************

 Alpha  occ. eigenvalues --  -19.21512 -19.15364 -19.13774 -14.38624 -14.37866
 Alpha  occ. eigenvalues --  -14.31975 -14.30371 -10.33482 -10.31193 -10.27065
 Alpha  occ. eigenvalues --  -10.23057 -10.22120 -10.21595 -10.21571 -10.20801
 Alpha  occ. eigenvalues --  -10.19208  -1.12324  -1.05699  -1.04131  -1.00923
 Alpha  occ. eigenvalues --   -0.95362  -0.89108  -0.86235  -0.82119  -0.77017
 Alpha  occ. eigenvalues --   -0.74089  -0.68455  -0.64959  -0.62969  -0.60709
 Alpha  occ. eigenvalues --   -0.60045  -0.58771  -0.56323  -0.53759  -0.52944
 Alpha  occ. eigenvalues --   -0.51399  -0.49387  -0.47017  -0.46224  -0.45507
 Alpha  occ. eigenvalues --   -0.45142  -0.43921  -0.43289  -0.42614  -0.41658
 Alpha  occ. eigenvalues --   -0.40908  -0.40485  -0.40204  -0.39301  -0.38780
 Alpha  occ. eigenvalues --   -0.38085  -0.35496  -0.33560  -0.29986  -0.28352
 Alpha  occ. eigenvalues --   -0.27467  -0.26999  -0.25789  -0.23957  -0.22252
 Alpha virt. eigenvalues --   -0.01123   0.00034   0.02538   0.03798   0.05850
 Alpha virt. eigenvalues --    0.06764   0.07209   0.10401   0.11832   0.12401
 Alpha virt. eigenvalues --    0.13025   0.14095   0.14734   0.15205   0.16288
 Alpha virt. eigenvalues --    0.16942   0.17360   0.18084   0.19536   0.20023
 Alpha virt. eigenvalues --    0.21008   0.22553   0.23833   0.25202   0.25309
 Alpha virt. eigenvalues --    0.28156   0.28402   0.32065   0.32809   0.33713
 Alpha virt. eigenvalues --    0.36456   0.38713   0.40491   0.45760   0.48773
 Alpha virt. eigenvalues --    0.50382   0.50851   0.52502   0.53740   0.54230
 Alpha virt. eigenvalues --    0.54875   0.55871   0.56175   0.57992   0.58534
 Alpha virt. eigenvalues --    0.59576   0.61351   0.61650   0.63746   0.64109
 Alpha virt. eigenvalues --    0.64640   0.65656   0.66655   0.67577   0.69367
 Alpha virt. eigenvalues --    0.70228   0.70541   0.71976   0.73040   0.73855
 Alpha virt. eigenvalues --    0.74888   0.77157   0.79014   0.80639   0.81007
 Alpha virt. eigenvalues --    0.81449   0.82447   0.83072   0.84073   0.84334
 Alpha virt. eigenvalues --    0.85374   0.85974   0.86866   0.87461   0.88183
 Alpha virt. eigenvalues --    0.89148   0.90658   0.91659   0.91950   0.92467
 Alpha virt. eigenvalues --    0.92703   0.93905   0.94738   0.97003   0.97356
 Alpha virt. eigenvalues --    0.99516   1.00433   1.01706   1.04756   1.06273
 Alpha virt. eigenvalues --    1.07171   1.08338   1.10614   1.12743   1.17279
 Alpha virt. eigenvalues --    1.17758   1.21910   1.23447   1.25447   1.29766
 Alpha virt. eigenvalues --    1.30397   1.33278   1.35870   1.36150   1.36995
 Alpha virt. eigenvalues --    1.38093   1.39706   1.39774   1.42272   1.43694
 Alpha virt. eigenvalues --    1.48247   1.49462   1.50403   1.51635   1.53867
 Alpha virt. eigenvalues --    1.54693   1.56326   1.57582   1.62575   1.66111
 Alpha virt. eigenvalues --    1.67465   1.69652   1.73415   1.74575   1.75616
 Alpha virt. eigenvalues --    1.77315   1.77572   1.78382   1.79635   1.83491
 Alpha virt. eigenvalues --    1.84366   1.85197   1.86533   1.88391   1.89502
 Alpha virt. eigenvalues --    1.90912   1.92099   1.93733   1.95143   1.95858
 Alpha virt. eigenvalues --    1.97142   1.99285   2.00189   2.05370   2.07277
 Alpha virt. eigenvalues --    2.07715   2.09222   2.09967   2.11342   2.12537
 Alpha virt. eigenvalues --    2.13345   2.20296   2.21617   2.25047   2.25415
 Alpha virt. eigenvalues --    2.27128   2.28002   2.31105   2.32378   2.33946
 Alpha virt. eigenvalues --    2.36154   2.37074   2.39560   2.41325   2.41769
 Alpha virt. eigenvalues --    2.44746   2.45290   2.47978   2.48556   2.53289
 Alpha virt. eigenvalues --    2.55388   2.59468   2.60055   2.60574   2.61646
 Alpha virt. eigenvalues --    2.63375   2.68125   2.69437   2.71082   2.75473
 Alpha virt. eigenvalues --    2.77412   2.79104   2.83995   2.85495   2.92485
 Alpha virt. eigenvalues --    2.98545   3.00575   3.01580   3.05065   3.09358
 Alpha virt. eigenvalues --    3.14467   3.16158   3.77491   3.82688   3.93624
 Alpha virt. eigenvalues --    4.01866   4.06046   4.09980   4.10605   4.16414
 Alpha virt. eigenvalues --    4.22373   4.25378   4.32242   4.37964   4.44564
 Alpha virt. eigenvalues --    4.50153   4.55791   4.64875
          Condensed to atoms (all electrons):
               1          2          3          4          5          6
     1  O    8.154256   0.512961  -0.085939   0.000638  -0.000470  -0.000003
     2  C    0.512961   4.394437   0.270797  -0.029034   0.001575   0.000131
     3  N   -0.085939   0.270797   7.085173   0.237165  -0.047968   0.003178
     4  C    0.000638  -0.029034   0.237165   5.278176   0.265790  -0.096795
     5  C   -0.000470   0.001575  -0.047968   0.265790   4.401252   0.253666
     6  O   -0.000003   0.000131   0.003178  -0.096795   0.253666   8.241795
     7  O   -0.000867   0.010912  -0.005651  -0.086318   0.618312  -0.076046
     8  C   -0.000932  -0.003223  -0.035313   0.314153  -0.038230   0.001594
     9  C   -0.006790  -0.002486   0.001915  -0.046565   0.003239   0.000258
    10  C    0.000048  -0.000083  -0.000477  -0.002446  -0.000008   0.000001
    11  N   -0.000008  -0.000022   0.000006  -0.000014   0.000001   0.000000
    12  C    0.000328   0.000212   0.000121   0.000102   0.000001   0.000000
    13  N   -0.011966   0.003847  -0.000276  -0.002282  -0.000047  -0.000001
    14  C   -0.087974   0.280249  -0.110409   0.005642  -0.000216   0.000000
    15  C    0.006446  -0.022947   0.002833  -0.000151   0.000000   0.000000
    16  N    0.000263   0.005478  -0.000071   0.000001   0.000000   0.000000
    17  H    0.003557  -0.024235   0.308332  -0.035946   0.000764   0.000055
    18  H   -0.000050   0.003934  -0.040069   0.354688  -0.040656   0.003395
    19  H    0.000001  -0.000025   0.000358   0.007453  -0.022307   0.225900
    20  H    0.000717   0.000392   0.004085  -0.042492  -0.003499   0.004981
    21  H    0.012682   0.002477  -0.006248  -0.038518  -0.001685  -0.000091
    22  H    0.000001   0.000000   0.000001   0.000108  -0.000004   0.000000
    23  H   -0.000007  -0.000001   0.000005  -0.000002   0.000000   0.000000
    24  H    0.036213  -0.000538  -0.002607   0.000107  -0.000041   0.000000
    25  H    0.001815  -0.029998   0.003186   0.000515  -0.000005   0.000000
    26  H    0.000121  -0.015153  -0.002071  -0.000463   0.000119   0.000000
    27  H    0.006232  -0.001182   0.000235   0.000012  -0.000001   0.000000
    28  H    0.002105   0.000866   0.000041  -0.000003   0.000000   0.000000
    29  H    0.000003   0.000099  -0.000004   0.000000   0.000000   0.000000
    30  H    0.000005   0.000162  -0.000002   0.000000   0.000000   0.000000
               7          8          9         10         11         12
     1  O   -0.000867  -0.000932  -0.006790   0.000048  -0.000008   0.000328
     2  C    0.010912  -0.003223  -0.002486  -0.000083  -0.000022   0.000212
     3  N   -0.005651  -0.035313   0.001915  -0.000477   0.000006   0.000121
     4  C   -0.086318   0.314153  -0.046565  -0.002446  -0.000014   0.000102
     5  C    0.618312  -0.038230   0.003239  -0.000008   0.000001   0.000001
     6  O   -0.076046   0.001594   0.000258   0.000001   0.000000   0.000000
     7  O    7.961283  -0.002442  -0.000118   0.000000   0.000000   0.000000
     8  C   -0.002442   5.261602   0.326813  -0.069318   0.007523   0.006939
     9  C   -0.000118   0.326813   4.723310   0.569352  -0.040196  -0.091651
    10  C    0.000000  -0.069318   0.569352   4.962761   0.423737  -0.123530
    11  N    0.000000   0.007523  -0.040196   0.423737   6.670538   0.536003
    12  C    0.000000   0.006939  -0.091651  -0.123530   0.536003   4.738063
    13  N    0.000000  -0.064822   0.371619  -0.068764  -0.087184   0.360371
    14  C   -0.000635   0.000132  -0.000174   0.000001   0.000000   0.000022
    15  C    0.000005   0.000010   0.000001   0.000000   0.000000  -0.000004
    16  N    0.000000   0.000000   0.000000   0.000000   0.000000   0.000000
    17  H    0.001729   0.004696  -0.000167  -0.000024   0.000000   0.000014
    18  H    0.001793  -0.033769  -0.003978   0.002835  -0.000065  -0.000069
    19  H    0.004744  -0.000186  -0.000178   0.000003   0.000000   0.000000
    20  H   -0.000073   0.345383  -0.028528  -0.002602   0.000002   0.000010
    21  H    0.001073   0.353348  -0.017592   0.002976  -0.000180   0.000060
    22  H    0.000000  -0.001211  -0.062726   0.380714  -0.042709   0.007622
    23  H    0.000000  -0.000189   0.003434   0.007550  -0.039411   0.381632
    24  H    0.000001  -0.002786  -0.025045   0.008239   0.004311  -0.021872
    25  H    0.000004  -0.000041   0.000020   0.000000   0.000000  -0.000003
    26  H    0.000643  -0.000003   0.000001   0.000000   0.000000   0.000000
    27  H   -0.000001  -0.000002   0.000001   0.000000   0.000000   0.000000
    28  H    0.000000  -0.000001   0.000000   0.000000   0.000000   0.000005
    29  H    0.000000   0.000000   0.000000   0.000000   0.000000   0.000000
    30  H    0.000000   0.000000   0.000000   0.000000   0.000000   0.000000
              13         14         15         16         17         18
     1  O   -0.011966  -0.087974   0.006446   0.000263   0.003557  -0.000050
     2  C    0.003847   0.280249  -0.022947   0.005478  -0.024235   0.003934
     3  N   -0.000276  -0.110409   0.002833  -0.000071   0.308332  -0.040069
     4  C   -0.002282   0.005642  -0.000151   0.000001  -0.035946   0.354688
     5  C   -0.000047  -0.000216   0.000000   0.000000   0.000764  -0.040656
     6  O   -0.000001   0.000000   0.000000   0.000000   0.000055   0.003395
     7  O    0.000000  -0.000635   0.000005   0.000000   0.001729   0.001793
     8  C   -0.064822   0.000132   0.000010   0.000000   0.004696  -0.033769
     9  C    0.371619  -0.000174   0.000001   0.000000  -0.000167  -0.003978
    10  C   -0.068764   0.000001   0.000000   0.000000  -0.000024   0.002835
    11  N   -0.087184   0.000000   0.000000   0.000000   0.000000  -0.000065
    12  C    0.360371   0.000022  -0.000004   0.000000   0.000014  -0.000069
    13  N    6.878577   0.000051  -0.000080   0.000000   0.000027  -0.000260
    14  C    0.000051   5.444794   0.342389  -0.061607   0.002713  -0.000207
    15  C   -0.000080   0.342389   4.854377   0.334655   0.000081   0.000002
    16  N    0.000000  -0.061607   0.334655   6.865288  -0.000010   0.000000
    17  H    0.000027   0.002713   0.000081  -0.000010   0.404287  -0.004435
    18  H   -0.000260  -0.000207   0.000002   0.000000  -0.004435   0.591741
    19  H    0.000003   0.000000   0.000000   0.000000  -0.000020   0.001779
    20  H    0.003606   0.000012   0.000000   0.000000  -0.000100  -0.004874
    21  H   -0.004254   0.000239  -0.000005   0.000000  -0.000136   0.005490
    22  H    0.005046   0.000000   0.000000   0.000000   0.000000   0.000065
    23  H   -0.058696   0.000000   0.000000   0.000000   0.000000  -0.000001
    24  H    0.273588  -0.000568   0.000388   0.000003  -0.000034   0.000037
    25  H    0.000052   0.345937  -0.035578   0.001069   0.001919  -0.000005
    26  H   -0.000003   0.346581  -0.029952   0.000407   0.000732  -0.000002
    27  H    0.000004  -0.048686   0.386609  -0.036836  -0.000008   0.000000
    28  H   -0.000014  -0.056301   0.386675  -0.038153   0.000003   0.000000
    29  H    0.000000  -0.003402  -0.044118   0.315645   0.000003   0.000000
    30  H    0.000000  -0.002585  -0.045491   0.317946   0.000001   0.000000
              19         20         21         22         23         24
     1  O    0.000001   0.000717   0.012682   0.000001  -0.000007   0.036213
     2  C   -0.000025   0.000392   0.002477   0.000000  -0.000001  -0.000538
     3  N    0.000358   0.004085  -0.006248   0.000001   0.000005  -0.002607
     4  C    0.007453  -0.042492  -0.038518   0.000108  -0.000002   0.000107
     5  C   -0.022307  -0.003499  -0.001685  -0.000004   0.000000  -0.000041
     6  O    0.225900   0.004981  -0.000091   0.000000   0.000000   0.000000
     7  O    0.004744  -0.000073   0.001073   0.000000   0.000000   0.000001
     8  C   -0.000186   0.345383   0.353348  -0.001211  -0.000189  -0.002786
     9  C   -0.000178  -0.028528  -0.017592  -0.062726   0.003434  -0.025045
    10  C    0.000003  -0.002602   0.002976   0.380714   0.007550   0.008239
    11  N    0.000000   0.000002  -0.000180  -0.042709  -0.039411   0.004311
    12  C    0.000000   0.000010   0.000060   0.007622   0.381632  -0.021872
    13  N    0.000003   0.003606  -0.004254   0.005046  -0.058696   0.273588
    14  C    0.000000   0.000012   0.000239   0.000000   0.000000  -0.000568
    15  C    0.000000   0.000000  -0.000005   0.000000   0.000000   0.000388
    16  N    0.000000   0.000000   0.000000   0.000000   0.000000   0.000003
    17  H   -0.000020  -0.000100  -0.000136   0.000000   0.000000  -0.000034
    18  H    0.001779  -0.004874   0.005490   0.000065  -0.000001   0.000037
    19  H    0.359812   0.005823  -0.000059   0.000010   0.000000   0.000000
    20  H    0.005823   0.594725  -0.025439   0.002391   0.000005  -0.000064
    21  H   -0.000059  -0.025439   0.503013  -0.000037  -0.000007   0.001226
    22  H    0.000010   0.002391  -0.000037   0.590177  -0.000159  -0.000094
    23  H    0.000000   0.000005  -0.000007  -0.000159   0.554118   0.000238
    24  H    0.000000  -0.000064   0.001226  -0.000094   0.000238   0.369265
    25  H    0.000000   0.000000  -0.000004   0.000000   0.000000  -0.000132
    26  H    0.000000   0.000000  -0.000009   0.000000   0.000000   0.000019
    27  H    0.000000   0.000000   0.000000   0.000000   0.000000  -0.000019
    28  H    0.000000   0.000000  -0.000002   0.000000   0.000002   0.000563
    29  H    0.000000   0.000000   0.000000   0.000000   0.000000   0.000000
    30  H    0.000000   0.000000   0.000000   0.000000   0.000000   0.000000
              25         26         27         28         29         30
     1  O    0.001815   0.000121   0.006232   0.002105   0.000003   0.000005
     2  C   -0.029998  -0.015153  -0.001182   0.000866   0.000099   0.000162
     3  N    0.003186  -0.002071   0.000235   0.000041  -0.000004  -0.000002
     4  C    0.000515  -0.000463   0.000012  -0.000003   0.000000   0.000000
     5  C   -0.000005   0.000119  -0.000001   0.000000   0.000000   0.000000
     6  O    0.000000   0.000000   0.000000   0.000000   0.000000   0.000000
     7  O    0.000004   0.000643  -0.000001   0.000000   0.000000   0.000000
     8  C   -0.000041  -0.000003  -0.000002  -0.000001   0.000000   0.000000
     9  C    0.000020   0.000001   0.000001   0.000000   0.000000   0.000000
    10  C    0.000000   0.000000   0.000000   0.000000   0.000000   0.000000
    11  N    0.000000   0.000000   0.000000   0.000000   0.000000   0.000000
    12  C   -0.000003   0.000000   0.000000   0.000005   0.000000   0.000000
    13  N    0.000052  -0.000003   0.000004  -0.000014   0.000000   0.000000
    14  C    0.345937   0.346581  -0.048686  -0.056301  -0.003402  -0.002585
    15  C   -0.035578  -0.029952   0.386609   0.386675  -0.044118  -0.045491
    16  N    0.001069   0.000407  -0.036836  -0.038153   0.315645   0.317946
    17  H    0.001919   0.000732  -0.000008   0.000003   0.000003   0.000001
    18  H   -0.000005  -0.000002   0.000000   0.000000   0.000000   0.000000
    19  H    0.000000   0.000000   0.000000   0.000000   0.000000   0.000000
    20  H    0.000000   0.000000   0.000000   0.000000   0.000000   0.000000
    21  H   -0.000004  -0.000009   0.000000  -0.000002   0.000000   0.000000
    22  H    0.000000   0.000000   0.000000   0.000000   0.000000   0.000000
    23  H    0.000000   0.000000   0.000000   0.000002   0.000000   0.000000
    24  H   -0.000132   0.000019  -0.000019   0.000563   0.000000   0.000000
    25  H    0.592672  -0.033236   0.005504  -0.004031   0.005284  -0.000266
    26  H   -0.033236   0.548018  -0.005020   0.005333  -0.000384   0.004838
    27  H    0.005504  -0.005020   0.546959  -0.030386   0.006218  -0.004722
    28  H   -0.004031   0.005333  -0.030386   0.582973  -0.004593   0.006581
    29  H    0.005284  -0.000384   0.006218  -0.004593   0.466912  -0.034803
    30  H   -0.000266   0.004838  -0.004722   0.006581  -0.034803   0.462291
 Mulliken charges:
               1
     1  O   -0.543385
     2  C    0.640398
     3  N   -0.580327
     4  C   -0.083521
     5  C    0.610419
     6  O   -0.562018
     7  O   -0.428350
     8  C   -0.369725
     9  C    0.326231
    10  C   -0.090963
    11  N   -0.432332
    12  C    0.205624
    13  N   -0.598142
    14  C   -0.395999
    15  C   -0.136146
    16  N   -0.704079
    17  H    0.336201
    18  H    0.162681
    19  H    0.416891
    20  H    0.145540
    21  H    0.211682
    22  H    0.120806
    23  H    0.151489
    24  H    0.359603
    25  H    0.145324
    26  H    0.179483
    27  H    0.175091
    28  H    0.148337
    29  H    0.293139
    30  H    0.296045
 Sum of Mulliken charges =   0.00000
 Mulliken charges with hydrogens summed into heavy atoms:
               1
     1  O   -0.543385
     2  C    0.640398
     3  N   -0.244126
     4  C    0.079160
     5  C    0.610419
     6  O   -0.145127
     7  O   -0.428350
     8  C   -0.012503
     9  C    0.326231
    10  C    0.029843
    11  N   -0.432332
    12  C    0.357113
    13  N   -0.238538
    14  C   -0.071191
    15  C    0.187282
    16  N   -0.114894
 APT charges:
               1
     1  O   -0.443697
     2  C    0.222995
     3  N   -0.673419
     4  C   -0.536149
     5  C   -0.200781
     6  O   -0.171923
     7  O   -0.044727
     8  C   -0.916669
     9  C   -0.432617
    10  C   -0.282095
    11  N    0.286854
    12  C   -0.515441
    13  N   -0.642562
    14  C   -0.753172
    15  C   -0.670118
    16  N   -1.144609
    17  H    0.654029
    18  H    0.477311
    19  H    0.582267
    20  H    0.582539
    21  H    0.306921
    22  H    0.735911
    23  H    0.613943
    24  H    0.264928
    25  H    0.349487
    26  H    0.500796
    27  H    0.401522
    28  H    0.254785
    29  H    0.530447
    30  H    0.663246
 Sum of APT charges =   0.00000
 APT charges with hydrogens summed into heavy atoms:
               1
     1  O   -0.443697
     2  C    0.222995
     3  N   -0.019390
     4  C   -0.058838
     5  C   -0.200781
     6  O    0.410344
     7  O   -0.044727
     8  C   -0.027209
     9  C   -0.432617
    10  C    0.453816
    11  N    0.286854
    12  C    0.098501
    13  N   -0.377635
    14  C    0.097111
    15  C   -0.013811
    16  N    0.049084
 Electronic spatial extent (au):  <R**2>=           4356.5835
 Charge=              0.0000 electrons
 Dipole moment (field-independent basis, Debye):
    X=              1.9353    Y=             -0.4067    Z=              3.1593  Tot=              3.7273
 Quadrupole moment (field-independent basis, Debye-Ang):
   XX=            -97.0305   YY=           -108.4570   ZZ=            -92.5721
   XY=             15.0469   XZ=              7.6683   YZ=             -6.0996
 Traceless Quadrupole moment (field-independent basis, Debye-Ang):
   XX=              2.3227   YY=             -9.1038   ZZ=              6.7811
   XY=             15.0469   XZ=              7.6683   YZ=             -6.0996
 Octapole moment (field-independent basis, Debye-Ang**2):
  XXX=            153.0363  YYY=            100.5080  ZZZ=            -37.9927  XYY=             11.9898
  XXY=            -49.5922  XXZ=             -8.4977  XZZ=              9.1276  YZZ=            -17.1045
  YYZ=            -28.4735  XYZ=             50.7839
 Hexadecapole moment (field-independent basis, Debye-Ang**3):
 XXXX=          -2925.6168 YYYY=          -2274.9837 ZZZZ=           -712.8605 XXXY=            152.8526
 XXXZ=            528.0931 YYYX=             78.2280 YYYZ=            290.7566 ZZZX=            454.8408
 ZZZY=            246.2459 XXYY=           -911.7829 XXZZ=           -645.3765 YYZZ=           -480.3136
 XXYZ=             73.7958 YYXZ=            209.8525 ZZXY=              1.7696
 N-N= 1.133892507137D+03 E-N=-4.124131011027D+03  KE= 7.891101651952D+02
  Exact polarizability:   0.000   0.000   0.000   0.000   0.000   0.000
 Approx polarizability: 180.670  -6.887 181.096 -31.953  -7.729 173.023
 Calling FoFJK, ICntrl=    100147 FMM=F ISym2X=0 I1Cent= 0 IOpClX= 0 NMat=1 NMatS=1 NMatT=0.
 -------------------------------------------------------------------
 Center     Atomic                   Forces (Hartrees/Bohr)
 Number     Number              X              Y              Z
 -------------------------------------------------------------------
      1        8           0.002532504    0.002286043    0.001056409
      2        6           0.002619478   -0.003147431   -0.005149134
      3        7          -0.007130222   -0.003032873    0.000685555
      4        6           0.005351948   -0.000123352    0.001698213
      5        6          -0.001781290    0.001490281    0.003184486
      6        8           0.005939487   -0.006829947   -0.004029079
      7        8           0.009491021   -0.002454651   -0.005253322
      8        6          -0.005514116    0.005223161    0.000129067
      9        6           0.004473598   -0.009654306   -0.003709665
     10        6          -0.004221450    0.009092112    0.003711785
     11        7          -0.006552943   -0.001057682    0.007042186
     12        6          -0.000085456    0.001771623   -0.000410033
     13        7           0.005340211   -0.001249608   -0.006021114
     14        6          -0.001981130   -0.001906175    0.001026199
     15        6           0.002870175    0.001139754    0.000153342
     16        7          -0.002597283    0.001331478   -0.004431414
     17        1           0.003654998    0.000318982    0.003689361
     18        1          -0.002367357    0.001386516    0.001685674
     19        1          -0.009574664    0.004542993    0.004924606
     20        1          -0.001510775   -0.001282182    0.001347420
     21        1           0.001073070   -0.000868687   -0.002383221
     22        1          -0.001019752   -0.000457059    0.000465113
     23        1          -0.000707612    0.004895694   -0.001114611
     24        1           0.001195420   -0.002486402   -0.000660711
     25        1           0.000969868    0.001455043    0.001473143
     26        1          -0.000966303   -0.001145105    0.000621338
     27        1          -0.001294875   -0.000783685   -0.002572612
     28        1          -0.001880968    0.002105177   -0.001055686
     29        1           0.000747085    0.002211210    0.003528750
     30        1           0.002927331   -0.002770923    0.000367953
 -------------------------------------------------------------------
 Cartesian Forces:  Max     0.009654306 RMS     0.003615940
 FormGI is forming the generalized inverse of G from B-inverse, IUseBI=4.

 GradGradGradGradGradGradGradGradGradGradGradGradGradGradGradGradGradGrad
 Berny optimization.
 Internal  Forces:  Max     0.011649251 RMS     0.002627982
 Search for a local minimum.
 Step number   1 out of a maximum of  160
 All quantities printed in internal units (Hartrees-Bohrs-Radians)
 Mixed Optimization -- RFO/linear search
 Second derivative matrix not updated -- analytic derivatives used.
 ITU=  0
     Eigenvalues ---   -0.00009   0.00106   0.00230   0.00297   0.00327
     Eigenvalues ---    0.00356   0.00517   0.00819   0.00928   0.01117
     Eigenvalues ---    0.01155   0.01993   0.02292   0.02646   0.03116
     Eigenvalues ---    0.03474   0.04122   0.04285   0.04447   0.04487
     Eigenvalues ---    0.04534   0.04749   0.04867   0.05319   0.05466
     Eigenvalues ---    0.06196   0.06309   0.07130   0.07948   0.08366
     Eigenvalues ---    0.08907   0.10550   0.10938   0.11104   0.11971
     Eigenvalues ---    0.12457   0.12888   0.13886   0.14961   0.16369
     Eigenvalues ---    0.16998   0.18140   0.18303   0.18858   0.18973
     Eigenvalues ---    0.20744   0.21837   0.21924   0.23103   0.23632
     Eigenvalues ---    0.23815   0.24542   0.25537   0.27445   0.28932
     Eigenvalues ---    0.30731   0.32876   0.33142   0.33218   0.33887
     Eigenvalues ---    0.34106   0.34264   0.34633   0.35163   0.35284
     Eigenvalues ---    0.36416   0.37320   0.37709   0.37954   0.38695
     Eigenvalues ---    0.42913   0.42986   0.45167   0.45385   0.45652
     Eigenvalues ---    0.46553   0.47167   0.48207   0.49807   0.54566
     Eigenvalues ---    0.60598   0.62029   0.79461   0.95979
 RFO step:  Lambda=-3.39496696D-03 EMin=-8.87211606D-05
 Linear search not attempted -- first point.
 Iteration  1 RMS(Cart)=  0.08329821 RMS(Int)=  0.00276482
 Iteration  2 RMS(Cart)=  0.00423134 RMS(Int)=  0.00012404
 Iteration  3 RMS(Cart)=  0.00000625 RMS(Int)=  0.00012398
 Iteration  4 RMS(Cart)=  0.00000000 RMS(Int)=  0.00012398
 Variable       Old X    -DE/DX   Delta X   Delta X   Delta X     New X
                                 (Linear)    (Quad)   (Total)
    R1        2.32855  -0.00244   0.00000  -0.00280  -0.00280   2.32575
    R2        2.57421   0.00603   0.00000   0.01363   0.01363   2.58785
    R3        2.87986  -0.00049   0.00000  -0.00557  -0.00557   2.87429
    R4        2.75100  -0.00074   0.00000  -0.00586  -0.00586   2.74514
    R5        1.90042   0.00520   0.00000   0.01116   0.01116   1.91158
    R6        2.89923   0.00440   0.00000   0.01537   0.01537   2.91460
    R7        2.90958   0.00768   0.00000   0.02786   0.02786   2.93744
    R8        2.06846   0.00238   0.00000   0.00594   0.00594   2.07440
    R9        2.55960   0.00417   0.00000   0.00403   0.00403   2.56363
   R10        2.26224   0.01109   0.00000   0.01154   0.01154   2.27377
   R11        1.81394   0.01165   0.00000   0.02115   0.02115   1.83509
   R12        2.82061   0.00128   0.00000  -0.00274  -0.00274   2.81787
   R13        2.06481   0.00230   0.00000   0.00711   0.00711   2.07192
   R14        2.05280   0.00268   0.00000   0.00836   0.00836   2.06116
   R15        2.58180   0.01107   0.00000   0.02030   0.02033   2.60212
   R16        2.59815   0.00441   0.00000   0.01054   0.01058   2.60873
   R17        2.61433  -0.00171   0.00000  -0.01134  -0.01136   2.60296
   R18        2.04245   0.00110   0.00000   0.00350   0.00350   2.04595
   R19        2.47933   0.00714   0.00000   0.01339   0.01335   2.49268
   R20        2.55987   0.00983   0.00000   0.01541   0.01541   2.57528
   R21        2.03252   0.00467   0.00000   0.01110   0.01110   2.04363
   R22        1.91305   0.00154   0.00000   0.00449   0.00449   1.91754
   R23        2.88820   0.00518   0.00000   0.01673   0.01673   2.90493
   R24        2.07091   0.00214   0.00000   0.00546   0.00546   2.07637
   R25        2.07718   0.00028   0.00000   0.00123   0.00123   2.07841
   R26        2.75949   0.00131   0.00000   0.00166   0.00166   2.76115
   R27        2.05883   0.00266   0.00000   0.00689   0.00689   2.06572
   R28        2.06249   0.00290   0.00000   0.00903   0.00903   2.07152
   R29        1.91577   0.00421   0.00000   0.00988   0.00988   1.92565
   R30        1.91604   0.00404   0.00000   0.00948   0.00948   1.92552
    A1        2.15337   0.00171   0.00000  -0.00134  -0.00135   2.15202
    A2        2.13920  -0.00349   0.00000  -0.01064  -0.01064   2.12855
    A3        1.99038   0.00177   0.00000   0.01180   0.01180   2.00217
    A4        2.19605   0.00235   0.00000  -0.01345  -0.01408   2.18197
    A5        2.01098  -0.00125   0.00000  -0.00984  -0.01051   2.00047
    A6        1.98565  -0.00104   0.00000  -0.00261  -0.00333   1.98232
    A7        1.92900  -0.00457   0.00000  -0.02096  -0.02092   1.90808
    A8        2.00873   0.00311   0.00000   0.00203   0.00207   2.01080
    A9        1.84153   0.00061   0.00000   0.00987   0.00992   1.85145
   A10        1.91907   0.00191   0.00000   0.01649   0.01649   1.93557
   A11        1.87106   0.00170   0.00000   0.01462   0.01475   1.88581
   A12        1.88759  -0.00284   0.00000  -0.02148  -0.02154   1.86605
   A13        2.00601   0.00016   0.00000   0.00853   0.00853   2.01454
   A14        2.17040  -0.00095   0.00000  -0.00880  -0.00880   2.16160
   A15        2.10674   0.00079   0.00000   0.00030   0.00030   2.10703
   A16        1.92916   0.00146   0.00000   0.00263   0.00263   1.93178
   A17        1.96811   0.00496   0.00000   0.01838   0.01839   1.98650
   A18        1.88468  -0.00198   0.00000  -0.00647  -0.00650   1.87818
   A19        1.90727  -0.00152   0.00000  -0.00767  -0.00767   1.89961
   A20        1.89441  -0.00107   0.00000  -0.00147  -0.00147   1.89294
   A21        1.93511  -0.00150   0.00000  -0.00555  -0.00552   1.92959
   A22        1.87101   0.00092   0.00000   0.00207   0.00203   1.87304
   A23        2.31160   0.00138   0.00000   0.01101   0.01086   2.32246
   A24        2.13722   0.00000   0.00000  -0.00444  -0.00461   2.13262
   A25        1.83346  -0.00136   0.00000  -0.00551  -0.00551   1.82795
   A26        1.92810   0.00298   0.00000   0.00841   0.00841   1.93651
   A27        2.23779  -0.00135   0.00000  -0.00681  -0.00688   2.23091
   A28        2.11728  -0.00162   0.00000  -0.00150  -0.00157   2.11570
   A29        1.83446  -0.00099   0.00000  -0.00145  -0.00147   1.83299
   A30        1.95001   0.00111   0.00000   0.00173   0.00172   1.95173
   A31        2.21056  -0.00249   0.00000  -0.01561  -0.01562   2.19493
   A32        2.12261   0.00139   0.00000   0.01391   0.01389   2.13651
   A33        1.87874  -0.00173   0.00000  -0.00317  -0.00315   1.87559
   A34        2.16951  -0.00142   0.00000  -0.01909  -0.01918   2.15033
   A35        2.23486   0.00315   0.00000   0.02202   0.02190   2.25676
   A36        1.97166  -0.00057   0.00000  -0.00475  -0.00478   1.96689
   A37        1.90576   0.00134   0.00000   0.01833   0.01837   1.92413
   A38        1.88634  -0.00149   0.00000  -0.02051  -0.02047   1.86586
   A39        1.92855  -0.00075   0.00000  -0.00381  -0.00383   1.92472
   A40        1.90901   0.00162   0.00000   0.00983   0.00974   1.91875
   A41        1.85864  -0.00014   0.00000   0.00084   0.00092   1.85956
   A42        2.00690   0.00069   0.00000   0.00621   0.00619   2.01309
   A43        1.89898   0.00014   0.00000   0.00135   0.00131   1.90029
   A44        1.90863   0.00012   0.00000  -0.00223  -0.00223   1.90640
   A45        1.89228  -0.00013   0.00000   0.00373   0.00371   1.89599
   A46        1.88906  -0.00037   0.00000  -0.00135  -0.00134   1.88772
   A47        1.86271  -0.00056   0.00000  -0.00886  -0.00886   1.85385
   A48        1.92686   0.00003   0.00000  -0.00256  -0.00258   1.92428
   A49        1.92423   0.00012   0.00000  -0.00339  -0.00340   1.92083
   A50        1.86113  -0.00023   0.00000  -0.00688  -0.00691   1.85423
    D1        0.34410   0.00109   0.00000   0.06568   0.06556   0.40966
    D2        3.01109   0.00085   0.00000   0.00120   0.00134   3.01243
    D3       -2.82089   0.00023   0.00000   0.05750   0.05736  -2.76353
    D4       -0.15390  -0.00001   0.00000  -0.00698  -0.00686  -0.16076
    D5        0.32202   0.00014   0.00000   0.06019   0.06023   0.38225
    D6        2.47544  -0.00024   0.00000   0.06548   0.06553   2.54098
    D7       -1.79263  -0.00051   0.00000   0.06504   0.06497  -1.72767
    D8       -2.79639   0.00092   0.00000   0.06815   0.06818  -2.72821
    D9       -0.64297   0.00054   0.00000   0.07344   0.07348  -0.56949
   D10        1.37214   0.00027   0.00000   0.07301   0.07291   1.44505
   D11        1.39566   0.00016   0.00000  -0.05865  -0.05862   1.33704
   D12       -0.79101  -0.00106   0.00000  -0.06506  -0.06507  -0.85608
   D13       -2.87040   0.00026   0.00000  -0.04628  -0.04625  -2.91665
   D14       -1.27722   0.00046   0.00000   0.00666   0.00666  -1.27056
   D15        2.81930  -0.00076   0.00000   0.00025   0.00021   2.81950
   D16        0.73991   0.00056   0.00000   0.01903   0.01903   0.75894
   D17        2.87232  -0.00008   0.00000   0.09032   0.09031   2.96263
   D18       -0.26091  -0.00082   0.00000   0.08678   0.08678  -0.17414
   D19       -1.17432   0.00199   0.00000   0.08968   0.08958  -1.08474
   D20        1.97563   0.00125   0.00000   0.08614   0.08605   2.06168
   D21        0.87375   0.00059   0.00000   0.08126   0.08135   0.95510
   D22       -2.25949  -0.00015   0.00000   0.07772   0.07782  -2.18167
   D23       -0.98200  -0.00059   0.00000   0.05471   0.05470  -0.92730
   D24       -3.07499  -0.00098   0.00000   0.04956   0.04958  -3.02542
   D25        1.17853  -0.00017   0.00000   0.05477   0.05474   1.23328
   D26        3.10937   0.00157   0.00000   0.06770   0.06764  -3.10617
   D27        1.01637   0.00117   0.00000   0.06255   0.06252   1.07889
   D28       -1.01329   0.00198   0.00000   0.06776   0.06769  -0.94560
   D29        1.07162   0.00011   0.00000   0.05339   0.05346   1.12508
   D30       -1.02138  -0.00028   0.00000   0.04825   0.04833  -0.97304
   D31       -3.05104   0.00053   0.00000   0.05346   0.05350  -2.99754
   D32       -0.03902   0.00004   0.00000   0.02661   0.02660  -0.01242
   D33        3.09454   0.00074   0.00000   0.02996   0.02997   3.12451
   D34       -1.60419   0.00038   0.00000  -0.00599  -0.00605  -1.61025
   D35        1.48457   0.00083   0.00000   0.02457   0.02461   1.50918
   D36        0.48319   0.00028   0.00000  -0.00361  -0.00365   0.47954
   D37       -2.71123   0.00073   0.00000   0.02695   0.02702  -2.68421
   D38        2.53392  -0.00011   0.00000  -0.00518  -0.00523   2.52869
   D39       -0.66050   0.00034   0.00000   0.02538   0.02544  -0.63506
   D40        3.09145   0.00057   0.00000   0.02967   0.02987   3.12132
   D41       -0.04363   0.00002   0.00000   0.01118   0.01129  -0.03233
   D42       -0.00399   0.00016   0.00000   0.00303   0.00311  -0.00088
   D43       -3.13906  -0.00039   0.00000  -0.01546  -0.01547   3.12865
   D44       -3.09756  -0.00063   0.00000  -0.02589  -0.02575  -3.12332
   D45        0.03236  -0.00025   0.00000  -0.04566  -0.04521  -0.01285
   D46        0.00367  -0.00022   0.00000  -0.00209  -0.00213   0.00154
   D47        3.13359   0.00015   0.00000  -0.02185  -0.02159   3.11200
   D48        0.00274  -0.00006   0.00000  -0.00284  -0.00289  -0.00015
   D49        3.13834   0.00045   0.00000   0.01414   0.01425  -3.13060
   D50       -0.00032  -0.00008   0.00000   0.00149   0.00149   0.00117
   D51       -3.13836  -0.00034   0.00000  -0.00731  -0.00706   3.13777
   D52       -0.00216   0.00019   0.00000   0.00035   0.00040  -0.00176
   D53       -3.13151  -0.00016   0.00000   0.02146   0.02181  -3.10969
   D54        3.13609   0.00042   0.00000   0.00857   0.00855  -3.13855
   D55        0.00674   0.00007   0.00000   0.02968   0.02996   0.03670
   D56        3.11988   0.00073   0.00000   0.04507   0.04508  -3.11822
   D57       -1.03751   0.00115   0.00000   0.05523   0.05525  -0.98226
   D58        0.99093   0.00063   0.00000   0.04417   0.04418   1.03511
   D59        0.97911  -0.00004   0.00000   0.02745   0.02745   1.00656
   D60        3.10490   0.00037   0.00000   0.03761   0.03762  -3.14066
   D61       -1.14984  -0.00014   0.00000   0.02655   0.02656  -1.12329
   D62       -1.06155  -0.00040   0.00000   0.02278   0.02275  -1.03880
   D63        1.06424   0.00002   0.00000   0.03294   0.03292   1.09716
   D64        3.09268  -0.00050   0.00000   0.02187   0.02186   3.11453
   D65       -1.01949   0.00024   0.00000   0.02052   0.02052  -0.99898
   D66        1.03241   0.00005   0.00000   0.00842   0.00844   1.04085
   D67        3.13428  -0.00032   0.00000   0.01169   0.01167  -3.13724
   D68       -1.09700  -0.00051   0.00000  -0.00040  -0.00041  -1.09741
   D69        1.12001   0.00060   0.00000   0.02086   0.02086   1.14086
   D70       -3.11127   0.00040   0.00000   0.00877   0.00878  -3.10249
         Item               Value     Threshold  Converged?
 Maximum Force            0.011649     0.000450     NO 
 RMS     Force            0.002628     0.000300     NO 
 Maximum Displacement     0.344711     0.001800     NO 
 RMS     Displacement     0.084323     0.001200     NO 
 Predicted change in Energy=-1.953917D-03
 GradGradGradGradGradGradGradGradGradGradGradGradGradGradGradGradGradGrad

                          Input orientation:                          
 ---------------------------------------------------------------------
 Center     Atomic      Atomic             Coordinates (Angstroms)
 Number     Number       Type             X           Y           Z
 ---------------------------------------------------------------------
      1          8           0        0.284661   -0.237746   -1.237556
      2          6           0        0.956883   -0.149784   -0.210380
      3          7           0        0.486418   -0.496504    1.028080
      4          6           0       -0.602930   -1.424982    1.276052
      5          6           0       -0.096805   -2.869011    1.082595
      6          8           0       -0.947054   -3.843870    1.491411
      7          8           0        0.974441   -3.146085    0.609917
      8          6           0       -1.890714   -1.172465    0.442938
      9          6           0       -2.410183    0.221556    0.544901
     10          6           0       -3.330312    0.823870    1.373556
     11          7           0       -3.450459    2.165108    1.083808
     12          6           0       -2.611109    2.376389    0.088424
     13          7           0       -1.959490    1.236179   -0.275555
     14          6           0        2.375096    0.399783   -0.220992
     15          6           0        2.658058    1.287405   -1.443738
     16          7           0        4.015283    1.822002   -1.527810
     17          1           0        1.182535   -0.484172    1.761930
     18          1           0       -0.875648   -1.298751    2.331844
     19          1           0       -1.758090   -3.458669    1.861345
     20          1           0       -2.663178   -1.858485    0.810084
     21          1           0       -1.693560   -1.432561   -0.597806
     22          1           0       -3.920383    0.363715    2.156015
     23          1           0       -2.440506    3.323930   -0.404096
     24          1           0       -1.246317    1.101952   -0.984794
     25          1           0        2.575000    0.954092    0.706408
     26          1           0        3.053564   -0.465868   -0.220916
     27          1           0        2.451291    0.715000   -2.351779
     28          1           0        1.957838    2.130814   -1.447395
     29          1           0        4.235840    2.357979   -0.689680
     30          1           0        4.689737    1.059079   -1.563855
 ---------------------------------------------------------------------
                    Distance matrix (angstroms):
                    1          2          3          4          5
     1  O    0.000000
     2  C    1.230735   0.000000
     3  N    2.289272   1.369429   0.000000
     4  C    2.918145   2.503722   1.452666   0.000000
     5  C    3.528764   3.190022   2.443749   1.542339   0.000000
     6  O    4.687058   4.490806   3.670746   2.452717   1.356615
     7  O    3.513885   3.106608   2.726409   2.427762   1.203230
     8  C    2.903449   3.095401   2.539699   1.554424   2.550597
     9  C    3.263479   3.470659   3.023139   2.551830   3.897748
    10  C    4.583989   4.672996   4.053414   3.536305   4.917072
    11  N    5.011343   5.143764   4.752503   4.586298   6.048914
    12  C    4.120365   4.381940   4.327949   4.460232   5.901214
    13  N    2.852037   3.229608   3.268657   3.365934   4.708158
    14  C    2.410345   1.521008   2.435286   3.799940   4.300540
    15  C    2.828711   2.545718   3.742758   5.038684   5.589940
    16  N    4.271340   3.870061   4.935680   6.303367   6.762329
    17  H    3.140671   2.013142   1.011567   2.075834   2.790281
    18  H    3.900341   3.337843   2.049054   1.097728   2.152425
    19  H    4.914302   4.755191   3.808749   2.410985   1.927178
    20  H    3.938195   4.131083   3.438382   2.156310   2.771588
    21  H    2.397962   2.969926   2.876110   2.168149   2.727043
    22  H    5.436954   5.445294   4.629482   3.870306   5.120791
    23  H    4.561439   4.862764   5.021328   5.362066   6.786436
    24  H    2.050018   2.649651   3.099854   3.451197   4.622123
    25  H    3.231891   2.162717   2.563177   4.010452   4.679335
    26  H    2.958449   2.120399   2.855026   4.065804   4.171219
    27  H    2.616009   2.750763   4.092911   5.202782   5.579682
    28  H    2.907512   2.780872   3.898186   5.159301   5.968305
    29  H    4.759178   4.155739   5.015670   6.448922   7.016709
    30  H    4.603577   4.150596   5.177438   6.499842   6.733838
                    6          7          8          9         10
     6  O    0.000000
     7  O    2.226225   0.000000
     8  C    3.020960   3.483127   0.000000
     9  C    4.423157   4.775030   1.491153   0.000000
    10  C    5.242290   5.905470   2.631319   1.376985   0.000000
    11  N    6.522346   6.929147   3.739373   2.269359   1.377428
    12  C    6.590074   6.604986   3.638545   2.211797   2.139891
    13  N    5.473033   5.347545   2.514463   1.380482   2.183739
    14  C    5.654873   3.901976   4.594551   4.849459   5.939201
    15  C    6.924010   5.167968   5.504710   5.547773   6.634198
    16  N    8.114345   6.204715   6.908797   6.938600   7.960650
    17  H    3.986967   2.907958   3.414433   3.858346   4.714615
    18  H    2.681241   3.130575   2.148086   2.803444   3.383668
    19  H    0.971087   3.021672   2.693734   3.962615   4.588024
    20  H    2.711281   3.863968   1.096413   2.112084   2.820921
    21  H    3.276661   3.393078   1.090719   2.134346   3.414192
    22  H    5.194820   6.218393   3.068230   2.212827   1.082667
    23  H    7.563115   7.385877   4.608395   3.244416   3.194073
    24  H    5.539161   5.051800   2.761636   2.114153   3.159458
    25  H    6.003460   4.402562   4.953208   5.041303   5.944304
    26  H    5.508894   3.492364   5.038440   5.559817   6.705195
    27  H    6.863101   5.085342   5.497816   5.680508   6.878728
    28  H    7.264422   5.748501   5.412612   5.166635   6.134362
    29  H    8.371529   6.528430   7.161113   7.089296   7.991063
    30  H    8.071367   6.017650   7.232520   7.453668   8.544290
                   11         12         13         14         15
    11  N    0.000000
    12  C    1.319067   0.000000
    13  N    2.221208   1.362779   0.000000
    14  C    6.225429   5.372611   4.414880   0.000000
    15  C    6.668795   5.594419   4.763299   1.537221   0.000000
    16  N    7.916791   6.843145   6.132637   2.533909   1.461137
    17  H    5.379886   5.037377   4.121076   2.477005   3.948665
    18  H    4.492835   4.642350   3.794616   4.468705   5.781894
    19  H    5.924150   6.157824   5.162219   6.025529   7.276755
    20  H    4.109019   4.296238   3.354211   5.616680   6.579657
    21  H    4.342551   3.977551   2.701248   4.478106   5.201000
    22  H    2.148365   3.168594   3.243274   6.729377   7.555614
    23  H    2.139330   1.081441   2.146300   5.636860   5.587812
    24  H    3.204318   2.153751   1.014718   3.767103   3.935628
    25  H    6.157528   5.412999   4.648163   1.098768   2.177412
    26  H    7.136292   6.345285   5.294399   1.099850   2.173864
    27  H    6.981170   5.860264   4.902787   2.155324   1.093133
    28  H    5.971419   4.826420   4.185575   2.162091   1.096202
    29  H    7.890606   6.891045   6.309679   2.741637   2.050397
    30  H    8.631119   7.600506   6.775197   2.755996   2.047995
                   16         17         18         19         20
    16  N    0.000000
    17  H    4.915820   0.000000
    18  H    6.968302   2.285707   0.000000
    19  H    8.526646   4.183873   2.380193   0.000000
    20  H    7.975812   4.193359   2.413363   2.117765   0.000000
    21  H    6.636865   3.839234   3.044623   3.186958   1.761739
    22  H    8.869722   5.187869   3.473489   4.401473   2.886220
    23  H    6.722777   5.685045   5.594938   7.183424   5.327405
    24  H    5.338331   3.994947   4.111065   5.400156   3.740757
    25  H    2.796321   2.263115   4.429934   6.291424   5.946415
    26  H    2.804857   2.726309   4.759095   6.036944   5.973566
    27  H    2.085773   4.468820   6.087696   7.272470   6.540489
    28  H    2.082044   4.211771   5.837226   7.483195   6.508803
    29  H    1.019009   4.838480   6.973421   8.733174   8.223401
    30  H    1.018941   5.073749   7.190921   8.585832   8.259124
                   21         22         23         24         25
    21  H    0.000000
    22  H    3.971005   0.000000
    23  H    4.818679   4.184146   0.000000
    24  H    2.602603   4.190501   2.588530   0.000000
    25  H    5.061392   6.681310   5.657266   4.181446   0.000000
    26  H    4.859190   7.414442   6.676896   4.640102   1.762169
    27  H    4.986805   7.812928   5.876195   3.961147   3.070012
    28  H    5.172248   7.117632   4.675194   3.396935   2.530697
    29  H    7.038070   8.865610   6.751905   5.631940   2.584251
    30  H    6.920116   9.405059   7.570665   5.964385   3.104388
                   26         27         28         29         30
    26  H    0.000000
    27  H    2.509534   0.000000
    28  H    3.073698   1.750981   0.000000
    29  H    3.097035   2.940505   2.411437   0.000000
    30  H    2.608833   2.397886   2.936912   1.630137   0.000000
 Symmetry turned off by external request.
 Stoichiometry    C9H14N4O3
 Framework group  C1[X(C9H14N4O3)]
 Deg. of freedom    84
 Full point group                 C1      NOp   1
 Rotational constants (GHZ):      0.5390022      0.4082549      0.2487545
 Standard basis: 6-31G(d) (6D, 7F)
   268 basis functions,   504 primitive gaussians,   268 cartesian basis functions
    60 alpha electrons       60 beta electrons
       nuclear repulsion energy      1131.4719373072 Hartrees.
 NAtoms=   30 NActive=   30 NUniq=   30 SFac= 1.00D+00 NAtFMM=   60 NAOKFM=F Big=F
 Integral buffers will be    131072 words long.
 Raffenetti 2 integral format.
 Two-electron integral symmetry is turned off.
 Nuclear repulsion after empirical dispersion term =     1131.4166290887 Hartrees.
 One-electron integrals computed using PRISM.
 NBasis=   268 RedAO= T EigKep=  1.17D-03  NBF=   268
 NBsUse=   268 1.00D-06 EigRej= -1.00D+00 NBFU=   268
 Initial guess from the checkpoint file:  "conf-455.chk"
 B after Tr=     0.012587    0.020769    0.001835
         Rot=    0.999991    0.001465    0.002191   -0.003342 Ang=   0.49 deg.
 ExpMin= 1.61D-01 ExpMax= 5.48D+03 ExpMxC= 8.25D+02 IAcc=2 IRadAn=         4 AccDes= 0.00D+00
 Harris functional with IExCor=  402 and IRadAn=       4 diagonalized for initial guess.
 HarFok:  IExCor=  402 AccDes= 0.00D+00 IRadAn=         4 IDoV= 1 UseB2=F ITyADJ=14
 ICtDFT=  3500011 ScaDFX=  1.000000  1.000000  1.000000  1.000000
 FoFCou: FMM=F IPFlag=           0 FMFlag=      100000 FMFlg1=           0
         NFxFlg=           0 DoJE=T BraDBF=F KetDBF=T FulRan=T
         wScrn=  0.000000 ICntrl=     500 IOpCl=  0 I1Cent=   200000004 NGrid=           0
[...]
 -0.08891197,-0.00016318,-0.00089413,-0.00010513,-0.00087996,0.00109344
 ,-0.00044736,0.00020344,-0.00068300,0.00028745,0.00008696,0.00051173,-
 0.00012565,-0.00008132,0.00010245,-0.00015766,-0.00011135,-0.00001567,
 0.00003001,0.00012527,-0.00008107,-0.00040309,-0.00036733,-0.00126854,
 -0.00007528,-0.00014577,0.00130438,0.00081334,-0.00069735,-0.00030003,
 0.00043796,-0.08803045,0.10666934,0.00099560,-0.00145773,-0.00221729,-
 0.00223773,0.00120180,0.00061436,0.00055114,-0.00059857,-0.00123453,-0
 .00007389,0.00067755,-0.00040625,-0.00004923,0.00039240,0.00010928,-0.
 00005463,-0.00024280,-0.00003936,0.00010682,-0.00024006,-0.00004650,-0
 .00108695,0.00003125,0.00012192,0.00756805,-0.01252965,-0.01194503,0.0
 0242684,0.00346737,-0.00249474,0.00150288,0.00184858,0.00506730,-0.006
 27246,-0.00322452,-0.00003521,0.18704339,-0.08361429,-0.23854104,-0.00
 035749,0.00012872,-0.00022875,-0.00022439,0.00036069,0.00091982,0.0001
 1491,0.00000927,-0.00041119,0.00001161,-0.00009672,-0.00000778,-0.0000
 0991,-0.00004451,0.00004112,0.00003508,0.00014155,0.00001594,-0.000026
 81,-0.00042533,0.00022804,0.00011227,0.00022364,0.00011284,0.00108969,
 -0.00050721,0.00049249,-0.00054389,-0.00011165,-0.00054444,-0.19094418
 ,0.09493552,0.25070446,-0.00712283,-0.00504803,0.00005100,-0.00528318,
 -0.00265259,-0.03001136,0.00042908,0.00117619,0.00116995,0.00028790,0.
 00006612,-0.00000448,0.00006412,-0.00000344,-0.00015970,0.00003252,0.0
 0007625,0.00003451,0.00002128,0.00003834,0.00009599,-0.00001649,0.0000
 1056,-0.00018466,0.00007759,0.00002019,-0.00009839,-0.00001187,0.00003
 357,0.00003631,-0.00004879,0.00006298,0.00012057,0.00003700,-0.0001506
 6,-0.00005050,-0.00007663,0.00011086,0.00006074,-0.08510773,-0.0224590
 0,-0.07900342,-0.00224253,-0.00167247,-0.00388462,0.00065375,0.0007240
 2,0.00100435,-0.00112602,-0.00168570,0.00132928,0.00000932,0.00001984,
 0.00000841,-0.00000953,0.00000382,-0.00003113,0.00002086,0.00000583,0.
 00010493,0.00015397,0.00008896,0.00005962,-0.00001196,0.00000169,0.000
 00541,-0.00000622,0.00000112,-0.00001145,0.00023827,-0.00022716,-0.000
 01077,0.08912618,-0.00632401,-0.00063552,0.00022640,-0.00026158,-0.004
 61978,-0.01798483,0.00015870,0.00032946,0.00090475,0.00038234,-0.00004
 920,-0.00002003,-0.00018331,0.00007231,-0.00010470,0.00006020,-0.00001
 736,0.00001356,0.00015512,-0.00001047,0.00013826,0.00001611,0.00000264
 ,-0.00014854,0.00006392,-0.00000235,-0.00005636,0.00000465,0.00001792,
 -0.00001914,-0.00003565,0.00005555,0.00003622,-0.00001198,-0.00011209,
 0.00003545,-0.00009961,0.00015100,-0.00000670,-0.02339704,-0.06403840,
 -0.05547757,0.01054816,0.00637150,0.02767596,0.00140340,0.00249618,-0.
 00140465,-0.00128944,-0.00016490,0.00094332,-0.00000990,0.00001318,0.0
 0000748,0.00001061,0.00002199,-0.00002432,0.00000937,0.00000487,0.0000
 8564,0.00010214,0.00007357,0.00005024,-0.00000314,0.00000216,0.0000025
 3,-0.00001308,0.00002020,0.00000060,0.00009157,-0.00030636,0.00009738,
 0.02703374,0.06872125,0.00071761,0.00040723,0.00245951,0.00315026,0.00
 175341,0.00045891,0.00070867,0.00108093,0.00008383,-0.00018127,-0.0002
 4643,0.00063774,-0.00005903,0.00005754,-0.00003760,0.00003203,0.000015
 66,0.00000743,0.00007873,-0.00000440,0.00007662,0.00002872,0.00005125,
 -0.00001389,0.00002816,0.00004086,-0.00007576,-0.00001268,0.00001252,0
 .00003609,-0.00004299,0.00002002,0.00009249,0.00005168,-0.00010334,-0.
 00007680,-0.00006387,0.00002586,0.00005331,-0.08313998,-0.05906974,-0.
 25786020,-0.00764620,-0.00483741,-0.01752689,0.00069398,-0.00080158,0.
 00218431,0.00084388,0.00013626,0.00090790,-0.00009146,-0.00007308,0.00
 001976,0.00000057,0.00001111,-0.00001653,-0.00001560,0.00000614,0.0000
 5642,0.00006442,0.00001039,0.00001859,-0.00001037,-0.00000225,0.000006
 73,0.00001700,-0.00002264,0.00000084,0.00015585,0.00002158,-0.00006811
 ,0.09008404,0.05951758,0.28149772,0.00286494,-0.00287273,-0.00128680,-
 0.01986871,0.01970985,0.01550701,-0.00313032,-0.00294270,-0.00026859,0
 .00072716,-0.00055652,0.00061166,-0.00079261,0.00043436,0.00024197,0.0
 0011008,-0.00024615,-0.00007032,0.00042189,-0.00018631,-0.00016206,0.0
 0014132,0.00000769,0.00003773,0.00005527,-0.00000200,-0.00005741,0.000
 00619,-0.00001518,-0.00000943,-0.00002531,0.00005017,0.00001792,0.0000
 3112,-0.00005970,-0.00001833,-0.00011150,-0.00000064,0.00000958,-0.164
 04593,0.10189749,0.07898395,-0.00399915,0.00366878,0.00153357,0.001426
 62,-0.00112872,-0.00083458,-0.00029339,0.00012852,-0.00000440,-0.00014
 214,-0.00017104,0.00009436,0.00006482,0.00006428,0.00002016,-0.0000379
 6,-0.00000574,-0.00001338,-0.00000742,0.00000656,-0.00003244,-0.000000
 28,-0.00000232,0.00000382,0.00000727,-0.00000018,0.00000728,0.00013938
 ,0.00002440,0.00009592,0.00935262,-0.00782733,-0.00575917,0.17575378,0
 .00127602,-0.00092098,0.00028667,-0.01382889,0.01225547,0.00836643,-0.
 00147654,-0.00216544,0.00036426,0.00037150,-0.00089376,0.00048882,-0.0
 0065273,0.00025906,0.00014919,0.00009603,-0.00014608,-0.00006575,0.000
 34830,-0.00004064,-0.00009790,0.00013117,-0.00000026,-0.00001238,0.000
 03521,-0.00002811,-0.00002080,-0.00000173,-0.00000079,-0.00002359,0.00
 002699,0.00005226,0.00000732,-0.00002043,0.00001504,0.00004305,0.00002
 621,0.00001772,0.00001091,0.10124295,-0.13534389,-0.07578120,0.0205336
 9,-0.02014823,-0.01192143,0.00010541,0.00358215,-0.00118892,-0.0002662
 2,0.00017328,0.00016890,-0.00005545,-0.00008247,0.00005318,0.00004158,
 0.00002250,0.00001529,-0.00000297,0.00000799,-0.00000169,0.00000201,0.
 00001683,-0.00001494,0.00000117,0.00000228,-0.00000673,-0.00004127,0.0
 0002987,-0.00003281,0.00003539,-0.00013872,-0.00000653,0.00446279,-0.0
 0446141,-0.00309543,-0.11098894,0.15112486,-0.00123495,-0.00029496,-0.
 00000079,0.00359106,-0.00145426,-0.00365511,0.00132081,0.00158023,0.00
 017655,-0.00031917,0.00036763,0.00005262,0.00071769,-0.00024153,-0.000
 13716,-0.00015822,0.00012650,0.00003234,-0.00042048,0.00010055,0.00009
 978,-0.00003498,0.00003703,-0.00002221,0.00001310,0.00000573,-0.000023
 01,-0.00000402,0.00001343,0.00003030,-0.00001810,0.00000224,0.00004065
 ,0.00001258,-0.00004427,-0.00004036,-0.00004743,0.00006376,0.00001029,
 0.07919545,-0.07586832,-0.10414822,-0.01355757,0.01438974,0.00823603,-
 0.00139060,-0.00175092,0.00084408,0.00009455,-0.00091870,0.00038436,0.
 00002043,0.00003114,-0.00002650,-0.00003710,-0.00003620,-0.00001222,0.
 00002314,-0.00000483,0.00002122,0.00003506,0.00000531,0.00001917,-0.00
 000626,-0.00000049,0.00000319,0.00001480,-0.00001025,0.00001347,0.0001
 0267,-0.00005607,0.00003446,0.01990790,-0.01650045,-0.01307313,-0.0880
 7647,0.07763833,0.11141618,-0.00066613,-0.00038858,0.00050880,-0.00023
 084,0.00001514,0.00059509,0.00014848,-0.00027795,-0.00030180,0.0000060
 9,-0.00004584,0.00001929,0.00000069,-0.00008912,0.00000509,0.00001684,
 0.00004668,0.00000089,-0.00001322,0.00004509,0.00000356,0.00000751,0.0
 0002158,0.00000129,-0.00002415,-0.00009390,0.00010925,0.00003703,-0.00
 003170,-0.00004478,0.00006032,-0.00002519,-0.00012338,-0.00006725,0.00
 013298,0.00006823,0.00003973,0.00007262,-0.00004015,-0.00099393,0.0005
 3724,-0.00734151,-0.08373767,-0.01998715,-0.07862485,-0.01497083,-0.01
 578645,-0.02612629,0.00002654,0.00010000,0.00003724,0.00000990,0.00001
 176,-0.00001351,-0.00000752,-0.00001606,0.00000233,0.00001250,0.000005
 91,-0.00000903,-0.00001619,-0.00001717,0.00000138,0.00000223,-0.000003
 46,-0.00000867,0.,0.00002333,0.00001682,-0.00038500,-0.00015995,0.0001
 6075,0.00025981,0.00047133,-0.00057825,0.00011618,-0.00057678,-0.00016
 213,0.09565413,-0.00031166,-0.00060824,-0.00165396,0.00181705,0.001594
 89,0.00262133,-0.00044071,-0.00010367,-0.00047914,-0.00010548,0.000046
 39,-0.00002760,0.00003780,-0.00001642,0.00005981,-0.00001820,-0.000009
 63,-0.00000897,-0.00003303,-0.00001336,-0.00004724,-0.00003212,-0.0000
 0485,0.00006824,-0.00002781,0.00004097,-0.00003707,-0.00002180,-0.0000
 0322,0.00004450,-0.00002128,-0.00003937,0.00007782,0.00007047,0.000036
 36,-0.00011799,-0.00000728,-0.00008696,0.00007042,0.00945016,0.0040289
 3,0.02732081,-0.02212613,-0.06666210,-0.06360867,-0.01024876,-0.009168
 17,-0.01743754,0.00030739,0.00007600,-0.00034099,0.00000427,-0.0000036
 7,-0.00000609,-0.00000394,0.00000131,0.00000690,-0.00001015,-0.0000120
 9,-0.00002939,-0.00003926,-0.00002277,-0.00001951,-0.00000171,-0.00000
 338,0.00000749,0.00002462,-0.00005015,-0.00002221,-0.00004523,0.000314
 04,-0.00002580,0.00026451,-0.00473755,0.00384942,0.00018079,0.00158923
 ,-0.00072614,0.03197949,0.07817869,0.00083579,-0.00106082,0.00321668,-
 0.00316029,-0.00170674,-0.00376661,0.00026992,0.00044688,0.00059430,0.
 00002156,-0.00010419,-0.00004804,-0.00006454,0.00002984,-0.00006257,0.
 00004618,0.00002218,0.00001764,0.00008312,-0.00000947,0.00004304,-0.00
 000008,0.00002554,-0.00004488,0.00004005,0.00016526,-0.00016087,-0.000
 05263,0.00005239,0.00008349,-0.00009936,0.00001844,0.00019758,0.000133
 33,-0.00022246,-0.00012950,-0.00008638,-0.00010182,0.00010163,-0.00522
 197,-0.00198625,-0.01844024,-0.08376865,-0.06508051,-0.26477396,0.0022
 0875,0.00199899,0.00893483,-0.00008109,-0.00006858,0.00028804,0.000017
 39,0.00001729,-0.00000046,-0.00000311,0.00001579,-0.00001878,-0.000000
 96,-0.00001274,0.00004041,0.00004610,0.00001639,0.00001634,-0.00001140
 ,0.00000375,0.00001562,0.00001302,-0.00004232,-0.00002012,0.00053518,0
 .00025132,-0.00020508,-0.00041644,0.00353705,-0.00059006,0.00004470,-0
 .00004598,0.00126377,0.09170588,0.06590728,0.28288097,0.00028058,0.000
 21102,0.00026586,-0.00053626,-0.00042203,-0.00008123,0.00046972,-0.000
 02071,-0.00041684,-0.00009007,0.00000794,-0.00001660,-0.00001731,-0.00
 004216,0.00000268,0.00003042,0.00004333,-0.00000055,0.00002011,0.00001
 019,-0.00001326,0.00001762,0.00000599,-0.00000071,0.00003432,-0.000019
 72,-0.00011097,-0.00002981,0.00011375,-0.00001965,-0.00000675,-0.00011
 234,0.00004826,-0.00006165,0.00036528,-0.00001038,-0.00029340,-0.00043
 205,0.00006662,-0.00176508,0.00523412,0.00140307,-0.16237543,0.0991244
 1,0.07291653,-0.02585844,0.01141765,0.01892327,-0.00002558,0.00016519,
 0.00001432,0.00001621,0.00001521,-0.00001298,-0.00000731,-0.00000601,0
 .00000280,0.00000590,0.00000306,-0.00000089,-0.00000896,-0.00000275,-0
 .00000143,-0.00000442,0.00000162,-0.00000396,-0.00003363,-0.00002943,-
 0.00000667,-0.00004647,0.00007266,0.00005657,-0.00012804,-0.00022758,0
 .00011193,0.00078564,0.00028770,-0.00033044,0.00994433,-0.00710770,-0.
 00450698,0.18454946,-0.00139447,-0.00004318,-0.00035448,0.00377935,0.0
 0043957,-0.00076540,-0.00092217,0.00030621,0.00059944,-0.00001669,-0.0
 0001385,0.00012878,0.00028414,-0.00007727,-0.00006477,-0.00011815,-0.0
 0001183,-0.00000597,-0.00022500,0.00007300,0.00007328,0.00002880,-0.00
 010798,-0.00001205,-0.00013978,-0.00030557,0.00035615,0.00006135,-0.00
 011176,-0.00013780,0.00016832,0.00004217,-0.00019725,-0.00031290,0.000
 72727,0.00020313,0.00062481,-0.00006407,-0.00000430,0.01638457,-0.0193
 8705,-0.01109550,0.10428867,-0.14124316,-0.07243512,-0.01706335,0.0120
 0237,0.01246153,0.00019063,-0.00018972,-0.00006467,-0.00002233,-0.0000
 2935,0.00001546,0.00000476,-0.00004123,0.00000791,-0.00000353,0.000041
 70,-0.00001434,0.00001313,0.00002757,0.00000246,0.00000469,-0.00000548
 ,-0.00002870,-0.00003535,0.00005178,-0.00004096,-0.00031463,-0.0004426
 8,-0.00033036,-0.00029255,0.00131802,0.00025757,0.00036369,-0.00392295
 ,0.00386382,0.00554500,-0.00458048,-0.00333609,-0.10653316,0.15552769,
 -0.00026769,-0.00008111,0.00025503,-0.00100437,-0.00030677,0.00088188,
 -0.00010840,-0.00042122,-0.00004310,0.00013991,0.00009027,-0.00005876,
 -0.00005931,-0.00002576,-0.00001718,0.00000009,-0.00001202,-0.00000275
 ,0.00000089,0.00001913,-0.00000684,0.00000590,-0.00007636,0.00001947,0
 .00007263,-0.00011949,0.00015034,0.00004848,0.00002091,-0.00013843,0.0
 0015656,0.00008158,-0.00015450,-0.00017738,0.00011175,0.00027585,0.000
 28178,0.00003224,-0.00010819,-0.01242248,0.01427004,0.00778009,0.07587
 477,-0.07039964,-0.10568567,0.00502431,-0.00151184,-0.00231054,-0.0000
 4760,0.00012151,-0.00000862,-0.00000026,-0.00000496,0.00000438,0.00000
 878,-0.00002024,0.00001027,-0.00001430,0.00003258,-0.00002116,-0.00000
 346,0.00001511,-0.00000077,-0.00000299,0.00000634,-0.00003580,-0.00014
 831,0.00012867,-0.00009841,-0.00023436,-0.00046236,-0.00012840,-0.0001
 5528,-0.00094047,0.00105791,-0.00062190,0.00406824,-0.00139473,0.02060
 005,-0.01676151,-0.01181525,-0.08708361,0.07049349,0.10943774,0.000273
 63,-0.00023904,0.00072142,-0.00037855,0.00017070,-0.00079982,-0.000072
 18,0.00014370,0.00027622,0.00002890,0.00000246,-0.00002506,0.00003598,
 -0.00000939,-0.00001949,-0.00001579,-0.00000592,0.00000399,-0.00002839
 ,0.00000964,0.00001700,-0.00000137,-0.00002138,-0.00000418,0.00002885,
 0.00005675,-0.00007672,-0.00002169,0.00001190,0.00003805,-0.00001376,0
 .00004730,0.00008320,0.00006121,-0.00009730,-0.00004585,-0.00004431,-0
 .00001775,0.00006020,0.00112541,0.00082099,-0.00012548,-0.01350484,-0.
 00805086,-0.03381560,-0.11595687,-0.05143728,-0.11884312,0.00002142,-0
 .00010679,0.00001169,0.00000046,-0.00000297,0.00000369,0.00000177,-0.0
 0000299,-0.00000370,-0.00000388,0.00000115,0.00000335,0.00000973,0.000
 01131,0.00000292,-0.00000441,0.00000161,0.00000064,-0.00001417,-0.0000
 1514,-0.00002736,0.00015953,0.00004487,-0.00008025,0.00036359,-0.00068
 480,0.00085478,0.00004223,0.00005302,0.00018756,-0.00573929,-0.0038922
 4,0.00205314,0.00035208,0.00073877,-0.00013564,0.12134471,0.00107775,0
 .00023491,0.00082481,-0.00219806,-0.00037389,0.00005921,0.00084687,0.0
 0005473,-0.00052913,-0.00024947,-0.00020940,0.00004310,-0.00016583,-0.
 00021921,0.00004688,0.00016642,0.00022265,0.00000200,0.00012527,0.0001
 0334,-0.00005333,-0.00000334,0.00011274,-0.00003673,-0.00005958,-0.000
 02509,0.00009107,0.00000427,0.00001471,0.00001207,0.00002542,-0.000134
 87,-0.00004898,-0.00003618,0.00013220,-0.00000860,0.00014270,-0.000070
 44,-0.00006767,0.00130388,0.00188690,-0.00298527,-0.01312585,-0.012059
 47,-0.01829416,-0.02873035,-0.04461780,-0.07499141,-0.00007942,0.00004
 829,0.00015655,0.00004361,0.00004781,-0.00003254,-0.00004307,-0.000029
 73,0.00000194,0.00005592,-0.00001096,0.00000188,-0.00002922,-0.0000367
 6,-0.00000326,-0.00000353,0.00000184,0.00000093,0.00001920,0.00000032,
 0.00002779,-0.00015735,0.00014564,-0.00002476,-0.00009950,-0.00041352,
 0.00100437,0.00000132,-0.00039917,0.00007624,-0.00244673,-0.00032688,0
 .00150596,0.00093451,0.00070667,0.00067627,0.05171113,0.06455594,-0.00
 001622,0.00004486,-0.00008656,0.00031909,0.00035186,-0.00016741,-0.000
 10072,-0.00003914,0.00010398,0.00007627,0.00004467,-0.00003485,0.00002
 403,0.00006971,-0.00000472,-0.00003830,-0.00006433,0.00000072,-0.00001
 721,-0.00003731,0.00001018,-0.00000025,-0.00001892,0.00000769,0.000014
 53,0.00002219,-0.00003062,-0.00000397,-0.00000022,-0.00000013,-0.00002
 208,0.00002696,0.00001911,0.00002165,-0.00005456,-0.00000642,-0.000046
 12,0.00000982,0.00001975,0.00159299,0.00021096,0.00213743,0.00474129,0
 .00862353,0.00463757,-0.11624746,-0.12360463,-0.33540111,0.00001908,0.
 00002751,-0.00004481,-0.00000335,-0.00000471,0.00000496,0.00001201,0.0
 0001312,-0.00000249,-0.00001369,-0.00000149,0.00000073,0.00000520,0.00
 000653,-0.00000250,0.00000120,-0.00000042,0.00000250,0.00000188,-0.000
 00852,-0.00000515,0.00006196,-0.00000006,-0.00000704,-0.00017847,-0.00
 068830,-0.00005872,-0.00006548,-0.00006744,-0.00014031,0.00035964,0.00
 096118,0.00196909,-0.00052258,-0.00021525,0.00033288,0.12178124,0.1138
 3484,0.34481091,0.00023302,-0.00008772,0.00001699,-0.00018368,0.000233
 53,-0.00044123,0.00032770,0.00007786,-0.00014401,-0.00003061,-0.000011
 93,-0.00005322,-0.00003251,0.00001136,0.00001955,0.00002012,0.00000866
 ,-0.00000190,0.00003381,-0.00001355,-0.00002134,-0.00001168,0.00004115
 ,0.00000147,0.00000131,0.00005496,-0.00004481,-0.00000245,0.00000252,0
 .00003247,-0.00004834,-0.00002037,0.00001825,0.00004624,-0.00012101,-0
 .00005105,-0.00016142,0.00000320,-0.00001785,0.00196807,0.00055978,-0.
 00027812,-0.02499931,0.02308426,0.01491257,-0.22995048,0.12629107,0.12
 506979,-0.00002119,0.00002887,0.00000570,0.00001377,0.00001647,-0.0000
 1034,-0.00000405,0.00001026,-0.00000028,0.00000439,-0.00001368,0.00000
 686,-0.00000151,-0.00001116,0.00000015,-0.00000187,-0.00000119,0.00000
 995,0.00004125,-0.00002743,0.00003627,0.00009827,0.00015438,0.00010107
 ,0.00006396,-0.00014291,-0.00002146,0.00040821,-0.00116518,0.00056111,
 0.00050972,0.00035793,-0.00058023,-0.00521778,-0.00508662,0.00027317,0
 .01195002,-0.00903080,-0.01175619,0.24494698,0.00051165,0.00013796,0.0
 0023444,-0.00097433,-0.00057309,-0.00019465,0.00048861,0.00015164,-0.0
 0024039,-0.00015646,-0.00005390,-0.00001452,-0.00009739,-0.00016257,0.
 00001637,0.00010646,0.00015109,0.00000474,0.00007019,0.00007589,-0.000
 03634,-0.00001339,0.00004315,-0.00001139,-0.00002419,0.00000475,0.0000
 2439,-0.00000670,0.00000659,0.00002017,0.00002972,-0.00004395,-0.00000
 626,-0.00000111,0.00002930,0.00000217,0.00006825,-0.00003088,-0.000015
 96,-0.00115363,0.00253053,0.00047839,-0.02094380,0.00727249,0.01589765
 ,0.14821413,-0.15377603,-0.13639318,-0.00002594,0.00000194,0.00006766,
 0.00002912,0.00002685,-0.00002083,-0.00002854,-0.00002631,0.00000145,0
 .00002818,-0.00000045,-0.00000498,-0.00001863,-0.00001602,0.00000009,-
 0.00000326,0.00000230,-0.00000378,-0.00001304,-0.00000495,-0.00001104,
 -0.00007959,0.00006567,-0.00003522,0.00008974,-0.00010289,-0.00002342,
 0.00046829,-0.00045563,-0.00039429,0.00093786,0.00054616,-0.00023637,-
 0.00305798,-0.00068637,0.00097562,0.01075854,-0.00934150,0.00055755,-0
 .13520274,0.15422823,-0.00058180,-0.00024528,-0.00052428,0.00109147,0.
 00052188,0.00062553,-0.00064179,-0.00020208,0.00017908,0.00017477,0.00
 010121,0.00002920,0.00011244,0.00020152,-0.00000960,-0.00012410,-0.000
 17797,-0.00001259,-0.00008072,-0.00009690,0.00002273,0.00001178,-0.000
 05080,0.00002590,0.00003156,0.00001240,-0.00005469,0.00000484,-0.00000
 970,-0.00001151,-0.00003611,0.00006261,0.00000707,0.00001677,-0.000086
 71,-0.00000242,-0.00014978,0.00003815,0.00001090,-0.00093289,-0.001909
 10,-0.00022100,0.00715069,-0.00004436,-0.00342991,0.09482266,-0.097948
 42,-0.11217464,0.00003876,-0.00001678,-0.00009332,-0.00004119,-0.00004
 038,0.00002517,0.00003279,0.00003084,0.00000444,-0.00003558,0.00000032
 ,0.00000241,0.00001979,0.00001770,0.00000040,0.00000436,-0.00000171,0.
 00000457,0.00001605,-0.00000028,0.00001654,0.00013005,-0.00004922,0.00
 009870,0.00012764,0.00010366,-0.00025843,0.00007112,0.00072294,-0.0000
 0471,-0.00082123,0.00035462,0.00041299,-0.00067218,0.00063997,0.001823
 26,0.02790316,-0.02129007,-0.01806466,-0.12764331,0.11936193,0.1315728
 7\\0.00000276,-0.00000180,0.00000090,-0.00000245,0.00000156,0.00000291
 ,0.00000201,0.00000301,0.,-0.00000316,-0.00000153,-0.00000415,-0.00001
 006,-0.00000536,0.00000770,-0.00000084,-0.00000135,-0.00000122,0.00000
 211,0.00000611,-0.00000177,0.00000130,0.00000023,0.00000277,0.00000013
 ,0.00000009,0.00000017,-0.00000032,0.00000002,-0.00000042,-0.00000026,
 0.00000002,-0.00000065,-0.00000068,-0.00000079,-0.00000094,0.00000075,
 0.00000105,-0.00000107,-0.00000015,-0.00000024,-0.00000140,0.00000138,
 -0.00000041,0.00000131,0.00000002,0.00000020,-0.00000019,-0.00000090,0
 .00000052,0.00000004,0.00000116,0.00000232,-0.00000076,0.00000049,-0.0
 0000003,-0.00000022,0.00000315,-0.00000345,0.00000326,0.00000253,0.000
 00142,-0.00000247,-0.00000011,0.00000029,-0.00000058,0.00000024,-0.000
 00021,-0.00000096,-0.00000066,-0.00000067,-0.00000082,0.00000065,0.000
 00005,-0.00000008,-0.00000048,0.00000045,0.00000029,0.00000040,-0.0000
 0067,-0.00000135,0.00000091,-0.00000070,-0.00000007,-0.00000030,0.0000
 0009,-0.00000009,0.00000036,-0.00000023,-0.00000015\\\@


 HAPPINESS IS NOT HAVING WHAT YOU WANT --
 HAPPINESS IS WANTING WHAT YOU HAVE!

              -- FROM MRS. SEVERN'S DESK
 Job cpu time:       0 days  1 hours  6 minutes 57.8 seconds.
 File lengths (MBytes):  RWF=    260 Int=      0 D2E=      0 Chk=      8 Scr=      1
 Normal termination of Gaussian 09 at Tue Jul 27 02:24:17 2021.
