 Entering Gaussian System, Link 0=g09
 Input=opt_freq-conf-609.com
 Output=opt_freq-conf-609.log
 Initial command:
 /aerosol/software/g09/l1.exe "/scratch/nicole/10544/Gau-85350.inp" -scrdir="/scratch/nicole/10544/"
 Entering Link 1 = /aerosol/software/g09/l1.exe PID=     85356.
  
 Copyright (c) 1988,1990,1992,1993,1995,1998,2003,2009,2013,
            Gaussian, Inc.  All Rights Reserved.
  
 This is part of the Gaussian(R) 09 program.  It is based on
 the Gaussian(R) 03 system (copyright 2003, Gaussian, Inc.),
 the Gaussian(R) 98 system (copyright 1998, Gaussian, Inc.),
 the Gaussian(R) 94 system (copyright 1995, Gaussian, Inc.),
 the Gaussian 92(TM) system (copyright 1992, Gaussian, Inc.),
 the Gaussian 90(TM) system (copyright 1990, Gaussian, Inc.),
 the Gaussian 88(TM) system (copyright 1988, Gaussian, Inc.),
 the Gaussian 86(TM) system (copyright 1986, Carnegie Mellon
 University), and the Gaussian 82(TM) system (copyright 1983,
 Carnegie Mellon University). Gaussian is a federally registered
 trademark of Gaussian, Inc.
  
 This software contains proprietary and confidential information,
 including trade secrets, belonging to Gaussian, Inc.
  
 This software is provided under written license and may be
 used, copied, transmitted, or stored only in accord with that
 written license.
  
 The following legend is applicable only to US Government
 contracts under FAR:
  
                    RESTRICTED RIGHTS LEGEND
  
 Use, reproduction and disclosure by the US Government is
 subject to restrictions as set forth in subparagraphs (a)
 and (c) of the Commercial Computer Software - Restricted
 Rights clause in FAR 52.227-19.
  
 Gaussian, Inc.
 340 Quinnipiac St., Bldg. 40, Wallingford CT 06492
  
  
 ---------------------------------------------------------------
 Warning -- This program may not be used in any manner that
 competes with the business of Gaussian, Inc. or will provide
 assistance to any competitor of Gaussian, Inc.  The licensee
 of this program is prohibited from giving any competitor of
 Gaussian, Inc. access to this program.  By using this program,
 the user acknowledges that Gaussian, Inc. is engaged in the
 business of creating and licensing software in the field of
 computational chemistry and represents and warrants to the
 licensee that it is not a competitor of Gaussian, Inc. and that
 it will not use this program in any manner prohibited above.
 ---------------------------------------------------------------
  

 Cite this work as:
 Gaussian 09, Revision D.01,
 M. J. Frisch, G. W. Trucks, H. B. Schlegel, G. E. Scuseria, 
 M. A. Robb, J. R. Cheeseman, G. Scalmani, V. Barone, B. Mennucci, 
 G. A. Petersson, H. Nakatsuji, M. Caricato, X. Li, H. P. Hratchian, 
 A. F. Izmaylov, J. Bloino, G. Zheng, J. L. Sonnenberg, M. Hada, 
 M. Ehara, K. Toyota, R. Fukuda, J. Hasegawa, M. Ishida, T. Nakajima, 
 Y. Honda, O. Kitao, H. Nakai, T. Vreven, J. A. Montgomery, Jr., 
 J. E. Peralta, F. Ogliaro, M. Bearpark, J. J. Heyd, E. Brothers, 
 K. N. Kudin, V. N. Staroverov, T. Keith, R. Kobayashi, J. Normand, 
 K. Raghavachari, A. Rendell, J. C. Burant, S. S. Iyengar, J. Tomasi, 
 M. Cossi, N. Rega, J. M. Millam, M. Klene, J. E. Knox, J. B. Cross, 
 V. Bakken, C. Adamo, J. Jaramillo, R. Gomperts, R. E. Stratmann, 
 O. Yazyev, A. J. Austin, R. Cammi, C. Pomelli, J. W. Ochterski, 
 R. L. Martin, K. Morokuma, V. G. Zakrzewski, G. A. Voth, 
 P. Salvador, J. J. Dannenberg, S. Dapprich, A. D. Daniels, 
 O. Farkas, J. B. Foresman, J. V. Ortiz, J. Cioslowski, 
 and D. J. Fox, Gaussian, Inc., Wallingford CT, 2013.
 
 ******************************************
 Gaussian 09:  ES64L-G09RevD.01 24-Apr-2013
                27-Jul-2021 
 ******************************************
 %mem=2gb
 %nproc=4
 Will use up to    4 processors via shared memory.
 %chk=conf-609.chk
 ----------------------------------------------------------------------
 # B3LYP/6-31G(d) EmpiricalDispersion=GD3BJ opt=calcfc freq=noraman nos
 ymm integral(ultrafinegrid)
 ----------------------------------------------------------------------
 1/10=4,14=-1,18=20,19=15,26=4,38=1/1,3;
 2/9=110,12=2,15=1,17=6,18=5,40=1/2;
 3/5=1,6=6,7=1,11=2,16=1,25=1,30=1,71=2,74=-5,75=-5,124=41,140=1/1,2,3;
 4//1;
 5/5=2,38=5/2;
 8/6=4,10=90,11=11/1;
 11/6=1,8=1,9=11,15=111,16=1,31=1/1,2,10;
 10/6=1,13=1,31=1/2;
 6/7=2,8=2,9=2,10=2,28=1/1;
 7/10=1,18=20,25=1,30=1/1,2,3,16;
 1/10=4,14=-1,18=20,19=15,26=4/3(2);
 2/9=110,15=1/2;
 99//99;
 2/9=110,15=1/2;
 3/5=1,6=6,7=1,11=2,16=1,25=1,30=1,71=1,74=-5,75=-5,124=41/1,2,3;
 4/5=5,16=3,69=1/1;
 5/5=2,38=5/2;
 7/30=1/1,2,3,16;
 1/14=-1,18=20,19=15,26=4/3(-5);
 2/9=110,15=1/2;
 6/7=2,8=2,9=2,10=2,19=2,28=1/1;
 99/9=1/99;
 ------------------------------------------------------------
 Candidate Structure: Conf:609 OPT and FREQ calc in gas phase
 ------------------------------------------------------------
 Symbolic Z-matrix:
 Charge =  0 Multiplicity = 1
 O                     1.4177    0.85748  -0.67657 
 C                     1.59436  -0.0041    0.17026 
 N                     0.53894  -0.70679   0.68996 
 C                    -0.76947  -0.61446   0.04509 
 C                    -0.64827  -1.10746  -1.38772 
 O                    -1.61879  -0.61874  -2.20018 
 O                     0.17932  -1.88567  -1.77113 
 C                    -1.37787   0.79834   0.19937 
 C                    -2.85873   0.80124   0.37903 
 C                    -3.64977   1.26082   1.39423 
 N                    -4.98461   1.02988   1.11578 
 C                    -4.99278   0.43648  -0.05264 
 N                    -3.73342   0.27218  -0.53474 
 C                     2.94924  -0.35503   0.76111 
 C                     4.10813   0.28615  -0.00412 
 N                     5.43796  -0.03063   0.50635 
 H                     0.73699  -1.56765   1.16964 
 H                    -1.39207  -1.34935   0.56809 
 H                    -1.43624  -0.99233  -3.07559 
 H                    -0.94483   1.25313   1.08786 
 H                    -1.07567   1.42915  -0.63282 
 H                    -3.34519   1.74821   2.30793 
 H                    -5.85793   0.10731  -0.60024 
 H                    -3.44962  -0.1468   -1.40521 
 H                     2.9628   -0.0272    1.80781 
 H                     3.05558  -1.44622   0.77465 
 H                     4.05694  -0.02324  -1.04839 
 H                     3.98105   1.36867   0.00486 
 H                     5.59424  -1.03199   0.48736 
 H                     5.52208   0.25863   1.47443 
 

 GradGradGradGradGradGradGradGradGradGradGradGradGradGradGradGradGradGrad
 Berny optimization.
 Initialization pass.
                           ----------------------------
                           !    Initial Parameters    !
                           ! (Angstroms and Degrees)  !
 --------------------------                            --------------------------
 ! Name  Definition              Value          Derivative Info.                !
 --------------------------------------------------------------------------------
 ! R1    R(1,2)                  1.2209         calculate D2E/DX2 analytically  !
 ! R2    R(2,3)                  1.3703         calculate D2E/DX2 analytically  !
 ! R3    R(2,14)                 1.5192         calculate D2E/DX2 analytically  !
 ! R4    R(3,4)                  1.4616         calculate D2E/DX2 analytically  !
 ! R5    R(3,17)                 1.0052         calculate D2E/DX2 analytically  !
 ! R6    R(4,5)                  1.5201         calculate D2E/DX2 analytically  !
 ! R7    R(4,8)                  1.5459         calculate D2E/DX2 analytically  !
 ! R8    R(4,18)                 1.096          calculate D2E/DX2 analytically  !
 ! R9    R(5,6)                  1.3568         calculate D2E/DX2 analytically  !
 ! R10   R(5,7)                  1.199          calculate D2E/DX2 analytically  !
 ! R11   R(6,19)                 0.9691         calculate D2E/DX2 analytically  !
 ! R12   R(8,9)                  1.4917         calculate D2E/DX2 analytically  !
 ! R13   R(8,20)                 1.088          calculate D2E/DX2 analytically  !
 ! R14   R(8,21)                 1.0871         calculate D2E/DX2 analytically  !
 ! R15   R(9,10)                 1.3666         calculate D2E/DX2 analytically  !
 ! R16   R(9,13)                 1.3711         calculate D2E/DX2 analytically  !
 ! R17   R(10,11)                1.383          calculate D2E/DX2 analytically  !
 ! R18   R(10,22)                1.0794         calculate D2E/DX2 analytically  !
 ! R19   R(11,12)                1.3105         calculate D2E/DX2 analytically  !
 ! R20   R(12,13)                1.3584         calculate D2E/DX2 analytically  !
 ! R21   R(12,23)                1.0755         calculate D2E/DX2 analytically  !
 ! R22   R(13,24)                1.0069         calculate D2E/DX2 analytically  !
 ! R23   R(14,15)                1.5296         calculate D2E/DX2 analytically  !
 ! R24   R(14,25)                1.0969         calculate D2E/DX2 analytically  !
 ! R25   R(14,26)                1.0964         calculate D2E/DX2 analytically  !
 ! R26   R(15,16)                1.4592         calculate D2E/DX2 analytically  !
 ! R27   R(15,27)                1.0903         calculate D2E/DX2 analytically  !
 ! R28   R(15,28)                1.09           calculate D2E/DX2 analytically  !
 ! R29   R(16,29)                1.0137         calculate D2E/DX2 analytically  !
 ! R30   R(16,30)                1.0139         calculate D2E/DX2 analytically  !
 ! A1    A(1,2,3)              120.8952         calculate D2E/DX2 analytically  !
 ! A2    A(1,2,14)             124.1813         calculate D2E/DX2 analytically  !
 ! A3    A(3,2,14)             114.8943         calculate D2E/DX2 analytically  !
 ! A4    A(2,3,4)              119.3244         calculate D2E/DX2 analytically  !
 ! A5    A(2,3,17)             117.9301         calculate D2E/DX2 analytically  !
 ! A6    A(4,3,17)             116.1694         calculate D2E/DX2 analytically  !
 ! A7    A(3,4,5)              108.9051         calculate D2E/DX2 analytically  !
 ! A8    A(3,4,8)              111.4689         calculate D2E/DX2 analytically  !
 ! A9    A(3,4,18)             104.8106         calculate D2E/DX2 analytically  !
 ! A10   A(5,4,8)              114.9501         calculate D2E/DX2 analytically  !
 ! A11   A(5,4,18)             106.1182         calculate D2E/DX2 analytically  !
 ! A12   A(8,4,18)             109.9739         calculate D2E/DX2 analytically  !
 ! A13   A(4,5,6)              112.9903         calculate D2E/DX2 analytically  !
 ! A14   A(4,5,7)              124.5388         calculate D2E/DX2 analytically  !
 ! A15   A(6,5,7)              122.4154         calculate D2E/DX2 analytically  !
 ! A16   A(5,6,19)             105.5045         calculate D2E/DX2 analytically  !
 ! A17   A(4,8,9)              113.8582         calculate D2E/DX2 analytically  !
 ! A18   A(4,8,20)             107.8698         calculate D2E/DX2 analytically  !
 ! A19   A(4,8,21)             110.151          calculate D2E/DX2 analytically  !
 ! A20   A(9,8,20)             107.2145         calculate D2E/DX2 analytically  !
 ! A21   A(9,8,21)             111.5329         calculate D2E/DX2 analytically  !
 ! A22   A(20,8,21)            105.7795         calculate D2E/DX2 analytically  !
 ! A23   A(8,9,10)             131.6629         calculate D2E/DX2 analytically  !
 ! A24   A(8,9,13)             123.5236         calculate D2E/DX2 analytically  !
 ! A25   A(10,9,13)            104.8078         calculate D2E/DX2 analytically  !
 ! A26   A(9,10,11)            110.668          calculate D2E/DX2 analytically  !
 ! A27   A(9,10,22)            128.1211         calculate D2E/DX2 analytically  !
 ! A28   A(11,10,22)           121.2102         calculate D2E/DX2 analytically  !
 ! A29   A(10,11,12)           105.1382         calculate D2E/DX2 analytically  !
 ! A30   A(11,12,13)           111.4322         calculate D2E/DX2 analytically  !
 ! A31   A(11,12,23)           126.6952         calculate D2E/DX2 analytically  !
 ! A32   A(13,12,23)           121.8722         calculate D2E/DX2 analytically  !
 ! A33   A(9,13,12)            107.9521         calculate D2E/DX2 analytically  !
 ! A34   A(9,13,24)            123.8417         calculate D2E/DX2 analytically  !
 ! A35   A(12,13,24)           128.2027         calculate D2E/DX2 analytically  !
 ! A36   A(2,14,15)            112.5997         calculate D2E/DX2 analytically  !
 ! A37   A(2,14,25)            108.2457         calculate D2E/DX2 analytically  !
 ! A38   A(2,14,26)            108.7351         calculate D2E/DX2 analytically  !
 ! A39   A(15,14,25)           110.0428         calculate D2E/DX2 analytically  !
 ! A40   A(15,14,26)           110.4801         calculate D2E/DX2 analytically  !
 ! A41   A(25,14,26)           106.5261         calculate D2E/DX2 analytically  !
 ! A42   A(14,15,16)           115.1154         calculate D2E/DX2 analytically  !
 ! A43   A(14,15,27)           108.9426         calculate D2E/DX2 analytically  !
 ! A44   A(14,15,28)           108.8971         calculate D2E/DX2 analytically  !
 ! A45   A(16,15,27)           108.4343         calculate D2E/DX2 analytically  !
 ! A46   A(16,15,28)           108.6001         calculate D2E/DX2 analytically  !
 ! A47   A(27,15,28)           106.5126         calculate D2E/DX2 analytically  !
 ! A48   A(15,16,29)           110.3896         calculate D2E/DX2 analytically  !
 ! A49   A(15,16,30)           110.346          calculate D2E/DX2 analytically  !
 ! A50   A(29,16,30)           106.6742         calculate D2E/DX2 analytically  !
 ! D1    D(1,2,3,4)             12.0744         calculate D2E/DX2 analytically  !
 ! D2    D(1,2,3,17)           162.572          calculate D2E/DX2 analytically  !
 ! D3    D(14,2,3,4)          -169.8126         calculate D2E/DX2 analytically  !
 ! D4    D(14,2,3,17)          -19.315          calculate D2E/DX2 analytically  !
 ! D5    D(1,2,14,15)          -11.2469         calculate D2E/DX2 analytically  !
 ! D6    D(1,2,14,25)          110.6307         calculate D2E/DX2 analytically  !
 ! D7    D(1,2,14,26)         -134.0235         calculate D2E/DX2 analytically  !
 ! D8    D(3,2,14,15)          170.7105         calculate D2E/DX2 analytically  !
 ! D9    D(3,2,14,25)          -67.4119         calculate D2E/DX2 analytically  !
 ! D10   D(3,2,14,26)           47.9339         calculate D2E/DX2 analytically  !
 ! D11   D(2,3,4,5)             60.0931         calculate D2E/DX2 analytically  !
 ! D12   D(2,3,4,8)            -67.7728         calculate D2E/DX2 analytically  !
 ! D13   D(2,3,4,18)           173.3023         calculate D2E/DX2 analytically  !
 ! D14   D(17,3,4,5)           -90.908          calculate D2E/DX2 analytically  !
 ! D15   D(17,3,4,8)           141.2261         calculate D2E/DX2 analytically  !
 ! D16   D(17,3,4,18)           22.3011         calculate D2E/DX2 analytically  !
 ! D17   D(3,4,5,6)           -156.8426         calculate D2E/DX2 analytically  !
 ! D18   D(3,4,5,7)             25.8192         calculate D2E/DX2 analytically  !
 ! D19   D(8,4,5,6)            -30.9674         calculate D2E/DX2 analytically  !
 ! D20   D(8,4,5,7)            151.6944         calculate D2E/DX2 analytically  !
 ! D21   D(18,4,5,6)            90.8097         calculate D2E/DX2 analytically  !
 ! D22   D(18,4,5,7)           -86.5285         calculate D2E/DX2 analytically  !
 ! D23   D(3,4,8,9)           -143.8929         calculate D2E/DX2 analytically  !
 ! D24   D(3,4,8,20)           -25.0377         calculate D2E/DX2 analytically  !
 ! D25   D(3,4,8,21)            89.965          calculate D2E/DX2 analytically  !
 ! D26   D(5,4,8,9)             91.5679         calculate D2E/DX2 analytically  !
 ! D27   D(5,4,8,20)          -149.5769         calculate D2E/DX2 analytically  !
 ! D28   D(5,4,8,21)           -34.5742         calculate D2E/DX2 analytically  !
 ! D29   D(18,4,8,9)           -28.0945         calculate D2E/DX2 analytically  !
 ! D30   D(18,4,8,20)           90.7606         calculate D2E/DX2 analytically  !
 ! D31   D(18,4,8,21)         -154.2367         calculate D2E/DX2 analytically  !
 ! D32   D(4,5,6,19)           179.6235         calculate D2E/DX2 analytically  !
 ! D33   D(7,5,6,19)            -2.9738         calculate D2E/DX2 analytically  !
 ! D34   D(4,8,9,10)           119.8815         calculate D2E/DX2 analytically  !
 ! D35   D(4,8,9,13)           -59.1069         calculate D2E/DX2 analytically  !
 ! D36   D(20,8,9,10)            0.6533         calculate D2E/DX2 analytically  !
 ! D37   D(20,8,9,13)         -178.3351         calculate D2E/DX2 analytically  !
 ! D38   D(21,8,9,10)         -114.7065         calculate D2E/DX2 analytically  !
 ! D39   D(21,8,9,13)           66.3052         calculate D2E/DX2 analytically  !
 ! D40   D(8,9,10,11)         -179.4414         calculate D2E/DX2 analytically  !
 ! D41   D(8,9,10,22)            0.862          calculate D2E/DX2 analytically  !
 ! D42   D(13,9,10,11)          -0.3138         calculate D2E/DX2 analytically  !
 ! D43   D(13,9,10,22)         179.9897         calculate D2E/DX2 analytically  !
 ! D44   D(8,9,13,12)          179.6249         calculate D2E/DX2 analytically  !
 ! D45   D(8,9,13,24)           -1.0112         calculate D2E/DX2 analytically  !
 ! D46   D(10,9,13,12)           0.4067         calculate D2E/DX2 analytically  !
 ! D47   D(10,9,13,24)         179.7705         calculate D2E/DX2 analytically  !
 ! D48   D(9,10,11,12)           0.0957         calculate D2E/DX2 analytically  !
 ! D49   D(22,10,11,12)        179.8165         calculate D2E/DX2 analytically  !
 ! D50   D(10,11,12,13)          0.172          calculate D2E/DX2 analytically  !
 ! D51   D(10,11,12,23)       -179.599          calculate D2E/DX2 analytically  !
 ! D52   D(11,12,13,9)          -0.3752         calculate D2E/DX2 analytically  !
 ! D53   D(11,12,13,24)       -179.7028         calculate D2E/DX2 analytically  !
 ! D54   D(23,12,13,9)         179.4086         calculate D2E/DX2 analytically  !
 ! D55   D(23,12,13,24)          0.081          calculate D2E/DX2 analytically  !
 ! D56   D(2,14,15,16)        -179.1721         calculate D2E/DX2 analytically  !
 ! D57   D(2,14,15,27)         -57.159          calculate D2E/DX2 analytically  !
 ! D58   D(2,14,15,28)          58.633          calculate D2E/DX2 analytically  !
 ! D59   D(25,14,15,16)         59.9738         calculate D2E/DX2 analytically  !
 ! D60   D(25,14,15,27)       -178.0131         calculate D2E/DX2 analytically  !
 ! D61   D(25,14,15,28)        -62.2211         calculate D2E/DX2 analytically  !
 ! D62   D(26,14,15,16)        -57.3794         calculate D2E/DX2 analytically  !
 ! D63   D(26,14,15,27)         64.6337         calculate D2E/DX2 analytically  !
 ! D64   D(26,14,15,28)       -179.5743         calculate D2E/DX2 analytically  !
 ! D65   D(14,15,16,29)         59.1042         calculate D2E/DX2 analytically  !
 ! D66   D(14,15,16,30)        -58.5613         calculate D2E/DX2 analytically  !
 ! D67   D(27,15,16,29)        -63.1825         calculate D2E/DX2 analytically  !
 ! D68   D(27,15,16,30)        179.152          calculate D2E/DX2 analytically  !
 ! D69   D(28,15,16,29)       -178.5413         calculate D2E/DX2 analytically  !
 ! D70   D(28,15,16,30)         63.7932         calculate D2E/DX2 analytically  !
 --------------------------------------------------------------------------------
 Trust Radius=3.00D-01 FncErr=1.00D-07 GrdErr=1.00D-06
 Number of steps in this run=    160 maximum allowed number of steps=    180.
 GradGradGradGradGradGradGradGradGradGradGradGradGradGradGradGradGradGrad

                          Input orientation:                          
 ---------------------------------------------------------------------
 Center     Atomic      Atomic             Coordinates (Angstroms)
 Number     Number       Type             X           Y           Z
 ---------------------------------------------------------------------
      1          8           0        1.417701    0.857484   -0.676571
      2          6           0        1.594364   -0.004096    0.170265
      3          7           0        0.538935   -0.706795    0.689955
      4          6           0       -0.769472   -0.614461    0.045092
      5          6           0       -0.648268   -1.107456   -1.387719
      6          8           0       -1.618787   -0.618740   -2.200176
      7          8           0        0.179315   -1.885674   -1.771125
      8          6           0       -1.377870    0.798338    0.199367
      9          6           0       -2.858733    0.801239    0.379029
     10          6           0       -3.649774    1.260823    1.394234
     11          7           0       -4.984605    1.029882    1.115776
     12          6           0       -4.992777    0.436482   -0.052640
     13          7           0       -3.733425    0.272184   -0.534742
     14          6           0        2.949245   -0.355035    0.761106
     15          6           0        4.108125    0.286154   -0.004116
     16          7           0        5.437961   -0.030629    0.506347
     17          1           0        0.736987   -1.567649    1.169641
     18          1           0       -1.392069   -1.349352    0.568090
     19          1           0       -1.436240   -0.992330   -3.075593
     20          1           0       -0.944825    1.253127    1.087858
     21          1           0       -1.075666    1.429147   -0.632825
     22          1           0       -3.345191    1.748206    2.307926
     23          1           0       -5.857934    0.107305   -0.600236
     24          1           0       -3.449616   -0.146799   -1.405213
     25          1           0        2.962802   -0.027195    1.807808
     26          1           0        3.055580   -1.446224    0.774651
     27          1           0        4.056937   -0.023239   -1.048389
     28          1           0        3.981055    1.368669    0.004859
     29          1           0        5.594239   -1.031986    0.487363
     30          1           0        5.522075    0.258626    1.474429
 ---------------------------------------------------------------------
                    Distance matrix (angstroms):
                    1          2          3          4          5
     1  O    0.000000
     2  C    1.220926   0.000000
     3  N    2.255347   1.370326   0.000000
     4  C    2.733340   2.444573   1.461610   0.000000
     5  C    2.938529   2.945185   2.426255   1.520092   0.000000
     6  O    3.704169   4.039940   3.607821   2.400537   1.356774
     7  O    3.202588   3.051507   2.752454   2.411395   1.198965
     8  C    2.930185   3.078786   2.486009   1.545946   2.585191
     9  C    4.405150   4.530146   3.730281   2.545728   3.413308
    10  C    5.489100   5.531646   4.681113   3.692291   4.728324
    11  N    6.650696   6.726510   5.805762   4.649470   5.444219
    12  C    6.454516   6.605621   5.697225   4.353199   4.800098
    13  N    5.186212   5.381329   4.550972   3.147596   3.485566
    14  C    2.425437   1.519195   2.436881   3.795898   4.257427
    15  C    2.831430   2.536464   3.769191   4.960291   5.145851
    16  N    4.283751   3.858354   4.948875   6.251867   6.464459
    17  H    3.123001   2.044149   1.005183   2.107747   2.944622
    18  H    3.783400   3.299509   2.038752   1.096001   2.106405
    19  H    4.161983   4.549369   4.261713   3.213415   1.866299
    20  H    2.975109   2.978266   2.490214   2.146159   3.433480
    21  H    2.558435   3.134995   2.986458   2.174778   2.680837
    22  H    5.690848   5.660332   4.871478   4.163765   5.393143
    23  H    7.314606   7.492851   6.576267   5.179752   5.407069
    24  H    5.022975   5.286230   4.540029   3.083060   2.961540
    25  H    3.056490   2.134175   2.754375   4.169163   4.941476
    26  H    3.177383   2.140133   2.624391   3.981848   4.302220
    27  H    2.807042   2.747681   3.983143   4.983921   4.840416
    28  H    2.701192   2.758285   4.077388   5.148003   5.431491
    29  H    4.729515   4.141994   5.069802   6.392711   6.518475
    30  H    4.672399   4.146900   5.136061   6.510673   6.937666
                    6          7          8          9         10
     6  O    0.000000
     7  O    2.241066   0.000000
     8  C    2.797134   3.675811   0.000000
     9  C    3.194700   4.590469   1.491725   0.000000
    10  C    4.536238   5.880635   2.608284   1.366603   0.000000
    11  N    5.004221   6.595509   3.728533   2.261505   1.382985
    12  C    4.136329   5.924200   3.641703   2.207607   2.139309
    13  N    2.835333   4.636220   2.522775   1.371116   2.169182
    14  C    5.450289   4.053093   4.513285   5.934270   6.823408
    15  C    6.199922   4.824387   5.513609   6.996373   7.942944
    16  N    7.580820   6.023407   6.872916   8.339266   9.221883
    17  H    4.219687   3.010024   3.318425   4.377888   5.224402
    18  H    2.872018   2.868592   2.179158   2.609959   3.548628
    19  H    0.969148   2.260469   3.732997   4.144248   5.473188
    20  H    3.843082   4.391988   1.088015   2.090380   2.722255
    21  H    2.635415   3.722733   1.087102   2.144165   3.280752
    22  H    5.376420   6.501222   3.036218   2.203187   1.079419
    23  H    4.588826   6.464621   4.603027   3.230434   3.191313
    24  H    2.051007   4.040634   2.785694   2.105098   3.139804
    25  H    6.115947   4.900051   4.702129   6.051280   6.749533
    26  H    5.602145   3.866134   5.002448   6.339299   7.257669
    27  H    5.821947   4.361991   5.636401   7.109415   8.185879
    28  H    6.337996   5.310188   5.392698   6.873477   7.757032
    29  H    7.708526   5.928824   7.214107   8.650156   9.567192
    30  H    8.078639   6.608837   7.037494   8.469491   9.226790
                   11         12         13         14         15
    11  N    0.000000
    12  C    1.310491   0.000000
    13  N    2.205395   1.358449   0.000000
    14  C    8.061623   8.022743   6.835986   0.000000
    15  C    9.191574   9.102273   7.859495   1.529605   0.000000
    16  N   10.494092  10.456145   9.235252   2.522667   1.459242
    17  H    6.283844   6.191988   5.125865   2.555664   4.022296
    18  H    4.343620   4.066892   3.054106   4.457907   5.766666
    19  H    5.852164   4.881466   3.651299   5.861645   6.465947
    20  H    4.046040   4.284106   3.372146   4.225723   5.259254
    21  H    4.300793   4.082372   2.900322   4.618036   5.345409
    22  H    2.150556   3.163453   3.226473   6.814411   7.939462
    23  H    2.135075   1.075506   2.131903   8.923755   9.985473
    24  H    3.177445   2.133312   1.006884   6.758826   7.698699
    25  H    8.047211   8.183368   7.100466   1.096926   2.166338
    26  H    8.419741   8.306928   7.124466   1.096442   2.171513
    27  H    9.356397   9.115930   7.812864   2.147404   1.090344
    28  H    9.040574   9.022303   7.810675   2.146555   1.089984
    29  H   10.796210  10.702005   9.473694   2.743937   2.046358
    30  H   10.541053  10.626650   9.471073   2.739501   2.045998
                   16         17         18         19         20
    16  N    0.000000
    17  H    4.990145   0.000000
    18  H    6.956447   2.223151   0.000000
    19  H    7.810877   4.803740   3.661399   0.000000
    20  H    6.536524   3.285112   2.691298   4.755827   0.000000
    21  H    6.771705   3.938956   3.043413   3.458422   1.734604
    22  H    9.140771   5.380963   4.054205   6.335370   2.737777
    23  H   11.350806   7.030712   4.840535   5.185361   5.319887
    24  H    9.091566   5.116281   3.094117   2.749323   3.801207
    25  H    2.796466   2.781098   4.716980   6.643091   4.174578
    26  H    2.784176   2.355129   4.453497   5.933536   4.836097
    27  H    2.079540   4.280996   5.836373   5.934954   5.586617
    28  H    2.081370   4.527986   6.047754   6.664126   5.044852
    29  H    1.013657   4.934099   6.993979   7.881869   6.952820
    30  H    1.013867   5.130813   7.156287   8.407481   6.554332
                   21         22         23         24         25
    21  H    0.000000
    22  H    3.728345   0.000000
    23  H    4.961694   4.178975   0.000000
    24  H    2.952258   4.170054   2.551970   0.000000
    25  H    4.938303   6.572134   9.144514   7.173347   0.000000
    26  H    5.226465   7.316090   9.151748   6.982685   1.757743
    27  H    5.350302   8.318315   9.925852   7.516044   3.058596
    28  H    5.097129   7.689086   9.937951   7.713612   2.497179
    29  H    7.197196   9.537155  11.559979   9.282064   3.110891
    30  H    7.024302   9.030059  11.568567   9.431222   2.596674
                   26         27         28         29         30
    26  H    0.000000
    27  H    2.520135   0.000000
    28  H    3.061488   1.747140   0.000000
    29  H    2.588227   2.395706   2.932290   0.000000
    30  H    3.078929   2.930988   2.401370   1.626404   0.000000
 Symmetry turned off by external request.
 Stoichiometry    C9H14N4O3
 Framework group  C1[X(C9H14N4O3)]
 Deg. of freedom    84
 Full point group                 C1      NOp   1
 Rotational constants (GHZ):      1.2523698      0.2304720      0.2066994
 Standard basis: 6-31G(d) (6D, 7F)
   268 basis functions,   504 primitive gaussians,   268 cartesian basis functions
    60 alpha electrons       60 beta electrons
       nuclear repulsion energy      1113.3337131870 Hartrees.
 NAtoms=   30 NActive=   30 NUniq=   30 SFac= 1.00D+00 NAtFMM=   60 NAOKFM=F Big=F
 Integral buffers will be    131072 words long.
 Raffenetti 2 integral format.
 Two-electron integral symmetry is turned off.
 Nuclear repulsion after empirical dispersion term =     1113.2796995233 Hartrees.
 One-electron integrals computed using PRISM.
 NBasis=   268 RedAO= T EigKep=  1.16D-03  NBF=   268
 NBsUse=   268 1.00D-06 EigRej= -1.00D+00 NBFU=   268
 ExpMin= 1.61D-01 ExpMax= 5.48D+03 ExpMxC= 8.25D+02 IAcc=3 IRadAn=         5 AccDes= 0.00D+00
 Harris functional with IExCor=  402 and IRadAn=       5 diagonalized for initial guess.
 HarFok:  IExCor=  402 AccDes= 0.00D+00 IRadAn=         5 IDoV= 1 UseB2=F ITyADJ=14
 ICtDFT=  3500011 ScaDFX=  1.000000  1.000000  1.000000  1.000000
 FoFCou: FMM=F IPFlag=           0 FMFlag=      100000 FMFlg1=           0
         NFxFlg=           0 DoJE=T BraDBF=F KetDBF=T FulRan=T
         wScrn=  0.000000 ICntrl=     500 IOpCl=  0 I1Cent=   200000004 NGrid=           0
         NMat0=    1 NMatS0=      1 NMatT0=    0 NMatD0=    1 NMtDS0=    0 NMtDT0=    0
 Symmetry not used in FoFCou.
 Requested convergence on RMS density matrix=1.00D-08 within 128 cycles.
 Requested convergence on MAX density matrix=1.00D-06.
 Requested convergence on             energy=1.00D-06.
 No special actions if energy rises.
 Integral accuracy reduced to 1.0D-05 until final iterations.
 Initial convergence to 1.0D-05 achieved.  Increase integral accuracy.
 SCF Done:  E(RB3LYP) =  -796.126178492     A.U. after   14 cycles
            NFock= 14  Conv=0.78D-08     -V/T= 2.0088
 DoSCS=F DFT=T ScalE2(SS,OS)=  1.000000  1.000000
 Range of M.O.s used for correlation:     1   268
 NBasis=   268 NAE=    60 NBE=    60 NFC=     0 NFV=     0
 NROrb=    268 NOA=    60 NOB=    60 NVA=   208 NVB=   208
 Symmetrizing basis deriv contribution to polar:
 IMax=3 JMax=2 DiffMx= 0.00D+00
 G2DrvN: will do    31 centers at a time, making    1 passes.
 Calling FoFCou, ICntrl=  3107 FMM=F I1Cent=   0 AccDes= 0.00D+00.
 End of G2Drv F.D. properties file   721 does not exist.
 End of G2Drv F.D. properties file   722 does not exist.
 End of G2Drv F.D. properties file   788 does not exist.
          IDoAtm=111111111111111111111111111111
          Differentiating once with respect to nuclear coordinates.
          There are    93 degrees of freedom in the 1st order CPHF.  IDoFFX=6 NUNeed=     0.
     87 vectors produced by pass  0 Test12= 1.34D-14 1.08D-09 XBig12= 1.65D-01 1.19D-01.
 AX will form    87 AO Fock derivatives at one time.
     87 vectors produced by pass  1 Test12= 1.34D-14 1.08D-09 XBig12= 2.30D-02 5.79D-02.
     87 vectors produced by pass  2 Test12= 1.34D-14 1.08D-09 XBig12= 1.86D-04 2.44D-03.
     87 vectors produced by pass  3 Test12= 1.34D-14 1.08D-09 XBig12= 6.59D-07 1.16D-04.
     87 vectors produced by pass  4 Test12= 1.34D-14 1.08D-09 XBig12= 8.28D-10 3.97D-06.
     67 vectors produced by pass  5 Test12= 1.34D-14 1.08D-09 XBig12= 7.68D-13 8.18D-08.
     12 vectors produced by pass  6 Test12= 1.34D-14 1.08D-09 XBig12= 6.35D-16 2.68D-09.
 InvSVY:  IOpt=1 It=  1 EMax= 5.00D-16
 Solved reduced A of dimension   514 with    93 vectors.
 End of Minotr F.D. properties file   721 does not exist.
 End of Minotr F.D. properties file   722 does not exist.
 End of Minotr F.D. properties file   788 does not exist.

 **********************************************************************

            Population analysis using the SCF density.

 **********************************************************************

 Alpha  occ. eigenvalues --  -19.22659 -19.16124 -19.12718 -14.37636 -14.37094
 Alpha  occ. eigenvalues --  -14.31409 -14.29934 -10.34191 -10.29679 -10.26107
 Alpha  occ. eigenvalues --  -10.22702 -10.20888 -10.20799 -10.20247 -10.20087
 Alpha  occ. eigenvalues --  -10.18435  -1.13606  -1.05181  -1.04214  -1.00644
 Alpha  occ. eigenvalues --   -0.93908  -0.88508  -0.85983  -0.80901  -0.76357
 Alpha  occ. eigenvalues --   -0.73675  -0.67960  -0.65487  -0.61698  -0.60656
 Alpha  occ. eigenvalues --   -0.58873  -0.58153  -0.54343  -0.52337  -0.51411
 Alpha  occ. eigenvalues --   -0.50656  -0.50579  -0.47916  -0.46946  -0.45266
 Alpha  occ. eigenvalues --   -0.44465  -0.43071  -0.42684  -0.42217  -0.41480
 Alpha  occ. eigenvalues --   -0.40406  -0.39828  -0.38813  -0.38634  -0.37891
 Alpha  occ. eigenvalues --   -0.37678  -0.34888  -0.34228  -0.29879  -0.27827
 Alpha  occ. eigenvalues --   -0.26839  -0.26586  -0.25380  -0.23360  -0.21559
 Alpha virt. eigenvalues --   -0.01303   0.01255   0.03917   0.05254   0.06200
 Alpha virt. eigenvalues --    0.07440   0.07986   0.11533   0.12113   0.12401
 Alpha virt. eigenvalues --    0.12923   0.14477   0.15245   0.15736   0.15955
 Alpha virt. eigenvalues --    0.17155   0.17955   0.18886   0.20020   0.20934
 Alpha virt. eigenvalues --    0.22832   0.23349   0.24197   0.25360   0.26588
 Alpha virt. eigenvalues --    0.27970   0.29185   0.31373   0.32634   0.33791
 Alpha virt. eigenvalues --    0.36859   0.39514   0.40402   0.47419   0.50688
 Alpha virt. eigenvalues --    0.51827   0.52326   0.53365   0.53804   0.54685
 Alpha virt. eigenvalues --    0.55371   0.56380   0.57473   0.58548   0.59698
 Alpha virt. eigenvalues --    0.61122   0.62110   0.63340   0.63646   0.64525
 Alpha virt. eigenvalues --    0.65582   0.66513   0.67109   0.68020   0.69260
 Alpha virt. eigenvalues --    0.70008   0.71434   0.73210   0.74209   0.75464
 Alpha virt. eigenvalues --    0.76573   0.77643   0.78167   0.80505   0.80793
 Alpha virt. eigenvalues --    0.81188   0.82064   0.83062   0.83729   0.84927
 Alpha virt. eigenvalues --    0.85159   0.86119   0.87048   0.87472   0.88872
 Alpha virt. eigenvalues --    0.89467   0.90418   0.90580   0.91928   0.92377
 Alpha virt. eigenvalues --    0.93149   0.93214   0.94225   0.96071   0.97006
 Alpha virt. eigenvalues --    0.97931   1.00589   1.01811   1.03075   1.05549
 Alpha virt. eigenvalues --    1.07552   1.08651   1.10767   1.12927   1.16764
 Alpha virt. eigenvalues --    1.19281   1.19693   1.25637   1.26657   1.29407
 Alpha virt. eigenvalues --    1.30282   1.30837   1.33770   1.36124   1.36854
 Alpha virt. eigenvalues --    1.38199   1.39777   1.42303   1.43669   1.46448
 Alpha virt. eigenvalues --    1.46922   1.50132   1.52252   1.53351   1.54802
 Alpha virt. eigenvalues --    1.55916   1.57401   1.59305   1.63855   1.67397
 Alpha virt. eigenvalues --    1.68580   1.71562   1.73378   1.74928   1.75796
 Alpha virt. eigenvalues --    1.76266   1.79689   1.80590   1.81249   1.82849
 Alpha virt. eigenvalues --    1.83972   1.84860   1.87611   1.88729   1.91207
 Alpha virt. eigenvalues --    1.92489   1.93371   1.93791   1.96471   1.97045
 Alpha virt. eigenvalues --    1.98244   1.99363   2.02175   2.05639   2.07056
 Alpha virt. eigenvalues --    2.09019   2.09316   2.10139   2.12429   2.13808
 Alpha virt. eigenvalues --    2.17246   2.19371   2.22479   2.26088   2.26275
 Alpha virt. eigenvalues --    2.27625   2.27955   2.29879   2.32930   2.34961
 Alpha virt. eigenvalues --    2.36273   2.38607   2.40550   2.42235   2.43982
 Alpha virt. eigenvalues --    2.45609   2.46935   2.49494   2.49858   2.54533
 Alpha virt. eigenvalues --    2.55873   2.59724   2.61520   2.61700   2.63959
 Alpha virt. eigenvalues --    2.64175   2.68210   2.69734   2.71522   2.74557
 Alpha virt. eigenvalues --    2.75296   2.76953   2.85264   2.86634   2.93956
 Alpha virt. eigenvalues --    2.98949   3.01329   3.03117   3.05378   3.11551
 Alpha virt. eigenvalues --    3.13571   3.17448   3.78471   3.83059   3.94181
 Alpha virt. eigenvalues --    4.01037   4.05597   4.09247   4.15436   4.22493
 Alpha virt. eigenvalues --    4.23087   4.24777   4.31936   4.37194   4.42757
 Alpha virt. eigenvalues --    4.51733   4.60594   4.65733
          Condensed to atoms (all electrons):
               1          2          3          4          5          6
     1  O    8.104439   0.558872  -0.099311   0.002692   0.010891  -0.000488
     2  C    0.558872   4.371956   0.254767  -0.027208   0.001692  -0.000349
     3  N   -0.099311   0.254767   7.129095   0.265065  -0.061378   0.002505
     4  C    0.002692  -0.027208   0.265065   5.135680   0.303523  -0.090159
     5  C    0.010891   0.001692  -0.061378   0.303523   4.368800   0.252467
     6  O   -0.000488  -0.000349   0.002505  -0.090159   0.252467   8.267243
     7  O   -0.002979   0.007638  -0.004836  -0.077071   0.579001  -0.085134
     8  C    0.005017  -0.005772  -0.051618   0.313398  -0.033506   0.003571
     9  C    0.000962   0.000640   0.001015  -0.034263  -0.001152  -0.000424
    10  C    0.000000  -0.000001  -0.000098  -0.000828   0.000091   0.000074
    11  N    0.000000   0.000000   0.000000  -0.000085  -0.000002  -0.000008
    12  C    0.000000   0.000000   0.000000   0.000290  -0.000056   0.000185
    13  N    0.000001  -0.000005   0.000105  -0.000938  -0.000442  -0.014216
    14  C   -0.087171   0.280053  -0.115372   0.006116   0.000052  -0.000008
    15  C    0.006029  -0.024018   0.003127  -0.000114   0.000005   0.000000
    16  N    0.000262   0.005507  -0.000067   0.000001   0.000000   0.000000
    17  H    0.003825  -0.020854   0.301184  -0.029364   0.001221  -0.000019
    18  H    0.000364   0.005459  -0.032296   0.363627  -0.036516   0.001292
    19  H    0.000006  -0.000039  -0.000252   0.010303  -0.004385   0.217656
    20  H   -0.000757  -0.000153   0.000481  -0.033576   0.003312   0.000154
    21  H    0.006421   0.001843  -0.000520  -0.045838  -0.003107   0.002300
    22  H    0.000000   0.000001  -0.000004   0.000039  -0.000002   0.000001
    23  H    0.000000   0.000000   0.000000   0.000000   0.000001  -0.000008
    24  H    0.000000   0.000003  -0.000017   0.000051   0.001114   0.029304
    25  H    0.000348  -0.019433   0.000066  -0.000054   0.000005   0.000000
    26  H    0.001609  -0.022869   0.000708  -0.000091  -0.000019   0.000000
    27  H    0.002739   0.000323   0.000110   0.000006   0.000007   0.000000
    28  H    0.005548  -0.000595   0.000190   0.000002  -0.000001   0.000000
    29  H    0.000002   0.000098  -0.000003   0.000000   0.000000   0.000000
    30  H    0.000004   0.000161  -0.000001   0.000000   0.000000   0.000000
               7          8          9         10         11         12
     1  O   -0.002979   0.005017   0.000962   0.000000   0.000000   0.000000
     2  C    0.007638  -0.005772   0.000640  -0.000001   0.000000   0.000000
     3  N   -0.004836  -0.051618   0.001015  -0.000098   0.000000   0.000000
     4  C   -0.077071   0.313398  -0.034263  -0.000828  -0.000085   0.000290
     5  C    0.579001  -0.033506  -0.001152   0.000091  -0.000002  -0.000056
     6  O   -0.085134   0.003571  -0.000424   0.000074  -0.000008   0.000185
     7  O    8.024237   0.001694   0.000059   0.000001   0.000000   0.000000
     8  C    0.001694   5.214925   0.321099  -0.055000   0.006770   0.005938
     9  C    0.000059   0.321099   4.742415   0.576598  -0.043349  -0.092094
    10  C    0.000001  -0.055000   0.576598   4.944236   0.425662  -0.122758
    11  N    0.000000   0.006770  -0.043349   0.425662   6.667979   0.539751
    12  C    0.000000   0.005938  -0.092094  -0.122758   0.539751   4.740315
    13  N   -0.000027  -0.074375   0.357636  -0.072250  -0.087645   0.358299
    14  C   -0.000547   0.000132   0.000016   0.000000   0.000000   0.000000
    15  C    0.000005  -0.000006   0.000000   0.000000   0.000000   0.000000
    16  N    0.000000   0.000000   0.000000   0.000000   0.000000   0.000000
    17  H    0.001765   0.004673  -0.000024  -0.000006   0.000000   0.000000
    18  H   -0.000596  -0.038687   0.003507   0.001708  -0.000119  -0.000222
    19  H    0.011870  -0.000353  -0.000084  -0.000003   0.000000  -0.000004
    20  H   -0.000072   0.367278  -0.030357  -0.004835   0.000061  -0.000075
    21  H    0.000072   0.365279  -0.028124   0.000841  -0.000122   0.000180
    22  H    0.000000  -0.001910  -0.059334   0.380260  -0.043956   0.007740
    23  H    0.000000  -0.000183   0.003130   0.007518  -0.039101   0.381377
    24  H    0.000155  -0.004103  -0.023964   0.008648   0.004667  -0.022232
    25  H    0.000002  -0.000018  -0.000002   0.000000   0.000000   0.000000
    26  H    0.000233  -0.000005   0.000000   0.000000   0.000000   0.000000
    27  H    0.000009  -0.000001   0.000000   0.000000   0.000000   0.000000
    28  H    0.000001  -0.000001   0.000000   0.000000   0.000000   0.000000
    29  H    0.000000   0.000000   0.000000   0.000000   0.000000   0.000000
    30  H    0.000000   0.000000   0.000000   0.000000   0.000000   0.000000
              13         14         15         16         17         18
     1  O    0.000001  -0.087171   0.006029   0.000262   0.003825   0.000364
     2  C   -0.000005   0.280053  -0.024018   0.005507  -0.020854   0.005459
     3  N    0.000105  -0.115372   0.003127  -0.000067   0.301184  -0.032296
     4  C   -0.000938   0.006116  -0.000114   0.000001  -0.029364   0.363627
     5  C   -0.000442   0.000052   0.000005   0.000000   0.001221  -0.036516
     6  O   -0.014216  -0.000008   0.000000   0.000000  -0.000019   0.001292
     7  O   -0.000027  -0.000547   0.000005   0.000000   0.001765  -0.000596
     8  C   -0.074375   0.000132  -0.000006   0.000000   0.004673  -0.038687
     9  C    0.357636   0.000016   0.000000   0.000000  -0.000024   0.003507
    10  C   -0.072250   0.000000   0.000000   0.000000  -0.000006   0.001708
    11  N   -0.087645   0.000000   0.000000   0.000000   0.000000  -0.000119
    12  C    0.358299   0.000000   0.000000   0.000000   0.000000  -0.000222
    13  N    6.911674   0.000000   0.000000   0.000000   0.000002   0.000671
    14  C    0.000000   5.436798   0.348029  -0.061622   0.002346  -0.000156
    15  C    0.000000   0.348029   4.847175   0.331710  -0.000143   0.000001
    16  N    0.000000  -0.061622   0.331710   6.871706  -0.000007   0.000000
    17  H    0.000002   0.002346  -0.000143  -0.000007   0.408900  -0.005946
    18  H    0.000671  -0.000156   0.000001   0.000000  -0.005946   0.548271
    19  H    0.000386   0.000000   0.000000   0.000000   0.000003  -0.000346
    20  H    0.004259  -0.000138   0.000004   0.000000   0.000333  -0.000420
    21  H   -0.003158   0.000111  -0.000001   0.000000  -0.000197   0.004829
    22  H    0.005222   0.000000   0.000000   0.000000   0.000000   0.000011
    23  H   -0.059521   0.000000   0.000000   0.000000   0.000000   0.000002
    24  H    0.281076   0.000000   0.000000   0.000000  -0.000001   0.000184
    25  H    0.000000   0.346897  -0.030868   0.000399   0.000237   0.000006
    26  H    0.000000   0.343060  -0.033018   0.000873   0.002848  -0.000020
    27  H    0.000000  -0.053117   0.389527  -0.037815  -0.000008   0.000000
    28  H    0.000000  -0.050907   0.387216  -0.037692  -0.000001   0.000000
    29  H    0.000000  -0.003283  -0.043988   0.315826   0.000001   0.000000
    30  H    0.000000  -0.002918  -0.044977   0.316248   0.000001   0.000000
              19         20         21         22         23         24
     1  O    0.000006  -0.000757   0.006421   0.000000   0.000000   0.000000
     2  C   -0.000039  -0.000153   0.001843   0.000001   0.000000   0.000003
     3  N   -0.000252   0.000481  -0.000520  -0.000004   0.000000  -0.000017
     4  C    0.010303  -0.033576  -0.045838   0.000039   0.000000   0.000051
     5  C   -0.004385   0.003312  -0.003107  -0.000002   0.000001   0.001114
     6  O    0.217656   0.000154   0.002300   0.000001  -0.000008   0.029304
     7  O    0.011870  -0.000072   0.000072   0.000000   0.000000   0.000155
     8  C   -0.000353   0.367278   0.365279  -0.001910  -0.000183  -0.004103
     9  C   -0.000084  -0.030357  -0.028124  -0.059334   0.003130  -0.023964
    10  C   -0.000003  -0.004835   0.000841   0.380260   0.007518   0.008648
    11  N    0.000000   0.000061  -0.000122  -0.043956  -0.039101   0.004667
    12  C   -0.000004  -0.000075   0.000180   0.007740   0.381377  -0.022232
    13  N    0.000386   0.004259  -0.003158   0.005222  -0.059521   0.281076
    14  C    0.000000  -0.000138   0.000111   0.000000   0.000000   0.000000
    15  C    0.000000   0.000004  -0.000001   0.000000   0.000000   0.000000
    16  N    0.000000   0.000000   0.000000   0.000000   0.000000   0.000000
    17  H    0.000003   0.000333  -0.000197   0.000000   0.000000  -0.000001
    18  H   -0.000346  -0.000420   0.004829   0.000011   0.000002   0.000184
    19  H    0.344637   0.000010  -0.000214   0.000000   0.000000  -0.000429
    20  H    0.000010   0.545253  -0.028319   0.003113   0.000004  -0.000055
    21  H   -0.000214  -0.028319   0.528771  -0.000049  -0.000001   0.000475
    22  H    0.000000   0.003113  -0.000049   0.583172  -0.000159  -0.000116
    23  H    0.000000   0.000004  -0.000001  -0.000159   0.558964   0.000401
    24  H   -0.000429  -0.000055   0.000475  -0.000116   0.000401   0.377203
    25  H    0.000000   0.000001  -0.000003   0.000000   0.000000   0.000000
    26  H    0.000000   0.000002  -0.000003   0.000000   0.000000   0.000000
    27  H    0.000000   0.000000   0.000000   0.000000   0.000000   0.000000
    28  H    0.000000   0.000000  -0.000001   0.000000   0.000000   0.000000
    29  H    0.000000   0.000000   0.000000   0.000000   0.000000   0.000000
    30  H    0.000000   0.000000   0.000000   0.000000   0.000000   0.000000
              25         26         27         28         29         30
     1  O    0.000348   0.001609   0.002739   0.005548   0.000002   0.000004
     2  C   -0.019433  -0.022869   0.000323  -0.000595   0.000098   0.000161
     3  N    0.000066   0.000708   0.000110   0.000190  -0.000003  -0.000001
     4  C   -0.000054  -0.000091   0.000006   0.000002   0.000000   0.000000
     5  C    0.000005  -0.000019   0.000007  -0.000001   0.000000   0.000000
     6  O    0.000000   0.000000   0.000000   0.000000   0.000000   0.000000
     7  O    0.000002   0.000233   0.000009   0.000001   0.000000   0.000000
     8  C   -0.000018  -0.000005  -0.000001  -0.000001   0.000000   0.000000
     9  C   -0.000002   0.000000   0.000000   0.000000   0.000000   0.000000
    10  C    0.000000   0.000000   0.000000   0.000000   0.000000   0.000000
    11  N    0.000000   0.000000   0.000000   0.000000   0.000000   0.000000
    12  C    0.000000   0.000000   0.000000   0.000000   0.000000   0.000000
    13  N    0.000000   0.000000   0.000000   0.000000   0.000000   0.000000
    14  C    0.346897   0.343060  -0.053117  -0.050907  -0.003283  -0.002918
    15  C   -0.030868  -0.033018   0.389527   0.387216  -0.043988  -0.044977
    16  N    0.000399   0.000873  -0.037815  -0.037692   0.315826   0.316248
    17  H    0.000237   0.002848  -0.000008  -0.000001   0.000001   0.000001
    18  H    0.000006  -0.000020   0.000000   0.000000   0.000000   0.000000
    19  H    0.000000   0.000000   0.000000   0.000000   0.000000   0.000000
    20  H    0.000001   0.000002   0.000000   0.000000   0.000000   0.000000
    21  H   -0.000003  -0.000003   0.000000  -0.000001   0.000000   0.000000
    22  H    0.000000   0.000000   0.000000   0.000000   0.000000   0.000000
    23  H    0.000000   0.000000   0.000000   0.000000   0.000000   0.000000
    24  H    0.000000   0.000000   0.000000   0.000000   0.000000   0.000000
    25  H    0.569567  -0.034865   0.005377  -0.004862  -0.000350   0.004991
    26  H   -0.034865   0.588471  -0.004436   0.005511   0.005117  -0.000280
    27  H    0.005377  -0.004436   0.562244  -0.029955  -0.004738   0.006433
    28  H   -0.004862   0.005511  -0.029955   0.556672   0.006309  -0.004567
    29  H   -0.000350   0.005117  -0.004738   0.006309   0.467454  -0.035151
    30  H    0.004991  -0.000280   0.006433  -0.004567  -0.035151   0.467798
 Mulliken charges:
               1
     1  O   -0.519324
     2  C    0.632283
     3  N   -0.592644
     4  C   -0.061202
     5  C    0.618386
     6  O   -0.585938
     7  O   -0.455478
     8  C   -0.344237
     9  C    0.306095
    10  C   -0.089856
    11  N   -0.430503
    12  C    0.203365
    13  N   -0.606754
    14  C   -0.388370
    15  C   -0.135694
    16  N   -0.705329
    17  H    0.329231
    18  H    0.185393
    19  H    0.421235
    20  H    0.174494
    21  H    0.198537
    22  H    0.125973
    23  H    0.147577
    24  H    0.347636
    25  H    0.162560
    26  H    0.147173
    27  H    0.163297
    28  H    0.167132
    29  H    0.292705
    30  H    0.292258
 Sum of Mulliken charges =   0.00000
 Mulliken charges with hydrogens summed into heavy atoms:
               1
     1  O   -0.519324
     2  C    0.632283
     3  N   -0.263413
     4  C    0.124191
     5  C    0.618386
     6  O   -0.164702
     7  O   -0.455478
     8  C    0.028794
     9  C    0.306095
    10  C    0.036117
    11  N   -0.430503
    12  C    0.350942
    13  N   -0.259118
    14  C   -0.078637
    15  C    0.194734
    16  N   -0.120366
 APT charges:
               1
     1  O   -0.439867
     2  C    0.273944
     3  N   -0.721484
     4  C   -0.475701
     5  C   -0.169864
     6  O   -0.711651
     7  O    0.074415
     8  C   -0.793605
     9  C   -0.676793
    10  C   -0.231612
    11  N    0.378536
    12  C   -0.600383
    13  N   -0.630758
    14  C   -0.676346
    15  C   -0.704960
    16  N   -1.110499
    17  H    0.647404
    18  H    0.473040
    19  H    0.855088
    20  H    0.351188
    21  H    0.371689
    22  H    0.483939
    23  H    1.001116
    24  H    0.375086
    25  H    0.409513
    26  H    0.391363
    27  H    0.325091
    28  H    0.341032
    29  H    0.592141
    30  H    0.598938
 Sum of APT charges =   0.00000
 APT charges with hydrogens summed into heavy atoms:
               1
     1  O   -0.439867
     2  C    0.273944
     3  N   -0.074080
     4  C   -0.002661
     5  C   -0.169864
     6  O    0.143437
     7  O    0.074415
     8  C   -0.070728
     9  C   -0.676793
    10  C    0.252327
    11  N    0.378536
    12  C    0.400732
    13  N   -0.255672
    14  C    0.124530
    15  C   -0.038836
    16  N    0.080581
 Electronic spatial extent (au):  <R**2>=           5194.1869
 Charge=              0.0000 electrons
 Dipole moment (field-independent basis, Debye):
    X=              1.0974    Y=             -3.8864    Z=             -0.1557  Tot=              4.0413
 Quadrupole moment (field-independent basis, Debye-Ang):
   XX=           -116.7063   YY=            -94.5503   ZZ=            -84.4506
   XY=              3.7692   XZ=             25.6918   YZ=             -0.9566
 Traceless Quadrupole moment (field-independent basis, Debye-Ang):
   XX=            -18.1372   YY=              4.0187   ZZ=             14.1184
   XY=              3.7692   XZ=             25.6918   YZ=             -0.9566
 Octapole moment (field-independent basis, Debye-Ang**2):
  XXX=            158.6791  YYY=             -9.8752  ZZZ=            -13.7164  XYY=             52.1391
  XXY=            -83.9416  XXZ=            -38.2053  XZZ=             40.1727  YZZ=             -8.0974
  YYZ=             16.0088  XYZ=              0.1475
 Hexadecapole moment (field-independent basis, Debye-Ang**3):
 XXXX=          -6693.6417 YYYY=           -519.8999 ZZZZ=           -543.6400 XXXY=            318.6138
 XXXZ=            576.8175 YYYX=            254.7240 YYYZ=           -156.2519 ZZZX=             77.4065
 ZZZY=            -99.2132 XXYY=          -1041.0704 XXZZ=          -1011.4817 YYZZ=           -193.2880
 XXYZ=            -74.4278 YYXZ=             18.9929 ZZXY=            108.2021
 N-N= 1.113279699523D+03 E-N=-4.083550161081D+03  KE= 7.891604739665D+02
  Exact polarizability:   0.000   0.000   0.000   0.000   0.000   0.000
 Approx polarizability: 201.021  -7.688 149.544  -1.365  11.413 177.279
 Calling FoFJK, ICntrl=    100147 FMM=F ISym2X=0 I1Cent= 0 IOpClX= 0 NMat=1 NMatS=1 NMatT=0.
 -------------------------------------------------------------------
 Center     Atomic                   Forces (Hartrees/Bohr)
 Number     Number              X              Y              Z
 -------------------------------------------------------------------
      1        8           0.002279004    0.004813526   -0.005203354
      2        6          -0.000297102   -0.003332643    0.003219461
      3        7          -0.006370778    0.000236605   -0.001699419
      4        6           0.008805563    0.002007911    0.009575984
      5        6          -0.004190562    0.005025181    0.003225131
      6        8          -0.002268228    0.002444720    0.001085630
      7        8           0.008541969   -0.008863201   -0.006182915
      8        6          -0.007027511    0.000825629    0.001556064
      9        6           0.010513203    0.000065671    0.001001768
     10        6          -0.009103399    0.001031319    0.004144030
     11        7          -0.001595214    0.004250005    0.007346345
     12        6          -0.001337101   -0.000329164    0.000079655
     13        7          -0.000398601   -0.003625044   -0.008762045
     14        6          -0.001788314    0.001145672   -0.000242155
     15        6           0.001227307   -0.001268756    0.001282445
     16        7           0.001418677    0.003427033   -0.003961270
     17        1           0.002205533   -0.003973804    0.002138701
     18        1          -0.003826698    0.002485695   -0.000396636
     19        1           0.000110891   -0.002357065   -0.006754282
     20        1           0.002150257   -0.000486235    0.002956837
     21        1           0.002182654    0.000204478   -0.004053164
     22        1           0.000880748    0.000701686    0.001428129
     23        1          -0.004658363   -0.001275102   -0.001154358
     24        1           0.000530564   -0.000577847   -0.003238186
     25        1           0.000141486   -0.000049200    0.001856694
     26        1           0.000996781   -0.001741851    0.000322737
     27        1           0.000241632    0.000005584   -0.003089143
     28        1          -0.000174059    0.002638556   -0.000890985
     29        1           0.000479682   -0.004231484    0.000359839
     30        1           0.000329979    0.000802126    0.004048463
 -------------------------------------------------------------------
 Cartesian Forces:  Max     0.010513203 RMS     0.003728605
 FormGI is forming the generalized inverse of G from B-inverse, IUseBI=4.

 GradGradGradGradGradGradGradGradGradGradGradGradGradGradGradGradGradGrad
 Berny optimization.
 Internal  Forces:  Max     0.013626417 RMS     0.002897661
 Search for a local minimum.
 Step number   1 out of a maximum of  160
 All quantities printed in internal units (Hartrees-Bohrs-Radians)
 Mixed Optimization -- RFO/linear search
 Second derivative matrix not updated -- analytic derivatives used.
 ITU=  0
     Eigenvalues ---   -0.00107   0.00027   0.00217   0.00231   0.00325
     Eigenvalues ---    0.00339   0.00578   0.00925   0.01025   0.01119
     Eigenvalues ---    0.01798   0.01980   0.02133   0.02519   0.03092
     Eigenvalues ---    0.03352   0.04158   0.04224   0.04348   0.04497
     Eigenvalues ---    0.04508   0.04771   0.04991   0.05111   0.05434
     Eigenvalues ---    0.05625   0.06274   0.06471   0.07827   0.08247
     Eigenvalues ---    0.08939   0.10634   0.10875   0.11130   0.11896
     Eigenvalues ---    0.12160   0.12284   0.13875   0.14929   0.15662
     Eigenvalues ---    0.16702   0.18190   0.18843   0.18918   0.19242
     Eigenvalues ---    0.20871   0.21271   0.23260   0.23490   0.23754
     Eigenvalues ---    0.24610   0.25538   0.25903   0.27487   0.29046
     Eigenvalues ---    0.30727   0.33141   0.33384   0.33800   0.34139
     Eigenvalues ---    0.34415   0.34687   0.35189   0.35413   0.35610
     Eigenvalues ---    0.36250   0.37799   0.37964   0.38173   0.38678
     Eigenvalues ---    0.40069   0.42952   0.45381   0.45658   0.45889
     Eigenvalues ---    0.46322   0.47912   0.48385   0.49627   0.51583
     Eigenvalues ---    0.58806   0.61300   0.85578   0.95630
 RFO step:  Lambda=-3.61063146D-03 EMin=-1.06825495D-03
 Linear search not attempted -- first point.
 Iteration  1 RMS(Cart)=  0.16057307 RMS(Int)=  0.02507803
 Iteration  2 RMS(Cart)=  0.06031845 RMS(Int)=  0.00203264
 Iteration  3 RMS(Cart)=  0.00276440 RMS(Int)=  0.00005640
 Iteration  4 RMS(Cart)=  0.00000511 RMS(Int)=  0.00005634
 Iteration  5 RMS(Cart)=  0.00000000 RMS(Int)=  0.00005634
 Variable       Old X    -DE/DX   Delta X   Delta X   Delta X     New X
                                 (Linear)    (Quad)   (Total)
    R1        2.30721   0.00668   0.00000   0.00857   0.00857   2.31578
    R2        2.58954   0.00575   0.00000   0.00799   0.00799   2.59754
    R3        2.87086   0.00227   0.00000   0.00351   0.00351   2.87437
    R4        2.76204  -0.00011   0.00000  -0.00991  -0.00991   2.75213
    R5        1.89952   0.00486   0.00000   0.00933   0.00933   1.90885
    R6        2.87256   0.00952   0.00000   0.02876   0.02876   2.90132
    R7        2.92141   0.00394   0.00000   0.01332   0.01332   2.93474
    R8        2.07114   0.00032   0.00000   0.00037   0.00037   2.07151
    R9        2.56393   0.00497   0.00000   0.00817   0.00817   2.57210
   R10        2.26572   0.01363   0.00000   0.01362   0.01362   2.27934
   R11        1.83142   0.00703   0.00000   0.01301   0.01301   1.84443
   R12        2.81895   0.00523   0.00000   0.00408   0.00408   2.82303
   R13        2.05605   0.00307   0.00000   0.00958   0.00958   2.06563
   R14        2.05432   0.00383   0.00000   0.01047   0.01047   2.06480
   R15        2.58251   0.01088   0.00000   0.01889   0.01890   2.60141
   R16        2.59103   0.01065   0.00000   0.02294   0.02297   2.61400
   R17        2.61346  -0.00059   0.00000  -0.00819  -0.00821   2.60525
   R18        2.03981   0.00177   0.00000   0.00532   0.00532   2.04513
   R19        2.47647   0.00666   0.00000   0.01162   0.01160   2.48807
   R20        2.56710   0.00904   0.00000   0.01405   0.01405   2.58115
   R21        2.03241   0.00473   0.00000   0.01159   0.01159   2.04400
   R22        1.90273   0.00319   0.00000   0.00668   0.00668   1.90942
   R23        2.89054   0.00437   0.00000   0.01606   0.01606   2.90660
   R24        2.07289   0.00176   0.00000   0.00578   0.00578   2.07867
   R25        2.07197   0.00183   0.00000   0.00397   0.00397   2.07595
   R26        2.75757   0.00219   0.00000   0.00478   0.00478   2.76235
   R27        2.06045   0.00295   0.00000   0.00991   0.00991   2.07037
   R28        2.05977   0.00263   0.00000   0.00551   0.00551   2.06528
   R29        1.91553   0.00425   0.00000   0.01021   0.01021   1.92575
   R30        1.91593   0.00412   0.00000   0.00983   0.00983   1.92577
    A1        2.11002   0.00284   0.00000   0.00349   0.00348   2.11350
    A2        2.16737  -0.00459   0.00000  -0.02086  -0.02087   2.14650
    A3        2.00528   0.00175   0.00000   0.01709   0.01708   2.02236
    A4        2.08260   0.00072   0.00000  -0.00995  -0.00995   2.07265
    A5        2.05827  -0.00176   0.00000  -0.00672  -0.00670   2.05157
    A6        2.02754   0.00104   0.00000   0.01504   0.01502   2.04256
    A7        1.90075  -0.00408   0.00000  -0.00784  -0.00795   1.89281
    A8        1.94550   0.00233   0.00000   0.01435   0.01439   1.95988
    A9        1.82929   0.00193   0.00000   0.02880   0.02901   1.85830
   A10        2.00626   0.00314   0.00000   0.00961   0.00952   2.01578
   A11        1.85211   0.00076   0.00000  -0.00355  -0.00366   1.84845
   A12        1.91941  -0.00426   0.00000  -0.04046  -0.04053   1.87888
   A13        1.97205   0.00286   0.00000   0.01019   0.01019   1.98224
   A14        2.17361   0.00084   0.00000  -0.00117  -0.00118   2.17244
   A15        2.13655  -0.00370   0.00000  -0.00916  -0.00916   2.12739
   A16        1.84140   0.00235   0.00000   0.00234   0.00234   1.84374
   A17        1.98720   0.00458   0.00000   0.00769   0.00773   1.99493
   A18        1.88268  -0.00325   0.00000  -0.02689  -0.02694   1.85574
   A19        1.92250  -0.00254   0.00000  -0.01453  -0.01462   1.90787
   A20        1.87125  -0.00081   0.00000   0.00434   0.00433   1.87557
   A21        1.94662   0.00018   0.00000   0.01364   0.01365   1.96027
   A22        1.84620   0.00155   0.00000   0.01545   0.01514   1.86134
   A23        2.29795  -0.00169   0.00000  -0.00017  -0.00020   2.29775
   A24        2.15589   0.00401   0.00000   0.00746   0.00743   2.16332
   A25        1.82924  -0.00232   0.00000  -0.00717  -0.00714   1.82210
   A26        1.93152   0.00315   0.00000   0.00998   0.00998   1.94150
   A27        2.23614  -0.00197   0.00000  -0.01247  -0.01246   2.22367
   A28        2.11552  -0.00117   0.00000   0.00248   0.00248   2.11800
   A29        1.83501  -0.00015   0.00000  -0.00207  -0.00212   1.83289
   A30        1.94486   0.00177   0.00000   0.00542   0.00541   1.95027
   A31        2.21125  -0.00239   0.00000  -0.01417  -0.01417   2.19707
   A32        2.12707   0.00062   0.00000   0.00877   0.00877   2.13584
   A33        1.88412  -0.00244   0.00000  -0.00612  -0.00610   1.87802
   A34        2.16144   0.00153   0.00000   0.00113   0.00109   2.16254
   A35        2.23756   0.00091   0.00000   0.00511   0.00507   2.24263
   A36        1.96523  -0.00018   0.00000  -0.00816  -0.00822   1.95701
   A37        1.88924  -0.00001   0.00000  -0.00745  -0.00752   1.88172
   A38        1.89779   0.00076   0.00000   0.03019   0.03022   1.92800
   A39        1.92061   0.00029   0.00000  -0.00465  -0.00475   1.91586
   A40        1.92824  -0.00058   0.00000  -0.00475  -0.00478   1.92347
   A41        1.85923  -0.00027   0.00000  -0.00474  -0.00475   1.85448
   A42        2.00914   0.00044   0.00000   0.00365   0.00364   2.01278
   A43        1.90141   0.00038   0.00000   0.00314   0.00314   1.90455
   A44        1.90061   0.00019   0.00000  -0.00103  -0.00104   1.89957
   A45        1.89253  -0.00033   0.00000  -0.00360  -0.00361   1.88893
   A46        1.89543  -0.00025   0.00000   0.00348   0.00347   1.89890
   A47        1.85899  -0.00051   0.00000  -0.00647  -0.00647   1.85252
   A48        1.92666  -0.00013   0.00000  -0.00381  -0.00384   1.92283
   A49        1.92590   0.00009   0.00000  -0.00484  -0.00486   1.92104
   A50        1.86182  -0.00027   0.00000  -0.00836  -0.00842   1.85340
    D1        0.21074  -0.00070   0.00000  -0.03598  -0.03596   0.17478
    D2        2.83742  -0.00041   0.00000  -0.03494  -0.03488   2.80254
    D3       -2.96379  -0.00063   0.00000  -0.04532  -0.04539  -3.00918
    D4       -0.33711  -0.00034   0.00000  -0.04429  -0.04430  -0.38141
    D5       -0.19629  -0.00007   0.00000  -0.28360  -0.28359  -0.47989
    D6        1.93087   0.00017   0.00000  -0.29993  -0.29987   1.63100
    D7       -2.33915   0.00025   0.00000  -0.29361  -0.29360  -2.63275
    D8        2.97946  -0.00030   0.00000  -0.27447  -0.27451   2.70495
    D9       -1.17656  -0.00006   0.00000  -0.29079  -0.29078  -1.46734
   D10        0.83660   0.00002   0.00000  -0.28447  -0.28452   0.55208
   D11        1.04882   0.00022   0.00000  -0.03725  -0.03726   1.01156
   D12       -1.18286  -0.00248   0.00000  -0.05441  -0.05433  -1.23718
   D13        3.02470   0.00025   0.00000  -0.03072  -0.03085   2.99384
   D14       -1.58664   0.00073   0.00000  -0.03220  -0.03217  -1.61882
   D15        2.46486  -0.00196   0.00000  -0.04936  -0.04924   2.41562
   D16        0.38923   0.00076   0.00000  -0.02567  -0.02577   0.36346
   D17       -2.73742  -0.00044   0.00000   0.06651   0.06655  -2.67087
   D18        0.45063  -0.00032   0.00000   0.07015   0.07019   0.52082
   D19       -0.54048   0.00171   0.00000   0.08658   0.08659  -0.45389
   D20        2.64757   0.00183   0.00000   0.09022   0.09023   2.73780
   D21        1.58493  -0.00118   0.00000   0.03868   0.03862   1.62355
   D22       -1.51021  -0.00106   0.00000   0.04231   0.04226  -1.46795
   D23       -2.51140   0.00031   0.00000  -0.03412  -0.03400  -2.54541
   D24       -0.43699  -0.00012   0.00000  -0.04233  -0.04226  -0.47925
   D25        1.57019  -0.00142   0.00000  -0.04655  -0.04633   1.52385
   D26        1.59816   0.00141   0.00000  -0.04311  -0.04312   1.55505
   D27       -2.61061   0.00098   0.00000  -0.05131  -0.05137  -2.66198
   D28       -0.60343  -0.00032   0.00000  -0.05554  -0.05545  -0.65888
   D29       -0.49034   0.00145   0.00000  -0.01502  -0.01518  -0.50552
   D30        1.58407   0.00103   0.00000  -0.02323  -0.02344   1.56064
   D31       -2.69194  -0.00028   0.00000  -0.02745  -0.02751  -2.71945
   D32        3.13502   0.00029   0.00000   0.00826   0.00826  -3.13991
   D33       -0.05190   0.00030   0.00000   0.00494   0.00495  -0.04695
   D34        2.09233  -0.00130   0.00000  -0.10878  -0.10880   1.98352
   D35       -1.03161  -0.00166   0.00000  -0.11963  -0.11968  -1.15129
   D36        0.01140   0.00055   0.00000  -0.08280  -0.08274  -0.07134
   D37       -3.11253   0.00019   0.00000  -0.09365  -0.09361   3.07704
   D38       -2.00201  -0.00093   0.00000  -0.11108  -0.11109  -2.11309
   D39        1.15724  -0.00129   0.00000  -0.12193  -0.12196   1.03528
   D40       -3.13184  -0.00014   0.00000  -0.00596  -0.00591  -3.13775
   D41        0.01505  -0.00021   0.00000  -0.00514  -0.00511   0.00994
   D42       -0.00548   0.00022   0.00000   0.00351   0.00351  -0.00197
   D43        3.14141   0.00015   0.00000   0.00433   0.00431  -3.13746
   D44        3.13505  -0.00011   0.00000   0.00318   0.00322   3.13826
   D45       -0.01765  -0.00018   0.00000   0.01421   0.01421  -0.00344
   D46        0.00710  -0.00038   0.00000  -0.00523  -0.00520   0.00190
   D47        3.13759  -0.00045   0.00000   0.00579   0.00580  -3.13980
   D48        0.00167   0.00001   0.00000  -0.00042  -0.00042   0.00125
   D49        3.13839   0.00007   0.00000  -0.00123  -0.00122   3.13717
   D50        0.00300  -0.00024   0.00000  -0.00295  -0.00298   0.00002
   D51       -3.13459  -0.00008   0.00000  -0.00780  -0.00777   3.14082
   D52       -0.00655   0.00039   0.00000   0.00528   0.00529  -0.00125
   D53       -3.13641   0.00046   0.00000  -0.00633  -0.00633   3.14045
   D54        3.13127   0.00024   0.00000   0.00981   0.00983   3.14110
   D55        0.00141   0.00031   0.00000  -0.00181  -0.00179  -0.00038
   D56       -3.12714  -0.00022   0.00000  -0.05046  -0.05044   3.10560
   D57       -0.99761  -0.00006   0.00000  -0.05021  -0.05019  -1.04780
   D58        1.02334  -0.00035   0.00000  -0.05677  -0.05674   0.96660
   D59        1.04674  -0.00029   0.00000  -0.03220  -0.03221   1.01453
   D60       -3.10691  -0.00012   0.00000  -0.03195  -0.03195  -3.13887
   D61       -1.08596  -0.00041   0.00000  -0.03850  -0.03851  -1.12447
   D62       -1.00146   0.00021   0.00000  -0.02069  -0.02071  -1.02217
   D63        1.12807   0.00038   0.00000  -0.02044  -0.02045   1.10762
   D64       -3.13416   0.00009   0.00000  -0.02699  -0.02701   3.12201
   D65        1.03156  -0.00015   0.00000  -0.02602  -0.02602   1.00555
   D66       -1.02209   0.00021   0.00000  -0.01042  -0.01044  -1.03253
   D67       -1.10274  -0.00070   0.00000  -0.02987  -0.02986  -1.13260
   D68        3.12679  -0.00034   0.00000  -0.01427  -0.01428   3.11251
   D69       -3.11613   0.00021   0.00000  -0.02216  -0.02214  -3.13828
   D70        1.11340   0.00057   0.00000  -0.00656  -0.00657   1.10683
         Item               Value     Threshold  Converged?
 Maximum Force            0.013626     0.000450     NO 
 RMS     Force            0.002898     0.000300     NO 
 Maximum Displacement     0.990637     0.001800     NO 
 RMS     Displacement     0.208976     0.001200     NO 
 Predicted change in Energy=-2.418099D-03
 GradGradGradGradGradGradGradGradGradGradGradGradGradGradGradGradGradGrad

                          Input orientation:                          
 ---------------------------------------------------------------------
 Center     Atomic      Atomic             Coordinates (Angstroms)
 Number     Number       Type             X           Y           Z
 ---------------------------------------------------------------------
      1          8           0        1.424209    0.873354   -0.664813
      2          6           0        1.602539    0.037689    0.213603
      3          7           0        0.551197   -0.674313    0.740041
      4          6           0       -0.749769   -0.585336    0.091525
      5          6           0       -0.596578   -1.034596   -1.368573
      6          8           0       -1.513904   -0.480538   -2.207691
      7          8           0        0.214225   -1.840417   -1.753417
      8          6           0       -1.417132    0.801727    0.297623
      9          6           0       -2.905854    0.756608    0.413219
     10          6           0       -3.750865    1.036577    1.463273
     11          7           0       -5.069398    0.849063    1.106966
     12          6           0       -5.030812    0.456449   -0.149170
     13          7           0       -3.749701    0.382715   -0.617104
     14          6           0        2.965879   -0.239338    0.828553
     15          6           0        4.115010    0.075514   -0.144139
     16          7           0        5.460291   -0.121429    0.392715
     17          1           0        0.765357   -1.535134    1.223223
     18          1           0       -1.388318   -1.336041    0.571460
     19          1           0       -1.313480   -0.841674   -3.092025
     20          1           0       -1.026652    1.193543    1.240405
     21          1           0       -1.082454    1.484004   -0.487462
     22          1           0       -3.477718    1.368675    2.456417
     23          1           0       -5.886872    0.213448   -0.764031
     24          1           0       -3.430635    0.111045   -1.536528
     25          1           0        3.060904    0.382951    1.730603
     26          1           0        3.029968   -1.282619    1.166572
     27          1           0        4.008574   -0.547461   -1.039065
     28          1           0        4.018385    1.110625   -0.481236
     29          1           0        5.574353   -1.082779    0.710963
     30          1           0        5.599321    0.467695    1.212539
 ---------------------------------------------------------------------
                    Distance matrix (angstroms):
                    1          2          3          4          5
     1  O    0.000000
     2  C    1.225460   0.000000
     3  N    2.265179   1.374556   0.000000
     4  C    2.725070   2.436477   1.456367   0.000000
     5  C    2.866903   2.913622   2.427642   1.535313   0.000000
     6  O    3.584132   3.980382   3.604347   2.425134   1.361097
     7  O    3.164439   3.053501   2.773208   2.430704   1.206173
     8  C    3.000771   3.115963   2.499750   1.552995   2.611819
     9  C    4.463768   4.569716   3.755736   2.559883   3.422857
    10  C    5.597927   5.587342   4.685931   3.676802   4.717906
    11  N    6.731027   6.780205   5.834930   4.663455   5.448173
    12  C    6.488990   6.656449   5.764386   4.412548   4.834521
    13  N    5.197340   5.427300   4.632156   3.230923   3.537748
    14  C    2.417638   1.521053   2.455143   3.803810   4.260387
    15  C    2.854481   2.538094   3.747637   4.915113   4.993060
    16  N    4.289279   3.865184   4.952325   6.234643   6.373514
    17  H    3.130428   2.047921   1.010119   2.116238   2.970322
    18  H    3.784192   3.310653   2.056216   1.096194   2.116944
    19  H    4.040745   4.494844   4.264945   3.243218   1.876553
    20  H    3.120753   3.050077   2.495768   2.135650   3.457793
    21  H    2.586059   3.129298   2.972190   2.174413   2.712154
    22  H    5.832350   5.710582   4.832380   4.105189   5.357912
    23  H    7.341473   7.554995   6.670764   5.268762   5.469031
    24  H    4.991043   5.329276   4.653444   3.212871   3.061467
    25  H    2.942326   2.132445   2.897870   4.259740   4.999151
    26  H    3.252792   2.165391   2.587715   3.991033   4.431740
    27  H    2.972831   2.774992   3.890342   4.890961   4.642554
    28  H    2.611465   2.733186   4.086431   5.093097   5.165968
    29  H    4.789876   4.156696   5.039820   6.373828   6.512081
    30  H    4.595712   4.142106   5.197210   6.532725   6.878094
                    6          7          8          9         10
     6  O    0.000000
     7  O    2.245455   0.000000
     8  C    2.816055   3.721427   0.000000
     9  C    3.215155   4.601494   1.493885   0.000000
    10  C    4.558685   5.860557   2.619200   1.376604   0.000000
    11  N    5.039477   6.582687   3.741167   2.273930   1.378639
    12  C    4.181399   5.946396   3.657530   2.218518   2.138874
    13  N    2.876449   4.684681   2.540310   1.383270   2.180711
    14  C    5.417140   4.098978   4.536131   5.970064   6.866257
    15  C    6.020973   4.634295   5.597065   7.075809   8.085754
    16  N    7.451877   5.923007   6.939755   8.412120   9.345185
    17  H    4.251867   3.042586   3.328800   4.402951   5.202651
    18  H    2.910557   2.868378   2.155429   2.589814   3.465007
    19  H    0.976030   2.263458   3.768451   4.168560   5.497218
    20  H    3.863848   4.439331   1.093084   2.099178   2.737818
    21  H    2.646651   3.786263   1.092643   2.159889   3.335563
    22  H    5.387955   6.453791   3.037736   2.208238   1.082236
    23  H    4.657105   6.513113   4.631605   3.250755   3.193892
    24  H    2.115251   4.140078   2.809866   2.119825   3.155623
    25  H    6.097921   5.018500   4.720340   6.121872   6.848276
    26  H    5.716271   4.094616   4.987612   6.321391   7.172615
    27  H    5.645168   4.071746   5.748507   7.184639   8.305406
    28  H    6.009881   4.979832   5.499716   6.990741   8.009235
    29  H    7.689254   5.947954   7.252798   8.682507   9.592567
    30  H    7.949533   6.566850   7.083732   8.547537   9.370831
                   11         12         13         14         15
    11  N    0.000000
    12  C    1.316629   0.000000
    13  N    2.220698   1.365886   0.000000
    14  C    8.113434   8.086231   6.897527   0.000000
    15  C    9.301452   9.153754   7.884906   1.538105   0.000000
    16  N   10.598414  10.520971   9.278892   2.534946   1.461773
    17  H    6.304148   6.280561   5.239341   2.584018   3.960309
    18  H    4.314140   4.123117   3.153242   4.497542   5.726360
    19  H    5.881924   4.915697   3.682327   5.834951   6.244980
    20  H    4.059590   4.302037   3.394521   4.261816   5.440923
    21  H    4.340631   4.093879   2.888572   4.592472   5.395863
    22  H    2.150457   3.167546   3.239232   6.837805   8.129248
    23  H    2.138433   1.081638   2.148893   9.006250  10.022023
    24  H    3.196603   2.145841   1.010420   6.828745   7.673120
    25  H    8.167496   8.307516   7.203892   1.099985   2.172629
    26  H    8.375402   8.350552   7.205466   1.098544   2.177110
    27  H    9.432143   9.138395   7.825222   2.161053   1.095591
    28  H    9.229226   9.078887   7.803298   2.155393   1.092898
    29  H   10.824892  10.750749   9.531496   2.743968   2.050007
    30  H   10.676055  10.717001   9.526752   2.753608   2.048794
                   16         17         18         19         20
    16  N    0.000000
    17  H    4.972998   0.000000
    18  H    6.957778   2.258926   0.000000
    19  H    7.651545   4.839815   3.697448   0.000000
    20  H    6.672943   3.264547   2.641417   4.795240   0.000000
    21  H    6.794088   3.931417   3.027792   3.499414   1.752999
    22  H    9.293399   5.287395   3.903094   6.352541   2.741729
    23  H   11.410886   7.159530   4.941806   5.239156   5.347905
    24  H    9.100801   5.285118   3.272420   2.794564   3.829137
    25  H    2.793099   3.034142   4.908576   6.625155   4.195887
    26  H    2.802443   2.279351   4.458505   6.098821   4.753210
    27  H    2.083022   4.075770   5.687011   5.711871   5.794876
    28  H    2.088263   4.526303   6.027171   6.249518   5.331353
    29  H    1.019061   4.857313   6.968673   7.871665   7.002516
    30  H    1.019071   5.232461   7.245105   8.248062   6.665670
                   21         22         23         24         25
    21  H    0.000000
    22  H    3.796974   0.000000
    23  H    4.977273   4.184479   0.000000
    24  H    2.915392   4.186581   2.576886   0.000000
    25  H    4.826960   6.652219   9.290567   7.272424   0.000000
    26  H    5.225136   7.144441   9.245296   7.140619   1.758753
    27  H    5.509054   8.481423   9.928469   7.484847   3.071613
    28  H    5.114490   8.055306   9.949825   7.589512   2.517640
    29  H    7.234478   9.539194  11.628221   9.357684   3.083093
    30  H    6.969146   9.206064  11.657791   9.445881   2.592129
                   26         27         28         29         30
    26  H    0.000000
    27  H    2.522491   0.000000
    28  H    3.069179   1.749435   0.000000
    29  H    2.592568   2.408491   2.941666   0.000000
    30  H    3.109226   2.937811   2.404493   1.629776   0.000000
 Symmetry turned off by external request.
 Stoichiometry    C9H14N4O3
 Framework group  C1[X(C9H14N4O3)]
 Deg. of freedom    84
 Full point group                 C1      NOp   1
 Rotational constants (GHZ):      1.3041751      0.2267415      0.2052529
 Standard basis: 6-31G(d) (6D, 7F)
   268 basis functions,   504 primitive gaussians,   268 cartesian basis functions
    60 alpha electrons       60 beta electrons
       nuclear repulsion energy      1109.5981680711 Hartrees.
 NAtoms=   30 NActive=   30 NUniq=   30 SFac= 1.00D+00 NAtFMM=   60 NAOKFM=F Big=F
 Integral buffers will be    131072 words long.
 Raffenetti 2 integral format.
 Two-electron integral symmetry is turned off.
 Nuclear repulsion after empirical dispersion term =     1109.5444253579 Hartrees.
 One-electron integrals computed using PRISM.
 NBasis=   268 RedAO= T EigKep=  1.22D-03  NBF=   268
 NBsUse=   268 1.00D-06 EigRej= -1.00D+00 NBFU=   268
 Initial guess from the checkpoint file:  "conf-609.chk"
 B after Tr=    -0.000298   -0.009412    0.000834
         Rot=    0.999904   -0.013734    0.001195   -0.001286 Ang=  -1.59 deg.
 ExpMin= 1.61D-01 ExpMax= 5.48D+03 ExpMxC= 8.25D+02 IAcc=2 IRadAn=         4 AccDes= 0.00D+00
 Harris functional with IExCor=  402 and IRadAn=       4 diagonalized for initial guess.
 HarFok:  IExCor=  402 AccDes= 0.00D+00 IRadAn=         4 IDoV= 1 UseB2=F ITyADJ=14
 ICtDFT=  3500011 ScaDFX=  1.000000  1.000000  1.000000  1.000000
 FoFCou: FMM=F IPFlag=           0 FMFlag=      100000 FMFlg1=           0
         NFxFlg=           0 DoJE=T BraDBF=F KetDBF=T FulRan=T
[...]
 ,-0.03886342,-0.00001863,0.00000225,0.00005395,0.00003329,0.00003368,-
 0.00000026,-0.00004360,-0.00000856,0.00000435,0.00003659,-0.00000652,0
 .00002020,0.00008159,-0.00016057,0.00022282,0.00018258,0.00034081,-0.0
 0043133,0.00007160,-0.00030926,0.00013632,-0.00073257,-0.00029570,-0.0
 0003360,-0.00010262,0.00206422,-0.00031088,0.00010703,-0.00113406,-0.0
 0001252,-0.00568987,0.01897248,0.00012592,0.00002512,-0.00021293,-0.00
 020022,-0.00016176,0.00023709,0.00035446,-0.00006880,-0.00029468,-0.00
 055182,0.00040379,0.00000262,0.00078337,-0.00096402,0.00340627,0.00099
 409,0.00019678,-0.00600953,-0.00081701,0.00057615,-0.00070467,-0.00031
 268,0.00030437,0.00080693,0.01360250,0.00088871,-0.01398617,-0.0028211
 0,-0.00130201,-0.00363030,-0.00096145,-0.00093765,0.00339993,0.0012157
 8,0.00200787,0.00181106,0.13305921,-0.03726342,-0.39438713,0.00004171,
 0.00001187,-0.00001434,-0.00002886,0.00004556,0.00006798,0.00003971,-0
 .00002636,-0.00003972,0.00003904,0.00001278,0.00004016,-0.00009717,0.0
 0005481,-0.00018454,0.00140623,-0.00030109,-0.00012184,0.00036764,-0.0
 0001807,0.00009463,-0.00026504,-0.00009214,0.00003476,0.00075523,-0.00
 014694,-0.00011581,0.00001295,0.00020445,-0.00013484,-0.14674389,0.036
 54672,0.40992561,0.00272734,0.00242701,0.00302844,-0.01517147,-0.03211
 195,-0.00909697,-0.00495494,0.00236580,-0.00206480,-0.00073245,-0.0000
 9593,0.00125667,0.00002872,-0.00000985,0.00062078,-0.00006403,0.000056
 66,-0.00024008,0.00007478,-0.00003945,-0.00025754,-0.00021168,-0.00022
 322,-0.00014369,-0.00005576,0.00016478,0.00001637,0.00002896,0.0000236
 9,-0.00005638,-0.00007335,-0.00002574,-0.00001795,-0.00003744,-0.00001
 077,0.00002405,0.00002186,0.00003080,0.00005394,-0.08952129,-0.0930173
 5,-0.03528193,0.00677853,0.01801222,0.00697350,0.00281700,-0.00014058,
 -0.00053695,0.00041290,0.00038694,-0.00066248,-0.00032215,-0.00003103,
 -0.00018508,-0.00001237,-0.00001256,0.00000302,-0.00002306,-0.00002483
 ,0.00000230,-0.00002103,0.00003820,-0.00002050,0.00000134,-0.00000349,
 0.00000415,-0.00000355,-0.00000383,-0.00000078,0.00002771,-0.00001875,
 0.00001213,0.10020118,0.00046747,0.00075956,-0.00069006,0.00284430,0.0
 0533130,0.00419629,0.00065658,-0.00011125,-0.00061934,0.00032865,0.000
 15937,-0.00009682,0.00010979,-0.00015367,0.00000392,-0.00010054,0.0000
 7905,-0.00009555,-0.00014189,0.00008078,-0.00000805,-0.00004824,-0.000
 07023,-0.00003541,-0.00000728,0.00003219,-0.00000407,0.00000522,0.0000
 0573,-0.00001453,-0.00002071,-0.00000438,0.00000171,-0.00000062,-0.000
 00074,0.00000245,-0.00000404,0.00000924,0.00001682,-0.09525596,-0.2475
 4397,-0.06390057,-0.00524503,-0.01167804,-0.00539865,-0.00035092,0.001
 66663,0.00150345,0.00045391,0.00030569,0.00000879,0.00006014,0.0000142
 5,0.00001253,0.00000914,-0.00000802,0.00001169,0.00000170,-0.00001115,
 0.00000312,-0.00001659,0.00001329,-0.00000856,0.00000066,-0.00000223,0
 .00000131,-0.00000057,-0.00000165,-0.00000025,0.00001720,-0.00000992,-
 0.00000036,0.10091056,0.26617139,0.00027673,0.00152130,0.00045036,-0.0
 0179905,-0.00967891,-0.00250066,-0.00101761,0.00076217,-0.00006366,0.0
 0012449,-0.00035114,0.00019818,0.00013009,-0.00011013,0.00006741,-0.00
 008811,0.00006558,-0.00009460,-0.00014355,0.00004177,0.00000283,0.0000
 2974,0.00000838,0.00005483,0.00000687,0.00000316,-0.00001696,0.0000042
 1,0.00000072,-0.00000290,-0.00001716,-0.00000229,0.00000154,0.00000183
 ,-0.00000080,-0.00000343,-0.00001176,0.00000590,0.00001105,-0.03493669
 ,-0.06284825,-0.07009473,-0.00978572,-0.02513389,-0.01081836,-0.001716
 05,0.00220697,0.00131241,-0.00027205,-0.00033426,-0.00008271,-0.000086
 17,0.00001240,-0.00004197,0.00000752,-0.00000833,0.00001750,0.00000337
 ,-0.00000279,-0.00001581,0.00000534,-0.00000445,-0.00000187,0.00000196
 ,0.00000056,-0.00000095,-0.00000161,-0.00000095,-0.00000064,0.00001708
 ,-0.00000807,0.00000081,0.03391740,0.07312545,0.07495448,-0.00849585,0
 .00261514,-0.00368303,0.00755983,0.02145790,-0.02408441,-0.00037764,-0
 .00089426,0.00171339,0.00058284,0.00019546,0.00013689,0.00024613,0.000
 41117,-0.00006165,-0.00002093,-0.00009609,0.00003761,-0.00000534,-0.00
 015897,0.00000340,0.00001540,0.00011753,-0.00004241,0.00002509,-0.0000
 7882,0.00002633,-0.00000456,-0.00001665,-0.00001679,-0.00002247,0.0000
 0580,0.00000336,-0.00000410,0.00000142,-0.00000172,-0.00000724,-0.0000
 0319,0.00001711,-0.05161179,-0.00658231,0.00010835,-0.00108901,-0.0121
 4239,0.01576572,0.00220074,-0.00112982,-0.00075578,-0.00158753,-0.0007
 2590,-0.00094445,0.00004823,-0.00001634,0.00006321,0.00000457,0.000008
 62,0.00002529,0.00000276,0.00000827,-0.00001540,0.00012985,-0.00009324
 ,0.00005736,-0.00000031,0.00000276,0.00000168,-0.00000168,0.00000011,0
 .00000011,0.00001177,0.00000756,-0.00000068,-0.00006255,-0.00788742,0.
 01137595,0.05456002,0.00326300,0.00206645,0.00134991,-0.00374682,-0.00
 761322,0.00342549,-0.00056595,0.00020019,-0.00146759,0.00031616,0.0002
 1404,-0.00016148,-0.00027199,-0.00017021,-0.00005461,0.00008359,0.0000
 1416,-0.00000831,0.00007520,0.00007199,0.00001047,0.00002370,-0.000003
 06,0.00005405,-0.00001373,0.00002426,-0.00002116,0.00000779,0.00001159
 ,0.00003301,0.00003303,0.00000278,-0.00001706,-0.00000700,-0.00000146,
 0.00000343,0.00001093,-0.00000350,-0.00003559,-0.00222377,-0.15359541,
 0.12477678,0.00118976,0.00870265,-0.01132647,-0.00189147,0.00091561,-0
 .00031447,-0.00018210,0.00104738,0.00023018,0.00005166,0.00001283,0.00
 001875,-0.00002367,-0.00001274,-0.00003026,0.00000486,-0.00001707,0.00
 001199,-0.00007892,0.00004848,-0.00001534,0.00000189,-0.00000441,-0.00
 000377,0.00000140,-0.00000020,-0.00000031,-0.00002468,-0.00000095,0.00
 000370,0.00083386,-0.01646751,0.02218538,0.00194014,0.16363290,-0.0032
 4545,0.00060167,0.00054715,0.00582380,0.00646734,-0.00855882,0.0002740
 4,-0.00036906,0.00123792,-0.00020472,-0.00031462,-0.00000141,0.0002128
 6,0.00015282,-0.00007726,-0.00003917,-0.00003487,0.00005834,-0.0000984
 9,-0.00014606,0.00012059,0.00003233,0.00006195,0.00001973,0.00001928,-
 0.00006568,0.00001406,-0.00000781,-0.00001305,-0.00001326,-0.00002098,
 0.00000090,0.00001528,0.00001107,0.00000291,-0.00000874,-0.00001423,-0
 .00000342,0.00002128,-0.00280972,0.12522913,-0.20020818,-0.00009027,0.
 01686545,-0.02147370,-0.00154266,-0.00057855,0.00257004,-0.00109928,-0
 .00092645,0.00005784,-0.00004930,0.00000955,0.00000298,0.00003764,0.00
 002927,0.00001963,0.00000551,0.00002114,-0.00001598,0.00008441,-0.0000
 6745,0.00003091,-0.00000038,0.00000444,0.00000198,-0.00000125,0.000001
 42,-0.00000029,0.00001988,0.00000631,-0.00000618,0.00055529,-0.0059299
 7,0.00844661,-0.00144989,-0.13767600,0.21881086,-0.00029635,-0.0001761
 6,-0.00039154,0.00190803,0.00099048,0.00067668,-0.00004349,-0.00034670
 ,-0.00019710,-0.00000642,-0.00002213,0.00005319,-0.00056740,0.00057260
 ,0.00026942,0.00037658,-0.00033390,0.00018036,0.00021226,-0.00033593,-
 0.00045234,-0.00000372,0.00002604,-0.00001643,-0.00000315,-0.00001919,
 0.00001972,-0.00000016,-0.00000181,0.00001011,0.00002435,0.00000554,-0
 .00001202,-0.00001464,-0.00000179,0.00000128,0.00001865,-0.00001006,-0
 .00002316,0.00708527,0.01651742,0.00637050,-0.09199750,-0.08864650,-0.
 03393438,-0.02402122,-0.02949626,-0.00929811,-0.00007166,0.00002734,0.
 00032782,-0.00001250,-0.00001261,-0.00002300,-0.00002760,0.00001931,-0
 .00007979,0.00001282,-0.00000507,-0.00001176,0.00001506,0.00000010,0.0
 0000829,-0.00000014,-0.00000027,-0.00000173,0.00000142,0.00000055,0.00
 000045,-0.00004379,0.00001363,0.00000608,-0.00200626,0.00176513,0.0035
 3261,0.00043120,-0.00064089,-0.00059808,0.11318746,0.00096662,0.000052
 98,0.00058065,-0.00217113,-0.00079937,-0.00123098,0.00088443,0.0006683
 8,0.00033315,-0.00005415,-0.00002173,-0.00012612,0.00107663,-0.0010154
 9,-0.00040383,-0.00050212,0.00050042,-0.00022454,-0.00127745,0.0002963
 9,0.00033121,0.00005948,-0.00001352,0.00005098,-0.00000353,0.00000622,
 -0.00004195,-0.00000460,0.00000239,-0.00000696,-0.00002178,0.00000070,
 0.00003072,0.00004119,0.00000601,-0.00000884,-0.00003041,0.00001953,0.
 00003497,-0.00275971,-0.01052447,-0.00363537,-0.09400447,-0.24247395,-
 0.06866407,0.00396152,0.00962760,0.00263655,0.00013420,-0.00007785,-0.
 00032225,0.00004301,0.00003002,0.00004787,0.00006490,-0.00004136,0.000
 09417,-0.00003043,0.00001899,0.00002963,-0.00002903,-0.00000089,-0.000
 01884,-0.00000058,-0.00000105,0.00000419,0.00000081,-0.00000184,-0.000
 00018,0.00007005,-0.00003059,-0.00001869,0.00159603,0.00071103,-0.0018
 5234,0.00030998,0.00101050,-0.00016165,0.09842439,0.25669358,0.0003011
 1,-0.00011122,0.00055517,-0.00232877,-0.00062858,-0.00071534,0.0003702
 1,0.00051070,0.00023743,0.00016800,0.00006779,-0.00001317,-0.00014628,
 0.00012473,0.00022952,0.00005462,-0.00003153,-0.00002993,0.00002860,-0
 .00005446,-0.00040606,-0.00003907,-0.00002649,-0.00004030,-0.00000628,
 0.00002324,0.00000426,0.00000157,0.00000309,-0.00000337,0.00000496,0.0
 0000111,-0.00000735,-0.00000962,-0.00000237,0.00000566,0.00000808,0.00
 000223,-0.00000527,-0.00623546,-0.02409982,-0.00950669,-0.03471726,-0.
 06737399,-0.07831948,-0.00657654,-0.00616954,-0.00095464,0.00028473,-0
 .00009101,-0.00037084,0.00003435,-0.00000824,-0.00000216,-0.00002190,0
 .00000611,-0.00001694,0.00000115,-0.00001837,0.00000258,-0.00001570,0.
 00001506,-0.00000813,-0.00000067,-0.00000214,0.00000023,0.00000034,-0.
 00000097,0.00000058,-0.00001228,0.00000039,0.00000482,0.00310563,-0.00
 199986,-0.00323565,-0.00096676,0.00066169,0.00093608,0.03693694,0.0787
 4325,0.08230995,0.00014264,0.00098041,-0.00181139,0.00090319,-0.002944
 30,0.00322155,-0.00021098,0.00054866,-0.00048960,0.00002787,-0.0000023
 9,0.00004912,-0.00027629,0.00003798,0.00008780,0.00008506,-0.00002323,
 0.00000659,0.00021530,0.00009692,-0.00014284,-0.00002554,-0.00002488,0
 .00001236,-0.00001002,0.00001851,-0.00000129,0.00000223,0.00000507,0.0
 0001169,0.00002053,0.00000069,-0.00000966,-0.00000896,-0.00000183,0.00
 000241,0.00001009,-0.00000246,-0.00001964,-0.00115390,-0.01065670,0.01
 401881,-0.04904581,-0.00674366,0.00240988,-0.00684168,0.02857831,-0.02
 718296,0.00027754,0.00017864,0.00007757,-0.00000165,-0.00000030,-0.000
 02462,-0.00003994,-0.00002079,-0.00002776,0.00000330,-0.00000920,-0.00
 000169,-0.00002521,0.00002929,-0.00001363,0.00000008,-0.00000134,-0.00
 000167,0.00000093,-0.00000004,0.00000030,-0.00002427,0.00000289,0.0000
 0457,0.00068485,0.00034478,-0.00077155,-0.00197552,0.00198379,0.002818
 50,0.00064418,-0.00881915,0.01118950,0.06184256,-0.00019130,-0.0003388
 7,-0.00046346,-0.00019223,0.00053732,-0.00000988,0.00009702,0.00005218
 ,0.00017430,0.00005116,0.00000820,0.00009123,-0.00020988,0.00020462,0.
 00020361,0.00007587,-0.00004739,-0.00000139,0.00028687,0.00004835,-0.0
 0023071,-0.00003292,-0.00000103,-0.00002596,0.00000125,-0.00000005,0.0
 0001748,0.00000164,0.,-0.00000218,0.00000438,0.00000080,-0.00001265,-0
 .00001635,-0.00000259,0.00000607,0.00001018,-0.00000226,-0.00001078,0.
 00142242,0.00798750,-0.01135076,-0.00274881,-0.16601284,0.13203646,0.0
 0280843,-0.00413437,0.00428744,-0.00003826,-0.00009046,-0.00017464,0.0
 0000182,-0.00001265,-0.00001662,-0.00004541,-0.00001023,-0.00000256,0.
 00000782,-0.00000589,-0.00001100,0.00001295,-0.00000063,0.00001092,-0.
 00000011,-0.00000054,-0.00000127,-0.00000066,-0.00000030,0.00000033,-0
 .00002119,0.00000599,0.00000911,-0.00067493,0.00113163,0.00027531,0.00
 218953,0.00013756,-0.00267729,0.00000941,-0.01719574,0.02090139,-0.004
 14716,0.17520328,-0.00088298,-0.00128506,0.00205160,-0.00171214,0.0025
 9111,-0.00286157,0.00028092,-0.00025615,0.00053571,-0.00005618,0.00007
 824,0.00005113,0.00017517,0.00001791,-0.00007903,-0.00002551,-0.000001
 15,0.00004608,-0.00006710,-0.00000405,0.00004348,0.00000534,0.00003750
 ,-0.00001695,0.00000553,-0.00002537,0.00000711,-0.00000472,-0.00000607
 ,-0.00000555,0.00000053,0.00000120,0.00000721,0.00000628,0.00000189,-0
 .00000133,-0.00000085,-0.00000191,0.00000686,0.00521470,0.01525671,-0.
 02204122,-0.00097612,0.13012653,-0.20162828,-0.00381651,0.00581028,-0.
 00391397,-0.00016184,-0.00024779,-0.00014702,0.00001666,-0.00000002,0.
 00002060,0.00000899,0.00000582,0.00001164,-0.00000648,0.00001211,0.000
 00014,0.00002117,-0.00002021,0.00001332,-0.00000166,0.00000257,0.00000
 158,0.00000058,0.00000085,0.00000042,0.00000364,0.00000417,-0.00000440
 ,-0.00091129,0.00018759,0.00104456,0.00286439,-0.00228368,-0.00292662,
 0.00067453,-0.00711544,0.00975457,0.00061702,-0.14231291,0.21992722,0.
 00026444,-0.00043859,0.00099368,-0.00095423,0.00007563,-0.00108776,0.0
 0041662,0.00004368,0.00009514,-0.00015985,0.00005126,-0.00004090,0.000
 01146,-0.00005278,-0.00022528,0.00005678,-0.00001610,0.00013172,-0.000
 02682,0.00001541,0.00013301,0.00001037,0.00002189,0.00002526,-0.000016
 10,-0.00002409,-0.00000094,-0.00000981,-0.00000463,0.00001458,0.000042
 93,0.00000762,0.00000573,0.00000928,0.00000308,-0.00000029,0.00000931,
 -0.00000576,-0.00002025,0.00240429,0.00044829,-0.00172171,-0.00536410,
 0.02973013,-0.03180439,-0.04984244,-0.01898679,-0.01217128,-0.00011628
 ,-0.00004225,0.00001904,0.00001746,0.00001376,0.00001932,-0.00000089,-
 0.00000247,-0.00001437,-0.00001310,0.00001198,0.00000987,-0.00000551,-
 0.00000199,-0.00000395,-0.00000467,0.00000202,0.00000269,0.00000336,0.
 00000132,0.00000193,-0.00001931,0.00000571,-0.00000850,-0.00011010,-0.
 00003027,0.00025645,-0.00043437,-0.00029898,0.00119307,0.00114930,-0.0
 0069608,0.00033567,-0.00663923,0.00097709,-0.00139055,0.05876317,-0.00
 055770,0.00031191,-0.00065126,0.00121782,0.00036414,0.00081249,-0.0006
 4188,-0.00025421,-0.00006818,0.00017494,-0.00007138,0.00002582,-0.0000
 6390,0.00015544,0.00024056,-0.00001803,-0.00002479,-0.00011886,0.00005
 114,-0.00014295,-0.00013831,-0.00001084,-0.00001052,-0.00002600,0.0000
 2439,0.00001681,0.00000629,0.00001027,0.00000150,-0.00001331,-0.000044
 35,-0.00001165,-0.00000891,-0.00001470,-0.00000316,0.00000080,-0.00000
 791,-0.00000039,0.00001809,-0.00255447,0.00012375,0.00023211,0.0030999
 5,-0.00497308,0.00638555,-0.00482719,-0.19112485,0.16661586,0.00001007
 ,0.00008785,0.00001430,-0.00003730,-0.00001406,-0.00001810,0.00000545,
 0.00002091,0.00001164,0.00001869,-0.00001142,-0.00001527,0.00001614,-0
 .00000694,0.00001000,0.00000461,0.00000050,-0.00000334,-0.00000452,0.0
 0000018,-0.00000223,0.00001621,0.00000201,0.00000992,0.00017631,-0.000
 30058,-0.00006163,0.00072610,-0.00009748,-0.00052457,-0.00009905,0.000
 58935,-0.00064755,0.00095454,0.00203378,-0.00052150,0.00039359,0.21622
 254,-0.00025697,-0.00000148,-0.00001783,0.00113397,0.00013065,-0.00002
 172,-0.00050069,-0.00022252,0.00005685,0.00017050,-0.00002839,0.000028
 63,0.00004026,0.00007501,0.00013766,-0.00005048,-0.00000664,-0.0001014
 3,-0.00005143,-0.00012833,-0.00006494,-0.00000420,-0.00000827,-0.00002
 053,0.00002121,0.00001426,-0.00000020,0.00000869,0.00000087,-0.0000131
 0,-0.00004418,-0.00001095,-0.00000288,-0.00000670,-0.00000188,-0.00000
 156,-0.00001155,-0.00000024,0.00002237,-0.00008660,-0.00115379,0.00257
 986,0.00733426,0.00284225,-0.01081256,-0.03200414,0.21481168,-0.253479
 38,0.00000179,0.00006735,0.00001030,-0.00002520,-0.00000956,-0.0000050
 6,0.00002122,0.00002663,0.00001361,0.00001388,-0.00000885,-0.00001120,
 0.00001343,-0.00000716,0.00000655,0.00000425,0.00000064,-0.00000258,-0
 .00000392,0.00000036,-0.00000222,0.00002318,0.00000141,0.00000554,0.00
 004294,-0.00009406,-0.00005836,-0.00034903,0.00055501,0.00046983,-0.00
 031095,-0.00009495,-0.00041250,-0.00373909,-0.00036566,0.00057634,0.02
 727475,-0.20152805,0.25452974,0.00047204,-0.00016567,0.00054795,-0.000
 70912,0.00028209,-0.00110913,0.00082629,0.00018498,0.00022699,-0.00012
 155,0.00007283,-0.00012684,0.00013123,-0.00021736,-0.00027468,-0.00002
 215,0.00007052,0.00009210,-0.00018449,0.00010366,0.00016385,0.00001761
 ,0.00001630,0.00003383,-0.00002060,-0.00002114,-0.00001000,-0.00001173
 ,-0.00000402,0.00001578,0.00004634,0.00000907,0.00001143,0.00001725,0.
 00000420,-0.00000206,0.00000561,-0.00000278,-0.00001803,0.00222300,-0.
 00192894,-0.00002502,-0.02296029,-0.03451481,-0.01325808,-0.10922143,-
 0.12015734,-0.05779507,-0.00000238,-0.00006578,-0.00004826,0.00005216,
 0.00001995,0.00003556,0.00000167,-0.00001296,-0.00000473,-0.00001981,0
 .00001139,0.00001816,-0.00001814,0.00000352,-0.00001134,-0.00000521,0.
 00000136,0.00000358,0.00000412,0.00000108,0.00000216,-0.00001186,0.000
 00053,-0.00001221,-0.00042168,0.00113486,0.00095546,-0.00011752,0.0001
 4918,0.00018401,-0.00595057,0.00277139,-0.00174886,0.00141863,0.000361
 36,0.00011847,0.00055805,0.00198160,0.00134081,0.13402451,-0.00007693,
 -0.00007479,0.00006355,0.00029590,0.00005018,-0.00018921,0.00000545,-0
 .00005074,0.00005533,0.00001669,0.00001702,0.00001399,0.00005376,-0.00
 002272,-0.00000990,-0.00002607,0.00000566,-0.00001040,-0.00003356,0.00
 002297,0.00001009,0.00000176,0.00000005,-0.00000424,0.00000234,0.00000
 062,-0.00000183,0.00000112,-0.00000005,-0.00000385,-0.00000985,-0.0000
 0109,0.00000245,0.00000249,0.00000014,-0.00000153,-0.00000397,0.000001
 28,0.00000757,0.00114832,0.00124269,0.00123077,0.00882868,0.00716294,0
 .00000542,-0.14960875,-0.31406032,-0.06961479,0.00000884,-0.00001386,-
 0.00000417,0.00000381,-0.00000285,0.00000166,0.00000683,0.00000046,0.0
 0000462,0.00000057,0.00000107,-0.00000103,0.00000273,-0.00000111,0.000
 00200,0.00000085,0.00000004,-0.00000018,-0.00000031,-0.00000025,-0.000
 00040,0.00000736,-0.00000146,-0.00000040,-0.00057858,-0.00010779,0.000
 18319,-0.00017209,-0.00012615,0.00003440,0.00177636,0.00196374,0.00020
 538,-0.00036303,0.00050462,-0.00005318,-0.01120166,-0.02288323,-0.0148
 5533,0.14991095,0.32637290,-0.00031572,0.00039063,-0.00044042,0.001013
 39,-0.00048971,0.00054464,-0.00042456,0.00001109,-0.00009466,0.0001428
 9,-0.00005278,0.00006424,0.00029101,-0.00016208,0.00016534,-0.00018689
 ,0.00011995,-0.00020543,-0.00027718,0.00006179,-0.00008885,0.00000003,
 -0.00002569,-0.00001358,0.00002196,0.00002595,-0.00000097,0.00001076,0
 .00000655,-0.00001704,-0.00005534,-0.00000820,-0.00000521,-0.00000701,
 -0.00000281,0.00000094,-0.00001656,0.00001210,0.00002580,0.00002890,0.
 00202422,0.00097931,0.00220391,-0.01168651,-0.00541143,-0.08723384,-0.
 10369257,-0.07174848,0.00006097,0.00004733,-0.00006406,-0.00002658,-0.
 00000872,-0.00001434,0.00001608,-0.00001440,0.00004723,0.00001087,-0.0
 0000674,-0.00000902,0.00000905,-0.00000508,0.00000524,0.00000555,-0.00
 000296,-0.00000286,-0.00000446,-0.00000252,-0.00000232,0.00003657,-0.0
 0001553,0.00000888,-0.00014021,-0.00017901,0.00047067,0.00017184,0.000
 09630,-0.00009068,-0.00371761,0.00100968,0.00000697,-0.00029029,-0.000
 34392,-0.00047361,0.01797829,0.02996361,0.00659078,0.07069418,0.082930
 01,0.06977289\\-0.00000297,0.00000333,-0.00000055,0.00000446,-0.000004
 74,-0.00000787,0.00000156,-0.00000143,0.00000161,0.00000227,0.00000270
 ,-0.00000192,0.00000099,-0.00000023,0.00000184,0.00000109,-0.00000049,
 -0.00000007,-0.00000170,-0.00000155,-0.00000129,-0.00000149,0.00000158
 ,-0.00000063,0.00000025,-0.00000252,0.00000135,-0.00000076,-0.00000005
 ,-0.00000084,0.00000072,0.00000022,0.00000037,0.00000094,0.00000077,0.
 00000028,-0.00000038,0.00000122,-0.00000117,-0.00000896,-0.00000458,0.
 00000732,0.00000092,0.00000511,-0.00000517,-0.00000178,-0.00000122,0.0
 0000172,-0.00000036,0.00000053,-0.00000033,-0.00000059,0.00000023,0.00
 000016,0.00000006,-0.00000061,0.00000004,-0.00000042,-0.00000003,-0.00
 000003,0.00000044,-0.00000041,-0.00000033,0.00000013,0.00000037,-0.000
 00019,0.00000002,-0.00000014,0.00000003,0.00000022,0.00000014,0.000000
 84,0.00000533,0.00000173,0.00000122,0.00000259,0.00000263,0.00000051,-
 0.00000034,-0.00000144,0.00000056,-0.00000302,-0.00000128,0.00000206,0
 .00000067,0.00000022,0.00000042,0.00000011,-0.00000005,0.00000005\\\@


 LEARN FROM YESTERDAY,
 LIVE FOR TODAY,
 LOOK TO TOMORROW,
 REST THIS AFTERNOON.

           -- SNOOPY
 Job cpu time:       0 days  1 hours  1 minutes 54.3 seconds.
 File lengths (MBytes):  RWF=    260 Int=      0 D2E=      0 Chk=      8 Scr=      1
 Normal termination of Gaussian 09 at Tue Jul 27 02:09:34 2021.
