 Entering Gaussian System, Link 0=g09
 Input=opt_freq-conf-801.com
 Output=opt_freq-conf-801.log
 Initial command:
 /aerosol/software/g09/l1.exe "/scratch/nicole/10551/Gau-118821.inp" -scrdir="/scratch/nicole/10551/"
 Entering Link 1 = /aerosol/software/g09/l1.exe PID=    118825.
  
 Copyright (c) 1988,1990,1992,1993,1995,1998,2003,2009,2013,
            Gaussian, Inc.  All Rights Reserved.
  
 This is part of the Gaussian(R) 09 program.  It is based on
 the Gaussian(R) 03 system (copyright 2003, Gaussian, Inc.),
 the Gaussian(R) 98 system (copyright 1998, Gaussian, Inc.),
 the Gaussian(R) 94 system (copyright 1995, Gaussian, Inc.),
 the Gaussian 92(TM) system (copyright 1992, Gaussian, Inc.),
 the Gaussian 90(TM) system (copyright 1990, Gaussian, Inc.),
 the Gaussian 88(TM) system (copyright 1988, Gaussian, Inc.),
 the Gaussian 86(TM) system (copyright 1986, Carnegie Mellon
 University), and the Gaussian 82(TM) system (copyright 1983,
 Carnegie Mellon University). Gaussian is a federally registered
 trademark of Gaussian, Inc.
  
 This software contains proprietary and confidential information,
 including trade secrets, belonging to Gaussian, Inc.
  
 This software is provided under written license and may be
 used, copied, transmitted, or stored only in accord with that
 written license.
  
 The following legend is applicable only to US Government
 contracts under FAR:
  
                    RESTRICTED RIGHTS LEGEND
  
 Use, reproduction and disclosure by the US Government is
 subject to restrictions as set forth in subparagraphs (a)
 and (c) of the Commercial Computer Software - Restricted
 Rights clause in FAR 52.227-19.
  
 Gaussian, Inc.
 340 Quinnipiac St., Bldg. 40, Wallingford CT 06492
  
  
 ---------------------------------------------------------------
 Warning -- This program may not be used in any manner that
 competes with the business of Gaussian, Inc. or will provide
 assistance to any competitor of Gaussian, Inc.  The licensee
 of this program is prohibited from giving any competitor of
 Gaussian, Inc. access to this program.  By using this program,
 the user acknowledges that Gaussian, Inc. is engaged in the
 business of creating and licensing software in the field of
 computational chemistry and represents and warrants to the
 licensee that it is not a competitor of Gaussian, Inc. and that
 it will not use this program in any manner prohibited above.
 ---------------------------------------------------------------
  

 Cite this work as:
 Gaussian 09, Revision D.01,
 M. J. Frisch, G. W. Trucks, H. B. Schlegel, G. E. Scuseria, 
 M. A. Robb, J. R. Cheeseman, G. Scalmani, V. Barone, B. Mennucci, 
 G. A. Petersson, H. Nakatsuji, M. Caricato, X. Li, H. P. Hratchian, 
 A. F. Izmaylov, J. Bloino, G. Zheng, J. L. Sonnenberg, M. Hada, 
 M. Ehara, K. Toyota, R. Fukuda, J. Hasegawa, M. Ishida, T. Nakajima, 
 Y. Honda, O. Kitao, H. Nakai, T. Vreven, J. A. Montgomery, Jr., 
 J. E. Peralta, F. Ogliaro, M. Bearpark, J. J. Heyd, E. Brothers, 
 K. N. Kudin, V. N. Staroverov, T. Keith, R. Kobayashi, J. Normand, 
 K. Raghavachari, A. Rendell, J. C. Burant, S. S. Iyengar, J. Tomasi, 
 M. Cossi, N. Rega, J. M. Millam, M. Klene, J. E. Knox, J. B. Cross, 
 V. Bakken, C. Adamo, J. Jaramillo, R. Gomperts, R. E. Stratmann, 
 O. Yazyev, A. J. Austin, R. Cammi, C. Pomelli, J. W. Ochterski, 
 R. L. Martin, K. Morokuma, V. G. Zakrzewski, G. A. Voth, 
 P. Salvador, J. J. Dannenberg, S. Dapprich, A. D. Daniels, 
 O. Farkas, J. B. Foresman, J. V. Ortiz, J. Cioslowski, 
 and D. J. Fox, Gaussian, Inc., Wallingford CT, 2013.
 
 ******************************************
 Gaussian 09:  ES64L-G09RevD.01 24-Apr-2013
                27-Jul-2021 
 ******************************************
 %mem=2gb
 %nproc=4
 Will use up to    4 processors via shared memory.
 %chk=conf-801.chk
 ----------------------------------------------------------------------
 # B3LYP/6-31G(d) EmpiricalDispersion=GD3BJ opt=calcfc freq=noraman nos
 ymm integral(ultrafinegrid)
 ----------------------------------------------------------------------
 1/10=4,14=-1,18=20,19=15,26=4,38=1/1,3;
 2/9=110,12=2,15=1,17=6,18=5,40=1/2;
 3/5=1,6=6,7=1,11=2,16=1,25=1,30=1,71=2,74=-5,75=-5,124=41,140=1/1,2,3;
 4//1;
 5/5=2,38=5/2;
 8/6=4,10=90,11=11/1;
 11/6=1,8=1,9=11,15=111,16=1,31=1/1,2,10;
 10/6=1,13=1,31=1/2;
 6/7=2,8=2,9=2,10=2,28=1/1;
 7/10=1,18=20,25=1,30=1/1,2,3,16;
 1/10=4,14=-1,18=20,19=15,26=4/3(2);
 2/9=110,15=1/2;
 99//99;
 2/9=110,15=1/2;
 3/5=1,6=6,7=1,11=2,16=1,25=1,30=1,71=1,74=-5,75=-5,124=41/1,2,3;
 4/5=5,16=3,69=1/1;
 5/5=2,38=5/2;
 7/30=1/1,2,3,16;
 1/14=-1,18=20,19=15,26=4/3(-5);
 2/9=110,15=1/2;
 6/7=2,8=2,9=2,10=2,19=2,28=1/1;
 99/9=1/99;
 ------------------------------------------------------------
 Candidate Structure: Conf:801 OPT and FREQ calc in gas phase
 ------------------------------------------------------------
 Symbolic Z-matrix:
 Charge =  0 Multiplicity = 1
 O                     1.45238   0.72653  -1.1041 
 C                     1.69694   0.02758  -0.12947 
 N                     0.73044  -0.2788    0.77507 
 C                    -0.61161   0.25591   0.65774 
 C                    -1.22657   0.19322   2.04948 
 O                    -2.2089    1.07001   2.31815 
 O                    -0.86618  -0.60134   2.87563 
 C                    -1.43329  -0.55971  -0.37094 
 C                    -2.78158   0.01959  -0.64015 
 C                    -3.23941   0.85888  -1.61989 
 N                    -4.56772   1.18088  -1.41296 
 C                    -4.90354   0.54226  -0.31618 
 N                    -3.86834  -0.18116   0.18419 
 C                     3.06094  -0.5785    0.15252 
 C                     4.15686  -0.01984  -0.74222 
 N                     5.42262  -0.68134  -0.41472 
 H                     0.92504  -0.80626   1.61402 
 H                    -0.55424   1.28912   0.30078 
 H                    -2.408     1.63003   1.55666 
 H                    -1.51389  -1.59175  -0.02627 
 H                    -0.85985  -0.56242  -1.29566 
 H                    -2.6889    1.25435  -2.46035 
 H                    -5.86438   0.56402   0.16666 
 H                    -3.86647  -0.69349   1.05495 
 H                     3.00019  -1.66478   0.01086 
 H                     3.32333  -0.41997   1.20247 
 H                     4.26651   1.05048  -0.55305 
 H                     3.8512   -0.13073  -1.7896 
 H                     5.39439  -1.64588  -0.72628 
 H                     6.18179  -0.24698  -0.92563 
 

 GradGradGradGradGradGradGradGradGradGradGradGradGradGradGradGradGradGrad
 Berny optimization.
 Initialization pass.
                           ----------------------------
                           !    Initial Parameters    !
                           ! (Angstroms and Degrees)  !
 --------------------------                            --------------------------
 ! Name  Definition              Value          Derivative Info.                !
 --------------------------------------------------------------------------------
 ! R1    R(1,2)                  1.224          calculate D2E/DX2 analytically  !
 ! R2    R(2,3)                  1.3587         calculate D2E/DX2 analytically  !
 ! R3    R(2,14)                 1.519          calculate D2E/DX2 analytically  !
 ! R4    R(3,4)                  1.4494         calculate D2E/DX2 analytically  !
 ! R5    R(3,17)                 1.0099         calculate D2E/DX2 analytically  !
 ! R6    R(4,5)                  1.5228         calculate D2E/DX2 analytically  !
 ! R7    R(4,8)                  1.5487         calculate D2E/DX2 analytically  !
 ! R8    R(4,18)                 1.0946         calculate D2E/DX2 analytically  !
 ! R9    R(5,6)                  1.3438         calculate D2E/DX2 analytically  !
 ! R10   R(5,7)                  1.2016         calculate D2E/DX2 analytically  !
 ! R11   R(6,19)                 0.966          calculate D2E/DX2 analytically  !
 ! R12   R(8,9)                  1.492          calculate D2E/DX2 analytically  !
 ! R13   R(8,20)                 1.0911         calculate D2E/DX2 analytically  !
 ! R14   R(8,21)                 1.0881         calculate D2E/DX2 analytically  !
 ! R15   R(9,10)                 1.3689         calculate D2E/DX2 analytically  !
 ! R16   R(9,13)                 1.3787         calculate D2E/DX2 analytically  !
 ! R17   R(10,11)                1.3824         calculate D2E/DX2 analytically  !
 ! R18   R(10,22)                1.0797         calculate D2E/DX2 analytically  !
 ! R19   R(11,12)                1.3128         calculate D2E/DX2 analytically  !
 ! R20   R(12,13)                1.3584         calculate D2E/DX2 analytically  !
 ! R21   R(12,23)                1.0756         calculate D2E/DX2 analytically  !
 ! R22   R(13,24)                1.0103         calculate D2E/DX2 analytically  !
 ! R23   R(14,15)                1.5211         calculate D2E/DX2 analytically  !
 ! R24   R(14,25)                1.0972         calculate D2E/DX2 analytically  !
 ! R25   R(14,26)                1.0938         calculate D2E/DX2 analytically  !
 ! R26   R(15,16)                1.4653         calculate D2E/DX2 analytically  !
 ! R27   R(15,27)                1.0924         calculate D2E/DX2 analytically  !
 ! R28   R(15,28)                1.0967         calculate D2E/DX2 analytically  !
 ! R29   R(16,29)                1.014          calculate D2E/DX2 analytically  !
 ! R30   R(16,30)                1.0129         calculate D2E/DX2 analytically  !
 ! A1    A(1,2,3)              121.1123         calculate D2E/DX2 analytically  !
 ! A2    A(1,2,14)             123.7151         calculate D2E/DX2 analytically  !
 ! A3    A(3,2,14)             115.1624         calculate D2E/DX2 analytically  !
 ! A4    A(2,3,4)              121.4368         calculate D2E/DX2 analytically  !
 ! A5    A(2,3,17)             122.2572         calculate D2E/DX2 analytically  !
 ! A6    A(4,3,17)             115.9985         calculate D2E/DX2 analytically  !
 ! A7    A(3,4,5)              106.5436         calculate D2E/DX2 analytically  !
 ! A8    A(3,4,8)              110.5325         calculate D2E/DX2 analytically  !
 ! A9    A(3,4,18)             109.0312         calculate D2E/DX2 analytically  !
 ! A10   A(5,4,8)              111.7829         calculate D2E/DX2 analytically  !
 ! A11   A(5,4,18)             110.9798         calculate D2E/DX2 analytically  !
 ! A12   A(8,4,18)             107.9569         calculate D2E/DX2 analytically  !
 ! A13   A(4,5,6)              116.8108         calculate D2E/DX2 analytically  !
 ! A14   A(4,5,7)              122.3082         calculate D2E/DX2 analytically  !
 ! A15   A(6,5,7)              120.8798         calculate D2E/DX2 analytically  !
 ! A16   A(5,6,19)             111.7964         calculate D2E/DX2 analytically  !
 ! A17   A(4,8,9)              113.2552         calculate D2E/DX2 analytically  !
 ! A18   A(4,8,20)             109.1183         calculate D2E/DX2 analytically  !
 ! A19   A(4,8,21)             106.6295         calculate D2E/DX2 analytically  !
 ! A20   A(9,8,20)             110.9481         calculate D2E/DX2 analytically  !
 ! A21   A(9,8,21)             108.8976         calculate D2E/DX2 analytically  !
 ! A22   A(20,8,21)            107.7613         calculate D2E/DX2 analytically  !
 ! A23   A(8,9,10)             132.0246         calculate D2E/DX2 analytically  !
 ! A24   A(8,9,13)             123.2236         calculate D2E/DX2 analytically  !
 ! A25   A(10,9,13)            104.6885         calculate D2E/DX2 analytically  !
 ! A26   A(9,10,11)            110.9196         calculate D2E/DX2 analytically  !
 ! A27   A(9,10,22)            127.6719         calculate D2E/DX2 analytically  !
 ! A28   A(11,10,22)           121.4077         calculate D2E/DX2 analytically  !
 ! A29   A(10,11,12)           104.9241         calculate D2E/DX2 analytically  !
 ! A30   A(11,12,13)           111.8297         calculate D2E/DX2 analytically  !
 ! A31   A(11,12,23)           126.4208         calculate D2E/DX2 analytically  !
 ! A32   A(13,12,23)           121.7484         calculate D2E/DX2 analytically  !
 ! A33   A(9,13,12)            107.632          calculate D2E/DX2 analytically  !
 ! A34   A(9,13,24)            125.9936         calculate D2E/DX2 analytically  !
 ! A35   A(12,13,24)           126.0816         calculate D2E/DX2 analytically  !
 ! A36   A(2,14,15)            113.0307         calculate D2E/DX2 analytically  !
 ! A37   A(2,14,25)            108.745          calculate D2E/DX2 analytically  !
 ! A38   A(2,14,26)            109.6202         calculate D2E/DX2 analytically  !
 ! A39   A(15,14,25)           109.1217         calculate D2E/DX2 analytically  !
 ! A40   A(15,14,26)           109.7901         calculate D2E/DX2 analytically  !
 ! A41   A(25,14,26)           106.3037         calculate D2E/DX2 analytically  !
 ! A42   A(14,15,16)           108.9717         calculate D2E/DX2 analytically  !
 ! A43   A(14,15,27)           109.2867         calculate D2E/DX2 analytically  !
 ! A44   A(14,15,28)           108.8947         calculate D2E/DX2 analytically  !
 ! A45   A(16,15,27)           108.4764         calculate D2E/DX2 analytically  !
 ! A46   A(16,15,28)           114.1156         calculate D2E/DX2 analytically  !
 ! A47   A(27,15,28)           107.0034         calculate D2E/DX2 analytically  !
 ! A48   A(15,16,29)           109.6769         calculate D2E/DX2 analytically  !
 ! A49   A(15,16,30)           109.9444         calculate D2E/DX2 analytically  !
 ! A50   A(29,16,30)           105.889          calculate D2E/DX2 analytically  !
 ! D1    D(1,2,3,4)             -2.8051         calculate D2E/DX2 analytically  !
 ! D2    D(1,2,3,17)          -176.181          calculate D2E/DX2 analytically  !
 ! D3    D(14,2,3,4)           178.3159         calculate D2E/DX2 analytically  !
 ! D4    D(14,2,3,17)            4.94           calculate D2E/DX2 analytically  !
 ! D5    D(1,2,14,15)           11.0544         calculate D2E/DX2 analytically  !
 ! D6    D(1,2,14,25)         -110.2876         calculate D2E/DX2 analytically  !
 ! D7    D(1,2,14,26)          133.8825         calculate D2E/DX2 analytically  !
 ! D8    D(3,2,14,15)         -170.0994         calculate D2E/DX2 analytically  !
 ! D9    D(3,2,14,25)           68.5585         calculate D2E/DX2 analytically  !
 ! D10   D(3,2,14,26)          -47.2714         calculate D2E/DX2 analytically  !
 ! D11   D(2,3,4,5)           -157.6449         calculate D2E/DX2 analytically  !
 ! D12   D(2,3,4,8)             80.7119         calculate D2E/DX2 analytically  !
 ! D13   D(2,3,4,18)           -37.8064         calculate D2E/DX2 analytically  !
 ! D14   D(17,3,4,5)            16.1243         calculate D2E/DX2 analytically  !
 ! D15   D(17,3,4,8)          -105.5189         calculate D2E/DX2 analytically  !
 ! D16   D(17,3,4,18)          135.9628         calculate D2E/DX2 analytically  !
 ! D17   D(3,4,5,6)            154.6107         calculate D2E/DX2 analytically  !
 ! D18   D(3,4,5,7)            -25.785          calculate D2E/DX2 analytically  !
 ! D19   D(8,4,5,6)            -84.5438         calculate D2E/DX2 analytically  !
 ! D20   D(8,4,5,7)             95.0605         calculate D2E/DX2 analytically  !
 ! D21   D(18,4,5,6)            36.0416         calculate D2E/DX2 analytically  !
 ! D22   D(18,4,5,7)          -144.3541         calculate D2E/DX2 analytically  !
 ! D23   D(3,4,8,9)           -174.2995         calculate D2E/DX2 analytically  !
 ! D24   D(3,4,8,20)            61.5881         calculate D2E/DX2 analytically  !
 ! D25   D(3,4,8,21)           -54.5467         calculate D2E/DX2 analytically  !
 ! D26   D(5,4,8,9)             67.2034         calculate D2E/DX2 analytically  !
 ! D27   D(5,4,8,20)           -56.909          calculate D2E/DX2 analytically  !
 ! D28   D(5,4,8,21)          -173.0438         calculate D2E/DX2 analytically  !
 ! D29   D(18,4,8,9)           -55.1288         calculate D2E/DX2 analytically  !
 ! D30   D(18,4,8,20)         -179.2412         calculate D2E/DX2 analytically  !
 ! D31   D(18,4,8,21)           64.624          calculate D2E/DX2 analytically  !
 ! D32   D(4,5,6,19)             1.0735         calculate D2E/DX2 analytically  !
 ! D33   D(7,5,6,19)          -178.5368         calculate D2E/DX2 analytically  !
 ! D34   D(4,8,9,10)            95.5167         calculate D2E/DX2 analytically  !
 ! D35   D(4,8,9,13)           -81.125          calculate D2E/DX2 analytically  !
 ! D36   D(20,8,9,10)         -141.3747         calculate D2E/DX2 analytically  !
 ! D37   D(20,8,9,13)           41.9836         calculate D2E/DX2 analytically  !
 ! D38   D(21,8,9,10)          -22.9305         calculate D2E/DX2 analytically  !
 ! D39   D(21,8,9,13)          160.4278         calculate D2E/DX2 analytically  !
 ! D40   D(8,9,10,11)         -176.7469         calculate D2E/DX2 analytically  !
 ! D41   D(8,9,10,22)            2.9376         calculate D2E/DX2 analytically  !
 ! D42   D(13,9,10,11)           0.3493         calculate D2E/DX2 analytically  !
 ! D43   D(13,9,10,22)        -179.9662         calculate D2E/DX2 analytically  !
 ! D44   D(8,9,13,12)          176.736          calculate D2E/DX2 analytically  !
 ! D45   D(8,9,13,24)            2.6631         calculate D2E/DX2 analytically  !
 ! D46   D(10,9,13,12)          -0.6855         calculate D2E/DX2 analytically  !
 ! D47   D(10,9,13,24)        -174.7585         calculate D2E/DX2 analytically  !
 ! D48   D(9,10,11,12)           0.1325         calculate D2E/DX2 analytically  !
 ! D49   D(22,10,11,12)       -179.575          calculate D2E/DX2 analytically  !
 ! D50   D(10,11,12,13)         -0.588          calculate D2E/DX2 analytically  !
 ! D51   D(10,11,12,23)        179.0302         calculate D2E/DX2 analytically  !
 ! D52   D(11,12,13,9)           0.8276         calculate D2E/DX2 analytically  !
 ! D53   D(11,12,13,24)        174.8939         calculate D2E/DX2 analytically  !
 ! D54   D(23,12,13,9)        -178.8111         calculate D2E/DX2 analytically  !
 ! D55   D(23,12,13,24)         -4.7448         calculate D2E/DX2 analytically  !
 ! D56   D(2,14,15,16)        -178.8788         calculate D2E/DX2 analytically  !
 ! D57   D(2,14,15,27)          62.7396         calculate D2E/DX2 analytically  !
 ! D58   D(2,14,15,28)         -53.8268         calculate D2E/DX2 analytically  !
 ! D59   D(25,14,15,16)        -57.7498         calculate D2E/DX2 analytically  !
 ! D60   D(25,14,15,27)       -176.1314         calculate D2E/DX2 analytically  !
 ! D61   D(25,14,15,28)         67.3022         calculate D2E/DX2 analytically  !
 ! D62   D(26,14,15,16)         58.3877         calculate D2E/DX2 analytically  !
 ! D63   D(26,14,15,27)        -59.9939         calculate D2E/DX2 analytically  !
 ! D64   D(26,14,15,28)       -176.5603         calculate D2E/DX2 analytically  !
 ! D65   D(14,15,16,29)         70.4382         calculate D2E/DX2 analytically  !
 ! D66   D(14,15,16,30)       -173.5175         calculate D2E/DX2 analytically  !
 ! D67   D(27,15,16,29)       -170.6726         calculate D2E/DX2 analytically  !
 ! D68   D(27,15,16,30)        -54.6283         calculate D2E/DX2 analytically  !
 ! D69   D(28,15,16,29)        -51.5041         calculate D2E/DX2 analytically  !
 ! D70   D(28,15,16,30)         64.5402         calculate D2E/DX2 analytically  !
 --------------------------------------------------------------------------------
 Trust Radius=3.00D-01 FncErr=1.00D-07 GrdErr=1.00D-06
 Number of steps in this run=    160 maximum allowed number of steps=    180.
 GradGradGradGradGradGradGradGradGradGradGradGradGradGradGradGradGradGrad

                          Input orientation:                          
 ---------------------------------------------------------------------
 Center     Atomic      Atomic             Coordinates (Angstroms)
 Number     Number       Type             X           Y           Z
 ---------------------------------------------------------------------
      1          8           0        1.452382    0.726529   -1.104099
      2          6           0        1.696936    0.027577   -0.129466
      3          7           0        0.730439   -0.278799    0.775067
      4          6           0       -0.611610    0.255908    0.657735
      5          6           0       -1.226575    0.193217    2.049478
      6          8           0       -2.208901    1.070011    2.318149
      7          8           0       -0.866180   -0.601341    2.875628
      8          6           0       -1.433292   -0.559713   -0.370938
      9          6           0       -2.781575    0.019587   -0.640150
     10          6           0       -3.239411    0.858884   -1.619887
     11          7           0       -4.567718    1.180882   -1.412963
     12          6           0       -4.903535    0.542259   -0.316184
     13          7           0       -3.868338   -0.181161    0.184191
     14          6           0        3.060940   -0.578503    0.152524
     15          6           0        4.156864   -0.019838   -0.742224
     16          7           0        5.422616   -0.681338   -0.414722
     17          1           0        0.925044   -0.806256    1.614021
     18          1           0       -0.554239    1.289122    0.300784
     19          1           0       -2.407996    1.630028    1.556665
     20          1           0       -1.513893   -1.591752   -0.026266
     21          1           0       -0.859855   -0.562423   -1.295661
     22          1           0       -2.688899    1.254352   -2.460354
     23          1           0       -5.864385    0.564021    0.166660
     24          1           0       -3.866466   -0.693494    1.054952
     25          1           0        3.000194   -1.664783    0.010861
     26          1           0        3.323332   -0.419967    1.202473
     27          1           0        4.266509    1.050482   -0.553047
     28          1           0        3.851201   -0.130731   -1.789602
     29          1           0        5.394392   -1.645877   -0.726281
     30          1           0        6.181787   -0.246984   -0.925632
 ---------------------------------------------------------------------
                    Distance matrix (angstroms):
                    1          2          3          4          5
     1  O    0.000000
     2  C    1.224030   0.000000
     3  N    2.250145   1.358736   0.000000
     4  C    2.754198   2.449735   1.449404   0.000000
     5  C    4.172084   3.649952   2.382609   1.522846   0.000000
     6  O    5.023421   4.725786   3.583310   2.443579   1.343844
     7  O    4.793453   3.999461   2.658116   2.391386   1.201553
     8  C    3.243310   3.193986   2.464543   1.548732   2.543236
     9  C    4.317570   4.507541   3.798173   2.539509   3.111635
    10  C    4.721915   5.223021   4.773870   3.529374   4.237790
    11  N    6.045117   6.497951   5.915117   4.560062   4.911947
    12  C    6.407219   6.623140   5.797122   4.410345   4.386140
    13  N    5.549203   5.578013   4.637609   3.319873   3.255513
    14  C    2.422740   1.518999   2.430765   3.799881   4.751501
    15  C    2.828823   2.535541   3.756278   4.977375   6.067982
    16  N    4.268499   3.803238   4.857382   6.200038   7.144849
    17  H    3.164758   2.081068   1.009914   2.098566   2.412060
    18  H    2.513312   2.616180   2.081758   1.094640   2.170478
    19  H    4.774777   4.718194   3.755568   2.433780   1.924331
    20  H    3.915985   3.597540   2.720846   2.166984   2.752704
    21  H    2.654154   2.871461   2.626288   2.132381   3.448975
    22  H    4.389560   5.116010   4.950795   3.877435   4.858290
    23  H    7.428077   7.586108   6.676242   5.284670   5.019141
    24  H    5.913385   5.733606   4.624051   3.413684   2.957087
    25  H    3.058959   2.140621   2.767084   4.141573   5.047147
    26  H    3.183579   2.149307   2.631672   4.029554   4.668518
    27  H    2.885812   2.797938   4.004331   5.088554   6.138567
    28  H    2.638018   2.724329   4.042104   5.104471   6.373953
    29  H    4.616329   4.102172   5.086788   6.450143   7.411094
    30  H    4.831858   4.563240   5.710569   6.993583   7.995554
                    6          7          8          9         10
     6  O    0.000000
     7  O    2.215198   0.000000
     8  C    3.238635   3.295988   0.000000
     9  C    3.191062   4.051541   1.491956   0.000000
    10  C    4.076107   5.289058   2.614260   1.368911   0.000000
    11  N    4.415598   5.938831   3.733646   2.266308   1.382354
    12  C    3.805166   5.272165   3.641419   2.209266   2.137570
    13  N    2.978748   4.053805   2.526048   1.378728   2.175302
    14  C    5.931168   4.778920   4.524653   5.926299   6.700891
    15  C    7.146791   6.217553   5.628425   6.939302   7.499822
    16  N    8.293121   7.098010   6.857126   8.237164   8.880057
    17  H    3.719918   2.200482   3.092345   4.416145   5.529334
    18  H    2.618335   3.209514   2.154562   2.730953   3.329299
    19  H    0.965979   3.015936   3.075820   2.749378   3.372891
    20  H    3.614457   3.133917   1.091054   2.140160   3.394504
    21  H    4.188602   4.171475   1.088094   2.112212   2.790613
    22  H    4.806087   5.936211   3.038591   2.201448   1.079742
    23  H    4.271708   5.803329   4.602866   3.232811   3.188916
    24  H    2.730044   3.510709   2.823366   2.135145   3.155604
    25  H    6.319601   4.928148   4.585057   6.057208   6.925381
    26  H    5.836983   4.514903   5.012047   6.392054   7.257462
    27  H    7.083437   6.389743   5.925674   7.123610   7.583777
    28  H    7.418911   6.651279   5.488396   6.733317   7.161349
    29  H    8.628712   7.297915   6.922665   8.344317   9.034097
    30  H    9.091768   8.015546   7.641657   8.971869   9.511252
                   11         12         13         14         15
    11  N    0.000000
    12  C    1.312836   0.000000
    13  N    2.212509   1.358435   0.000000
    14  C    7.983897   8.056591   6.940733   0.000000
    15  C    8.832325   9.087811   8.080108   1.521095   0.000000
    16  N   10.211323  10.398860   9.323663   2.431020   1.465253
    17  H    6.578890   6.286217   5.040999   2.598056   4.076151
    18  H    4.365394   4.455877   3.627476   4.071796   4.999574
    19  H    3.699300   3.304319   2.701239   6.062877   7.148730
    20  H    4.351583   4.015934   2.752720   4.689108   5.927984
    21  H    4.098917   4.304770   3.374358   4.179728   5.076235
    22  H    2.152299   3.163726   3.231933   6.576255   7.172169
    23  H    2.134730   1.075567   2.130682   8.998165  10.079305
    24  H    3.177364   2.117217   1.010303   6.986884   8.249696
    25  H    8.209652   8.212608   7.029076   1.097161   2.147293
    26  H    8.465925   8.421018   7.267327   1.093790   2.153305
    27  H    8.876938   9.187171   8.260520   2.145885   1.092427
    28  H    8.528797   8.903330   7.968041   2.144030   1.096690
    29  H   10.378138  10.535816   9.421917   2.712303   2.043460
    30  H   10.854868  11.130082  10.111432   3.318436   2.045861
                   16         17         18         19         20
    16  N    0.000000
    17  H    4.935540   0.000000
    18  H    6.333834   2.881576   0.000000
    19  H    8.399242   4.128914   2.264922   0.000000
    20  H    7.006776   3.042361   3.054068   3.699319   0.000000
    21  H    6.345048   3.422217   2.463789   3.916547   1.760297
    22  H    8.586511   5.822991   3.490253   4.044315   3.925013
    23  H   11.370370   7.075935   5.361102   3.874933   4.859152
    24  H    9.404634   4.825334   3.933241   2.788836   2.740529
    25  H    2.648852   2.759246   4.630724   6.518728   4.514830
    26  H    2.662823   2.463813   4.332388   6.097217   5.126560
    27  H    2.086844   4.394206   4.901590   7.023943   6.377455
    28  H    2.159353   4.539094   5.078740   7.312682   5.833366
    29  H    1.014003   5.114396   6.712324   8.764740   6.943871
    30  H    1.012933   5.864808   7.016963   9.136157   7.863889
                   21         22         23         24         25
    21  H    0.000000
    22  H    2.828883   0.000000
    23  H    5.334096   4.178693   0.000000
    24  H    3.818674   4.187857   2.522317   0.000000
    25  H    4.221632   6.855219   9.141805   7.013170   0.000000
    26  H    4.874424   7.236474   9.298133   7.196511   1.753261
    27  H    5.425176   7.215059  10.168069   8.471859   3.048641
    28  H    4.756509   6.718725   9.934900   8.244427   2.513801
    29  H    6.372886   8.761160  11.508303   9.478572   2.505179
    30  H    7.058410   9.126798  12.122751  10.251317   3.606898
                   26         27         28         29         30
    26  H    0.000000
    27  H    2.476621   0.000000
    28  H    3.052018   1.759777   0.000000
    29  H    3.084192   2.927880   2.409928   0.000000
    30  H    3.567846   2.343188   2.488291   1.617601   0.000000
 Symmetry turned off by external request.
 Stoichiometry    C9H14N4O3
 Framework group  C1[X(C9H14N4O3)]
 Deg. of freedom    84
 Full point group                 C1      NOp   1
 Rotational constants (GHZ):      1.0925978      0.2321516      0.2014001
 Standard basis: 6-31G(d) (6D, 7F)
   268 basis functions,   504 primitive gaussians,   268 cartesian basis functions
    60 alpha electrons       60 beta electrons
       nuclear repulsion energy      1103.5276556170 Hartrees.
 NAtoms=   30 NActive=   30 NUniq=   30 SFac= 1.00D+00 NAtFMM=   60 NAOKFM=F Big=F
 Integral buffers will be    131072 words long.
 Raffenetti 2 integral format.
 Two-electron integral symmetry is turned off.
 Nuclear repulsion after empirical dispersion term =     1103.4737179365 Hartrees.
 One-electron integrals computed using PRISM.
 NBasis=   268 RedAO= T EigKep=  1.19D-03  NBF=   268
 NBsUse=   268 1.00D-06 EigRej= -1.00D+00 NBFU=   268
 ExpMin= 1.61D-01 ExpMax= 5.48D+03 ExpMxC= 8.25D+02 IAcc=3 IRadAn=         5 AccDes= 0.00D+00
 Harris functional with IExCor=  402 and IRadAn=       5 diagonalized for initial guess.
 HarFok:  IExCor=  402 AccDes= 0.00D+00 IRadAn=         5 IDoV= 1 UseB2=F ITyADJ=14
 ICtDFT=  3500011 ScaDFX=  1.000000  1.000000  1.000000  1.000000
 FoFCou: FMM=F IPFlag=           0 FMFlag=      100000 FMFlg1=           0
         NFxFlg=           0 DoJE=T BraDBF=F KetDBF=T FulRan=T
         wScrn=  0.000000 ICntrl=     500 IOpCl=  0 I1Cent=   200000004 NGrid=           0
         NMat0=    1 NMatS0=      1 NMatT0=    0 NMatD0=    1 NMtDS0=    0 NMtDT0=    0
 Symmetry not used in FoFCou.
 Requested convergence on RMS density matrix=1.00D-08 within 128 cycles.
 Requested convergence on MAX density matrix=1.00D-06.
 Requested convergence on             energy=1.00D-06.
 No special actions if energy rises.
 Integral accuracy reduced to 1.0D-05 until final iterations.
 Initial convergence to 1.0D-05 achieved.  Increase integral accuracy.
 SCF Done:  E(RB3LYP) =  -796.125039035     A.U. after   14 cycles
            NFock= 14  Conv=0.68D-08     -V/T= 2.0089
 DoSCS=F DFT=T ScalE2(SS,OS)=  1.000000  1.000000
 Range of M.O.s used for correlation:     1   268
 NBasis=   268 NAE=    60 NBE=    60 NFC=     0 NFV=     0
 NROrb=    268 NOA=    60 NOB=    60 NVA=   208 NVB=   208
 Symmetrizing basis deriv contribution to polar:
 IMax=3 JMax=2 DiffMx= 0.00D+00
 G2DrvN: will do    31 centers at a time, making    1 passes.
 Calling FoFCou, ICntrl=  3107 FMM=F I1Cent=   0 AccDes= 0.00D+00.
 End of G2Drv F.D. properties file   721 does not exist.
 End of G2Drv F.D. properties file   722 does not exist.
 End of G2Drv F.D. properties file   788 does not exist.
          IDoAtm=111111111111111111111111111111
          Differentiating once with respect to nuclear coordinates.
          There are    93 degrees of freedom in the 1st order CPHF.  IDoFFX=6 NUNeed=     0.
     87 vectors produced by pass  0 Test12= 1.34D-14 1.08D-09 XBig12= 1.44D-01 1.10D-01.
 AX will form    87 AO Fock derivatives at one time.
     87 vectors produced by pass  1 Test12= 1.34D-14 1.08D-09 XBig12= 1.77D-02 4.69D-02.
     87 vectors produced by pass  2 Test12= 1.34D-14 1.08D-09 XBig12= 1.99D-04 2.18D-03.
     87 vectors produced by pass  3 Test12= 1.34D-14 1.08D-09 XBig12= 7.88D-07 1.49D-04.
     87 vectors produced by pass  4 Test12= 1.34D-14 1.08D-09 XBig12= 9.94D-10 4.00D-06.
     70 vectors produced by pass  5 Test12= 1.34D-14 1.08D-09 XBig12= 9.65D-13 1.05D-07.
     10 vectors produced by pass  6 Test12= 1.34D-14 1.08D-09 XBig12= 7.29D-16 2.44D-09.
 InvSVY:  IOpt=1 It=  1 EMax= 6.66D-16
 Solved reduced A of dimension   515 with    93 vectors.
 End of Minotr F.D. properties file   721 does not exist.
 End of Minotr F.D. properties file   722 does not exist.
 End of Minotr F.D. properties file   788 does not exist.

 **********************************************************************

            Population analysis using the SCF density.

 **********************************************************************

 Alpha  occ. eigenvalues --  -19.22117 -19.16164 -19.11842 -14.40136 -14.36631
 Alpha  occ. eigenvalues --  -14.31802 -14.31294 -10.34329 -10.29200 -10.25954
 Alpha  occ. eigenvalues --  -10.24605 -10.22839 -10.21836 -10.20791 -10.20329
 Alpha  occ. eigenvalues --  -10.19564  -1.13125  -1.05080  -1.04101  -1.02588
 Alpha  occ. eigenvalues --   -0.93628  -0.88353  -0.87910  -0.81604  -0.76759
 Alpha  occ. eigenvalues --   -0.73898  -0.68598  -0.65020  -0.62466  -0.62225
 Alpha  occ. eigenvalues --   -0.60379  -0.59318  -0.56183  -0.54165  -0.50514
 Alpha  occ. eigenvalues --   -0.49599  -0.49049  -0.48780  -0.46798  -0.45909
 Alpha  occ. eigenvalues --   -0.45449  -0.43952  -0.43151  -0.42739  -0.41979
 Alpha  occ. eigenvalues --   -0.41367  -0.40686  -0.39322  -0.38900  -0.37950
 Alpha  occ. eigenvalues --   -0.36624  -0.34672  -0.34328  -0.30152  -0.28807
 Alpha  occ. eigenvalues --   -0.27367  -0.26556  -0.25916  -0.23449  -0.23313
 Alpha virt. eigenvalues --   -0.01742   0.01581   0.02187   0.05247   0.05851
 Alpha virt. eigenvalues --    0.06812   0.07929   0.09210   0.12182   0.12523
 Alpha virt. eigenvalues --    0.13132   0.13480   0.13730   0.14783   0.16393
 Alpha virt. eigenvalues --    0.17068   0.17582   0.18853   0.19690   0.21253
 Alpha virt. eigenvalues --    0.22022   0.22545   0.23361   0.24954   0.25438
 Alpha virt. eigenvalues --    0.27565   0.28607   0.30715   0.33118   0.33873
 Alpha virt. eigenvalues --    0.37266   0.38480   0.41874   0.44517   0.48475
 Alpha virt. eigenvalues --    0.49110   0.50555   0.53396   0.53919   0.54317
 Alpha virt. eigenvalues --    0.55087   0.55483   0.56952   0.57774   0.59942
 Alpha virt. eigenvalues --    0.60717   0.61316   0.62126   0.62734   0.63640
 Alpha virt. eigenvalues --    0.64346   0.66024   0.66193   0.67401   0.68960
 Alpha virt. eigenvalues --    0.69855   0.71403   0.72886   0.73864   0.75202
 Alpha virt. eigenvalues --    0.77557   0.77607   0.78655   0.80061   0.80360
 Alpha virt. eigenvalues --    0.81086   0.82369   0.82527   0.83733   0.84348
 Alpha virt. eigenvalues --    0.84913   0.85113   0.86837   0.87366   0.88590
 Alpha virt. eigenvalues --    0.89486   0.90060   0.90791   0.91484   0.92142
 Alpha virt. eigenvalues --    0.93308   0.94644   0.95072   0.96535   0.97638
 Alpha virt. eigenvalues --    0.98667   0.99501   1.01317   1.03660   1.04558
 Alpha virt. eigenvalues --    1.05942   1.07603   1.09571   1.13078   1.13895
 Alpha virt. eigenvalues --    1.16135   1.21396   1.22905   1.26066   1.28233
 Alpha virt. eigenvalues --    1.31020   1.32122   1.33915   1.35132   1.35830
 Alpha virt. eigenvalues --    1.38160   1.39505   1.41474   1.42661   1.44629
 Alpha virt. eigenvalues --    1.45797   1.48056   1.49726   1.51370   1.52209
 Alpha virt. eigenvalues --    1.54500   1.55319   1.63023   1.64458   1.67918
 Alpha virt. eigenvalues --    1.70402   1.72241   1.73315   1.75025   1.75722
 Alpha virt. eigenvalues --    1.77057   1.77501   1.79325   1.81886   1.82454
 Alpha virt. eigenvalues --    1.83719   1.84824   1.85863   1.87311   1.88217
 Alpha virt. eigenvalues --    1.89282   1.90786   1.92651   1.95152   1.96134
 Alpha virt. eigenvalues --    1.97487   1.99118   2.01321   2.02804   2.06728
 Alpha virt. eigenvalues --    2.07832   2.08418   2.10508   2.11410   2.13395
 Alpha virt. eigenvalues --    2.17538   2.18221   2.19494   2.21755   2.24878
 Alpha virt. eigenvalues --    2.26291   2.28794   2.30025   2.32721   2.33776
 Alpha virt. eigenvalues --    2.34217   2.38631   2.39736   2.40546   2.44177
 Alpha virt. eigenvalues --    2.44746   2.47263   2.48658   2.49159   2.52461
 Alpha virt. eigenvalues --    2.54777   2.58774   2.59740   2.61168   2.63925
 Alpha virt. eigenvalues --    2.64896   2.67569   2.69642   2.72745   2.75013
 Alpha virt. eigenvalues --    2.76874   2.81374   2.83702   2.84477   2.93804
 Alpha virt. eigenvalues --    2.97198   2.99353   3.01016   3.02985   3.08687
 Alpha virt. eigenvalues --    3.13741   3.19418   3.78332   3.86623   3.92980
 Alpha virt. eigenvalues --    4.01807   4.05414   4.06410   4.12821   4.18512
 Alpha virt. eigenvalues --    4.21489   4.24506   4.31029   4.35582   4.44416
 Alpha virt. eigenvalues --    4.53614   4.56079   4.65538
          Condensed to atoms (all electrons):
               1          2          3          4          5          6
     1  O    8.104768   0.567691  -0.102026   0.008022   0.000622   0.000000
     2  C    0.567691   4.333017   0.260683  -0.018100   0.005183  -0.000042
     3  N   -0.102026   0.260683   7.210475   0.213980  -0.026128   0.002341
     4  C    0.008022  -0.018100   0.213980   5.213258   0.281359  -0.090519
     5  C    0.000622   0.005183  -0.026128   0.281359   4.387687   0.265314
     6  O    0.000000  -0.000042   0.002341  -0.090519   0.265314   8.235619
     7  O   -0.000006   0.000821  -0.011153  -0.094108   0.584143  -0.074751
     8  C   -0.006129  -0.004510  -0.048488   0.325088  -0.025016  -0.001050
     9  C   -0.000238  -0.000007   0.004924  -0.046619  -0.006351   0.003935
    10  C    0.000032  -0.000006   0.000003  -0.002135  -0.000710  -0.000244
    11  N    0.000000   0.000000   0.000000  -0.000032   0.000004  -0.000020
    12  C    0.000000   0.000000   0.000000   0.000142   0.000093   0.000620
    13  N   -0.000001   0.000000  -0.000022  -0.002240   0.004190  -0.005722
    14  C   -0.083874   0.314986  -0.120554   0.007451  -0.000098   0.000000
    15  C    0.004830  -0.024053   0.003822  -0.000157   0.000000   0.000000
    16  N    0.000263   0.003258  -0.000028   0.000000   0.000000   0.000000
    17  H    0.002956  -0.016084   0.291127  -0.045122  -0.003873   0.000801
    18  H    0.013275  -0.000478  -0.047262   0.358404  -0.035660   0.001643
    19  H   -0.000001  -0.000026   0.000060   0.005639  -0.016068   0.225600
    20  H    0.000058   0.000363   0.001886  -0.047507  -0.005438   0.000148
    21  H    0.010601   0.004829  -0.011409  -0.026706   0.003872  -0.000109
    22  H    0.000008  -0.000002  -0.000003   0.000058   0.000022  -0.000004
    23  H    0.000000   0.000000   0.000000  -0.000001   0.000003   0.000016
    24  H    0.000000   0.000000  -0.000021   0.000367   0.001750   0.003058
    25  H    0.000542  -0.025596   0.000121  -0.000130  -0.000007   0.000000
    26  H    0.001591  -0.023469   0.001837  -0.000053  -0.000012   0.000000
    27  H    0.002313  -0.002731   0.000122  -0.000002   0.000000   0.000000
    28  H    0.005947   0.003906   0.000312   0.000008   0.000000   0.000000
    29  H    0.000006  -0.000176  -0.000001   0.000000   0.000000   0.000000
    30  H    0.000007  -0.000156   0.000002   0.000000   0.000000   0.000000
               7          8          9         10         11         12
     1  O   -0.000006  -0.006129  -0.000238   0.000032   0.000000   0.000000
     2  C    0.000821  -0.004510  -0.000007  -0.000006   0.000000   0.000000
     3  N   -0.011153  -0.048488   0.004924   0.000003   0.000000   0.000000
     4  C   -0.094108   0.325088  -0.046619  -0.002135  -0.000032   0.000142
     5  C    0.584143  -0.025016  -0.006351  -0.000710   0.000004   0.000093
     6  O   -0.074751  -0.001050   0.003935  -0.000244  -0.000020   0.000620
     7  O    8.006828  -0.001006  -0.000356  -0.000006   0.000000   0.000000
     8  C   -0.001006   5.226466   0.330510  -0.055743   0.006589   0.006220
     9  C   -0.000356   0.330510   4.790274   0.575488  -0.046526  -0.091372
    10  C   -0.000006  -0.055743   0.575488   4.938388   0.421859  -0.119415
    11  N    0.000000   0.006589  -0.046526   0.421859   6.663154   0.535682
    12  C    0.000000   0.006220  -0.091372  -0.119415   0.535682   4.751358
    13  N   -0.000066  -0.068116   0.330959  -0.078274  -0.083139   0.348729
    14  C   -0.000077  -0.000562  -0.000003   0.000000   0.000000   0.000000
    15  C    0.000000   0.000005   0.000000   0.000000   0.000000   0.000000
    16  N    0.000000   0.000000   0.000000   0.000000   0.000000   0.000000
    17  H    0.030575   0.002434  -0.000053   0.000001   0.000000   0.000000
    18  H    0.002233  -0.047082   0.003878   0.002938  -0.000079  -0.000073
    19  H    0.004313  -0.002668   0.007432   0.001277  -0.000156  -0.000273
    20  H    0.002304   0.349461  -0.021798   0.003020  -0.000183   0.000040
    21  H   -0.000063   0.365482  -0.025910  -0.003493   0.000048  -0.000081
    22  H    0.000000  -0.001113  -0.056928   0.383356  -0.042570   0.007413
    23  H    0.000000  -0.000159   0.003266   0.007292  -0.038443   0.383261
    24  H   -0.000043  -0.002220  -0.027950   0.008369   0.004917  -0.022244
    25  H   -0.000001   0.000068  -0.000001   0.000000   0.000000   0.000000
    26  H   -0.000008   0.000005   0.000000   0.000000   0.000000   0.000000
    27  H    0.000000   0.000001   0.000000   0.000000   0.000000   0.000000
    28  H    0.000000   0.000000   0.000000   0.000000   0.000000   0.000000
    29  H    0.000000   0.000000   0.000000   0.000000   0.000000   0.000000
    30  H    0.000000   0.000000   0.000000   0.000000   0.000000   0.000000
              13         14         15         16         17         18
     1  O   -0.000001  -0.083874   0.004830   0.000263   0.002956   0.013275
     2  C    0.000000   0.314986  -0.024053   0.003258  -0.016084  -0.000478
     3  N   -0.000022  -0.120554   0.003822  -0.000028   0.291127  -0.047262
     4  C   -0.002240   0.007451  -0.000157   0.000000  -0.045122   0.358404
     5  C    0.004190  -0.000098   0.000000   0.000000  -0.003873  -0.035660
     6  O   -0.005722   0.000000   0.000000   0.000000   0.000801   0.001643
     7  O   -0.000066  -0.000077   0.000000   0.000000   0.030575   0.002233
     8  C   -0.068116  -0.000562   0.000005   0.000000   0.002434  -0.047082
     9  C    0.330959  -0.000003   0.000000   0.000000  -0.000053   0.003878
    10  C   -0.078274   0.000000   0.000000   0.000000   0.000001   0.002938
    11  N   -0.083139   0.000000   0.000000   0.000000   0.000000  -0.000079
    12  C    0.348729   0.000000   0.000000   0.000000   0.000000  -0.000073
    13  N    6.902517   0.000000   0.000000   0.000000  -0.000001  -0.000382
    14  C    0.000000   5.336210   0.351006  -0.056990   0.000518   0.000697
    15  C    0.000000   0.351006   4.863035   0.301590  -0.000078   0.000007
    16  N    0.000000  -0.056990   0.301590   6.937890  -0.000007   0.000000
    17  H   -0.000001   0.000518  -0.000078  -0.000007   0.380437   0.004254
    18  H   -0.000382   0.000697   0.000007   0.000000   0.004254   0.558740
    19  H    0.001941   0.000000   0.000000   0.000000  -0.000079   0.003684
    20  H   -0.004803   0.000025   0.000000   0.000000   0.001044   0.006181
    21  H    0.003466   0.000245  -0.000003   0.000000  -0.000270  -0.005321
    22  H    0.004827   0.000000   0.000000   0.000000   0.000000   0.000103
    23  H   -0.059005   0.000000   0.000000   0.000000   0.000000  -0.000001
    24  H    0.300500   0.000000   0.000000   0.000000   0.000000   0.000044
    25  H    0.000000   0.358273  -0.035184  -0.002890   0.000430  -0.000018
    26  H    0.000000   0.347365  -0.030470   0.005931   0.002252  -0.000042
    27  H    0.000000  -0.033128   0.384106  -0.039389  -0.000006  -0.000006
    28  H    0.000000  -0.059187   0.385239  -0.047163   0.000003  -0.000002
    29  H    0.000000  -0.004607  -0.036300   0.308343   0.000000   0.000000
    30  H    0.000000   0.006301  -0.034424   0.312467   0.000000   0.000000
              19         20         21         22         23         24
     1  O   -0.000001   0.000058   0.010601   0.000008   0.000000   0.000000
     2  C   -0.000026   0.000363   0.004829  -0.000002   0.000000   0.000000
     3  N    0.000060   0.001886  -0.011409  -0.000003   0.000000  -0.000021
     4  C    0.005639  -0.047507  -0.026706   0.000058  -0.000001   0.000367
     5  C   -0.016068  -0.005438   0.003872   0.000022   0.000003   0.001750
     6  O    0.225600   0.000148  -0.000109  -0.000004   0.000016   0.003058
     7  O    0.004313   0.002304  -0.000063   0.000000   0.000000  -0.000043
     8  C   -0.002668   0.349461   0.365482  -0.001113  -0.000159  -0.002220
     9  C    0.007432  -0.021798  -0.025910  -0.056928   0.003266  -0.027950
    10  C    0.001277   0.003020  -0.003493   0.383356   0.007292   0.008369
    11  N   -0.000156  -0.000183   0.000048  -0.042570  -0.038443   0.004917
    12  C   -0.000273   0.000040  -0.000081   0.007413   0.383261  -0.022244
    13  N    0.001941  -0.004803   0.003466   0.004827  -0.059005   0.300500
    14  C    0.000000   0.000025   0.000245   0.000000   0.000000   0.000000
    15  C    0.000000   0.000000  -0.000003   0.000000   0.000000   0.000000
    16  N    0.000000   0.000000   0.000000   0.000000   0.000000   0.000000
    17  H   -0.000079   0.001044  -0.000270   0.000000   0.000000   0.000000
    18  H    0.003684   0.006181  -0.005321   0.000103  -0.000001   0.000044
    19  H    0.337750   0.000183  -0.000003   0.000004   0.000015  -0.000552
    20  H    0.000183   0.578450  -0.027421  -0.000035  -0.000006   0.001866
    21  H   -0.000003  -0.027421   0.504436   0.002261   0.000003  -0.000034
    22  H    0.000004  -0.000035   0.002261   0.555779  -0.000150  -0.000095
    23  H    0.000015  -0.000006   0.000003  -0.000150   0.542873   0.000404
    24  H   -0.000552   0.001866  -0.000034  -0.000095   0.000404   0.388242
    25  H    0.000000  -0.000012  -0.000044   0.000000   0.000000   0.000000
    26  H    0.000000   0.000000  -0.000001   0.000000   0.000000   0.000000
    27  H    0.000000   0.000000  -0.000001   0.000000   0.000000   0.000000
    28  H    0.000000   0.000000  -0.000001   0.000000   0.000000   0.000000
    29  H    0.000000   0.000000   0.000000   0.000000   0.000000   0.000000
    30  H    0.000000   0.000000   0.000000   0.000000   0.000000   0.000000
              25         26         27         28         29         30
     1  O    0.000542   0.001591   0.002313   0.005947   0.000006   0.000007
     2  C   -0.025596  -0.023469  -0.002731   0.003906  -0.000176  -0.000156
     3  N    0.000121   0.001837   0.000122   0.000312  -0.000001   0.000002
     4  C   -0.000130  -0.000053  -0.000002   0.000008   0.000000   0.000000
     5  C   -0.000007  -0.000012   0.000000   0.000000   0.000000   0.000000
     6  O    0.000000   0.000000   0.000000   0.000000   0.000000   0.000000
     7  O   -0.000001  -0.000008   0.000000   0.000000   0.000000   0.000000
     8  C    0.000068   0.000005   0.000001   0.000000   0.000000   0.000000
     9  C   -0.000001   0.000000   0.000000   0.000000   0.000000   0.000000
    10  C    0.000000   0.000000   0.000000   0.000000   0.000000   0.000000
    11  N    0.000000   0.000000   0.000000   0.000000   0.000000   0.000000
    12  C    0.000000   0.000000   0.000000   0.000000   0.000000   0.000000
    13  N    0.000000   0.000000   0.000000   0.000000   0.000000   0.000000
    14  C    0.358273   0.347365  -0.033128  -0.059187  -0.004607   0.006301
    15  C   -0.035184  -0.030470   0.384106   0.385239  -0.036300  -0.034424
    16  N   -0.002890   0.005931  -0.039389  -0.047163   0.308343   0.312467
    17  H    0.000430   0.002252  -0.000006   0.000003   0.000000   0.000000
    18  H   -0.000018  -0.000042  -0.000006  -0.000002   0.000000   0.000000
    19  H    0.000000   0.000000   0.000000   0.000000   0.000000   0.000000
    20  H   -0.000012   0.000000   0.000000   0.000000   0.000000   0.000000
    21  H   -0.000044  -0.000001  -0.000001  -0.000001   0.000000   0.000000
    22  H    0.000000   0.000000   0.000000   0.000000   0.000000   0.000000
    23  H    0.000000   0.000000   0.000000   0.000000   0.000000   0.000000
    24  H    0.000000   0.000000   0.000000   0.000000   0.000000   0.000000
    25  H    0.573072  -0.033023   0.005468  -0.005547   0.005390  -0.000018
    26  H   -0.033023   0.557159  -0.006419   0.006301  -0.000658  -0.000099
    27  H    0.005468  -0.006419   0.575908  -0.042618   0.006486  -0.004287
    28  H   -0.005547   0.006301  -0.042618   0.618065  -0.005832  -0.001807
    29  H    0.005390  -0.000658   0.006486  -0.005832   0.468637  -0.033301
    30  H   -0.000018  -0.000099  -0.004287  -0.001807  -0.033301   0.454512
 Mulliken charges:
               1
     1  O   -0.531258
     2  C    0.620698
     3  N   -0.624602
     4  C   -0.040344
     5  C    0.585118
     6  O   -0.566632
     7  O   -0.449574
     8  C   -0.348466
     9  C    0.273443
    10  C   -0.081997
    11  N   -0.421106
    12  C    0.199897
    13  N   -0.595361
    14  C   -0.363996
    15  C   -0.132971
    16  N   -0.723277
    17  H    0.348739
    18  H    0.180325
    19  H    0.431927
    20  H    0.162172
    21  H    0.205626
    22  H    0.147070
    23  H    0.160632
    24  H    0.343642
    25  H    0.159108
    26  H    0.171813
    27  H    0.154180
    28  H    0.142375
    29  H    0.292013
    30  H    0.300804
 Sum of Mulliken charges =   0.00000
 Mulliken charges with hydrogens summed into heavy atoms:
               1
     1  O   -0.531258
     2  C    0.620698
     3  N   -0.275863
     4  C    0.139981
     5  C    0.585118
     6  O   -0.134705
     7  O   -0.449574
     8  C    0.019332
     9  C    0.273443
    10  C    0.065073
    11  N   -0.421106
    12  C    0.360530
    13  N   -0.251719
    14  C   -0.033076
    15  C    0.163584
    16  N   -0.130460
 APT charges:
               1
     1  O   -0.410563
     2  C    0.248492
     3  N   -0.728959
     4  C   -0.337929
     5  C   -0.339764
     6  O   -0.215140
     7  O    0.136101
     8  C   -0.779380
     9  C   -0.550909
    10  C   -0.244532
    11  N    0.166328
    12  C   -0.541616
    13  N   -0.729856
    14  C   -0.702860
    15  C   -0.461142
    16  N   -1.734824
    17  H    0.609598
    18  H    0.330226
    19  H    0.510818
    20  H    0.406216
    21  H    0.314446
    22  H    0.367186
    23  H    1.070776
    24  H    0.543892
    25  H    0.386469
    26  H    0.445658
    27  H    0.379898
    28  H    0.296704
    29  H    0.552435
    30  H    1.012232
 Sum of APT charges =   0.00000
 APT charges with hydrogens summed into heavy atoms:
               1
     1  O   -0.410563
     2  C    0.248492
     3  N   -0.119361
     4  C   -0.007703
     5  C   -0.339764
     6  O    0.295677
     7  O    0.136101
     8  C   -0.058718
     9  C   -0.550909
    10  C    0.122654
    11  N    0.166328
    12  C    0.529159
    13  N   -0.185963
    14  C    0.129268
    15  C    0.215459
    16  N   -0.170157
 Electronic spatial extent (au):  <R**2>=           5325.8146
 Charge=              0.0000 electrons
 Dipole moment (field-independent basis, Debye):
    X=              0.6731    Y=             -2.0494    Z=              0.6330  Tot=              2.2480
 Quadrupole moment (field-independent basis, Debye-Ang):
   XX=            -91.0655   YY=            -90.9900   ZZ=           -106.6621
   XY=              2.7472   XZ=            -15.3387   YZ=              6.4977
 Traceless Quadrupole moment (field-independent basis, Debye-Ang):
   XX=              5.1737   YY=              5.2492   ZZ=            -10.4229
   XY=              2.7472   XZ=            -15.3387   YZ=              6.4977
 Octapole moment (field-independent basis, Debye-Ang**2):
  XXX=            164.7288  YYY=            -32.8152  ZZZ=            -67.2595  XYY=             57.8789
  XXY=            -53.1701  XXZ=             10.2268  XZZ=             73.6884  YZZ=            -11.5458
  YYZ=             -4.0719  XYZ=             -2.7496
 Hexadecapole moment (field-independent basis, Debye-Ang**3):
 XXXX=          -5324.9720 YYYY=           -325.0604 ZZZZ=          -1130.6912 XXXY=            464.6230
 XXXZ=           -612.2152 YYYX=            290.8842 YYYZ=             64.0169 ZZZX=             90.4231
 ZZZY=             56.6852 XXYY=           -984.0256 XXZZ=          -1165.7795 YYZZ=           -232.1888
 XXYZ=            113.0669 YYXZ=            -23.1173 ZZXY=            115.6051
 N-N= 1.103473717936D+03 E-N=-4.063345489495D+03  KE= 7.891371074881D+02
  Exact polarizability:   0.000   0.000   0.000   0.000   0.000   0.000
 Approx polarizability: 192.370 -24.077 157.599  -4.656 -42.623 181.126
 Calling FoFJK, ICntrl=    100147 FMM=F ISym2X=0 I1Cent= 0 IOpClX= 0 NMat=1 NMatS=1 NMatT=0.
 -------------------------------------------------------------------
 Center     Atomic                   Forces (Hartrees/Bohr)
 Number     Number              X              Y              Z
 -------------------------------------------------------------------
      1        8           0.000147270    0.004868642   -0.007093571
      2        6           0.001417202   -0.002816135   -0.000487075
      3        7          -0.003696845    0.001161665    0.004075413
      4        6           0.008006862   -0.002940683   -0.000177828
      5        6           0.001789986    0.008031637   -0.009065394
      6        8          -0.005420505   -0.001685396    0.008141440
      7        8           0.001520427   -0.008669409    0.010398934
      8        6          -0.007077894    0.003213718   -0.001382168
      9        6           0.009705841   -0.004317872   -0.000156291
     10        6          -0.005256134    0.005267347   -0.003171856
     11        7           0.001977204    0.001906357   -0.002952606
     12        6          -0.005276743    0.002030531   -0.001358778
     13        7          -0.000205365   -0.003565786    0.008311194
     14        6          -0.001114670    0.000611149    0.001130113
     15        6           0.001639543   -0.001620446   -0.000482353
     16        7          -0.000462456    0.002616797    0.004958191
     17        1           0.000774660   -0.001566770    0.001563132
     18        1           0.000613143    0.000473273   -0.000521150
     19        1           0.000305164    0.002612115   -0.006915500
     20        1           0.001219157   -0.003425811    0.002017557
     21        1           0.002398999    0.000555154   -0.001807235
     22        1           0.000783486    0.000025285   -0.001284123
     23        1          -0.004774650    0.000271426    0.000812936
     24        1          -0.000392196   -0.001258834   -0.000441094
     25        1          -0.001573264   -0.001919168    0.000480953
     26        1           0.001398386   -0.000615770    0.001850187
     27        1           0.000331885    0.001622906   -0.000254147
     28        1          -0.001429543    0.001283606   -0.002376776
     29        1          -0.000364542   -0.004377143   -0.001359559
     30        1           0.003015591    0.002227615   -0.002452545
 -------------------------------------------------------------------
 Cartesian Forces:  Max     0.010398934 RMS     0.003676112
 FormGI is forming the generalized inverse of G from B-inverse, IUseBI=4.
 GSVD:  received Info=                   1 from GESDD.

 GradGradGradGradGradGradGradGradGradGradGradGradGradGradGradGradGradGrad
 Berny optimization.
 Internal  Forces:  Max     0.013338690 RMS     0.002578744
 Search for a local minimum.
 Step number   1 out of a maximum of  160
 All quantities printed in internal units (Hartrees-Bohrs-Radians)
 Mixed Optimization -- RFO/linear search
 Second derivative matrix not updated -- analytic derivatives used.
 ITU=  0
     Eigenvalues ---   -0.00117  -0.00082   0.00061   0.00202   0.00226
     Eigenvalues ---    0.00267   0.00341   0.00491   0.00652   0.01013
     Eigenvalues ---    0.01592   0.01791   0.02000   0.02537   0.03377
     Eigenvalues ---    0.03385   0.04162   0.04243   0.04305   0.04388
     Eigenvalues ---    0.04464   0.04710   0.05185   0.05220   0.05233
     Eigenvalues ---    0.05510   0.05967   0.06204   0.07866   0.07917
     Eigenvalues ---    0.08492   0.10491   0.10821   0.10871   0.11165
     Eigenvalues ---    0.11865   0.12006   0.13751   0.15432   0.15459
     Eigenvalues ---    0.16600   0.17026   0.17274   0.18427   0.19000
     Eigenvalues ---    0.19344   0.21527   0.22576   0.23246   0.23671
     Eigenvalues ---    0.23749   0.24892   0.25104   0.25487   0.30617
     Eigenvalues ---    0.30832   0.32438   0.33277   0.33507   0.33833
     Eigenvalues ---    0.34474   0.34501   0.34676   0.35090   0.35585
     Eigenvalues ---    0.35736   0.37462   0.37901   0.38142   0.38716
     Eigenvalues ---    0.40128   0.42484   0.45324   0.45366   0.45911
     Eigenvalues ---    0.46418   0.46763   0.47407   0.47712   0.49332
     Eigenvalues ---    0.52381   0.60055   0.84848   0.94299
 RFO step:  Lambda=-4.52249891D-03 EMin=-1.17249137D-03
 Linear search not attempted -- first point.
 Iteration  1 RMS(Cart)=  0.25683201 RMS(Int)=  0.04231056
 Iteration  2 RMS(Cart)=  0.11797898 RMS(Int)=  0.00585655
 Iteration  3 RMS(Cart)=  0.00889823 RMS(Int)=  0.00012851
 Iteration  4 RMS(Cart)=  0.00004814 RMS(Int)=  0.00012604
 Iteration  5 RMS(Cart)=  0.00000000 RMS(Int)=  0.00012604
 Variable       Old X    -DE/DX   Delta X   Delta X   Delta X     New X
                                 (Linear)    (Quad)   (Total)
    R1        2.31308   0.00840   0.00000   0.00832   0.00832   2.32140
    R2        2.56764   0.00662   0.00000   0.01181   0.01181   2.57945
    R3        2.87049   0.00164   0.00000   0.00527   0.00527   2.87576
    R4        2.73898  -0.00051   0.00000  -0.01568  -0.01568   2.72329
    R5        1.90846   0.00227   0.00000   0.00573   0.00573   1.91419
    R6        2.87776   0.00306   0.00000   0.00240   0.00240   2.88017
    R7        2.92668   0.00423   0.00000   0.02021   0.02021   2.94689
    R8        2.06857   0.00065   0.00000   0.00340   0.00340   2.07197
    R9        2.53950   0.00459   0.00000   0.00108   0.00108   2.54058
   R10        2.27061   0.01334   0.00000   0.01665   0.01665   2.28726
   R11        1.82544   0.00690   0.00000   0.01672   0.01672   1.84216
   R12        2.81939   0.00329   0.00000   0.00220   0.00220   2.82159
   R13        2.06179   0.00379   0.00000   0.00825   0.00825   2.07005
   R14        2.05620   0.00280   0.00000   0.00891   0.00891   2.06511
   R15        2.58687   0.00816   0.00000   0.01979   0.01980   2.60667
   R16        2.60542   0.00953   0.00000   0.01438   0.01439   2.61981
   R17        2.61227   0.00015   0.00000  -0.00486  -0.00486   2.60741
   R18        2.04042   0.00141   0.00000   0.00440   0.00440   2.04482
   R19        2.48090   0.00375   0.00000   0.00804   0.00802   2.48892
   R20        2.56707   0.00945   0.00000   0.01214   0.01213   2.57920
   R21        2.03253   0.00464   0.00000   0.01052   0.01052   2.04305
   R22        1.90920   0.00026   0.00000   0.00072   0.00072   1.90992
   R23        2.87445   0.00377   0.00000   0.00937   0.00937   2.88382
   R24        2.07333   0.00192   0.00000   0.00559   0.00559   2.07893
   R25        2.06696   0.00202   0.00000   0.00639   0.00639   2.07336
   R26        2.76893   0.00194   0.00000   0.00391   0.00391   2.77284
   R27        2.06439   0.00158   0.00000   0.00374   0.00374   2.06813
   R28        2.07244   0.00254   0.00000   0.00852   0.00852   2.08097
   R29        1.91619   0.00459   0.00000   0.01057   0.01057   1.92676
   R30        1.91417   0.00445   0.00000   0.01006   0.01006   1.92422
    A1        2.11381   0.00277   0.00000   0.00715   0.00712   2.12092
    A2        2.15924  -0.00151   0.00000  -0.00369  -0.00372   2.15551
    A3        2.00996  -0.00126   0.00000  -0.00320  -0.00323   2.00673
    A4        2.11947  -0.00136   0.00000  -0.00076  -0.00083   2.11864
    A5        2.13379   0.00028   0.00000  -0.00028  -0.00036   2.13343
    A6        2.02456   0.00111   0.00000   0.00325   0.00318   2.02773
    A7        1.85954   0.00262   0.00000   0.03249   0.03254   1.89207
    A8        1.92916   0.00168   0.00000   0.02238   0.02240   1.95156
    A9        1.90295  -0.00136   0.00000   0.00427   0.00463   1.90758
   A10        1.95098  -0.00279   0.00000  -0.01491  -0.01574   1.93524
   A11        1.93696   0.00007   0.00000  -0.02262  -0.02317   1.91380
   A12        1.88420  -0.00018   0.00000  -0.02041  -0.02088   1.86332
   A13        2.03873  -0.00308   0.00000  -0.01848  -0.01856   2.02017
   A14        2.13468   0.00439   0.00000   0.01265   0.01256   2.14725
   A15        2.10975  -0.00131   0.00000   0.00569   0.00561   2.11536
   A16        1.95122  -0.00485   0.00000  -0.03124  -0.03124   1.91998
   A17        1.97668   0.00388   0.00000  -0.00503  -0.00504   1.97164
   A18        1.90447  -0.00159   0.00000  -0.00514  -0.00525   1.89922
   A19        1.86104  -0.00270   0.00000  -0.02149  -0.02150   1.83953
   A20        1.93641  -0.00042   0.00000  -0.00770  -0.00779   1.92862
   A21        1.90062  -0.00009   0.00000   0.03866   0.03869   1.93931
   A22        1.88079   0.00072   0.00000   0.00077   0.00058   1.88137
   A23        2.30426  -0.00015   0.00000   0.02078   0.02070   2.32496
   A24        2.15066   0.00274   0.00000  -0.01352  -0.01357   2.13709
   A25        1.82716  -0.00257   0.00000  -0.00796  -0.00795   1.81921
   A26        1.93591   0.00203   0.00000   0.00352   0.00348   1.93940
   A27        2.22830  -0.00126   0.00000  -0.00330  -0.00338   2.22491
   A28        2.11896  -0.00077   0.00000  -0.00011  -0.00019   2.11877
   A29        1.83127   0.00229   0.00000   0.00564   0.00563   1.83690
   A30        1.95180  -0.00115   0.00000  -0.00427  -0.00429   1.94750
   A31        2.20646  -0.00067   0.00000  -0.00754  -0.00754   2.19892
   A32        2.12491   0.00182   0.00000   0.01186   0.01185   2.13676
   A33        1.87853  -0.00058   0.00000   0.00322   0.00322   1.88175
   A34        2.19900   0.00037   0.00000  -0.01040  -0.01044   2.18857
   A35        2.20054   0.00033   0.00000   0.00821   0.00820   2.20874
   A36        1.97276  -0.00184   0.00000  -0.00751  -0.00751   1.96524
   A37        1.89796  -0.00069   0.00000  -0.00213  -0.00211   1.89585
   A38        1.91323   0.00153   0.00000   0.00280   0.00276   1.91600
   A39        1.90453   0.00196   0.00000   0.01803   0.01805   1.92258
   A40        1.91620  -0.00023   0.00000  -0.00478  -0.00479   1.91141
   A41        1.85535  -0.00066   0.00000  -0.00623  -0.00622   1.84913
   A42        1.90191   0.00141   0.00000   0.00799   0.00793   1.90984
   A43        1.90741  -0.00010   0.00000  -0.00615  -0.00614   1.90127
   A44        1.90057  -0.00069   0.00000   0.00241   0.00229   1.90286
   A45        1.89327  -0.00101   0.00000  -0.00390  -0.00387   1.88940
   A46        1.99169   0.00071   0.00000   0.01061   0.01054   2.00223
   A47        1.86756  -0.00038   0.00000  -0.01202  -0.01201   1.85556
   A48        1.91422  -0.00021   0.00000  -0.00168  -0.00170   1.91253
   A49        1.91889  -0.00078   0.00000  -0.00847  -0.00849   1.91040
   A50        1.84811   0.00037   0.00000  -0.00196  -0.00199   1.84612
    D1       -0.04896   0.00025   0.00000   0.00334   0.00336  -0.04560
    D2       -3.07494  -0.00014   0.00000  -0.02062  -0.02058  -3.09552
    D3        3.11220  -0.00003   0.00000  -0.01082  -0.01086   3.10134
    D4        0.08622  -0.00042   0.00000  -0.03478  -0.03480   0.05142
    D5        0.19294   0.00027   0.00000  -0.16733  -0.16730   0.02563
    D6       -1.92488  -0.00052   0.00000  -0.18379  -0.18377  -2.10865
    D7        2.33669  -0.00019   0.00000  -0.17669  -0.17667   2.16002
    D8       -2.96879   0.00061   0.00000  -0.15261  -0.15263  -3.12142
    D9        1.19657  -0.00018   0.00000  -0.16907  -0.16909   1.02748
   D10       -0.82504   0.00015   0.00000  -0.16197  -0.16199  -0.98704
   D11       -2.75142  -0.00087   0.00000  -0.05934  -0.05911  -2.81053
   D12        1.40869  -0.00008   0.00000  -0.07443  -0.07472   1.33397
   D13       -0.65985  -0.00003   0.00000  -0.06544  -0.06542  -0.72527
   D14        0.28142  -0.00054   0.00000  -0.03701  -0.03675   0.24467
   D15       -1.84165   0.00024   0.00000  -0.05210  -0.05236  -1.89401
   D16        2.37300   0.00030   0.00000  -0.04311  -0.04307   2.32993
   D17        2.69847   0.00089   0.00000   0.12180   0.12178   2.82025
   D18       -0.45003  -0.00109   0.00000   0.09836   0.09831  -0.35172
   D19       -1.47557   0.00300   0.00000   0.16139   0.16120  -1.31437
   D20        1.65912   0.00102   0.00000   0.13795   0.13773   1.79685
   D21        0.62904   0.00091   0.00000   0.10960   0.10985   0.73889
   D22       -2.51945  -0.00107   0.00000   0.08615   0.08638  -2.43308
   D23       -3.04210   0.00096   0.00000  -0.19350  -0.19350   3.04758
   D24        1.07491  -0.00005   0.00000  -0.17605  -0.17604   0.89887
   D25       -0.95202   0.00135   0.00000  -0.16292  -0.16299  -1.11501
   D26        1.17292  -0.00164   0.00000  -0.23939  -0.23919   0.93373
   D27       -0.99325  -0.00265   0.00000  -0.22193  -0.22173  -1.21498
   D28       -3.02018  -0.00125   0.00000  -0.20880  -0.20867   3.05433
   D29       -0.96218   0.00018   0.00000  -0.18777  -0.18791  -1.15009
   D30       -3.12835  -0.00083   0.00000  -0.17031  -0.17045   2.98439
   D31        1.12790   0.00056   0.00000  -0.15718  -0.15739   0.97051
   D32        0.01874  -0.00078   0.00000   0.07165   0.07169   0.09042
   D33       -3.11606   0.00114   0.00000   0.09470   0.09466  -3.02139
   D34        1.66708  -0.00109   0.00000  -0.36094  -0.36100   1.30608
   D35       -1.41590  -0.00149   0.00000  -0.34183  -0.34182  -1.75772
   D36       -2.46745  -0.00064   0.00000  -0.37729  -0.37733  -2.84479
   D37        0.73275  -0.00104   0.00000  -0.35818  -0.35816   0.37459
   D38       -0.40021  -0.00006   0.00000  -0.35693  -0.35693  -0.75714
   D39        2.79999  -0.00046   0.00000  -0.33782  -0.33776   2.46224
   D40       -3.08482  -0.00063   0.00000   0.01442   0.01462  -3.07020
   D41        0.05127  -0.00014   0.00000   0.03569   0.03578   0.08705
   D42        0.00610  -0.00016   0.00000  -0.00245  -0.00241   0.00369
   D43       -3.14100   0.00033   0.00000   0.01882   0.01876  -3.12225
   D44        3.08463   0.00078   0.00000  -0.00663  -0.00641   3.07822
   D45        0.04648  -0.00040   0.00000  -0.01769  -0.01744   0.02904
   D46       -0.01197   0.00045   0.00000   0.00710   0.00706  -0.00491
   D47       -3.05011  -0.00074   0.00000  -0.00396  -0.00398  -3.05409
   D48        0.00231  -0.00018   0.00000  -0.00327  -0.00329  -0.00098
   D49       -3.13417  -0.00063   0.00000  -0.02298  -0.02296   3.12605
   D50       -0.01026   0.00047   0.00000   0.00799   0.00797  -0.00229
   D51        3.12467   0.00074   0.00000   0.01641   0.01640   3.14106
   D52        0.01444  -0.00060   0.00000  -0.00980  -0.00976   0.00468
   D53        3.05247   0.00059   0.00000  -0.00014   0.00002   3.05250
   D54       -3.12084  -0.00084   0.00000  -0.01769  -0.01775  -3.13860
   D55       -0.08281   0.00035   0.00000  -0.00802  -0.00797  -0.09078
   D56       -3.12202  -0.00031   0.00000  -0.04538  -0.04538   3.11578
   D57        1.09501   0.00014   0.00000  -0.04176  -0.04174   1.05327
   D58       -0.93946   0.00104   0.00000  -0.02530  -0.02528  -0.96474
   D59       -1.00792  -0.00102   0.00000  -0.04033  -0.04034  -1.04826
   D60       -3.07407  -0.00057   0.00000  -0.03671  -0.03670  -3.11077
   D61        1.17464   0.00033   0.00000  -0.02025  -0.02024   1.15440
   D62        1.01906  -0.00083   0.00000  -0.04022  -0.04025   0.97881
   D63       -1.04709  -0.00038   0.00000  -0.03660  -0.03661  -1.08370
   D64       -3.08156   0.00053   0.00000  -0.02014  -0.02015  -3.10171
   D65        1.22938   0.00020   0.00000   0.00257   0.00260   1.23198
   D66       -3.02845   0.00008   0.00000  -0.00564  -0.00560  -3.03405
   D67       -2.97880   0.00030   0.00000  -0.00251  -0.00251  -2.98131
   D68       -0.95344   0.00018   0.00000  -0.01072  -0.01071  -0.96415
   D69       -0.89892  -0.00044   0.00000  -0.01373  -0.01378  -0.91270
   D70        1.12644  -0.00056   0.00000  -0.02194  -0.02198   1.10446
         Item               Value     Threshold  Converged?
 Maximum Force            0.013339     0.000450     NO 
 RMS     Force            0.002579     0.000300     NO 
 Maximum Displacement     1.375599     0.001800     NO 
 RMS     Displacement     0.345502     0.001200     NO 
 Predicted change in Energy=-4.627532D-03
 GradGradGradGradGradGradGradGradGradGradGradGradGradGradGradGradGradGrad

                          Input orientation:                          
 ---------------------------------------------------------------------
 Center     Atomic      Atomic             Coordinates (Angstroms)
 Number     Number       Type             X           Y           Z
 ---------------------------------------------------------------------
      1          8           0        1.559941    0.705073   -1.168976
      2          6           0        1.758362    0.076281   -0.132491
      3          7           0        0.762277   -0.132954    0.777026
      4          6           0       -0.554378    0.421953    0.589192
      5          6           0       -1.270538    0.427989    1.934559
      6          8           0       -2.334411    1.244834    2.026187
      7          8           0       -0.937611   -0.274471    2.862296
      8          6           0       -1.372888   -0.374551   -0.472615
      9          6           0       -2.783776    0.098429   -0.595454
     10          6           0       -3.359994    1.211381   -1.171673
     11          7           0       -4.720006    1.242797   -0.941088
     12          6           0       -4.976344    0.162118   -0.233184
     13          7           0       -3.845234   -0.565131    0.000319
     14          6           0        3.104182   -0.530088    0.237540
     15          6           0        4.183649   -0.240088   -0.801443
     16          7           0        5.455371   -0.823878   -0.359907
     17          1           0        0.923001   -0.615757    1.652883
     18          1           0       -0.464858    1.448487    0.214498
     19          1           0       -2.519809    1.649572    1.158946
     20          1           0       -1.346121   -1.438658   -0.213942
     21          1           0       -0.831221   -0.245714   -1.412952
     22          1           0       -2.868396    1.982287   -1.750392
     23          1           0       -5.947220   -0.142628    0.132034
     24          1           0       -3.769452   -1.391765    0.576874
     25          1           0        2.978360   -1.616053    0.360476
     26          1           0        3.425742   -0.151228    1.215728
     27          1           0        4.314385    0.843278   -0.884834
     28          1           0        3.835530   -0.586456   -1.787081
     29          1           0        5.404314   -1.840345   -0.421311
     30          1           0        6.196911   -0.544812   -0.999503
 ---------------------------------------------------------------------
                    Distance matrix (angstroms):
                    1          2          3          4          5
     1  O    0.000000
     2  C    1.228434   0.000000
     3  N    2.263953   1.364986   0.000000
     4  C    2.764354   2.447260   1.441105   0.000000
     5  C    4.209551   3.683834   2.405593   1.524118   0.000000
     6  O    5.066201   4.772443   3.612227   2.431175   1.344418
     7  O    4.842358   4.044756   2.694067   2.408086   1.210366
     8  C    3.201873   3.181770   2.485740   1.559426   2.539495
     9  C    4.423214   4.565725   3.809426   2.545244   2.966389
    10  C    4.945919   5.344710   4.753713   3.405191   3.824684
    11  N    6.307045   6.632032   5.907626   4.513092   4.564218
    12  C    6.625219   6.736006   5.834327   4.505286   4.301488
    13  N    5.674203   5.641749   4.692463   3.485805   3.369960
    14  C    2.426642   1.521788   2.435833   3.796723   4.789151
    15  C    2.812873   2.535666   3.769460   4.982074   6.138420
    16  N    4.262236   3.811807   4.878024   6.210472   7.215927
    17  H    3.180122   2.089092   1.012944   2.095454   2.445478
    18  H    2.562514   2.635538   2.079244   1.096440   2.156188
    19  H    4.791207   4.737700   3.754378   2.386334   1.911679
    20  H    3.735354   3.455357   2.670622   2.175719   2.847129
    21  H    2.584797   2.906751   2.710711   2.128614   3.442776
    22  H    4.645373   5.259026   4.903456   3.641837   4.306723
    23  H    7.666074   7.713228   6.740435   5.441552   5.044408
    24  H    5.987249   5.763253   4.707572   3.691399   3.376297
    25  H    3.120699   2.143690   2.698911   4.084852   4.970813
    26  H    3.146630   2.156296   2.699415   4.069698   4.786153
    27  H    2.772507   2.772644   4.041321   5.104421   6.269993
    28  H    2.688570   2.737063   4.028050   5.092627   6.399346
    29  H    4.670906   4.129145   5.089175   6.453302   7.432975
    30  H    4.805458   4.564886   5.732445   7.002748   8.081947
                    6          7          8          9         10
     6  O    0.000000
     7  O    2.226751   0.000000
     8  C    3.129049   3.364686   0.000000
     9  C    2.896407   3.937437   1.493119   0.000000
    10  C    3.358460   4.934431   2.636751   1.379390   0.000000
    11  N    3.807334   5.574437   3.746797   2.275529   1.379779
    12  C    3.640995   5.107247   3.651060   2.223208   2.143433
    13  N    3.108488   4.090191   2.524377   1.386344   2.182892
    14  C    5.993990   4.826052   4.535711   5.979713   6.841357
    15  C    7.258485   6.296941   5.567882   6.978684   7.690929
    16  N    8.405577   7.180157   6.843954   8.293954   9.083606
    17  H    3.769866   2.245224   3.137997   4.393776   5.446154
    18  H    2.611307   3.194200   2.149444   2.802865   3.218618
    19  H    0.974829   3.017730   2.841565   2.356616   2.515891
    20  H    3.632634   3.314431   1.095423   2.138934   3.463472
    21  H    4.038440   4.276668   1.092811   2.144577   2.928487
    22  H    3.884782   5.486145   3.069845   2.211326   1.082072
    23  H    4.308741   5.706829   4.619946   3.254954   3.197926
    24  H    3.333393   3.806682   2.807075   2.136958   3.162506
    25  H    6.259777   4.836711   4.600948   6.087320   7.107503
    26  H    5.982074   4.665321   5.091879   6.473084   7.321380
    27  H    7.269235   6.547809   5.830789   7.142998   7.688554
    28  H    7.480830   6.670600   5.375904   6.760492   7.442211
    29  H    8.683113   7.311227   6.934093   8.416293   9.310702
    30  H    9.227193   8.117141   7.590023   9.012755   9.718451
                   11         12         13         14         15
    11  N    0.000000
    12  C    1.317081   0.000000
    13  N    2.218125   1.364853   0.000000
    14  C    8.108651   8.123770   6.953552   0.000000
    15  C    9.027377   9.186412   8.075360   1.526051   0.000000
    16  N   10.399385  10.478975   9.311174   2.443633   1.467324
    17  H    6.482780   6.242164   5.046741   2.601555   4.098374
    18  H    4.414065   4.712607   3.940491   4.080851   5.048964
    19  H    3.068628   3.191412   2.829147   6.101573   7.235350
    20  H    4.370589   3.967540   2.656035   4.564486   5.688592
    21  H    4.190582   4.328998   3.344195   4.276960   5.052019
    22  H    2.151808   3.171495   3.241688   6.777581   7.454583
    23  H    2.139403   1.081136   2.148069   9.060306  10.174251
    24  H    3.185699   2.127753   1.010684   6.935740   8.153400
    25  H    8.314562   8.172616   6.913435   1.100120   2.167039
    26  H    8.540983   8.531857   7.383470   1.097173   2.156687
    27  H    9.043396   9.338430   8.327454   2.147195   1.094407
    28  H    8.789714   8.979091   7.886025   2.153400   1.101199
    29  H   10.596122  10.573708   9.346554   2.727904   2.048254
    30  H   11.062461  11.221792  10.091815   3.330985   2.045802
                   16         17         18         19         20
    16  N    0.000000
    17  H    4.963569   0.000000
    18  H    6.367314   2.873362   0.000000
    19  H    8.486953   4.150738   2.270516   0.000000
    20  H    6.830779   3.051412   3.048900   3.577643   0.000000
    21  H    6.400344   3.551558   2.377631   3.613599   1.768011
    22  H    8.893431   5.718987   3.150037   2.948977   4.047328
    23  H   11.433511   7.052430   5.709180   4.001709   4.792651
    24  H    9.289640   4.876382   4.372492   3.339183   2.549534
    25  H    2.698532   2.625911   4.611775   6.444511   4.366069
    26  H    2.656027   2.582752   4.324156   6.212542   5.145106
    27  H    2.087296   4.479986   4.941252   7.178673   6.139923
    28  H    2.171883   4.507442   5.161458   7.353178   5.481835
    29  H    1.019599   5.087638   6.757799   8.801617   6.765554
    30  H    1.018255   5.903754   7.058768   9.244211   7.636321
                   21         22         23         24         25
    21  H    0.000000
    22  H    3.037752   0.000000
    23  H    5.345190   4.187834   0.000000
    24  H    3.729081   4.196701   2.549686   0.000000
    25  H    4.419930   7.182505   9.049262   6.755006   0.000000
    26  H    5.004060   7.277770   9.435406   7.329249   1.754229
    27  H    5.286025   7.323857  10.358888   8.513543   3.063342
    28  H    4.694107   7.179305   9.979087   8.004533   2.531167
    29  H    6.512149   9.209599  11.491116   9.238808   2.558661
    30  H    7.046633   9.440861  12.203362  10.125744   3.654609
                   26         27         28         29         30
    26  H    0.000000
    27  H    2.488190   0.000000
    28  H    3.061733   1.757125   0.000000
    29  H    3.073721   2.933365   2.428713   0.000000
    30  H    3.569529   2.341761   2.489605   1.625092   0.000000
 Symmetry turned off by external request.
 Stoichiometry    C9H14N4O3
 Framework group  C1[X(C9H14N4O3)]
 Deg. of freedom    84
 Full point group                 C1      NOp   1
 Rotational constants (GHZ):      1.2195329      0.2230253      0.2012094
 Standard basis: 6-31G(d) (6D, 7F)
   268 basis functions,   504 primitive gaussians,   268 cartesian basis functions
    60 alpha electrons       60 beta electrons
       nuclear repulsion energy      1104.2550078889 Hartrees.
 NAtoms=   30 NActive=   30 NUniq=   30 SFac= 1.00D+00 NAtFMM=   60 NAOKFM=F Big=F
 Integral buffers will be    131072 words long.
 Raffenetti 2 integral format.
 Two-electron integral symmetry is turned off.
 Nuclear repulsion after empirical dispersion term =     1104.2005492894 Hartrees.
 One-electron integrals computed using PRISM.
 NBasis=   268 RedAO= T EigKep=  1.21D-03  NBF=   268
 NBsUse=   268 1.00D-06 EigRej= -1.00D+00 NBFU=   268
 Initial guess from the checkpoint file:  "conf-801.chk"
 B after Tr=    -0.018235    0.051910    0.015856
         Rot=    0.999820    0.018309   -0.004886    0.000253 Ang=   2.17 deg.
 ExpMin= 1.61D-01 ExpMax= 5.48D+03 ExpMxC= 8.25D+02 IAcc=2 IRadAn=         4 AccDes= 0.00D+00
 Harris functional with IExCor=  402 and IRadAn=       4 diagonalized for initial guess.
 HarFok:  IExCor=  402 AccDes= 0.00D+00 IRadAn=         4 IDoV= 1 UseB2=F ITyADJ=14
 ICtDFT=  3500011 ScaDFX=  1.000000  1.000000  1.000000  1.000000
 FoFCou: FMM=F IPFlag=           0 FMFlag=      100000 FMFlg1=           0
         NFxFlg=           0 DoJE=T BraDBF=F KetDBF=T FulRan=T
[...]
 226992,-0.00631316,-0.00876383,0.00005814,-0.00433812,-0.40848646,0.13
 642715,0.00003674,0.00000902,-0.00002703,-0.00001955,0.00003072,0.0000
 5224,0.00003472,-0.00001158,-0.00001971,-0.00002717,0.00004284,0.00003
 874,0.00002166,-0.00002590,0.00001044,-0.00023495,-0.00042555,0.000048
 47,-0.00040463,0.00016700,0.00011127,0.00025508,0.00006575,0.00007909,
 0.00027694,0.00010638,0.00057886,0.00029217,0.00008367,-0.00039888,0.0
 0361685,0.42475917,0.00001173,0.00002517,-0.00014649,-0.00006747,-0.00
 005491,0.00017143,-0.00001602,0.00006180,-0.00031598,-0.00014357,-0.00
 018221,0.00024666,-0.00153860,-0.00011767,0.00051238,0.00116277,0.0005
 5817,-0.00010935,0.00043435,0.00014000,-0.00016707,0.00006898,-0.00073
 563,-0.00190141,-0.00181256,0.00060815,-0.00730211,-0.00006182,0.00077
 279,0.00161209,0.00002303,0.00213929,0.00619830,0.00182916,-0.00127426
 ,-0.00849843,0.00201471,0.13790497,-0.05105500,0.00000942,0.00000074,-
 0.00000305,0.00001371,0.00002612,0.00003275,-0.00000669,-0.00001237,-0
 .00002443,-0.00013172,-0.00003654,0.00010334,-0.00000016,-0.00005842,-
 0.00011019,-0.00018578,-0.00055998,0.00061602,0.00020557,-0.00001075,0
 .00050042,0.00021673,0.00017546,0.00006619,0.00004800,0.00061323,0.001
 98901,-0.00010851,-0.00037181,-0.00100249,-0.00196379,-0.13961024,0.05
 859401,-0.00791764,0.00156304,-0.00325680,0.00632526,0.02592506,-0.020
 77048,-0.00055617,-0.00161554,0.00082457,0.00051714,-0.00020086,-0.000
 20554,0.00000553,0.00002775,-0.00007944,0.00011111,-0.00004920,-0.0000
 0865,0.00005991,-0.00009382,0.00010019,-0.00000732,-0.00002958,-0.0000
 3997,0.00001823,0.00000062,0.00002690,0.00001385,0.00002114,-0.0000008
 3,-0.00001420,-0.00001113,0.00000784,-0.00001604,0.00000442,-0.0000066
 4,-0.00001198,-0.00000374,0.00001244,-0.05088621,-0.00489196,0.0063732
 9,-0.00090734,-0.01543037,0.01181983,0.00146164,-0.00060221,-0.0004887
 6,-0.00146976,0.00076800,0.00057529,0.00017313,0.00002417,-0.00014213,
 -0.00000836,0.00000976,-0.00002974,-0.00003647,-0.00002874,0.00003237,
 0.00013267,0.00014342,0.00009019,0.00000728,-0.00001188,0.00000043,-0.
 00000154,-0.00000131,-0.00000254,-0.00000111,0.00000478,-0.00000315,0.
 05481925,0.00309686,0.00102970,0.00038923,-0.00604867,-0.00836536,0.00
 609119,-0.00006685,0.00119432,-0.00080961,0.00015493,0.00036355,-0.000
 24782,0.00017179,-0.00018416,0.00035073,-0.00009235,0.00007751,-0.0000
 8843,-0.00013452,0.00011966,-0.00025975,0.00003528,0.00001017,0.000049
 11,-0.00002938,0.00001223,-0.00002960,-0.00001951,-0.00002121,-0.00000
 773,0.00003170,0.00001326,-0.00001339,0.00002046,-0.00001123,0.0000102
 8,0.00001523,0.00000132,-0.00001533,-0.00169830,-0.20623167,0.12266711
 ,0.00050358,0.00722235,-0.00574890,-0.00101649,0.00070350,-0.00024569,
 0.00115591,-0.00007395,-0.00064818,-0.00019063,0.00007203,0.00001390,-
 0.00000695,0.00000101,0.00004287,0.00002185,0.00001495,-0.00001109,-0.
 00009948,-0.00007848,-0.00008103,-0.00000786,0.00001061,0.00000428,0.0
 0000304,0.00000131,0.00000346,-0.00000400,-0.00000612,0.00001060,0.003
 55663,0.22144076,-0.00254788,0.00104087,0.00130835,0.00172738,0.005450
 49,-0.00812546,0.00124055,-0.00125208,0.00025209,-0.00048234,-0.000426
 84,0.00003933,-0.00009096,0.00004834,-0.00000266,0.00004585,-0.0000157
 5,-0.00000443,0.00002740,-0.00005516,-0.00000214,-0.00005072,0.0000538
 7,-0.00004006,-0.00001347,-0.00001735,0.00001065,0.00001299,0.00001915
 ,-0.00000371,0.00001066,-0.00001463,0.00001202,-0.00000609,0.00000387,
 -0.00000391,-0.00000994,-0.00001354,0.00000892,0.00392870,0.12313133,-
 0.14613531,0.00043605,0.02365658,-0.01841657,-0.00127299,-0.00040381,0
 .00151766,0.00024344,0.00031613,0.00094751,0.00021873,-0.00009608,-0.0
 0001243,-0.00001301,0.00000794,-0.00000751,-0.00003323,-0.00001824,0.0
 0001529,0.00003752,0.00005380,0.00002981,0.00000255,-0.00000341,-0.000
 00577,-0.00000043,-0.00000040,-0.00000160,-0.00000902,0.00000458,-0.00
 000317,-0.00706129,-0.13647380,0.16070182,0.00039088,0.00350250,0.0018
 1310,-0.01547729,-0.02608787,-0.01567146,-0.00161612,0.00232057,0.0005
 5207,-0.00002791,0.00106904,0.00107335,-0.00012837,0.00025407,-0.00049
 529,-0.00020855,-0.00000403,0.00020016,0.00003114,-0.00001521,0.000244
 60,0.00023995,-0.00002617,0.00009791,0.00006265,-0.00000772,0.00000609
 ,0.00000153,-0.00001984,0.00001051,-0.00004195,0.00000511,-0.00000328,
 -0.00001939,0.00001047,-0.00000168,0.00000495,0.00002042,-0.00001329,-
 0.10308871,-0.09467192,-0.06049348,0.00817703,0.01423367,0.00932929,0.
 00137406,-0.00007493,-0.00039641,-0.00046588,-0.00065377,-0.00032691,-
 0.00029869,-0.00001958,0.00004972,0.00006224,-0.00003868,0.00000820,0.
 00000984,-0.00000600,-0.00001201,0.00001676,-0.00000776,0.00000525,0.0
 0000283,-0.00000713,0.00000149,-0.00000232,0.00000087,0.00000074,0.000
 01235,0.00000740,-0.00000060,0.00021436,0.00031551,0.00037984,0.111952
 01,0.00037306,-0.00193342,-0.00014823,0.00373457,0.01002468,0.00676999
 ,0.00021142,0.00029411,-0.00059085,-0.00013302,-0.00019698,-0.00030033
 ,-0.00002834,-0.00005801,0.00006291,0.00008981,-0.00000879,-0.00003500
 ,0.00004725,0.00003530,-0.00000794,-0.00002988,-0.00003197,-0.00000172
 ,-0.00001727,0.00001753,0.00000340,-0.00000703,0.00000601,0.00000284,0
 .00001293,0.00000617,0.00000053,0.00001288,-0.00000743,0.00000017,0.00
 000151,-0.00000257,0.00000728,-0.08918402,-0.19464569,-0.08933316,-0.0
 0372767,-0.00639688,-0.00493327,-0.00039560,0.00032211,0.00135147,0.00
 010983,-0.00042057,-0.00028599,-0.00001903,0.00002424,-0.00000356,-0.0
 0002183,0.00000555,-0.00001819,0.00001771,0.00001483,-0.00001166,-0.00
 002798,-0.00002290,-0.00001518,-0.00000232,0.00000338,-0.00000320,0.00
 000112,-0.00000059,-0.00000102,-0.00000076,-0.00000835,-0.00000407,-0.
 01203474,-0.01942557,-0.01213059,0.09935574,0.21011865,-0.00043205,0.0
 0201394,0.00065447,-0.00324512,-0.00486895,-0.00436879,0.00073191,-0.0
 0009874,-0.00021231,-0.00029390,-0.00025963,-0.00006110,-0.00000292,-0
 .00001391,0.00007299,0.00001729,0.00001154,-0.00002446,-0.00001158,-0.
 00001699,-0.00005715,0.00004086,0.00000730,-0.00003115,-0.00000588,0.0
 0000191,0.00001675,0.00000077,0.00000100,0.00000059,0.00000686,0.00000
 163,0.00000168,0.00000369,-0.00000327,-0.00000133,0.00000330,0.0000025
 4,0.00000319,-0.05779421,-0.09022945,-0.10192553,-0.01255055,-0.024520
 84,-0.01781078,-0.00119157,0.00166221,0.00256382,0.00008342,0.00036031
 ,0.00020520,0.00012177,-0.00007872,-0.00000850,-0.00001046,0.00000003,
 0.00000107,-0.00001146,0.00000039,-0.00000728,0.00000968,-0.00000805,-
 0.00000270,0.00000033,-0.00000064,-0.00000255,0.00000078,-0.00000037,-
 0.00000108,-0.00000204,-0.00000205,-0.00000205,0.01040267,0.01568458,0
 .01048032,0.06149639,0.10077572,0.11375125,-0.00059017,0.00126281,-0.0
 0177347,0.00046433,-0.00263905,0.00302481,0.00050794,0.00085553,-0.001
 20009,-0.00022816,0.00008765,-0.00010670,-0.00003404,-0.00001426,0.000
 16261,0.00003801,-0.00000260,-0.00004903,0.00002207,0.00003580,-0.0001
 3255,0.00000643,-0.00000490,0.00002840,-0.00002725,0.00001390,-0.00000
 237,-0.00001571,-0.00000435,-0.00000250,0.00003148,0.00000926,-0.00000
 570,0.00001958,-0.00001046,0.00000439,0.00000715,-0.00000167,0.0000008
 0,-0.00006874,-0.01464212,0.01125102,-0.04923836,-0.00277925,0.0002589
 6,-0.00590091,0.02970713,-0.02516873,0.00040881,-0.00011297,-0.0001052
 8,-0.00005618,0.00000283,0.00005254,-0.00001892,0.00000516,0.00000944,
 0.00002386,0.00001382,-0.00001817,-0.00005513,-0.00006066,-0.00003521,
 -0.00000618,0.00001054,-0.00000050,0.00000241,0.00000062,0.00000031,-0
 .00000535,-0.00000958,0.00000133,-0.00219569,0.00154425,0.00329479,0.0
 0071682,0.00042298,-0.00077091,0.06059585,0.00129918,-0.00045495,-0.00
 150721,0.00091770,-0.00041188,0.00142754,-0.00015957,0.00013218,0.0000
 9003,0.00003721,-0.00008541,0.00004122,0.00000813,-0.00000351,-0.00000
 497,-0.00002553,0.00001008,0.00000597,-0.00001405,0.00001121,-0.000004
 89,-0.00000634,-0.00002035,0.00000832,0.00000574,-0.00000078,-0.000003
 09,-0.00000329,-0.00000723,-0.00000049,-0.00000756,0.00000565,-0.00000
 605,0.00000107,-0.00000123,0.00000210,0.00000166,0.00000730,-0.0000052
 0,-0.00145944,0.00692588,-0.00517061,0.00045420,-0.22272819,0.12873320
 ,0.00334258,-0.00293589,0.00345834,-0.00016131,0.00009582,-0.00005001,
 -0.00000004,0.00000926,0.00000733,0.00000627,-0.00000269,0.00000780,0.
 00000880,0.00000619,-0.00000712,0.00000080,-0.00000773,0.00001382,0.00
 000012,0.00000191,0.00000377,-0.00000010,0.00000036,0.00000093,0.00000
 408,-0.00000142,0.00000241,0.00167042,0.00084520,-0.00193542,-0.000433
 06,0.00112985,0.00016309,-0.00550346,0.23688477,-0.00147781,-0.0012360
 8,0.00191683,-0.00114473,0.00219758,-0.00220117,0.00000490,-0.00024615
 ,0.00041856,0.00003480,-0.00000164,0.00007004,-0.00004136,0.00003406,-
 0.00009811,0.00002580,-0.00002165,0.00001980,0.00002984,-0.00004056,0.
 00008094,0.00001156,-0.00002392,-0.00000778,0.00001461,0.00000436,0.00
 001001,0.00000671,0.00000795,-0.00000133,-0.00000840,-0.00000621,0.000
 00262,-0.00000554,0.00000389,-0.00000267,-0.00000365,-0.00000534,0.000
 00503,0.00285350,0.02211362,-0.01972475,-0.00390063,0.12597401,-0.1472
 6436,-0.00176816,0.00560683,-0.00494381,-0.00027684,0.00004734,0.00017
 981,0.00004427,-0.00002766,-0.00000010,0.00000396,0.00000333,-0.000008
 34,-0.00000895,-0.00000479,0.00000028,0.00003462,0.00002790,0.00002672
 ,0.00000298,-0.00000227,0.00000121,-0.00000087,-0.00000064,-0.00000074
 ,0.00000108,0.00000254,-0.00000228,0.00303212,-0.00174297,-0.00405967,
 -0.00083194,0.00030381,0.00103514,0.00463445,-0.13944722,0.16195755,0.
 00000493,0.00000138,-0.00021228,0.00157414,0.00032689,0.00030288,-0.00
 019581,-0.00024409,0.00001623,0.00011399,-0.00000554,0.00003941,0.0000
 6773,-0.00001392,-0.00004240,-0.00004961,0.00001870,0.00002241,-0.0000
 3417,0.00000622,0.00002902,-0.00000714,-0.00000789,-0.00001628,0.00001
 603,-0.00000846,-0.00000137,0.00000209,-0.00000549,0.00000575,-0.00002
 194,0.00000762,-0.00000013,-0.00000082,-0.00000204,0.00000003,-0.00000
 278,0.00001429,-0.00000092,0.00750287,0.01417530,0.00909808,-0.0886336
 4,-0.07522924,-0.04433574,-0.03038317,-0.02087909,-0.02021309,0.000036
 94,0.00000701,-0.00004997,-0.00000439,0.00002051,-0.00000744,0.0000116
 5,-0.00000726,-0.00000364,0.00000869,0.00000537,-0.00000549,0.00000814
 ,-0.00000758,0.00000489,0.00000198,-0.00000453,-0.00000023,-0.00000092
 ,-0.00000059,-0.00000064,0.00000910,0.00000025,-0.00000553,0.00040531,
 -0.00045747,-0.00081704,-0.00202596,0.00130884,0.00372668,0.00111113,-
 0.00148231,0.00000218,0.10798714,0.00082070,0.00038215,0.00127198,-0.0
 0156019,0.00033253,-0.00175283,0.00075181,-0.00002417,0.00006506,-0.00
 009702,-0.00000530,-0.00006645,-0.00003605,0.00003192,-0.00001089,0.00
 007927,-0.00001988,0.00000281,0.00005801,-0.00001176,0.00003967,0.0000
 4193,-0.00002816,-0.00005281,0.00001045,0.00001419,0.00004725,-0.00000
 717,0.00000177,0.00001812,-0.00001026,0.00001465,0.00000563,0.00000938
 ,-0.00000759,-0.00000687,0.00000125,0.00002111,0.00001676,-0.00249109,
 -0.00618642,-0.00263850,-0.07217462,-0.19644628,-0.08229411,0.00272339
 ,0.01177596,0.00399036,-0.00013084,-0.00011584,0.00001209,0.00002933,-
 0.00000043,-0.00000304,-0.00002342,-0.00000807,-0.00003979,0.00002556,
 0.00002115,-0.00002586,0.00001566,-0.00006021,-0.00000450,-0.00000073,
 -0.00000282,-0.00001031,0.00000019,-0.00000128,-0.00000502,0.00000688,
 -0.00000899,-0.00001702,0.00048139,0.00104758,-0.00017611,0.00106599,0
 .00109396,-0.00118033,-0.01096089,-0.02077317,-0.01323099,0.08268502,0
 .20607975,0.00039072,-0.00034367,0.00103053,-0.00225782,0.00029411,-0.
 00136561,0.00079398,0.00040075,0.00015912,-0.00010042,0.00003057,-0.00
 009781,-0.00004651,0.00001140,0.00000774,0.00007182,-0.00001639,-0.000
 00632,0.00005836,0.00001406,0.00002388,0.00003208,-0.00004633,-0.00002
 019,0.00000767,0.00001655,0.00003951,-0.00000813,0.00000315,0.00001209
 ,-0.00000434,0.00001448,0.00000057,0.00001219,-0.00000978,-0.00000338,
 0.00000021,0.00001427,0.00001053,-0.00833093,-0.02424965,-0.01466589,-
 0.04277834,-0.08208655,-0.10469853,-0.00972154,-0.00360134,-0.00130576
 ,-0.00012229,-0.00022253,-0.00002848,0.00001565,-0.00000001,-0.0000016
 0,-0.00002186,-0.00000576,-0.00003027,0.00002757,0.00002225,-0.0000247
 8,0.00000753,-0.00004320,0.00000812,-0.00000052,0.00000078,-0.00000697
 ,0.00000046,-0.00000096,-0.00000315,0.00000624,-0.00001047,-0.00000993
 ,-0.00100636,0.00059797,0.00118486,0.00308258,-0.00150084,-0.00429790,
 0.00833482,0.01496006,0.01081874,0.05144585,0.09534910,0.11283243,-0.0
 0012760,-0.00025582,0.00087503,-0.00072543,0.00020496,-0.00084143,0.00
 015936,-0.00016109,0.00009739,-0.00006796,0.00004056,-0.00002250,-0.00
 007989,0.00003350,0.00003622,0.00007292,-0.00003013,-0.00002042,0.0000
 4662,-0.00002631,-0.00001655,0.00001743,0.00000582,-0.00000633,-0.0000
 1316,0.00000888,0.00000596,-0.00000125,0.00000993,-0.00000382,0.000024
 58,-0.00000685,0.00000354,0.00000277,-0.00000045,-0.00000125,0.0000022
 0,-0.00001360,0.00000720,0.00178158,0.00055391,-0.00131905,-0.00468139
 ,0.03718271,-0.02267786,-0.05607579,0.01472572,0.01242076,-0.00006242,
 0.00003941,0.00008716,0.00002214,-0.00001613,0.00000409,-0.00001552,0.
 00000826,-0.00000473,-0.00000931,-0.00000529,0.00000456,-0.00000247,0.
 00000250,-0.00000807,-0.00000155,0.00000298,-0.00000204,0.00000121,-0.
 00000007,-0.00000067,-0.00001027,-0.00000175,0.00000022,-0.00042288,-0
 .00046875,0.00104658,-0.00011015,-0.00017246,0.00001997,-0.00707825,0.
 00107901,-0.00119739,0.00171868,-0.00036280,-0.00013952,0.06398274,-0.
 00019689,0.00030549,-0.00062583,0.00062836,-0.00007203,0.00038482,-0.0
 0000638,-0.00001435,-0.00008180,0.00001403,0.00001652,-0.00001808,0.00
 002563,-0.00003250,0.00007381,-0.00001777,0.00001060,-0.00002455,-0.00
 002475,0.00001936,-0.00006068,-0.00000190,0.00000569,0.00000629,-0.000
 00637,-0.00000256,-0.00000675,-0.00000265,-0.00000505,-0.00000538,0.00
 000809,-0.00000069,-0.00000442,-0.00000013,-0.00000003,0.00000263,0.00
 000163,-0.00000225,-0.00000657,-0.00016660,-0.00023692,0.00030466,-0.0
 0671906,-0.00789074,-0.00097319,0.03264588,-0.32006009,0.19243315,0.00
 005075,0.00000239,0.00001766,-0.00000571,0.00000132,-0.00000115,0.0000
 0126,0.00000291,0.00001660,-0.00000423,-0.00000303,0.00000591,-0.00000
 480,0.00000685,-0.00000040,-0.00000113,0.00000223,0.00000345,0.0000004
 1,0.00000083,0.00000158,-0.00000283,0.00000166,0.00000729,0.00076570,0
 .00005725,-0.00054884,0.00002793,-0.00027869,0.00010474,0.00227427,0.0
 0155942,-0.00020555,0.00006426,0.00250413,-0.00047062,-0.02932557,0.32
 295535,-0.00011389,0.00009586,-0.00026496,0.00020535,0.00007453,0.0000
 3011,-0.00006420,-0.00005159,-0.00005442,0.00005014,0.00001354,0.00000
 353,0.00005464,-0.00004762,0.00006230,-0.00004975,0.00002108,-0.000019
 88,-0.00004737,0.00002586,-0.00005808,-0.00000359,0.00001337,0.0000090
 4,-0.00000195,-0.00000443,-0.00001367,0.00000172,-0.00000563,-0.000007
 78,0.00000095,-0.00000442,-0.00000473,-0.00000463,0.00000326,0.0000030
 1,0.00000024,-0.00000524,-0.00001035,0.00010066,-0.00143250,0.00150006
 ,-0.00439355,0.00967050,-0.00716406,0.00579669,0.13937511,-0.11867813,
 0.00007706,0.00001029,0.00002416,-0.00000762,0.00000145,-0.00000461,0.
 00000939,0.00000283,0.00002334,-0.00000780,-0.00000604,0.00001051,-0.0
 0000051,0.00001518,-0.00000002,0.00000017,0.00000067,0.00000500,-0.000
 00022,0.00000085,0.00000260,-0.00000117,0.00000558,0.00001061,0.000097
 11,0.00063328,0.00012942,-0.00006649,-0.00025626,-0.00003623,-0.001973
 67,-0.00069478,0.00101947,0.00163133,0.00022298,0.00003740,0.00138029,
 -0.18117881,0.14198832,0.00003650,0.00000752,-0.00061029,0.00026631,-0
 .00000076,0.00263405,-0.00073736,0.00019176,-0.00023356,0.00001534,-0.
 00016854,0.00010025,-0.00000212,0.00001146,-0.00008797,-0.00005321,0.0
 0001361,0.00003269,-0.00002015,-0.00001124,0.00003480,-0.00004128,0.00
 003179,0.00001829,0.00000056,-0.00001662,-0.00002107,0.00000334,-0.000
 00838,-0.00000331,-0.00000865,-0.00000593,-0.00000278,-0.00001243,0.00
 000835,0.00000151,-0.00000046,-0.00000046,-0.00001065,-0.00666666,0.00
 153082,-0.00418960,-0.02244313,0.00533763,0.03383856,-0.14423730,0.030
 44374,0.15052425,0.00002198,0.00007938,-0.00004287,-0.00000319,0.00000
 539,-0.00000747,0.00001719,-0.00000315,0.00001361,-0.00000711,-0.00000
 771,0.00000809,0.00000639,0.00001748,0.00001196,0.00000042,-0.00000019
 ,0.00000479,-0.00000108,0.00000135,0.00000220,0.00000005,0.00000659,0.
 00000628,0.00018805,-0.00028580,-0.00024462,0.00024189,0.00010231,-0.0
 0034370,0.00156319,0.00041910,-0.00007113,0.00077981,-0.00095115,0.000
 25087,0.00165308,-0.00002143,-0.00266936,0.16944004,0.00014700,-0.0003
 5839,0.00035325,-0.00018542,0.00094162,-0.00138429,0.00090809,-0.00022
 048,0.00010693,-0.00010681,0.00014229,-0.00016826,-0.00012212,0.000032
 01,0.00016230,0.00016050,-0.00006018,-0.00007199,0.00008456,-0.0000175
 8,-0.00007695,0.00003748,-0.00001883,-0.00001284,-0.00002775,0.0000310
 5,0.00001831,-0.00000502,0.00002364,-0.00000797,0.00005083,-0.00001145
 ,0.00000688,0.00001469,-0.00000439,-0.00000220,0.00000240,-0.00003095,
 0.00001736,0.00362429,-0.00086994,0.00092254,-0.00227625,-0.00321073,-
 0.00945501,0.05745734,-0.04076723,-0.04172792,-0.00005942,-0.00004618,
 0.00011199,0.00002282,-0.00002263,0.00001753,-0.00003953,0.00002065,-0
 .00001270,-0.00000449,-0.00000256,0.00000400,-0.00002332,-0.00000547,-
 0.00002219,-0.00000398,0.00000788,-0.00000549,0.00000249,-0.00000066,-
 0.00000177,-0.00001703,-0.00000630,-0.00000031,0.00003879,0.00015949,-
 0.00020488,-0.00011564,0.00034205,0.00049102,0.00049967,-0.00019067,-0
 .00008355,-0.00028616,0.00037951,0.00087856,-0.02305108,0.00114695,0.0
 3350110,-0.03672694,0.04261750,0.00019207,-0.00017802,0.00019596,-0.00
 054391,0.00046850,0.00010153,0.00018949,-0.00005970,-0.00005214,-0.000
 10270,0.00000257,-0.00007137,-0.00005924,0.00001534,0.00005374,0.00006
 422,-0.00002132,-0.00002383,0.00003974,-0.00000878,-0.00002644,0.00000
 358,-0.00000107,0.00000202,-0.00001394,0.00000785,0.00000348,-0.000004
 60,0.00000560,-0.00000229,0.00002096,-0.00000166,0.00000070,0.00000581
 ,-0.00000251,-0.00000008,0.00000260,-0.00000792,0.00000498,-0.00038992
 ,-0.00017699,0.00070976,-0.01351336,-0.00121556,0.00782137,0.18347695,
 -0.00689513,-0.31160158,-0.00001346,0.00001774,0.00002471,0.00000930,-
 0.00000811,0.00001175,-0.00001597,0.00000650,-0.00000421,0.00000007,0.
 00000083,-0.00000046,-0.00001067,-0.00000766,-0.00000918,-0.00000224,0
 .00000441,-0.00000128,0.00000120,0.00000015,-0.00000041,-0.00000710,-0
 .00000405,0.00000021,-0.00029295,-0.00012527,0.00018634,-0.00003844,0.
 00030294,0.00006443,0.00028621,-0.00008886,0.00075233,-0.00061255,0.00
 047362,0.00040108,0.01027265,-0.00914996,-0.01854197,-0.17894381,0.016
 64654,0.32000082\\-0.00000262,0.00000222,0.00000013,0.00000025,-0.0000
 0228,-0.00000189,0.00000009,0.00000075,-0.00000065,-0.00000347,0.00000
 299,-0.00000118,0.00000001,-0.00000085,-0.00000157,0.00000136,0.000000
 11,0.00000050,0.00000069,-0.00000109,0.00000176,0.00000200,-0.00000040
 ,0.00000111,0.00000137,0.00000097,0.00000072,0.00000125,0.00000115,0.0
 0000018,-0.00000049,0.00000047,-0.00000015,-0.00000164,0.00000042,0.00
 000054,0.00000084,-0.00000032,0.00000083,0.00000029,-0.00000308,-0.000
 00196,0.00000153,0.00000250,0.00000032,0.00000016,-0.00000069,-0.00000
 002,0.00000032,-0.00000137,0.00000003,0.00000078,-0.00000011,0.0000005
 0,-0.00000107,-0.00000059,-0.00000022,-0.00000069,-0.00000040,0.000000
 20,0.00000078,-0.00000004,-0.00000015,-0.00000013,0.00000019,-0.000000
 32,-0.00000029,0.,0.00000049,-0.00000082,-0.00000066,-0.00000070,-0.00
 000046,0.00000072,0.00000063,0.00000073,0.00000106,0.00000056,-0.00000
 067,-0.00000048,0.00000087,-0.00000050,-0.00000066,0.00000007,0.000000
 20,-0.00000057,-0.00000017,0.00000020,0.00000002,-0.00000046\\\@


 QED = W**5 (WHICH WAS WHAT WE WANTED)
 Job cpu time:       0 days  0 hours 57 minutes 59.0 seconds.
 File lengths (MBytes):  RWF=    260 Int=      0 D2E=      0 Chk=      8 Scr=      1
 Normal termination of Gaussian 09 at Tue Jul 27 02:15:41 2021.
