 Entering Gaussian System, Link 0=g09
 Input=opt_freq-conf-422.com
 Output=opt_freq-conf-422.log
 Initial command:
 /aerosol/software/g09/l1.exe "/scratch/nicole/10538/Gau-86024.inp" -scrdir="/scratch/nicole/10538/"
 Entering Link 1 = /aerosol/software/g09/l1.exe PID=     86029.
  
 Copyright (c) 1988,1990,1992,1993,1995,1998,2003,2009,2013,
            Gaussian, Inc.  All Rights Reserved.
  
 This is part of the Gaussian(R) 09 program.  It is based on
 the Gaussian(R) 03 system (copyright 2003, Gaussian, Inc.),
 the Gaussian(R) 98 system (copyright 1998, Gaussian, Inc.),
 the Gaussian(R) 94 system (copyright 1995, Gaussian, Inc.),
 the Gaussian 92(TM) system (copyright 1992, Gaussian, Inc.),
 the Gaussian 90(TM) system (copyright 1990, Gaussian, Inc.),
 the Gaussian 88(TM) system (copyright 1988, Gaussian, Inc.),
 the Gaussian 86(TM) system (copyright 1986, Carnegie Mellon
 University), and the Gaussian 82(TM) system (copyright 1983,
 Carnegie Mellon University). Gaussian is a federally registered
 trademark of Gaussian, Inc.
  
 This software contains proprietary and confidential information,
 including trade secrets, belonging to Gaussian, Inc.
  
 This software is provided under written license and may be
 used, copied, transmitted, or stored only in accord with that
 written license.
  
 The following legend is applicable only to US Government
 contracts under FAR:
  
                    RESTRICTED RIGHTS LEGEND
  
 Use, reproduction and disclosure by the US Government is
 subject to restrictions as set forth in subparagraphs (a)
 and (c) of the Commercial Computer Software - Restricted
 Rights clause in FAR 52.227-19.
  
 Gaussian, Inc.
 340 Quinnipiac St., Bldg. 40, Wallingford CT 06492
  
  
 ---------------------------------------------------------------
 Warning -- This program may not be used in any manner that
 competes with the business of Gaussian, Inc. or will provide
 assistance to any competitor of Gaussian, Inc.  The licensee
 of this program is prohibited from giving any competitor of
 Gaussian, Inc. access to this program.  By using this program,
 the user acknowledges that Gaussian, Inc. is engaged in the
 business of creating and licensing software in the field of
 computational chemistry and represents and warrants to the
 licensee that it is not a competitor of Gaussian, Inc. and that
 it will not use this program in any manner prohibited above.
 ---------------------------------------------------------------
  

 Cite this work as:
 Gaussian 09, Revision D.01,
 M. J. Frisch, G. W. Trucks, H. B. Schlegel, G. E. Scuseria, 
 M. A. Robb, J. R. Cheeseman, G. Scalmani, V. Barone, B. Mennucci, 
 G. A. Petersson, H. Nakatsuji, M. Caricato, X. Li, H. P. Hratchian, 
 A. F. Izmaylov, J. Bloino, G. Zheng, J. L. Sonnenberg, M. Hada, 
 M. Ehara, K. Toyota, R. Fukuda, J. Hasegawa, M. Ishida, T. Nakajima, 
 Y. Honda, O. Kitao, H. Nakai, T. Vreven, J. A. Montgomery, Jr., 
 J. E. Peralta, F. Ogliaro, M. Bearpark, J. J. Heyd, E. Brothers, 
 K. N. Kudin, V. N. Staroverov, T. Keith, R. Kobayashi, J. Normand, 
 K. Raghavachari, A. Rendell, J. C. Burant, S. S. Iyengar, J. Tomasi, 
 M. Cossi, N. Rega, J. M. Millam, M. Klene, J. E. Knox, J. B. Cross, 
 V. Bakken, C. Adamo, J. Jaramillo, R. Gomperts, R. E. Stratmann, 
 O. Yazyev, A. J. Austin, R. Cammi, C. Pomelli, J. W. Ochterski, 
 R. L. Martin, K. Morokuma, V. G. Zakrzewski, G. A. Voth, 
 P. Salvador, J. J. Dannenberg, S. Dapprich, A. D. Daniels, 
 O. Farkas, J. B. Foresman, J. V. Ortiz, J. Cioslowski, 
 and D. J. Fox, Gaussian, Inc., Wallingford CT, 2013.
 
 ******************************************
 Gaussian 09:  ES64L-G09RevD.01 24-Apr-2013
                27-Jul-2021 
 ******************************************
 %mem=2gb
 %nproc=4
 Will use up to    4 processors via shared memory.
 %chk=conf-422.chk
 ----------------------------------------------------------------------
 # B3LYP/6-31G(d) EmpiricalDispersion=GD3BJ opt=calcfc freq=noraman nos
 ymm integral(ultrafinegrid)
 ----------------------------------------------------------------------
 1/10=4,14=-1,18=20,19=15,26=4,38=1/1,3;
 2/9=110,12=2,15=1,17=6,18=5,40=1/2;
 3/5=1,6=6,7=1,11=2,16=1,25=1,30=1,71=2,74=-5,75=-5,124=41,140=1/1,2,3;
 4//1;
 5/5=2,38=5/2;
 8/6=4,10=90,11=11/1;
 11/6=1,8=1,9=11,15=111,16=1,31=1/1,2,10;
 10/6=1,13=1,31=1/2;
 6/7=2,8=2,9=2,10=2,28=1/1;
 7/10=1,18=20,25=1,30=1/1,2,3,16;
 1/10=4,14=-1,18=20,19=15,26=4/3(2);
 2/9=110,15=1/2;
 99//99;
 2/9=110,15=1/2;
 3/5=1,6=6,7=1,11=2,16=1,25=1,30=1,71=1,74=-5,75=-5,124=41/1,2,3;
 4/5=5,16=3,69=1/1;
 5/5=2,38=5/2;
 7/30=1/1,2,3,16;
 1/14=-1,18=20,19=15,26=4/3(-5);
 2/9=110,15=1/2;
 6/7=2,8=2,9=2,10=2,19=2,28=1/1;
 99/9=1/99;
 ------------------------------------------------------------
 Candidate Structure: Conf:422 OPT and FREQ calc in gas phase
 ------------------------------------------------------------
 Symbolic Z-matrix:
 Charge =  0 Multiplicity = 1
 O                     0.78587   0.73522   1.52987 
 C                     1.13924   0.16266   0.50415 
 N                     0.30312  -0.6476   -0.20788 
 C                    -0.93596  -1.13451   0.35649 
 C                    -0.81707  -2.6235    0.61379 
 O                    -1.7968   -3.06349   1.42956 
 O                     0.01444  -3.34827   0.13314 
 C                    -2.14447  -0.88748  -0.55894 
 C                    -2.4521    0.57028  -0.73406 
 C                    -1.92298   1.70746  -0.19576 
 N                    -2.57575   2.83084  -0.66942 
 C                    -3.49191   2.37231  -1.48728 
 N                    -3.46244   1.01624  -1.56355 
 C                     2.50615   0.36515  -0.11942 
 C                     3.56376   0.75402   0.90212 
 N                     4.8435    0.9524    0.2166 
 H                     0.71291  -1.23242  -0.92015 
 H                    -1.09373  -0.61786   1.30258 
 H                    -1.66124  -4.01486   1.51849 
 H                    -3.01463  -1.38629  -0.12674 
 H                    -1.97303  -1.34889  -1.5332 
 H                    -1.09974   1.7603    0.50126 
 H                    -4.19675   2.96499  -2.04443 
 H                    -4.06566   0.4341   -2.11923 
 H                     2.80637  -0.54103  -0.65153 
 H                     2.42751   1.16022  -0.8652 
 H                     3.59987  -0.00614   1.69242 
 H                     3.26508   1.69306   1.37245 
 H                     5.20434   0.0605   -0.10256 
 H                     5.53209   1.31249   0.86643 
 

 GradGradGradGradGradGradGradGradGradGradGradGradGradGradGradGradGradGrad
 Berny optimization.
 Initialization pass.
                           ----------------------------
                           !    Initial Parameters    !
                           ! (Angstroms and Degrees)  !
 --------------------------                            --------------------------
 ! Name  Definition              Value          Derivative Info.                !
 --------------------------------------------------------------------------------
 ! R1    R(1,2)                  1.2267         calculate D2E/DX2 analytically  !
 ! R2    R(2,3)                  1.3648         calculate D2E/DX2 analytically  !
 ! R3    R(2,14)                 1.516          calculate D2E/DX2 analytically  !
 ! R4    R(3,4)                  1.446          calculate D2E/DX2 analytically  !
 ! R5    R(3,17)                 1.0086         calculate D2E/DX2 analytically  !
 ! R6    R(4,5)                  1.5157         calculate D2E/DX2 analytically  !
 ! R7    R(4,8)                  1.5361         calculate D2E/DX2 analytically  !
 ! R8    R(4,18)                 1.0894         calculate D2E/DX2 analytically  !
 ! R9    R(5,6)                  1.3487         calculate D2E/DX2 analytically  !
 ! R10   R(5,7)                  1.2032         calculate D2E/DX2 analytically  !
 ! R11   R(6,19)                 0.9651         calculate D2E/DX2 analytically  !
 ! R12   R(8,9)                  1.5001         calculate D2E/DX2 analytically  !
 ! R13   R(8,20)                 1.0921         calculate D2E/DX2 analytically  !
 ! R14   R(8,21)                 1.0915         calculate D2E/DX2 analytically  !
 ! R15   R(9,10)                 1.3649         calculate D2E/DX2 analytically  !
 ! R16   R(9,13)                 1.3812         calculate D2E/DX2 analytically  !
 ! R17   R(10,11)                1.3829         calculate D2E/DX2 analytically  !
 ! R18   R(10,22)                1.08           calculate D2E/DX2 analytically  !
 ! R19   R(11,12)                1.3109         calculate D2E/DX2 analytically  !
 ! R20   R(12,13)                1.3585         calculate D2E/DX2 analytically  !
 ! R21   R(12,23)                1.0763         calculate D2E/DX2 analytically  !
 ! R22   R(13,24)                1.0058         calculate D2E/DX2 analytically  !
 ! R23   R(14,15)                1.521          calculate D2E/DX2 analytically  !
 ! R24   R(14,25)                1.0929         calculate D2E/DX2 analytically  !
 ! R25   R(14,26)                1.0929         calculate D2E/DX2 analytically  !
 ! R26   R(15,16)                1.4653         calculate D2E/DX2 analytically  !
 ! R27   R(15,27)                1.0971         calculate D2E/DX2 analytically  !
 ! R28   R(15,28)                1.0919         calculate D2E/DX2 analytically  !
 ! R29   R(16,29)                1.0137         calculate D2E/DX2 analytically  !
 ! R30   R(16,30)                1.013          calculate D2E/DX2 analytically  !
 ! A1    A(1,2,3)              122.4707         calculate D2E/DX2 analytically  !
 ! A2    A(1,2,14)             122.7738         calculate D2E/DX2 analytically  !
 ! A3    A(3,2,14)             114.6511         calculate D2E/DX2 analytically  !
 ! A4    A(2,3,4)              121.4169         calculate D2E/DX2 analytically  !
 ! A5    A(2,3,17)             117.6301         calculate D2E/DX2 analytically  !
 ! A6    A(4,3,17)             115.3752         calculate D2E/DX2 analytically  !
 ! A7    A(3,4,5)              109.2586         calculate D2E/DX2 analytically  !
 ! A8    A(3,4,8)              112.7937         calculate D2E/DX2 analytically  !
 ! A9    A(3,4,18)             107.659          calculate D2E/DX2 analytically  !
 ! A10   A(5,4,8)              108.7149         calculate D2E/DX2 analytically  !
 ! A11   A(5,4,18)             109.2572         calculate D2E/DX2 analytically  !
 ! A12   A(8,4,18)             109.1064         calculate D2E/DX2 analytically  !
 ! A13   A(4,5,6)              111.4804         calculate D2E/DX2 analytically  !
 ! A14   A(4,5,7)              125.3192         calculate D2E/DX2 analytically  !
 ! A15   A(6,5,7)              123.1704         calculate D2E/DX2 analytically  !
 ! A16   A(5,6,19)             105.9801         calculate D2E/DX2 analytically  !
 ! A17   A(4,8,9)              112.7792         calculate D2E/DX2 analytically  !
 ! A18   A(4,8,20)             108.5143         calculate D2E/DX2 analytically  !
 ! A19   A(4,8,21)             109.8992         calculate D2E/DX2 analytically  !
 ! A20   A(9,8,20)             109.065          calculate D2E/DX2 analytically  !
 ! A21   A(9,8,21)             109.8033         calculate D2E/DX2 analytically  !
 ! A22   A(20,8,21)            106.5766         calculate D2E/DX2 analytically  !
 ! A23   A(8,9,10)             133.1654         calculate D2E/DX2 analytically  !
 ! A24   A(8,9,13)             122.2672         calculate D2E/DX2 analytically  !
 ! A25   A(10,9,13)            104.5614         calculate D2E/DX2 analytically  !
 ! A26   A(9,10,11)            111.0225         calculate D2E/DX2 analytically  !
 ! A27   A(9,10,22)            126.2145         calculate D2E/DX2 analytically  !
 ! A28   A(11,10,22)           122.7606         calculate D2E/DX2 analytically  !
 ! A29   A(10,11,12)           105.0368         calculate D2E/DX2 analytically  !
 ! A30   A(11,12,13)           111.6547         calculate D2E/DX2 analytically  !
 ! A31   A(11,12,23)           126.0151         calculate D2E/DX2 analytically  !
 ! A32   A(13,12,23)           122.3301         calculate D2E/DX2 analytically  !
 ! A33   A(9,13,12)            107.7245         calculate D2E/DX2 analytically  !
 ! A34   A(9,13,24)            125.7077         calculate D2E/DX2 analytically  !
 ! A35   A(12,13,24)           126.5676         calculate D2E/DX2 analytically  !
 ! A36   A(2,14,15)            112.635          calculate D2E/DX2 analytically  !
 ! A37   A(2,14,25)            109.7065         calculate D2E/DX2 analytically  !
 ! A38   A(2,14,26)            108.2383         calculate D2E/DX2 analytically  !
 ! A39   A(15,14,25)           110.3638         calculate D2E/DX2 analytically  !
 ! A40   A(15,14,26)           108.8048         calculate D2E/DX2 analytically  !
 ! A41   A(25,14,26)           106.9003         calculate D2E/DX2 analytically  !
 ! A42   A(14,15,16)           109.1295         calculate D2E/DX2 analytically  !
 ! A43   A(14,15,27)           109.2413         calculate D2E/DX2 analytically  !
 ! A44   A(14,15,28)           108.6012         calculate D2E/DX2 analytically  !
 ! A45   A(16,15,27)           113.7074         calculate D2E/DX2 analytically  !
 ! A46   A(16,15,28)           108.9045         calculate D2E/DX2 analytically  !
 ! A47   A(27,15,28)           107.1327         calculate D2E/DX2 analytically  !
 ! A48   A(15,16,29)           109.8205         calculate D2E/DX2 analytically  !
 ! A49   A(15,16,30)           109.9805         calculate D2E/DX2 analytically  !
 ! A50   A(29,16,30)           105.8294         calculate D2E/DX2 analytically  !
 ! D1    D(1,2,3,4)            -14.8681         calculate D2E/DX2 analytically  !
 ! D2    D(1,2,3,17)          -167.3086         calculate D2E/DX2 analytically  !
 ! D3    D(14,2,3,4)           168.753          calculate D2E/DX2 analytically  !
 ! D4    D(14,2,3,17)           16.3125         calculate D2E/DX2 analytically  !
 ! D5    D(1,2,14,15)           27.4052         calculate D2E/DX2 analytically  !
 ! D6    D(1,2,14,25)          150.7604         calculate D2E/DX2 analytically  !
 ! D7    D(1,2,14,26)          -92.9343         calculate D2E/DX2 analytically  !
 ! D8    D(3,2,14,15)         -156.2282         calculate D2E/DX2 analytically  !
 ! D9    D(3,2,14,25)          -32.8731         calculate D2E/DX2 analytically  !
 ! D10   D(3,2,14,26)           83.4323         calculate D2E/DX2 analytically  !
 ! D11   D(2,3,4,5)           -109.934          calculate D2E/DX2 analytically  !
 ! D12   D(2,3,4,8)            129.0356         calculate D2E/DX2 analytically  !
 ! D13   D(2,3,4,18)             8.6119         calculate D2E/DX2 analytically  !
 ! D14   D(17,3,4,5)            43.0861         calculate D2E/DX2 analytically  !
 ! D15   D(17,3,4,8)           -77.9442         calculate D2E/DX2 analytically  !
 ! D16   D(17,3,4,18)          161.6321         calculate D2E/DX2 analytically  !
 ! D17   D(3,4,5,6)            164.7753         calculate D2E/DX2 analytically  !
 ! D18   D(3,4,5,7)            -17.1721         calculate D2E/DX2 analytically  !
 ! D19   D(8,4,5,6)            -71.7445         calculate D2E/DX2 analytically  !
 ! D20   D(8,4,5,7)            106.3081         calculate D2E/DX2 analytically  !
 ! D21   D(18,4,5,6)            47.2307         calculate D2E/DX2 analytically  !
 ! D22   D(18,4,5,7)          -134.7167         calculate D2E/DX2 analytically  !
 ! D23   D(3,4,8,9)            -65.9015         calculate D2E/DX2 analytically  !
 ! D24   D(3,4,8,20)           173.1523         calculate D2E/DX2 analytically  !
 ! D25   D(3,4,8,21)            56.9725         calculate D2E/DX2 analytically  !
 ! D26   D(5,4,8,9)            172.7591         calculate D2E/DX2 analytically  !
 ! D27   D(5,4,8,20)            51.8129         calculate D2E/DX2 analytically  !
 ! D28   D(5,4,8,21)           -64.3669         calculate D2E/DX2 analytically  !
 ! D29   D(18,4,8,9)            53.6893         calculate D2E/DX2 analytically  !
 ! D30   D(18,4,8,20)          -67.2569         calculate D2E/DX2 analytically  !
 ! D31   D(18,4,8,21)          176.5633         calculate D2E/DX2 analytically  !
 ! D32   D(4,5,6,19)           178.4285         calculate D2E/DX2 analytically  !
 ! D33   D(7,5,6,19)             0.3268         calculate D2E/DX2 analytically  !
 ! D34   D(4,8,9,10)            -3.9207         calculate D2E/DX2 analytically  !
 ! D35   D(4,8,9,13)           177.1137         calculate D2E/DX2 analytically  !
 ! D36   D(20,8,9,10)          116.711          calculate D2E/DX2 analytically  !
 ! D37   D(20,8,9,13)          -62.2546         calculate D2E/DX2 analytically  !
 ! D38   D(21,8,9,10)         -126.8482         calculate D2E/DX2 analytically  !
 ! D39   D(21,8,9,13)           54.1862         calculate D2E/DX2 analytically  !
 ! D40   D(8,9,10,11)         -179.1307         calculate D2E/DX2 analytically  !
 ! D41   D(8,9,10,22)            1.423          calculate D2E/DX2 analytically  !
 ! D42   D(13,9,10,11)          -0.0344         calculate D2E/DX2 analytically  !
 ! D43   D(13,9,10,22)        -179.4807         calculate D2E/DX2 analytically  !
 ! D44   D(8,9,13,12)          179.2645         calculate D2E/DX2 analytically  !
 ! D45   D(8,9,13,24)           -0.5735         calculate D2E/DX2 analytically  !
 ! D46   D(10,9,13,12)           0.044          calculate D2E/DX2 analytically  !
 ! D47   D(10,9,13,24)        -179.794          calculate D2E/DX2 analytically  !
 ! D48   D(9,10,11,12)           0.0111         calculate D2E/DX2 analytically  !
 ! D49   D(22,10,11,12)        179.4798         calculate D2E/DX2 analytically  !
 ! D50   D(10,11,12,13)          0.0182         calculate D2E/DX2 analytically  !
 ! D51   D(10,11,12,23)        179.9527         calculate D2E/DX2 analytically  !
 ! D52   D(11,12,13,9)          -0.0403         calculate D2E/DX2 analytically  !
 ! D53   D(11,12,13,24)        179.7959         calculate D2E/DX2 analytically  !
 ! D54   D(23,12,13,9)        -179.9776         calculate D2E/DX2 analytically  !
 ! D55   D(23,12,13,24)         -0.1414         calculate D2E/DX2 analytically  !
 ! D56   D(2,14,15,16)        -179.0201         calculate D2E/DX2 analytically  !
 ! D57   D(2,14,15,27)          56.1032         calculate D2E/DX2 analytically  !
 ! D58   D(2,14,15,28)         -60.4282         calculate D2E/DX2 analytically  !
 ! D59   D(25,14,15,16)         57.9915         calculate D2E/DX2 analytically  !
 ! D60   D(25,14,15,27)        -66.8853         calculate D2E/DX2 analytically  !
 ! D61   D(25,14,15,28)        176.5834         calculate D2E/DX2 analytically  !
 ! D62   D(26,14,15,16)        -59.007          calculate D2E/DX2 analytically  !
 ! D63   D(26,14,15,27)        176.1163         calculate D2E/DX2 analytically  !
 ! D64   D(26,14,15,28)         59.5849         calculate D2E/DX2 analytically  !
 ! D65   D(14,15,16,29)        -70.2728         calculate D2E/DX2 analytically  !
 ! D66   D(14,15,16,30)        173.651          calculate D2E/DX2 analytically  !
 ! D67   D(27,15,16,29)         51.9538         calculate D2E/DX2 analytically  !
 ! D68   D(27,15,16,30)        -64.1224         calculate D2E/DX2 analytically  !
 ! D69   D(28,15,16,29)        171.325          calculate D2E/DX2 analytically  !
 ! D70   D(28,15,16,30)         55.2488         calculate D2E/DX2 analytically  !
 --------------------------------------------------------------------------------
 Trust Radius=3.00D-01 FncErr=1.00D-07 GrdErr=1.00D-06
 Number of steps in this run=    160 maximum allowed number of steps=    180.
 GradGradGradGradGradGradGradGradGradGradGradGradGradGradGradGradGradGrad

                          Input orientation:                          
 ---------------------------------------------------------------------
 Center     Atomic      Atomic             Coordinates (Angstroms)
 Number     Number       Type             X           Y           Z
 ---------------------------------------------------------------------
      1          8           0        0.785871    0.735223    1.529867
      2          6           0        1.139240    0.162661    0.504155
      3          7           0        0.303118   -0.647601   -0.207881
      4          6           0       -0.935956   -1.134511    0.356493
      5          6           0       -0.817066   -2.623497    0.613794
      6          8           0       -1.796797   -3.063489    1.429557
      7          8           0        0.014438   -3.348268    0.133141
      8          6           0       -2.144474   -0.887478   -0.558942
      9          6           0       -2.452097    0.570279   -0.734056
     10          6           0       -1.922975    1.707460   -0.195764
     11          7           0       -2.575751    2.830835   -0.669422
     12          6           0       -3.491909    2.372307   -1.487278
     13          7           0       -3.462438    1.016238   -1.563554
     14          6           0        2.506147    0.365153   -0.119418
     15          6           0        3.563763    0.754017    0.902119
     16          7           0        4.843498    0.952401    0.216596
     17          1           0        0.712914   -1.232417   -0.920148
     18          1           0       -1.093734   -0.617860    1.302577
     19          1           0       -1.661238   -4.014865    1.518489
     20          1           0       -3.014626   -1.386288   -0.126735
     21          1           0       -1.973031   -1.348886   -1.533202
     22          1           0       -1.099736    1.760297    0.501259
     23          1           0       -4.196751    2.964992   -2.044427
     24          1           0       -4.065659    0.434098   -2.119228
     25          1           0        2.806372   -0.541031   -0.651533
     26          1           0        2.427514    1.160219   -0.865199
     27          1           0        3.599871   -0.006139    1.692423
     28          1           0        3.265084    1.693065    1.372450
     29          1           0        5.204337    0.060503   -0.102565
     30          1           0        5.532093    1.312491    0.866431
 ---------------------------------------------------------------------
                    Distance matrix (angstroms):
                    1          2          3          4          5
     1  O    0.000000
     2  C    1.226696   0.000000
     3  N    2.272667   1.364778   0.000000
     4  C    2.799535   2.451713   1.445995   0.000000
     5  C    3.832700   3.406146   2.415394   1.515724   0.000000
     6  O    4.594611   4.459230   3.595464   2.369277   1.348679
     7  O    4.384158   3.705327   2.737377   2.419474   1.203212
     8  C    3.947557   3.607734   2.484248   1.536086   2.480138
     9  C    3.954364   3.820605   3.057990   2.528693   3.832784
    10  C    3.355726   3.500493   3.240671   3.058757   4.542643
    11  N    4.530890   4.722033   4.538768   4.411961   5.872764
    12  C    5.484762   5.504170   5.015868   4.714887   6.043786
    13  N    5.262733   5.116587   4.334238   3.833460   4.998651
    14  C    2.411730   1.516008   2.426280   3.784648   4.529169
    15  C    2.848000   2.527131   3.718661   4.910368   5.539169
    16  N    4.270384   3.798408   4.832725   6.146288   6.707219
    17  H    3.143167   2.038782   1.008597   2.087623   2.574669
    18  H    2.327103   2.496571   2.057562   1.089449   2.138585
    19  H    5.343389   5.130621   4.263510   3.189468   1.861989
    20  H    4.657136   4.477931   3.399951   2.148900   2.628372
    21  H    4.619246   4.015199   2.725643   2.166201   2.751450
    22  H    2.379984   2.750539   2.875560   2.903049   4.394339
    23  H    6.524873   6.543786   6.055786   5.762215   7.051214
    24  H    6.078150   5.834962   4.889737   4.287746   5.231792
    25  H    3.235700   2.147120   2.544497   3.920887   4.366580
    26  H    2.934613   2.128356   2.865892   4.251029   5.199156
    27  H    2.914556   2.737732   3.858913   4.861240   5.246268
    28  H    2.662468   2.759580   4.092604   5.164890   5.989341
    29  H    4.758458   4.111393   4.953227   6.272319   6.631313
    30  H    4.827008   4.555273   5.686677   6.934228   7.474466
                    6          7          8          9         10
     6  O    0.000000
     7  O    2.245521   0.000000
     8  C    2.968170   3.345947   0.000000
     9  C    4.279593   4.710715   1.500118   0.000000
    10  C    5.041780   5.424217   2.629575   1.364884   0.000000
    11  N    6.305200   6.747925   3.744872   2.264858   1.382910
    12  C    6.397595   6.902551   3.647409   2.212658   2.138126
    13  N    5.327030   5.832354   2.523967   1.381208   2.172230
    14  C    5.715789   4.479050   4.836377   5.000405   4.628687
    15  C    6.602057   5.478848   6.116631   6.237099   5.676152
    16  N    7.854436   6.467034   7.267624   7.367188   6.820946
    17  H    3.895201   2.464571   2.900710   3.647141   4.014414
    18  H    2.547847   3.170292   2.154531   2.721158   2.887868
    19  H    0.965091   2.274078   3.785470   5.169426   5.979312
    20  H    2.591941   3.618305   1.092144   2.124484   3.281424
    21  H    3.427661   3.274791   1.091546   2.133386   3.336540
    22  H    4.961506   5.241595   3.037469   2.184268   1.079979
    23  H    7.360091   7.895135   4.610861   3.239682   3.188887
    24  H    5.474918   6.002220   2.805709   2.130922   3.148374
    25  H    5.646494   4.036234   4.963817   5.375251   5.256440
    26  H    6.399252   5.210189   5.018957   4.916892   4.435580
    27  H    6.208101   5.143589   6.232407   6.545714   6.083050
    28  H    6.946273   6.125163   6.297047   6.195496   5.419913
    29  H    7.818095   6.213721   7.423744   7.699327   7.315718
    30  H    8.554469   7.259814   8.111796   8.176780   7.540710
                   11         12         13         14         15
    11  N    0.000000
    12  C    1.310909   0.000000
    13  N    2.208721   1.358532   0.000000
    14  C    5.675190   6.471197   6.175229   0.000000
    15  C    6.669074   7.623031   7.450893   1.520955   0.000000
    16  N    7.704465   8.625447   8.494797   2.433305   1.465270
    17  H    5.233373   5.567424   4.785811   2.531617   3.923508
    18  H    4.240125   4.740848   4.061496   3.993436   4.871826
    19  H    7.244784   7.292596   6.168898   6.263737   7.100900
    20  H    4.274488   4.025657   2.834980   5.791937   6.993901
    21  H    4.310390   4.019500   2.795187   4.999975   6.403833
    22  H    2.166833   3.170383   3.224816   3.915873   4.787642
    23  H    2.129854   1.076333   2.137311   7.442692   8.590467
    24  H    3.172714   2.117830   1.005751   6.869689   8.212123
    25  H    6.351145   6.989589   6.523408   1.092909   2.159774
    26  H    5.278441   6.074184   5.932956   1.092933   2.139971
    27  H    7.194792   8.127783   7.843650   2.148687   1.097142
    28  H    6.291193   7.368607   7.371416   2.136588   1.091894
    29  H    8.278033   9.104206   8.840866   2.715386   2.044953
    30  H    8.390551   9.385935   9.321706   3.320497   2.046336
                   16         17         18         19         20
    16  N    0.000000
    17  H    4.809089   0.000000
    18  H    6.236649   2.929533   0.000000
    19  H    8.287354   4.396085   3.450843   0.000000
    20  H    8.205940   3.814149   2.514606   3.383465   0.000000
    21  H    7.404240   2.757480   3.057647   4.064169   1.750562
    22  H    6.004644   3.776563   2.509537   5.890886   3.736600
    23  H    9.533564   6.556451   5.802412   8.236601   4.899857
    24  H    9.224846   5.200944   4.652709   6.229566   2.896291
    25  H    2.670930   2.220976   4.362944   6.061028   5.905412
    26  H    2.655268   2.944075   4.501111   7.012942   6.053669
    27  H    2.154871   4.082132   4.749327   6.616601   6.997551
    28  H    2.091883   4.508660   4.934019   7.541249   7.152952
    29  H    1.013682   4.744783   6.488474   8.146936   8.345367
    30  H    1.012973   5.735234   6.915061   8.974961   9.017550
                   21         22         23         24         25
    21  H    0.000000
    22  H    3.816896   0.000000
    23  H    4.880147   4.186085   0.000000
    24  H    2.810970   4.174021   2.535391   0.000000
    25  H    4.926729   4.677897   7.954626   7.094350   0.000000
    26  H    5.109465   3.829985   6.966252   6.652904   1.755972
    27  H    6.577603   5.159988   9.142154   8.572213   2.531774
    28  H    6.718193   4.451420   8.304928   8.216848   3.049280
    29  H    7.453034   6.557075  10.029324   9.494173   2.532478
    30  H    8.316733   6.656954  10.288550  10.089726   3.628955
                   26         27         28         29         30
    26  H    0.000000
    27  H    3.045692   0.000000
    28  H    2.447963   1.761181   0.000000
    29  H    3.082488   2.408471   2.932854   0.000000
    30  H    3.558110   2.480832   2.353768   1.616741   0.000000
 Symmetry turned off by external request.
 Stoichiometry    C9H14N4O3
 Framework group  C1[X(C9H14N4O3)]
 Deg. of freedom    84
 Full point group                 C1      NOp   1
 Rotational constants (GHZ):      0.5777314      0.3337382      0.2304002
 Standard basis: 6-31G(d) (6D, 7F)
   268 basis functions,   504 primitive gaussians,   268 cartesian basis functions
    60 alpha electrons       60 beta electrons
       nuclear repulsion energy      1109.2545423011 Hartrees.
 NAtoms=   30 NActive=   30 NUniq=   30 SFac= 1.00D+00 NAtFMM=   60 NAOKFM=F Big=F
 Integral buffers will be    131072 words long.
 Raffenetti 2 integral format.
 Two-electron integral symmetry is turned off.
 Nuclear repulsion after empirical dispersion term =     1109.2013106689 Hartrees.
 One-electron integrals computed using PRISM.
 NBasis=   268 RedAO= T EigKep=  1.14D-03  NBF=   268
 NBsUse=   268 1.00D-06 EigRej= -1.00D+00 NBFU=   268
 ExpMin= 1.61D-01 ExpMax= 5.48D+03 ExpMxC= 8.25D+02 IAcc=3 IRadAn=         5 AccDes= 0.00D+00
 Harris functional with IExCor=  402 and IRadAn=       5 diagonalized for initial guess.
 HarFok:  IExCor=  402 AccDes= 0.00D+00 IRadAn=         5 IDoV= 1 UseB2=F ITyADJ=14
 ICtDFT=  3500011 ScaDFX=  1.000000  1.000000  1.000000  1.000000
 FoFCou: FMM=F IPFlag=           0 FMFlag=      100000 FMFlg1=           0
         NFxFlg=           0 DoJE=T BraDBF=F KetDBF=T FulRan=T
         wScrn=  0.000000 ICntrl=     500 IOpCl=  0 I1Cent=   200000004 NGrid=           0
         NMat0=    1 NMatS0=      1 NMatT0=    0 NMatD0=    1 NMtDS0=    0 NMtDT0=    0
 Symmetry not used in FoFCou.
 Requested convergence on RMS density matrix=1.00D-08 within 128 cycles.
 Requested convergence on MAX density matrix=1.00D-06.
 Requested convergence on             energy=1.00D-06.
 No special actions if energy rises.
 Integral accuracy reduced to 1.0D-05 until final iterations.
 Initial convergence to 1.0D-05 achieved.  Increase integral accuracy.
 SCF Done:  E(RB3LYP) =  -796.127309130     A.U. after   14 cycles
            NFock= 14  Conv=0.92D-08     -V/T= 2.0089
 DoSCS=F DFT=T ScalE2(SS,OS)=  1.000000  1.000000
 Range of M.O.s used for correlation:     1   268
 NBasis=   268 NAE=    60 NBE=    60 NFC=     0 NFV=     0
 NROrb=    268 NOA=    60 NOB=    60 NVA=   208 NVB=   208
 Symmetrizing basis deriv contribution to polar:
 IMax=3 JMax=2 DiffMx= 0.00D+00
 G2DrvN: will do    31 centers at a time, making    1 passes.
 Calling FoFCou, ICntrl=  3107 FMM=F I1Cent=   0 AccDes= 0.00D+00.
 End of G2Drv F.D. properties file   721 does not exist.
 End of G2Drv F.D. properties file   722 does not exist.
 End of G2Drv F.D. properties file   788 does not exist.
          IDoAtm=111111111111111111111111111111
          Differentiating once with respect to nuclear coordinates.
          There are    93 degrees of freedom in the 1st order CPHF.  IDoFFX=6 NUNeed=     0.
     87 vectors produced by pass  0 Test12= 1.34D-14 1.08D-09 XBig12= 1.66D-01 9.42D-02.
 AX will form    87 AO Fock derivatives at one time.
     87 vectors produced by pass  1 Test12= 1.34D-14 1.08D-09 XBig12= 2.99D-02 3.94D-02.
     87 vectors produced by pass  2 Test12= 1.34D-14 1.08D-09 XBig12= 2.23D-04 1.98D-03.
     87 vectors produced by pass  3 Test12= 1.34D-14 1.08D-09 XBig12= 8.38D-07 1.19D-04.
     87 vectors produced by pass  4 Test12= 1.34D-14 1.08D-09 XBig12= 1.02D-09 3.60D-06.
     71 vectors produced by pass  5 Test12= 1.34D-14 1.08D-09 XBig12= 8.86D-13 1.10D-07.
     10 vectors produced by pass  6 Test12= 1.34D-14 1.08D-09 XBig12= 6.50D-16 2.34D-09.
 InvSVY:  IOpt=1 It=  1 EMax= 6.11D-16
 Solved reduced A of dimension   516 with    93 vectors.
 End of Minotr F.D. properties file   721 does not exist.
 End of Minotr F.D. properties file   722 does not exist.
 End of Minotr F.D. properties file   788 does not exist.

 **********************************************************************

            Population analysis using the SCF density.

 **********************************************************************

 Alpha  occ. eigenvalues --  -19.21559 -19.16137 -19.11646 -14.38499 -14.36484
 Alpha  occ. eigenvalues --  -14.30966 -14.29960 -10.33786 -10.28915 -10.25125
 Alpha  occ. eigenvalues --  -10.22958 -10.21715 -10.21260 -10.20457 -10.19035
 Alpha  occ. eigenvalues --  -10.18022  -1.13051  -1.04227  -1.03580  -1.00799
 Alpha  occ. eigenvalues --   -0.93609  -0.87997  -0.86146  -0.81318  -0.75966
 Alpha  occ. eigenvalues --   -0.73709  -0.68092  -0.64622  -0.60973  -0.60569
 Alpha  occ. eigenvalues --   -0.59138  -0.57692  -0.54279  -0.51931  -0.50872
 Alpha  occ. eigenvalues --   -0.49941  -0.48376  -0.48123  -0.47277  -0.45172
 Alpha  occ. eigenvalues --   -0.44529  -0.43542  -0.42857  -0.41704  -0.41248
 Alpha  occ. eigenvalues --   -0.40319  -0.39632  -0.39218  -0.38238  -0.37761
 Alpha  occ. eigenvalues --   -0.35432  -0.34384  -0.33994  -0.29903  -0.27023
 Alpha  occ. eigenvalues --   -0.26653  -0.25501  -0.25206  -0.23282  -0.21609
 Alpha virt. eigenvalues --   -0.00823   0.01947   0.03716   0.06193   0.07342
 Alpha virt. eigenvalues --    0.07786   0.08265   0.08764   0.11600   0.13351
 Alpha virt. eigenvalues --    0.14326   0.14569   0.14843   0.16106   0.16878
 Alpha virt. eigenvalues --    0.18635   0.18937   0.19860   0.20746   0.21455
 Alpha virt. eigenvalues --    0.22018   0.23403   0.24066   0.24888   0.26218
 Alpha virt. eigenvalues --    0.28177   0.29689   0.32429   0.34229   0.34912
 Alpha virt. eigenvalues --    0.36600   0.38981   0.42144   0.44743   0.50128
 Alpha virt. eigenvalues --    0.50897   0.52086   0.53368   0.54737   0.55224
 Alpha virt. eigenvalues --    0.56308   0.56696   0.57708   0.59199   0.59589
 Alpha virt. eigenvalues --    0.62444   0.63163   0.64030   0.64645   0.65196
 Alpha virt. eigenvalues --    0.66181   0.66851   0.67292   0.68292   0.70019
 Alpha virt. eigenvalues --    0.70330   0.73640   0.73908   0.74863   0.76406
 Alpha virt. eigenvalues --    0.77227   0.79370   0.79993   0.80896   0.82081
 Alpha virt. eigenvalues --    0.82474   0.82959   0.83495   0.84749   0.85918
 Alpha virt. eigenvalues --    0.86286   0.86730   0.88166   0.88511   0.89003
 Alpha virt. eigenvalues --    0.89830   0.91406   0.91440   0.92411   0.93622
 Alpha virt. eigenvalues --    0.93896   0.94614   0.95774   0.96614   0.97870
 Alpha virt. eigenvalues --    0.99848   1.01549   1.02914   1.03989   1.06542
 Alpha virt. eigenvalues --    1.07522   1.09487   1.10623   1.12574   1.14760
 Alpha virt. eigenvalues --    1.17906   1.21330   1.22285   1.25290   1.26421
 Alpha virt. eigenvalues --    1.30495   1.33559   1.35109   1.35836   1.36518
 Alpha virt. eigenvalues --    1.38157   1.38740   1.42301   1.44627   1.45710
 Alpha virt. eigenvalues --    1.47706   1.49403   1.50728   1.53454   1.55718
 Alpha virt. eigenvalues --    1.57428   1.60082   1.63993   1.64736   1.66229
 Alpha virt. eigenvalues --    1.66915   1.70427   1.73525   1.75441   1.77541
 Alpha virt. eigenvalues --    1.78098   1.78594   1.79595   1.81864   1.83015
 Alpha virt. eigenvalues --    1.85238   1.85552   1.86451   1.88407   1.89443
 Alpha virt. eigenvalues --    1.90181   1.93762   1.94509   1.96455   1.97535
 Alpha virt. eigenvalues --    1.99207   2.00076   2.01961   2.04199   2.07254
 Alpha virt. eigenvalues --    2.09082   2.10151   2.11920   2.12450   2.14459
 Alpha virt. eigenvalues --    2.16963   2.18918   2.19693   2.21536   2.24388
 Alpha virt. eigenvalues --    2.28157   2.29680   2.30791   2.34772   2.35536
 Alpha virt. eigenvalues --    2.35653   2.39506   2.41272   2.42117   2.42715
 Alpha virt. eigenvalues --    2.44836   2.46121   2.49285   2.49824   2.52502
 Alpha virt. eigenvalues --    2.54063   2.59617   2.61259   2.62820   2.64282
 Alpha virt. eigenvalues --    2.65409   2.67802   2.69931   2.73543   2.74611
 Alpha virt. eigenvalues --    2.76182   2.79135   2.85788   2.88939   2.93466
 Alpha virt. eigenvalues --    2.97729   3.01419   3.03477   3.07099   3.11538
 Alpha virt. eigenvalues --    3.16055   3.16619   3.78436   3.82326   3.93547
 Alpha virt. eigenvalues --    4.02875   4.06509   4.09493   4.13369   4.18447
 Alpha virt. eigenvalues --    4.22777   4.25852   4.31241   4.32877   4.43522
 Alpha virt. eigenvalues --    4.50129   4.55625   4.68748
          Condensed to atoms (all electrons):
               1          2          3          4          5          6
     1  O    8.116147   0.532902  -0.095187  -0.004188   0.000209  -0.000004
     2  C    0.532902   4.361632   0.271311  -0.021795   0.002007   0.000026
     3  N   -0.095187   0.271311   7.117155   0.261383  -0.046925   0.002487
     4  C   -0.004188  -0.021795   0.261383   5.130199   0.298843  -0.098984
     5  C    0.000209   0.002007  -0.046925   0.298843   4.375261   0.275769
     6  O   -0.000004   0.000026   0.002487  -0.098984   0.275769   8.237491
     7  O    0.000000   0.001409  -0.007995  -0.080711   0.592068  -0.087598
     8  C    0.000599   0.002027  -0.053267   0.336449  -0.039598   0.001821
     9  C   -0.000858  -0.000019  -0.002836  -0.027938   0.002003   0.000044
    10  C   -0.008971   0.001868   0.003233  -0.003689   0.000327   0.000002
    11  N    0.000052   0.000004  -0.000010  -0.000141  -0.000001   0.000000
    12  C   -0.000003  -0.000006   0.000038  -0.000059   0.000002   0.000000
    13  N   -0.000001  -0.000013  -0.000140   0.002598  -0.000100   0.000000
    14  C   -0.081637   0.305741  -0.112760   0.007593  -0.000317   0.000000
    15  C    0.002678  -0.021791   0.002961  -0.000134   0.000010   0.000000
    16  N    0.000225   0.003402  -0.000032   0.000000   0.000000   0.000000
    17  H    0.003172  -0.016070   0.292512  -0.037572  -0.003082   0.000331
    18  H    0.023479  -0.001388  -0.049624   0.355900  -0.023630   0.003002
    19  H    0.000001  -0.000007  -0.000299   0.010787  -0.006166   0.218362
    20  H   -0.000005   0.000024   0.004327  -0.034516  -0.000940   0.006109
    21  H   -0.000011  -0.000168  -0.003980  -0.028163  -0.002748   0.000059
    22  H    0.024297   0.001723  -0.007196   0.001883  -0.000033   0.000001
    23  H    0.000000   0.000000   0.000000   0.000002   0.000000   0.000000
    24  H    0.000000   0.000000   0.000000  -0.000064  -0.000002   0.000000
    25  H    0.002857  -0.030732   0.002758  -0.000256   0.000020   0.000000
    26  H   -0.001042  -0.017639  -0.000829  -0.000148  -0.000004   0.000000
    27  H    0.000725   0.006020   0.000091   0.000009   0.000000   0.000000
    28  H    0.008357  -0.004740   0.000347   0.000000   0.000000   0.000000
    29  H    0.000001  -0.000277   0.000000   0.000000   0.000000   0.000000
    30  H    0.000007  -0.000162   0.000002   0.000000   0.000000   0.000000
               7          8          9         10         11         12
     1  O    0.000000   0.000599  -0.000858  -0.008971   0.000052  -0.000003
     2  C    0.001409   0.002027  -0.000019   0.001868   0.000004  -0.000006
     3  N   -0.007995  -0.053267  -0.002836   0.003233  -0.000010   0.000038
     4  C   -0.080711   0.336449  -0.027938  -0.003689  -0.000141  -0.000059
     5  C    0.592068  -0.039598   0.002003   0.000327  -0.000001   0.000002
     6  O   -0.087598   0.001821   0.000044   0.000002   0.000000   0.000000
     7  O    8.016137  -0.002395  -0.000063  -0.000001   0.000000   0.000000
     8  C   -0.002395   5.231933   0.336106  -0.068759   0.008391   0.006910
     9  C   -0.000063   0.336106   4.720056   0.595868  -0.043154  -0.086905
    10  C   -0.000001  -0.068759   0.595868   4.975357   0.411877  -0.124783
    11  N    0.000000   0.008391  -0.043154   0.411877   6.673196   0.540919
    12  C    0.000000   0.006910  -0.086905  -0.124783   0.540919   4.743275
    13  N    0.000000  -0.063328   0.327121  -0.066032  -0.085281   0.347500
    14  C   -0.000145  -0.000255  -0.000041  -0.000266   0.000001   0.000000
    15  C    0.000001   0.000000   0.000000   0.000007   0.000000   0.000000
    16  N    0.000000   0.000000   0.000000   0.000000   0.000000   0.000000
    17  H    0.016222  -0.000042  -0.000252   0.000080   0.000002  -0.000001
    18  H    0.001748  -0.034552  -0.004423   0.002049  -0.000009  -0.000027
    19  H    0.010823  -0.000326   0.000014   0.000000   0.000000   0.000000
    20  H    0.000119   0.354972  -0.030897   0.000372  -0.000096   0.000208
    21  H    0.001242   0.343605  -0.032407   0.001109  -0.000124   0.000169
    22  H   -0.000001  -0.002504  -0.055559   0.361180  -0.037265   0.006612
    23  H    0.000000  -0.000121   0.003017   0.007246  -0.038587   0.382103
    24  H    0.000000  -0.002432  -0.030330   0.009002   0.005484  -0.024440
    25  H    0.000041  -0.000007   0.000001   0.000000   0.000000   0.000000
    26  H    0.000000   0.000025   0.000017   0.000139  -0.000001   0.000000
    27  H    0.000000   0.000000   0.000000   0.000000   0.000000   0.000000
    28  H    0.000000   0.000000   0.000000  -0.000001   0.000000   0.000000
    29  H    0.000000   0.000000   0.000000   0.000000   0.000000   0.000000
    30  H    0.000000   0.000000   0.000000   0.000000   0.000000   0.000000
              13         14         15         16         17         18
     1  O   -0.000001  -0.081637   0.002678   0.000225   0.003172   0.023479
     2  C   -0.000013   0.305741  -0.021791   0.003402  -0.016070  -0.001388
     3  N   -0.000140  -0.112760   0.002961  -0.000032   0.292512  -0.049624
     4  C    0.002598   0.007593  -0.000134   0.000000  -0.037572   0.355900
     5  C   -0.000100  -0.000317   0.000010   0.000000  -0.003082  -0.023630
     6  O    0.000000   0.000000   0.000000   0.000000   0.000331   0.003002
     7  O    0.000000  -0.000145   0.000001   0.000000   0.016222   0.001748
     8  C   -0.063328  -0.000255   0.000000   0.000000  -0.000042  -0.034552
     9  C    0.327121  -0.000041   0.000000   0.000000  -0.000252  -0.004423
    10  C   -0.066032  -0.000266   0.000007   0.000000   0.000080   0.002049
    11  N   -0.085281   0.000001   0.000000   0.000000   0.000002  -0.000009
    12  C    0.347500   0.000000   0.000000   0.000000  -0.000001  -0.000027
    13  N    6.908320   0.000000   0.000000   0.000000   0.000001   0.000080
    14  C    0.000000   5.338345   0.349485  -0.057654  -0.000314   0.001409
    15  C    0.000000   0.349485   4.869093   0.304123  -0.000154  -0.000009
    16  N    0.000000  -0.057654   0.304123   6.934684  -0.000012   0.000000
    17  H    0.000001  -0.000314  -0.000154  -0.000012   0.400068   0.004962
    18  H    0.000080   0.001409  -0.000009   0.000000   0.004962   0.499296
    19  H    0.000000   0.000000   0.000000   0.000000  -0.000036  -0.000409
    20  H   -0.001878   0.000004   0.000000   0.000000  -0.000139  -0.002906
    21  H   -0.002015  -0.000002   0.000000   0.000000   0.002600   0.005401
    22  H    0.004857   0.000565  -0.000026   0.000000   0.000019   0.000552
    23  H   -0.059955   0.000000   0.000000   0.000000   0.000000   0.000000
    24  H    0.302283   0.000000   0.000000   0.000000   0.000000   0.000003
    25  H    0.000000   0.349293  -0.039023  -0.002453   0.004212  -0.000081
    26  H    0.000000   0.349775  -0.026654   0.005626   0.000134  -0.000024
    27  H    0.000000  -0.063361   0.383202  -0.048659   0.000003  -0.000005
    28  H    0.000000  -0.030060   0.381285  -0.037766  -0.000004  -0.000008
    29  H    0.000000  -0.004837  -0.034544   0.307580   0.000001   0.000000
    30  H    0.000000   0.006270  -0.034188   0.312594   0.000000   0.000000
              19         20         21         22         23         24
     1  O    0.000001  -0.000005  -0.000011   0.024297   0.000000   0.000000
     2  C   -0.000007   0.000024  -0.000168   0.001723   0.000000   0.000000
     3  N   -0.000299   0.004327  -0.003980  -0.007196   0.000000   0.000000
     4  C    0.010787  -0.034516  -0.028163   0.001883   0.000002  -0.000064
     5  C   -0.006166  -0.000940  -0.002748  -0.000033   0.000000  -0.000002
     6  O    0.218362   0.006109   0.000059   0.000001   0.000000   0.000000
     7  O    0.010823   0.000119   0.001242  -0.000001   0.000000   0.000000
     8  C   -0.000326   0.354972   0.343605  -0.002504  -0.000121  -0.002432
     9  C    0.000014  -0.030897  -0.032407  -0.055559   0.003017  -0.030330
    10  C    0.000000   0.000372   0.001109   0.361180   0.007246   0.009002
    11  N    0.000000  -0.000096  -0.000124  -0.037265  -0.038587   0.005484
    12  C    0.000000   0.000208   0.000169   0.006612   0.382103  -0.024440
    13  N    0.000000  -0.001878  -0.002015   0.004857  -0.059955   0.302283
    14  C    0.000000   0.000004  -0.000002   0.000565   0.000000   0.000000
    15  C    0.000000   0.000000   0.000000  -0.000026   0.000000   0.000000
    16  N    0.000000   0.000000   0.000000   0.000000   0.000000   0.000000
    17  H   -0.000036  -0.000139   0.002600   0.000019   0.000000   0.000000
    18  H   -0.000409  -0.002906   0.005401   0.000552   0.000000   0.000003
    19  H    0.352067  -0.000089  -0.000067   0.000000   0.000000   0.000000
    20  H   -0.000089   0.568198  -0.040066  -0.000106   0.000000   0.000893
    21  H   -0.000067  -0.040066   0.602600  -0.000092  -0.000002   0.001307
    22  H    0.000000  -0.000106  -0.000092   0.528651  -0.000135  -0.000095
    23  H    0.000000   0.000000  -0.000002  -0.000135   0.555011   0.000584
    24  H    0.000000   0.000893   0.001307  -0.000095   0.000584   0.413686
    25  H    0.000000   0.000000   0.000000  -0.000001   0.000000   0.000000
    26  H    0.000000   0.000000  -0.000002  -0.000082   0.000000   0.000000
    27  H    0.000000   0.000000   0.000000   0.000000   0.000000   0.000000
    28  H    0.000000   0.000000   0.000000   0.000004   0.000000   0.000000
    29  H    0.000000   0.000000   0.000000   0.000000   0.000000   0.000000
    30  H    0.000000   0.000000   0.000000   0.000000   0.000000   0.000000
              25         26         27         28         29         30
     1  O    0.002857  -0.001042   0.000725   0.008357   0.000001   0.000007
     2  C   -0.030732  -0.017639   0.006020  -0.004740  -0.000277  -0.000162
     3  N    0.002758  -0.000829   0.000091   0.000347   0.000000   0.000002
     4  C   -0.000256  -0.000148   0.000009   0.000000   0.000000   0.000000
     5  C    0.000020  -0.000004   0.000000   0.000000   0.000000   0.000000
     6  O    0.000000   0.000000   0.000000   0.000000   0.000000   0.000000
     7  O    0.000041   0.000000   0.000000   0.000000   0.000000   0.000000
     8  C   -0.000007   0.000025   0.000000   0.000000   0.000000   0.000000
     9  C    0.000001   0.000017   0.000000   0.000000   0.000000   0.000000
    10  C    0.000000   0.000139   0.000000  -0.000001   0.000000   0.000000
    11  N    0.000000  -0.000001   0.000000   0.000000   0.000000   0.000000
    12  C    0.000000   0.000000   0.000000   0.000000   0.000000   0.000000
    13  N    0.000000   0.000000   0.000000   0.000000   0.000000   0.000000
    14  C    0.349293   0.349775  -0.063361  -0.030060  -0.004837   0.006270
    15  C   -0.039023  -0.026654   0.383202   0.381285  -0.034544  -0.034188
    16  N   -0.002453   0.005626  -0.048659  -0.037766   0.307580   0.312594
    17  H    0.004212   0.000134   0.000003  -0.000004   0.000001   0.000000
    18  H   -0.000081  -0.000024  -0.000005  -0.000008   0.000000   0.000000
    19  H    0.000000   0.000000   0.000000   0.000000   0.000000   0.000000
    20  H    0.000000   0.000000   0.000000   0.000000   0.000000   0.000000
    21  H    0.000000  -0.000002   0.000000   0.000000   0.000000   0.000000
    22  H   -0.000001  -0.000082   0.000000   0.000004   0.000000   0.000000
    23  H    0.000000   0.000000   0.000000   0.000000   0.000000   0.000000
    24  H    0.000000   0.000000   0.000000   0.000000   0.000000   0.000000
    25  H    0.605343  -0.032447  -0.005487   0.005656   0.005011  -0.000034
    26  H   -0.032447   0.529596   0.006362  -0.006544  -0.000738  -0.000068
    27  H   -0.005487   0.006362   0.646203  -0.042814  -0.006045  -0.001952
    28  H    0.005656  -0.006544  -0.042814   0.552387   0.006125  -0.004013
    29  H    0.005011  -0.000738  -0.006045   0.006125   0.470026  -0.033865
    30  H   -0.000034  -0.000068  -0.001952  -0.004013  -0.033865   0.454817
 Mulliken charges:
               1
     1  O   -0.523798
     2  C    0.624711
     3  N   -0.577524
     4  C   -0.067286
     5  C    0.577026
     6  O   -0.558919
     7  O   -0.460900
     8  C   -0.355252
     9  C    0.331434
    10  C   -0.097214
    11  N   -0.435257
    12  C    0.208488
    13  N   -0.614015
    14  C   -0.356832
    15  C   -0.136321
    16  N   -0.721659
    17  H    0.333358
    18  H    0.219210
    19  H    0.415344
    20  H    0.176412
    21  H    0.151756
    22  H    0.172752
    23  H    0.150838
    24  H    0.324120
    25  H    0.135329
    26  H    0.194547
    27  H    0.125707
    28  H    0.171790
    29  H    0.291564
    30  H    0.300592
 Sum of Mulliken charges =   0.00000
 Mulliken charges with hydrogens summed into heavy atoms:
               1
     1  O   -0.523798
     2  C    0.624711
     3  N   -0.244167
     4  C    0.151925
     5  C    0.577026
     6  O   -0.143575
     7  O   -0.460900
     8  C   -0.027084
     9  C    0.331434
    10  C    0.075538
    11  N   -0.435257
    12  C    0.359325
    13  N   -0.289896
    14  C   -0.026957
    15  C    0.161176
    16  N   -0.129503
 APT charges:
               1
     1  O   -0.296229
     2  C    0.116881
     3  N   -0.609378
     4  C   -0.408055
     5  C   -0.269530
     6  O   -0.738266
     7  O    0.091980
     8  C   -0.987131
     9  C   -0.125978
    10  C   -0.373389
    11  N   -0.364763
    12  C   -0.305947
    13  N   -0.850930
    14  C   -0.619744
    15  C   -0.536175
    16  N   -1.712979
    17  H    0.559017
    18  H    0.361390
    19  H    1.007287
    20  H    0.579292
    21  H    0.400040
    22  H    0.108729
    23  H    1.051830
    24  H    0.893229
    25  H    0.362602
    26  H    0.384323
    27  H    0.362306
    28  H    0.362341
    29  H    0.575761
    30  H    0.981486
 Sum of APT charges =   0.00000
 APT charges with hydrogens summed into heavy atoms:
               1
     1  O   -0.296229
     2  C    0.116881
     3  N   -0.050361
     4  C   -0.046666
     5  C   -0.269530
     6  O    0.269021
     7  O    0.091980
     8  C   -0.007800
     9  C   -0.125978
    10  C   -0.264660
    11  N   -0.364763
    12  C    0.745882
    13  N    0.042299
    14  C    0.127182
    15  C    0.188472
    16  N   -0.155732
 Electronic spatial extent (au):  <R**2>=           4708.8003
 Charge=              0.0000 electrons
 Dipole moment (field-independent basis, Debye):
    X=             -1.4034    Y=             -5.4892    Z=             -2.1760  Tot=              6.0693
 Quadrupole moment (field-independent basis, Debye-Ang):
   XX=            -71.5883   YY=           -101.1901   ZZ=            -89.6751
   XY=              6.9486   XZ=             12.5631   YZ=             -3.4911
 Traceless Quadrupole moment (field-independent basis, Debye-Ang):
   XX=             15.8962   YY=            -13.7056   ZZ=             -2.1906
   XY=              6.9486   XZ=             12.5631   YZ=             -3.4911
 Octapole moment (field-independent basis, Debye-Ang**2):
  XXX=             79.3316  YYY=            -62.9128  ZZZ=            -16.9616  XYY=             17.7576
  XXY=            -24.7566  XXZ=            -18.1520  XZZ=              6.2701  YZZ=             -8.1214
  YYZ=             22.7213  XYZ=             21.4566
 Hexadecapole moment (field-independent basis, Debye-Ang**3):
 XXXX=          -2972.9237 YYYY=          -1811.2660 ZZZZ=           -544.1925 XXXY=            -39.2586
 XXXZ=             38.6472 YYYX=            246.2463 YYYZ=             92.1770 ZZZX=           -283.2947
 ZZZY=            177.5535 XXYY=           -907.9571 XXZZ=           -580.0598 YYZZ=           -344.7375
 XXYZ=             69.4399 YYXZ=           -106.7025 ZZXY=              1.7337
 N-N= 1.109201310669D+03 E-N=-4.075731105244D+03  KE= 7.891426294167D+02
  Exact polarizability:   0.000   0.000   0.000   0.000   0.000   0.000
 Approx polarizability: 174.364  -0.112 194.321  12.669  17.924 159.354
 Calling FoFJK, ICntrl=    100147 FMM=F ISym2X=0 I1Cent= 0 IOpClX= 0 NMat=1 NMatS=1 NMatT=0.
 -------------------------------------------------------------------
 Center     Atomic                   Forces (Hartrees/Bohr)
 Number     Number              X              Y              Z
 -------------------------------------------------------------------
      1        8           0.000316403   -0.000675770    0.001677873
      2        6           0.001806667    0.005721302    0.002099449
      3        7          -0.004236871   -0.004012740    0.000233676
      4        6           0.000511610    0.001771307   -0.003812240
      5        6          -0.007340830    0.005324082    0.005738697
      6        8          -0.002550886    0.008184338    0.000341241
      7        8           0.010047999   -0.007682428   -0.005928290
      8        6          -0.006859481    0.009891998   -0.000080328
      9        6           0.001705537   -0.008399387   -0.000153494
     10        6           0.005145816    0.005553170    0.004481518
     11        7           0.003221688    0.001483660    0.002878055
     12        6          -0.000475222    0.006388374    0.000338034
     13        7          -0.002021529   -0.008561238   -0.003016064
     14        6          -0.002144957    0.000374491    0.000770916
     15        6           0.002923451    0.000666829   -0.001411807
     16        7          -0.002948012    0.004252559   -0.002031605
     17        1           0.001209970   -0.002234167   -0.001643625
     18        1           0.000973127    0.001199870    0.001866011
     19        1           0.000247934   -0.010700498    0.001752977
     20        1          -0.001802590   -0.003673521    0.001986019
     21        1           0.002750819   -0.003860358   -0.003932129
     22        1           0.000093296    0.003373029    0.001080014
     23        1          -0.002705126    0.002307435   -0.002120514
     24        1          -0.002549747   -0.001727369   -0.002270148
     25        1           0.001586571   -0.002645744   -0.002467332
     26        1           0.000277627    0.001629521   -0.002629778
     27        1          -0.000981959   -0.001927172    0.003687333
     28        1           0.000011443    0.000427827    0.000975860
     29        1           0.001259462   -0.004349258   -0.001583789
     30        1           0.002527790    0.001899859    0.003173468
 -------------------------------------------------------------------
 Cartesian Forces:  Max     0.010700498 RMS     0.003792654
 FormGI is forming the generalized inverse of G from B-inverse, IUseBI=4.

 GradGradGradGradGradGradGradGradGradGradGradGradGradGradGradGradGradGrad
 Berny optimization.
 Internal  Forces:  Max     0.013939799 RMS     0.002613138
 Search for a local minimum.
 Step number   1 out of a maximum of  160
 All quantities printed in internal units (Hartrees-Bohrs-Radians)
 Mixed Optimization -- RFO/linear search
 Second derivative matrix not updated -- analytic derivatives used.
 ITU=  0
     Eigenvalues ---   -0.00011   0.00105   0.00174   0.00226   0.00272
     Eigenvalues ---    0.00377   0.00443   0.00580   0.00667   0.00912
     Eigenvalues ---    0.01582   0.02061   0.02202   0.02780   0.03361
     Eigenvalues ---    0.03471   0.03956   0.04187   0.04256   0.04477
     Eigenvalues ---    0.04613   0.04714   0.05171   0.05249   0.05284
     Eigenvalues ---    0.05539   0.05832   0.06223   0.07875   0.08316
     Eigenvalues ---    0.08452   0.10533   0.10968   0.11396   0.11986
     Eigenvalues ---    0.12154   0.12547   0.13820   0.15435   0.15467
     Eigenvalues ---    0.15857   0.17059   0.18076   0.18353   0.18961
     Eigenvalues ---    0.20461   0.21603   0.22168   0.23495   0.23851
     Eigenvalues ---    0.24720   0.24944   0.25156   0.27258   0.30259
     Eigenvalues ---    0.30770   0.32308   0.33683   0.33907   0.34136
     Eigenvalues ---    0.34511   0.34655   0.34785   0.35026   0.35135
     Eigenvalues ---    0.35878   0.37061   0.37826   0.38361   0.38537
     Eigenvalues ---    0.41233   0.42870   0.43916   0.45407   0.45904
     Eigenvalues ---    0.46453   0.47381   0.47713   0.48867   0.50200
     Eigenvalues ---    0.53262   0.60549   0.82809   0.93716
 RFO step:  Lambda=-3.12622684D-03 EMin=-1.10541761D-04
 Linear search not attempted -- first point.
 Iteration  1 RMS(Cart)=  0.16863217 RMS(Int)=  0.02525856
 Iteration  2 RMS(Cart)=  0.07001851 RMS(Int)=  0.00241831
 Iteration  3 RMS(Cart)=  0.00343215 RMS(Int)=  0.00007307
 Iteration  4 RMS(Cart)=  0.00000718 RMS(Int)=  0.00007298
 Iteration  5 RMS(Cart)=  0.00000000 RMS(Int)=  0.00007298
 Variable       Old X    -DE/DX   Delta X   Delta X   Delta X     New X
                                 (Linear)    (Quad)   (Total)
    R1        2.31812   0.00100   0.00000  -0.00038  -0.00038   2.31774
    R2        2.57906   0.00721   0.00000   0.01399   0.01399   2.59305
    R3        2.86484   0.00293   0.00000   0.00861   0.00861   2.87345
    R4        2.73253   0.00075   0.00000  -0.00216  -0.00216   2.73038
    R5        1.90597   0.00295   0.00000   0.00661   0.00661   1.91258
    R6        2.86430   0.00514   0.00000   0.01403   0.01403   2.87833
    R7        2.90278   0.00368   0.00000   0.01698   0.01698   2.91976
    R8        2.05876   0.00205   0.00000   0.00675   0.00675   2.06551
    R9        2.54863   0.00376   0.00000   0.00252   0.00252   2.55115
   R10        2.27374   0.01394   0.00000   0.01503   0.01503   2.28877
   R11        1.82376   0.01074   0.00000   0.01995   0.01995   1.84371
   R12        2.83481  -0.00023   0.00000  -0.00843  -0.00843   2.82638
   R13        2.06385   0.00390   0.00000   0.01101   0.01101   2.07486
   R14        2.06272   0.00557   0.00000   0.01636   0.01636   2.07908
   R15        2.57926   0.01191   0.00000   0.02046   0.02046   2.59971
   R16        2.61010   0.00528   0.00000   0.01015   0.01016   2.62026
   R17        2.61332   0.00065   0.00000  -0.00112  -0.00112   2.61220
   R18        2.04086   0.00093   0.00000   0.00192   0.00192   2.04278
   R19        2.47726   0.00471   0.00000   0.00461   0.00460   2.48186
   R20        2.56725   0.00969   0.00000   0.01982   0.01983   2.58708
   R21        2.03397   0.00414   0.00000   0.01018   0.01018   2.04415
   R22        1.90059   0.00378   0.00000   0.00732   0.00732   1.90791
   R23        2.87419   0.00408   0.00000   0.00843   0.00843   2.88262
   R24        2.06530   0.00383   0.00000   0.01290   0.01290   2.07820
   R25        2.06534   0.00296   0.00000   0.00916   0.00916   2.07450
   R26        2.76896   0.00118   0.00000   0.00332   0.00332   2.77228
   R27        2.07330   0.00396   0.00000   0.00970   0.00970   2.08300
   R28        2.06338   0.00079   0.00000   0.00295   0.00295   2.06633
   R29        1.91558   0.00477   0.00000   0.01105   0.01105   1.92663
   R30        1.91424   0.00443   0.00000   0.00990   0.00990   1.92414
    A1        2.13752  -0.00086   0.00000  -0.00112  -0.00113   2.13639
    A2        2.14281  -0.00116   0.00000   0.00556   0.00556   2.14836
    A3        2.00104   0.00204   0.00000  -0.00410  -0.00411   1.99693
    A4        2.11912   0.00053   0.00000   0.00627   0.00595   2.12508
    A5        2.05303  -0.00007   0.00000   0.00651   0.00616   2.05920
    A6        2.01368  -0.00018   0.00000   0.00648   0.00615   2.01982
    A7        1.90692  -0.00065   0.00000  -0.00304  -0.00306   1.90386
    A8        1.96862  -0.00002   0.00000   0.00155   0.00156   1.97018
    A9        1.87900  -0.00030   0.00000  -0.00861  -0.00861   1.87039
   A10        1.89743   0.00100   0.00000   0.00560   0.00559   1.90303
   A11        1.90690  -0.00015   0.00000  -0.00103  -0.00108   1.90582
   A12        1.90427   0.00011   0.00000   0.00535   0.00534   1.90961
   A13        1.94570   0.00121   0.00000   0.00651   0.00651   1.95221
   A14        2.18723  -0.00163   0.00000  -0.00882  -0.00882   2.17841
   A15        2.14973   0.00041   0.00000   0.00224   0.00224   2.15197
   A16        1.84970   0.00268   0.00000   0.01011   0.01011   1.85981
   A17        1.96837   0.00080   0.00000   0.00362   0.00362   1.97199
   A18        1.89393  -0.00097   0.00000  -0.00821  -0.00842   1.88551
   A19        1.91810  -0.00273   0.00000  -0.03152  -0.03159   1.88651
   A20        1.90354   0.00118   0.00000   0.02637   0.02631   1.92985
   A21        1.91643   0.00143   0.00000   0.01078   0.01068   1.92711
   A22        1.86011   0.00027   0.00000  -0.00101  -0.00149   1.85862
   A23        2.32418   0.00281   0.00000   0.01444   0.01443   2.33861
   A24        2.13396  -0.00307   0.00000  -0.01519  -0.01519   2.11878
   A25        1.82494   0.00026   0.00000   0.00070   0.00070   1.82565
   A26        1.93771  -0.00082   0.00000  -0.00281  -0.00281   1.93489
   A27        2.20286   0.00385   0.00000   0.02489   0.02490   2.22776
   A28        2.14258  -0.00303   0.00000  -0.02208  -0.02208   2.12050
   A29        1.83324   0.00216   0.00000   0.00752   0.00752   1.84075
   A30        1.94874   0.00017   0.00000  -0.00185  -0.00185   1.94689
   A31        2.19938  -0.00012   0.00000   0.00245   0.00245   2.20183
   A32        2.13506  -0.00005   0.00000  -0.00060  -0.00060   2.13446
   A33        1.88015  -0.00177   0.00000  -0.00357  -0.00356   1.87659
   A34        2.19401   0.00143   0.00000   0.00492   0.00492   2.19893
   A35        2.20902   0.00034   0.00000  -0.00136  -0.00136   2.20766
   A36        1.96585  -0.00232   0.00000   0.00013   0.00011   1.96596
   A37        1.91474   0.00141   0.00000  -0.00591  -0.00590   1.90884
   A38        1.88911   0.00070   0.00000   0.00768   0.00765   1.89676
   A39        1.92621   0.00048   0.00000   0.00562   0.00563   1.93184
   A40        1.89900   0.00058   0.00000   0.00640   0.00637   1.90537
   A41        1.86576  -0.00078   0.00000  -0.01457  -0.01456   1.85120
   A42        1.90467   0.00118   0.00000   0.00648   0.00641   1.91108
   A43        1.90662  -0.00059   0.00000  -0.00067  -0.00081   1.90581
   A44        1.89545  -0.00006   0.00000   0.00022   0.00023   1.89567
   A45        1.98457   0.00076   0.00000   0.01584   0.01580   2.00036
   A46        1.90074  -0.00091   0.00000  -0.00816  -0.00813   1.89262
   A47        1.86982  -0.00045   0.00000  -0.01462  -0.01459   1.85523
   A48        1.91673  -0.00045   0.00000  -0.00316  -0.00318   1.91355
   A49        1.91952  -0.00079   0.00000  -0.00906  -0.00908   1.91044
   A50        1.84707   0.00062   0.00000  -0.00043  -0.00047   1.84660
    D1       -0.25950   0.00140   0.00000   0.07582   0.07584  -0.18366
    D2       -2.92009   0.00080   0.00000   0.02951   0.02948  -2.89061
    D3        2.94530   0.00100   0.00000   0.06978   0.06981   3.01510
    D4        0.28471   0.00040   0.00000   0.02347   0.02345   0.30816
    D5        0.47831  -0.00038   0.00000  -0.30764  -0.30763   0.17068
    D6        2.63126  -0.00036   0.00000  -0.30463  -0.30463   2.32664
    D7       -1.62201  -0.00013   0.00000  -0.32091  -0.32093  -1.94294
    D8       -2.72670   0.00003   0.00000  -0.30185  -0.30184  -3.02853
    D9       -0.57374   0.00005   0.00000  -0.29884  -0.29883  -0.87257
   D10        1.45617   0.00028   0.00000  -0.31513  -0.31513   1.14104
   D11       -1.91871  -0.00006   0.00000  -0.08403  -0.08407  -2.00278
   D12        2.25210  -0.00086   0.00000  -0.09004  -0.09006   2.16204
   D13        0.15031  -0.00078   0.00000  -0.09186  -0.09187   0.05844
   D14        0.75199   0.00055   0.00000  -0.03870  -0.03868   0.71331
   D15       -1.36038  -0.00025   0.00000  -0.04470  -0.04467  -1.40506
   D16        2.82101  -0.00017   0.00000  -0.04652  -0.04648   2.77453
   D17        2.87587  -0.00024   0.00000   0.01172   0.01173   2.88760
   D18       -0.29971  -0.00031   0.00000   0.00966   0.00966  -0.29005
   D19       -1.25218  -0.00004   0.00000   0.01530   0.01530  -1.23688
   D20        1.85543  -0.00011   0.00000   0.01324   0.01324   1.86866
   D21        0.82433   0.00059   0.00000   0.02445   0.02444   0.84877
   D22       -2.35125   0.00052   0.00000   0.02238   0.02238  -2.32887
   D23       -1.15020   0.00021   0.00000   0.01195   0.01191  -1.13829
   D24        3.02208  -0.00112   0.00000  -0.01795  -0.01783   3.00425
   D25        0.99436   0.00061   0.00000   0.00529   0.00523   0.99958
   D26        3.01521   0.00035   0.00000   0.01088   0.01084   3.02605
   D27        0.90431  -0.00098   0.00000  -0.01902  -0.01890   0.88541
   D28       -1.12341   0.00075   0.00000   0.00422   0.00416  -1.11926
   D29        0.93706  -0.00012   0.00000   0.00575   0.00569   0.94275
   D30       -1.17385  -0.00144   0.00000  -0.02415  -0.02404  -1.19790
   D31        3.08161   0.00029   0.00000  -0.00091  -0.00099   3.08063
   D32        3.11416  -0.00019   0.00000  -0.00552  -0.00552   3.10864
   D33        0.00570  -0.00008   0.00000  -0.00325  -0.00324   0.00246
   D34       -0.06843  -0.00113   0.00000  -0.08133  -0.08142  -0.14985
   D35        3.09122  -0.00104   0.00000  -0.07718  -0.07727   3.01394
   D36        2.03699  -0.00102   0.00000  -0.07109  -0.07111   1.96588
   D37       -1.08655  -0.00093   0.00000  -0.06695  -0.06696  -1.15351
   D38       -2.21392   0.00079   0.00000  -0.05108  -0.05097  -2.26489
   D39        0.94573   0.00088   0.00000  -0.04693  -0.04682   0.89891
   D40       -3.12642   0.00017   0.00000   0.00491   0.00495  -3.12148
   D41        0.02484  -0.00023   0.00000   0.00441   0.00443   0.02926
   D42       -0.00060   0.00006   0.00000   0.00113   0.00113   0.00053
   D43       -3.13253  -0.00034   0.00000   0.00063   0.00062  -3.13191
   D44        3.12876  -0.00009   0.00000  -0.00470  -0.00466   3.12410
   D45       -0.01001  -0.00002   0.00000  -0.00390  -0.00387  -0.01388
   D46        0.00077  -0.00006   0.00000  -0.00175  -0.00176  -0.00099
   D47       -3.13800   0.00001   0.00000  -0.00096  -0.00097  -3.13897
   D48        0.00019  -0.00004   0.00000  -0.00005  -0.00005   0.00015
   D49        3.13251   0.00038   0.00000   0.00073   0.00073   3.13325
   D50        0.00032   0.00001   0.00000  -0.00112  -0.00112  -0.00081
   D51        3.14077   0.00000   0.00000   0.00057   0.00058   3.14135
   D52       -0.00070   0.00003   0.00000   0.00186   0.00187   0.00116
   D53        3.13803  -0.00003   0.00000   0.00107   0.00109   3.13912
   D54       -3.14120   0.00004   0.00000   0.00024   0.00024  -3.14096
   D55       -0.00247  -0.00002   0.00000  -0.00055  -0.00054  -0.00301
   D56       -3.12449   0.00102   0.00000   0.02249   0.02248  -3.10201
   D57        0.97919  -0.00033   0.00000  -0.00120  -0.00120   0.97799
   D58       -1.05467   0.00057   0.00000   0.01651   0.01649  -1.03818
   D59        1.01214   0.00050   0.00000   0.02591   0.02591   1.03805
   D60       -1.16737  -0.00085   0.00000   0.00222   0.00223  -1.16514
   D61        3.08196   0.00005   0.00000   0.01993   0.01992   3.10188
   D62       -1.02987   0.00082   0.00000   0.03655   0.03656  -0.99331
   D63        3.07381  -0.00052   0.00000   0.01286   0.01288   3.08669
   D64        1.03995   0.00037   0.00000   0.03057   0.03057   1.07052
   D65       -1.22649  -0.00019   0.00000  -0.01295  -0.01300  -1.23949
   D66        3.03078  -0.00023   0.00000  -0.00534  -0.00541   3.02537
   D67        0.90677   0.00044   0.00000   0.00184   0.00192   0.90868
   D68       -1.11915   0.00041   0.00000   0.00944   0.00950  -1.10964
   D69        2.99019  -0.00028   0.00000  -0.01222  -0.01222   2.97796
   D70        0.96427  -0.00031   0.00000  -0.00462  -0.00464   0.95963
         Item               Value     Threshold  Converged?
 Maximum Force            0.013940     0.000450     NO 
 RMS     Force            0.002613     0.000300     NO 
 Maximum Displacement     0.890856     0.001800     NO 
 RMS     Displacement     0.231539     0.001200     NO 
 Predicted change in Energy=-1.779382D-03
 GradGradGradGradGradGradGradGradGradGradGradGradGradGradGradGradGradGrad

                          Input orientation:                          
 ---------------------------------------------------------------------
 Center     Atomic      Atomic             Coordinates (Angstroms)
 Number     Number       Type             X           Y           Z
 ---------------------------------------------------------------------
      1          8           0        0.808084    0.552045    1.578524
      2          6           0        1.148362   -0.011737    0.543799
      3          7           0        0.299685   -0.825546   -0.163552
      4          6           0       -0.971788   -1.250329    0.375443
      5          6           0       -0.946960   -2.759541    0.579506
      6          8           0       -1.964914   -3.177716    1.361448
      7          8           0       -0.142429   -3.512193    0.076350
      8          6           0       -2.163596   -0.884775   -0.537362
      9          6           0       -2.366690    0.591100   -0.669792
     10          6           0       -1.823021    1.690199   -0.046110
     11          7           0       -2.383673    2.857745   -0.529121
     12          6           0       -3.256830    2.478786   -1.434032
     13          7           0       -3.288800    1.116162   -1.562334
     14          6           0        2.509360    0.191116   -0.103229
     15          6           0        3.472759    0.969469    0.787239
     16          7           0        4.740578    1.171863    0.077426
     17          1           0        0.699618   -1.427418   -0.872170
     18          1           0       -1.091969   -0.758622    1.344194
     19          1           0       -1.893193   -4.149230    1.415339
     20          1           0       -3.063650   -1.362976   -0.128997
     21          1           0       -1.989522   -1.338315   -1.524501
     22          1           0       -1.056149    1.704943    0.715623
     23          1           0       -3.888148    3.129791   -2.023732
     24          1           0       -3.876957    0.585696   -2.188446
     25          1           0        2.934053   -0.786627   -0.373554
     26          1           0        2.372331    0.734326   -1.047299
     27          1           0        3.566780    0.453924    1.756976
     28          1           0        3.036152    1.948822    1.001453
     29          1           0        5.238383    0.285036    0.005539
     30          1           0        5.342164    1.783912    0.625370
 ---------------------------------------------------------------------
                    Distance matrix (angstroms):
                    1          2          3          4          5
     1  O    0.000000
     2  C    1.226497   0.000000
     3  N    2.278388   1.372182   0.000000
     4  C    2.804264   2.461197   1.444852   0.000000
     5  C    3.878765   3.455732   2.417974   1.523148   0.000000
     6  O    4.652715   4.514916   3.603711   2.381875   1.350012
     7  O    4.435993   3.760033   2.733330   2.427617   1.211166
     8  C    3.920753   3.591681   2.492186   1.545073   2.498468
     9  C    3.890455   3.767201   3.061489   2.535572   3.847489
    10  C    3.295079   3.474722   3.293728   3.090147   4.578107
    11  N    4.466065   4.675506   4.571726   4.437108   5.903144
    12  C    5.413996   5.433253   5.018120   4.733067   6.068765
    13  N    5.193042   5.039481   4.313241   3.837162   5.009269
    14  C    2.419278   1.520563   2.433086   3.798063   4.595504
    15  C    2.810848   2.534728   3.767556   4.985085   5.786414
    16  N    4.254642   3.810830   4.875371   6.211839   6.932252
    17  H    3.152133   2.051949   1.012095   2.093203   2.567711
    18  H    2.320120   2.493502   2.052918   1.093021   2.146963
    19  H    5.424529   5.208598   4.283514   3.214654   1.877554
    20  H    4.644702   4.474321   3.406177   2.154771   2.633010
    21  H    4.585719   3.985473   2.712118   2.157154   2.744752
    22  H    2.355661   2.799354   3.002434   2.975983   4.467893
    23  H    6.455665   6.467444   6.053338   5.783307   7.078959
    24  H    6.011722   5.751167   4.851406   4.287718   5.238039
    25  H    3.181571   2.151902   2.643012   4.003949   4.456791
    26  H    3.061869   2.141565   2.740451   4.140795   5.086384
    27  H    2.766203   2.745429   3.999922   5.041002   5.664507
    28  H    2.692264   2.759889   4.067261   5.166240   6.181578
    29  H    4.708835   4.135949   5.064852   6.407839   6.917902
    30  H    4.794150   4.562782   5.732213   7.009641   7.758746
                    6          7          8          9         10
     6  O    0.000000
     7  O    2.254951   0.000000
     8  C    2.983711   3.371213   0.000000
     9  C    4.300155   4.726634   1.495658   0.000000
    10  C    5.069315   5.468480   2.643447   1.375709   0.000000
    11  N    6.338486   6.779814   3.748995   2.271070   1.382315
    12  C    6.440479   6.919001   3.648661   2.222560   2.145695
    13  N    5.360837   5.831519   2.514042   1.386582   2.185627
    14  C    5.789080   4.558370   4.814824   4.925124   4.584762
    15  C    6.862736   5.801745   6.079579   6.030362   5.409178
    16  N    8.095133   6.766398   7.230169   7.169998   6.585193
    17  H    3.892599   2.440291   2.933352   3.676631   4.094584
    18  H    2.571837   3.176666   2.168997   2.739124   2.909314
    19  H    0.975647   2.294316   3.813506   5.200260   6.019941
    20  H    2.592668   3.632469   1.097969   2.143974   3.296651
    21  H    3.422382   3.271119   1.100201   2.143694   3.374205
    22  H    5.008324   5.334985   3.082702   2.208515   1.080993
    23  H    7.412349   7.909279   4.615205   3.254680   3.201275
    24  H    5.515517   5.989048   2.797137   2.141786   3.166731
    25  H    5.720789   4.134715   5.101225   5.484867   5.373234
    26  H    6.318056   5.061574   4.843156   4.756190   4.417811
    27  H    6.629094   5.684436   6.316115   6.412026   5.816309
    28  H    7.170889   6.386069   6.118382   5.816113   4.977533
    29  H    8.106580   6.586130   7.513487   7.641131   7.200040
    30  H    8.863010   7.644011   8.050482   7.907381   7.197190
                   11         12         13         14         15
    11  N    0.000000
    12  C    1.313346   0.000000
    13  N    2.218084   1.369024   0.000000
    14  C    5.588745   6.344558   6.050072   0.000000
    15  C    6.292550   7.245650   7.159658   1.525419   0.000000
    16  N    7.346090   8.243245   8.195293   2.443938   1.467025
    17  H    5.290273   5.588166   4.780545   2.546780   4.023557
    18  H    4.272695   4.783929   4.097413   3.995824   4.912559
    19  H    7.288293   7.342277   6.207948   6.366093   7.442381
    20  H    4.293828   4.061967   2.872503   5.785698   7.000316
    21  H    4.330480   4.022999   2.777412   4.959750   6.364473
    22  H    2.154219   3.172199   3.243530   3.959173   4.588797
    23  H    2.138063   1.081718   2.151001   7.297414   8.170159
    24  H    3.185195   2.130138   1.009623   6.729701   7.938533
    25  H    6.448555   7.079165   6.614961   1.099737   2.172905
    26  H    5.234213   5.905942   5.697321   1.097780   2.152153
    27  H    6.812671   7.800272   7.645610   2.155821   1.102277
    28  H    5.704673   6.768609   6.875416   2.141813   1.093456
    29  H    8.062284   8.891206   8.709871   2.732804   2.048642
    30  H    7.885082   8.869424   8.928913   3.330560   2.045530
                   16         17         18         19         20
    16  N    0.000000
    17  H    4.897688   0.000000
    18  H    6.272964   2.927344   0.000000
    19  H    8.608773   4.400413   3.484716   0.000000
    20  H    8.208166   3.836489   2.534375   3.393841   0.000000
    21  H    7.359443   2.768565   3.061218   4.068560   1.761190
    22  H    5.856066   3.926257   2.542742   5.954964   3.762389
    23  H    9.094133   6.568245   5.855023   8.294046   4.945176
    24  H    8.929708   5.170131   4.694986   6.272330   2.949597
    25  H    2.702331   2.377379   4.377247   6.148947   6.030293
    26  H    2.658014   2.738937   4.466487   6.936023   5.898461
    27  H    2.171204   4.321165   4.831625   7.149619   7.128858
    28  H    2.088674   4.513186   4.948647   7.852133   7.032319
    29  H    1.019529   4.929833   6.553974   8.515259   8.465093
    30  H    1.018210   5.840248   6.955519   9.390240   9.007201
                   21         22         23         24         25
    21  H    0.000000
    22  H    3.892398   0.000000
    23  H    4.880367   4.189806   0.000000
    24  H    2.775798   4.200392   2.549446   0.000000
    25  H    5.086318   4.828659   8.037651   7.181015   0.000000
    26  H    4.852765   3.975483   6.773866   6.354362   1.755780
    27  H    6.697216   4.901116   8.776671   8.425731   2.545283
    28  H    6.514838   4.109514   7.648029   7.734639   3.063290
    29  H    7.564318   6.491648   9.772622   9.380479   2.569457
    30  H    8.253718   6.399436   9.696792   9.713160   3.661217
                   26         27         28         29         30
    26  H    0.000000
    27  H    3.060929   0.000000
    28  H    2.472457   1.757015   0.000000
    29  H    3.086192   2.426997   2.934255   0.000000
    30  H    3.566421   2.490258   2.342290   1.625297   0.000000
 Symmetry turned off by external request.
 Stoichiometry    C9H14N4O3
 Framework group  C1[X(C9H14N4O3)]
 Deg. of freedom    84
 Full point group                 C1      NOp   1
 Rotational constants (GHZ):      0.5320826      0.3539568      0.2323339
 Standard basis: 6-31G(d) (6D, 7F)
   268 basis functions,   504 primitive gaussians,   268 cartesian basis functions
    60 alpha electrons       60 beta electrons
       nuclear repulsion energy      1107.1649355507 Hartrees.
 NAtoms=   30 NActive=   30 NUniq=   30 SFac= 1.00D+00 NAtFMM=   60 NAOKFM=F Big=F
 Integral buffers will be    131072 words long.
 Raffenetti 2 integral format.
 Two-electron integral symmetry is turned off.
 Nuclear repulsion after empirical dispersion term =     1107.1118236655 Hartrees.
 One-electron integrals computed using PRISM.
 NBasis=   268 RedAO= T EigKep=  1.17D-03  NBF=   268
 NBsUse=   268 1.00D-06 EigRej= -1.00D+00 NBFU=   268
 Initial guess from the checkpoint file:  "conf-422.chk"
 B after Tr=     0.004592   -0.061055    0.012945
         Rot=    0.999938   -0.009529   -0.002181    0.005247 Ang=  -1.27 deg.
 ExpMin= 1.61D-01 ExpMax= 5.48D+03 ExpMxC= 8.25D+02 IAcc=2 IRadAn=         4 AccDes= 0.00D+00
 Harris functional with IExCor=  402 and IRadAn=       4 diagonalized for initial guess.
 HarFok:  IExCor=  402 AccDes= 0.00D+00 IRadAn=         4 IDoV= 1 UseB2=F ITyADJ=14
 ICtDFT=  3500011 ScaDFX=  1.000000  1.000000  1.000000  1.000000
 FoFCou: FMM=F IPFlag=           0 FMFlag=      100000 FMFlg1=           0
         NFxFlg=           0 DoJE=T BraDBF=F KetDBF=T FulRan=T
[...]
 -0.00000602,-0.00002051,0.00000219,0.00000389,0.00000642,-0.00000502,-
 0.00001166,0.00000401,0.00002184,0.00000460,0.00002491,-0.00014119,0.0
 0009579,-0.00010750,0.00001708,-0.00001208,0.00004052,-0.00003091,-0.0
 0022572,0.00031005,0.00037987,-0.00044322,-0.00047952,0.00002780,0.001
 14982,0.00011893,0.00060510,-0.00016346,0.00074183,0.11470000,0.181580
 48,0.00002709,0.00015552,0.00005823,-0.00016149,-0.00028126,-0.0001835
 2,0.00038472,0.00019430,0.00005093,-0.00031341,-0.00014804,-0.00004001
 ,-0.00009511,0.00033091,0.00017876,0.00007571,-0.00005617,-0.00000353,
 0.00011731,-0.00018558,-0.00012128,0.00107010,-0.00021028,0.00051828,-
 0.00043166,-0.01554446,-0.00934175,-0.00394062,0.00137288,-0.00256594,
 -0.00249390,0.00135789,0.00401124,0.00699627,0.00071419,-0.00089478,-0
 .16541056,-0.13796811,-0.21185139,0.00002589,0.00003345,0.00001010,-0.
 00002436,-0.00001148,-0.00001596,0.00002565,0.00002344,-0.00001777,0.0
 0001851,-0.00001397,0.00004795,0.00003344,-0.00004646,0.00003009,-0.00
 000806,0.00001891,-0.00001858,0.00000806,0.00059680,-0.00043791,-0.000
 17921,0.00016501,0.00003550,-0.00096959,-0.00090657,0.00087564,0.00044
 681,-0.00007698,-0.00053756,0.16477264,0.15048992,0.22019726,-0.005551
 93,-0.00283274,0.00472094,-0.00393840,0.02896070,0.01237696,-0.0001261
 7,-0.00142570,-0.00079249,0.00047554,-0.00044566,-0.00031873,-0.000323
 66,0.00026654,0.00023619,0.00009598,-0.00007450,-0.00008531,0.00020847
 ,-0.00012868,-0.00010748,0.00010762,0.00004709,-0.00004360,0.00005231,
 0.00005142,0.00003678,0.00002738,0.00002082,0.00011109,-0.00003487,-0.
 00002527,-0.00002626,-0.00001250,0.00000881,-0.00001998,-0.00005145,-0
 .00002263,-0.00008091,-0.07722283,0.06428636,0.03586166,0.00784367,-0.
 02180164,-0.01180538,0.00219641,0.00040301,0.00001106,-0.00213387,-0.0
 0104567,-0.00003362,0.00040607,0.00026716,0.00009300,-0.00002338,-0.00
 001154,0.00001836,0.00002490,-0.00002175,0.00001689,-0.00003572,-0.000
 01516,-0.00003171,0.00011587,-0.00007687,-0.00001561,-0.00000760,-0.00
 000226,-0.00000808,-0.00000760,0.00001052,0.00000456,0.08264657,-0.000
 90660,0.00071895,0.00201907,-0.00420251,0.00410472,0.00261687,-0.00039
 845,-0.00003347,0.00051229,0.00035468,0.00060223,-0.00003170,0.0001590
 3,-0.00011146,-0.00006998,-0.00004789,0.00002123,0.00003318,-0.0000632
 6,0.00008824,0.00005666,-0.00000523,-0.00001770,-0.00003203,-0.0000369
 2,-0.00004668,-0.00003344,-0.00000739,-0.00001296,-0.00006314,0.000046
 53,0.00004149,0.00001466,-0.00001547,-0.00001773,-0.00001782,0.0000430
 6,0.00003675,0.00008134,0.06665587,-0.21917855,-0.09888281,0.00345900,
 -0.00896383,-0.00493486,0.00019724,0.00073815,0.00073909,-0.00021015,0
 .00062339,0.00039776,-0.00006986,0.00003435,0.00013338,0.00000420,-0.0
 0000079,-0.00001176,0.00001157,0.00001516,0.00000143,0.00001123,0.0000
 2097,0.00001964,-0.00005163,-0.00000806,0.00003584,0.00000456,-0.00000
 002,0.00000458,0.00000904,-0.00000767,-0.00000758,-0.06929695,0.238807
 47,0.00433655,0.00119254,-0.00099256,0.00271562,-0.01426573,-0.0104356
 3,-0.00138727,0.00035664,0.00047426,0.00005498,0.00063323,-0.00025323,
 0.00036558,-0.00018177,-0.00019322,-0.00012496,0.00001366,0.00010596,-
 0.00027023,0.00008672,0.00002482,-0.00012233,-0.00002649,0.00010372,-0
 .00001031,-0.00003545,0.00000149,-0.00002058,-0.00002088,-0.00004379,0
 .00000181,0.00001583,0.00002070,0.00000267,0.00000549,0.00000283,0.000
 01885,0.00001881,0.00001940,0.03687329,-0.09801241,-0.10325369,0.00777
 607,-0.01966558,-0.01114374,0.00076384,0.00124012,0.00085432,0.0003227
 9,0.00006957,0.00115458,-0.00016775,-0.00008144,0.00003188,0.00003081,
 0.00001628,-0.00001072,-0.00003523,0.00001109,-0.00003483,0.00001876,-
 0.00000284,0.00001426,-0.00003841,0.00003991,-0.00003050,0.00000166,0.
 00000254,0.00000179,0.00000115,-0.00000584,0.00000620,-0.04011307,0.11
 058589,0.11293403,-0.00275334,0.00278275,-0.00107948,0.00600478,-0.024
 32770,0.02218048,-0.00224778,0.00090188,-0.00125730,-0.00036701,0.0008
 9054,-0.00105497,0.00020374,0.00026307,-0.00016366,-0.00004626,-0.0000
 4617,0.00004227,0.00000057,-0.00015202,0.00001849,-0.00028986,-0.00027
 616,0.00038204,0.00002042,-0.00019494,-0.00007868,0.00018284,0.0000625
 5,0.00002848,-0.00001336,0.00011346,-0.00011755,-0.00004445,0.00005443
 ,-0.00002951,0.00004260,0.00003073,0.00002915,-0.04958286,0.02201401,-
 0.01874381,-0.00415197,0.01752958,-0.01835122,0.00180055,0.00068526,0.
 00100145,-0.00001716,-0.00044424,0.00056766,0.00007263,0.00009485,0.00
 003488,0.00000744,0.00001437,-0.00001543,-0.00017375,0.00007267,-0.000
 10348,0.00000553,0.00000470,-0.00000328,0.00002766,-0.00011012,0.00009
 714,-0.00000574,0.00000481,0.00000117,-0.00001514,-0.00001637,0.000018
 37,-0.00145359,0.00813598,-0.00768141,0.05479320,0.00053681,-0.0004307
 4,-0.00078421,-0.00061777,-0.00420418,0.00306838,-0.00112574,0.0008883
 4,-0.00030257,-0.00037378,0.00019190,-0.00035373,0.00017591,-0.0000138
 4,-0.00007989,-0.00005514,0.,0.00004160,-0.00010821,0.00002297,-0.0000
 0681,-0.00008824,-0.00004527,0.00016232,-0.00001071,-0.00005883,0.0000
 0570,0.00000583,0.00001670,0.00002906,-0.00002159,-0.00000066,-0.00001
 112,0.00000031,0.00002293,0.00000758,0.00001304,0.00000869,-0.00004871
 ,0.02656566,-0.18133096,0.12873997,-0.00214312,0.00817497,-0.00813118,
 0.00070573,0.00006389,-0.00031073,0.00028864,-0.00051551,0.00074701,0.
 00001225,-0.00000530,-0.00001059,0.00001252,0.00000900,-0.00000046,-0.
 00003278,0.00001773,-0.00003966,-0.00001002,-0.00001945,-0.00001444,-0
 .00004752,0.00002564,-0.00003864,-0.00000217,0.00000355,0.00000233,-0.
 00001927,-0.00000480,0.00001339,0.00334654,-0.01958729,0.01849836,-0.0
 2552829,0.19521977,0.00222196,-0.00165280,0.00098051,-0.00143744,0.010
 55307,-0.01171940,-0.00039681,-0.00070255,0.00024267,0.00046196,-0.000
 04274,0.00012025,-0.00005467,-0.00001360,0.00004596,-0.00002425,-0.000
 05391,0.00003321,-0.00002843,-0.00000759,0.00000946,-0.00000731,0.0000
 4824,-0.00007360,0.00003456,0.00004640,0.00003685,-0.00005184,-0.00003
 774,-0.00001403,-0.00001546,-0.00005039,0.00003794,0.00002265,0.000003
 71,0.00002869,-0.00003239,-0.00002840,-0.00004547,-0.02291915,0.129192
 44,-0.16871041,-0.00517438,0.01679559,-0.01923312,0.00181430,-0.000278
 90,0.00227462,0.00001579,-0.00004737,0.00007658,-0.00007622,-0.0000680
 0,-0.00002828,-0.00000799,-0.00000384,-0.00000228,0.00000596,-0.000026
 42,0.00000855,0.00000662,-0.00001103,0.00000153,0.00003753,0.00006804,
 -0.00006197,-0.00000139,0.00000181,-0.00000100,0.00000257,0.00000334,0
 .00000295,0.00173643,-0.01196328,0.01197318,0.02614778,-0.13976276,0.1
 8571633,-0.00006480,-0.00004346,0.00127274,0.00162144,0.00064916,-0.00
 238094,-0.00049296,-0.00035501,0.00029164,0.00013344,0.00001012,-0.000
 10854,-0.00003571,0.00011746,-0.00004830,-0.00002938,-0.00007140,0.000
 05021,0.00001447,-0.00007264,0.00003822,-0.00003542,-0.00001045,0.0000
 1858,0.00001195,0.00001056,0.00002185,-0.00001524,-0.00001522,0.000009
 46,-0.00002201,-0.00000257,0.00001012,0.00000882,-0.00000022,0.0000033
 0,-0.00001918,-0.00000504,-0.00000822,-0.00501292,0.01687793,-0.016344
 27,-0.05827596,0.02863387,-0.02668273,-0.00453891,-0.02545893,0.028387
 20,0.00004175,0.00016882,-0.00003087,-0.00002439,0.00000954,0.00001567
 ,-0.00000539,-0.00000321,-0.00000769,-0.00002514,0.00000114,-0.0000059
 6,0.00001247,0.00000462,0.00000305,0.00002197,0.00000871,-0.00002293,-
 0.00000054,0.00000044,-0.00000394,0.00001339,0.00000136,0.00000012,0.0
 0090265,-0.00051008,0.00076086,-0.00346385,-0.00209053,-0.00337131,0.0
 6669645,-0.00015165,0.00038795,-0.00098861,-0.00001169,0.00076954,0.00
 107614,0.00028900,-0.00017074,-0.00019197,0.00003066,0.00002766,0.0000
 4353,0.00003927,-0.00004569,0.00004098,-0.00000852,0.00001738,-0.00003
 282,-0.00002937,0.00002035,-0.00002951,0.00002346,-0.00000472,-0.00000
 656,-0.00000019,-0.00001279,-0.00000096,-0.00000102,-0.00000449,-0.000
 00005,0.00001767,0.00002272,-0.00000815,-0.00001459,-0.00000305,-0.000
 01924,0.00000975,0.00002015,0.00001057,-0.00261371,0.00747114,-0.00872
 665,0.03149916,-0.17143043,0.11072984,-0.00702272,-0.00229612,0.008393
 66,-0.00003057,-0.00007441,0.00001585,0.00001933,-0.00001095,0.0000048
 1,0.00001559,0.00000694,0.00001479,0.00000426,0.00000471,0.00000159,-0
 .00000546,0.00000401,-0.00000532,-0.00000554,-0.00002687,0.00000698,-0
 .00000321,0.00000025,0.00000031,-0.00000317,-0.00000252,0.00000627,0.0
 0062500,0.00105460,0.00050137,-0.00221899,0.00049224,-0.00193240,-0.02
 487340,0.18181430,-0.00022039,0.00023157,0.00135162,0.00144961,-0.0000
 3981,-0.00205193,-0.00048446,-0.00034941,0.00044921,0.00009174,-0.0000
 7577,-0.00009920,-0.00018216,0.00019303,-0.00000382,0.00003275,-0.0000
 7175,0.00002343,0.00012950,-0.00012263,0.00004476,-0.00003789,-0.00000
 880,0.00000685,0.00000988,0.00001662,0.00001539,-0.00002237,-0.0000008
 5,-0.00000499,-0.00001479,-0.00001361,0.00002171,0.00001120,-0.0000042
 0,0.00000618,-0.00001170,-0.00000814,0.00000766,-0.00766210,0.01573678
 ,-0.01566975,-0.02892806,0.11026796,-0.16235870,0.00910799,0.01300660,
 -0.01272768,-0.00001255,0.00022738,-0.00014089,-0.00002710,0.00002254,
 0.00001120,-0.00002989,-0.00001368,-0.00001171,-0.00002031,-0.00000060
 ,-0.00000255,0.00001300,0.00000568,0.00000681,0.00000597,0.00000116,-0
 .00001532,0.00000434,-0.00000097,-0.00000242,0.00001369,0.00000445,-0.
 00000757,0.00104303,0.00013524,0.00064796,-0.00292436,-0.00146747,-0.0
 0232125,0.02675129,-0.12750837,0.18055216,-0.00149667,0.00077145,0.000
 95083,0.00078744,-0.00186846,-0.00165828,0.00036643,0.00068127,0.00088
 703,-0.00021846,0.00010683,0.00020664,0.00006587,-0.00013875,-0.000009
 13,-0.00000170,0.00005296,-0.00000324,-0.00005272,0.00008741,0.0000133
 3,0.00000742,-0.00000067,-0.00001964,-0.00001698,-0.00001103,-0.000017
 91,-0.00002196,0.00000097,-0.00004962,0.00002667,-0.00000192,0.0000217
 8,0.00000576,-0.00000530,0.00000793,0.00002818,0.00000800,0.00004078,0
 .00837898,-0.02045571,-0.01161708,-0.07798482,0.07347716,0.03848413,-0
 .01514494,0.02389657,0.01836360,0.00045707,0.00020509,-0.00001647,-0.0
 0012477,-0.00008574,-0.00002031,0.00000129,-0.00000069,-0.00000218,0.0
 0001605,0.00000168,0.00000359,0.00000581,0.00000351,0.00000719,-0.0000
 4586,0.00001990,-0.00000232,0.00000521,0.00000024,0.00000563,0.0000000
 8,-0.00000270,-0.00000446,-0.00398655,-0.00201748,-0.00339533,0.001148
 93,0.00043866,0.00058950,-0.00061137,0.00567207,0.00187115,0.09325588,
 0.00101772,0.00176401,0.00200246,0.00148685,-0.00164306,-0.00334042,0.
 00001130,0.00044517,0.00074075,-0.00005352,0.00002934,0.00004859,0.000
 10300,-0.00013344,-0.00002408,-0.00003485,0.00002448,0.00002648,-0.000
 09530,0.00009983,0.00000903,0.00000373,-0.00000065,-0.00000495,-0.0000
 1795,-0.00000999,-0.00001276,-0.00002272,-0.00000624,-0.00004031,0.000
 01155,0.00000404,0.00002285,0.00000514,-0.00000668,0.00000535,0.000019
 26,0.00001059,0.00003317,0.00165191,-0.00923583,-0.00460616,0.07643184
 ,-0.23713283,-0.09986004,-0.00392130,0.01098449,0.00570035,0.00015121,
 0.00018400,0.00006689,-0.00008003,-0.00004748,0.00001180,0.00000927,0.
 00000043,-0.00000267,0.00000584,0.00000257,-0.00000003,0.00000791,0.00
 000282,0.00000970,-0.00003662,0.00002162,-0.00001006,0.00000431,0.0000
 0028,0.00000286,0.00000416,-0.00000283,-0.00000416,-0.00179699,0.00095
 153,-0.00116501,-0.00026909,0.00113852,0.00026525,0.00734310,-0.019555
 57,-0.00948729,-0.08002321,0.24988737,0.00076384,0.00145028,0.00055147
 ,0.00103707,-0.00067940,-0.00092058,-0.00010738,-0.00013697,0.00001129
 ,0.00003927,0.00008693,0.00002209,0.00002957,-0.00000408,-0.00001767,-
 0.00002209,-0.00001037,0.00001659,-0.00002783,0.00000419,0.00002952,0.
 00000140,-0.00002606,0.00000072,-0.00001096,-0.00002762,-0.00001230,-0
 .00000116,-0.00000907,-0.00002118,0.00003131,0.00003196,-0.00000127,-0
 .00001705,-0.00000643,-0.00002193,0.00002414,0.00002763,0.00003969,0.0
 0489915,-0.02013505,-0.01166127,0.03987461,-0.09472429,-0.10442081,0.0
 0779820,-0.01327649,-0.00968977,0.00014348,0.00013476,0.00005742,-0.00
 003888,-0.00000851,0.00002838,-0.00000041,-0.00000015,-0.00000305,-0.0
 0000766,0.00001312,-0.00000501,0.00000201,0.00001003,0.00000224,-0.000
 02054,-0.00001874,0.00001802,0.00000021,0.00000019,0.00000200,0.000000
 44,-0.00000426,0.00000128,-0.00310853,-0.00129153,-0.00237445,0.000960
 35,0.00003960,0.00062723,-0.00774528,0.01983016,0.01120212,-0.04720829
 ,0.10780207,0.11623911,0.00000316,-0.00054115,-0.00101101,-0.00067304,
 -0.00022122,0.00117861,0.00014034,-0.00001749,-0.00016917,-0.00007788,
 -0.00002027,0.00003217,-0.00008625,-0.00000710,0.00007064,0.00006171,0
 .00003640,-0.00005653,0.00007064,-0.00000425,-0.00003973,-0.00000101,0
 .00001287,-0.00000524,0.00000487,0.00001279,-0.00000221,0.00000990,0.0
 0000582,0.00000746,0.00000302,-0.00001644,-0.00000721,0.00000385,0.000
 00270,0.00000832,-0.00000228,-0.00001453,-0.00001846,0.00102751,0.0019
 1013,0.00089425,-0.01481245,0.03251929,0.01018177,-0.12999571,0.125387
 22,0.06316632,-0.00008849,-0.00006005,-0.00002198,0.00001255,-0.000001
 00,-0.00001446,-0.00000833,-0.00000555,0.00000944,0.00001163,-0.000005
 64,0.00000272,-0.00000440,-0.00000777,-0.00000279,0.00000129,0.0000122
 0,0.00000573,-0.00000140,-0.00000051,0.00000180,-0.00000988,0.00000204
 ,0.00000100,-0.00054936,-0.00114671,-0.00079160,-0.00007384,0.00000467
 ,0.00007109,0.00183211,-0.00091629,-0.00017637,-0.00541892,-0.00281448
 ,0.00293475,0.13616770,-0.00019678,-0.00004501,0.00009723,0.00007569,0
 .00009263,0.00005019,0.00012672,-0.00000840,-0.00001248,-0.00004661,0.
 00000847,0.00002202,-0.00004389,-0.00001691,0.00002527,0.00003517,0.00
 002491,-0.00002120,0.00004168,0.00000905,0.00000068,0.00000116,0.00000
 231,-0.00001474,-0.00000507,0.00000459,-0.00000881,-0.00000530,0.00000
 211,-0.00001082,0.00001409,-0.00000096,0.00001111,-0.00000184,-0.00000
 948,-0.00000226,0.00000922,0.00000406,0.00001692,0.00043359,0.00095962
 ,0.00051058,-0.00845650,0.00689222,0.00955447,0.12716832,-0.30479071,-
 0.13763163,-0.00002557,0.00000110,-0.00004167,-0.00000102,0.00000119,-
 0.00000339,-0.00001047,-0.00000574,-0.00000193,0.00000814,-0.00000144,
 0.00000351,-0.00000022,0.00000136,0.00000455,-0.00000997,0.00000075,0.
 00000327,0.00000273,-0.00000152,0.00000155,-0.00000047,0.00000103,-0.0
 0000593,0.00053933,-0.00008513,-0.00008830,0.00008689,-0.00023053,-0.0
 0006937,-0.00058742,0.00185836,0.00003813,-0.00174079,0.00150350,0.000
 97803,-0.12934541,0.31069394,0.00016420,0.00004064,-0.00019996,-0.0000
 1377,-0.00018135,-0.00003833,-0.00006897,0.00006296,-0.00005890,-0.000
 00697,-0.00002755,0.00000548,0.00001407,-0.00003380,0.00003496,-0.0000
 0071,0.00001199,-0.00002429,-0.00002386,0.00001907,-0.00004376,0.00000
 680,0.00000540,0.00001330,0.00000305,-0.00000506,0.00000337,0.00001023
 ,-0.00000040,0.00000489,-0.00000240,-0.00000117,-0.00001414,-0.0000008
 2,0.00001058,0.00000162,-0.00000036,-0.00000378,-0.00001893,-0.0009857
 0,0.00107542,0.00098152,0.01360638,-0.01669135,-0.01185279,0.03729710,
 -0.08729800,-0.05951077,-0.00002346,-0.00004992,0.00007672,0.00001085,
 -0.00000615,0.00000008,0.00001141,0.00000314,0.00001454,0.00000201,0.0
 0000048,-0.00000241,-0.00000457,-0.00000554,-0.00000722,0.00000107,0.0
 0000105,0.00000267,-0.00000407,0.00000144,0.00000096,-0.00000877,-0.00
 000123,0.00000889,0.00023600,-0.00034698,0.00041277,-0.00010811,0.0002
 9156,-0.00008273,-0.00143486,-0.00141166,0.00061502,0.00310214,0.00201
 114,-0.00060733,-0.06429379,0.12660984,0.08168317,-0.00004503,0.000318
 79,0.00066951,0.00012564,-0.00098473,-0.00278908,-0.00111882,-0.000242
 95,0.00050166,0.00016600,-0.00015099,-0.00020900,-0.00002651,0.0001909
 1,-0.00006206,-0.00006438,-0.00011836,0.00007327,-0.00001428,-0.000102
 09,0.00002842,-0.00002503,-0.00004848,0.00005362,0.00000673,-0.0000274
 7,0.00001494,-0.00000510,-0.00001122,0.00001519,-0.00000872,0.00003505
 ,-0.00000227,-0.00001717,0.00000387,-0.00002667,-0.00000108,0.00002544
 ,0.00000892,-0.00623709,-0.00106307,0.00589882,-0.02112037,-0.01149133
 ,-0.02616060,-0.20804304,-0.10756964,-0.14010131,0.00001141,0.00008879
 ,0.00005435,0.00001611,0.00001610,0.00001443,0.00000209,0.00000163,-0.
 00000309,-0.00004246,0.00001636,-0.00002010,0.00000217,0.00000963,-0.0
 0000629,0.00002447,-0.00003512,-0.00001431,-0.00000249,0.00000132,-0.0
 0000434,0.00000846,-0.00000287,0.00000618,0.00035603,-0.00010541,0.000
 11321,0.00038909,0.00016831,0.00043033,0.00136226,-0.00033515,0.000219
 34,0.00056865,0.00089795,-0.00022373,0.01245296,0.01193460,0.01251588,
 0.22127952,0.00025550,-0.00015620,0.00006354,-0.00028972,0.00055011,-0
 .00026945,0.00033872,0.00010074,-0.00000895,-0.00005083,0.00000125,0.0
 0005643,-0.00006964,-0.00003587,0.00005276,0.00006105,0.00004374,-0.00
 003848,0.00005976,0.00001588,-0.00001274,0.00000077,0.00002692,-0.0000
 2819,-0.00000052,0.00001946,-0.00000834,-0.00000021,0.00001130,-0.0000
 1445,0.00000049,-0.00003617,0.00000587,0.00001614,0.00000424,0.0000243
 6,-0.00000060,-0.00002567,-0.00000795,0.00009124,0.00043658,0.00137190
 ,-0.00835153,-0.00585124,-0.00348275,-0.07704661,-0.09100602,-0.097630
 46,-0.00003215,-0.00002698,-0.00004650,-0.00001128,-0.00000230,-0.0000
 0809,-0.00001640,-0.00000566,-0.00000262,0.00002100,-0.00001100,0.0000
 0910,-0.00000013,-0.00000847,0.00000343,-0.00001655,0.00002821,0.00000
 674,0.00000383,-0.00000033,0.00000339,-0.00000594,0.00000381,-0.000005
 85,0.00019072,0.00021212,0.00026370,-0.00015845,0.00015052,-0.00022479
 ,0.00026278,-0.00033400,-0.00071379,0.00092867,0.00072001,-0.00004993,
 -0.02476025,-0.01686537,-0.02408076,0.10858013,0.11204037,-0.00031197,
 0.00009703,0.00013063,0.00085182,-0.00003739,0.00055365,-0.00010626,-0
 .00004006,-0.00011951,0.00008091,0.00006647,-0.00006444,0.00006841,0.0
 0003817,-0.00004822,-0.00004855,-0.00003277,0.00003021,-0.00004531,-0.
 00002262,0.00001683,-0.00000701,-0.00001855,0.00001931,0.00000345,-0.0
 0000904,0.00000992,0.00000418,-0.00000735,0.00001630,-0.00000820,0.000
 02025,-0.00000975,-0.00000669,-0.00000094,-0.00001171,-0.00000793,0.00
 001086,-0.00000325,0.00141805,0.00055767,-0.00098016,0.01897462,0.0144
 5567,0.00910185,-0.15829313,-0.13984418,-0.19747628,0.00003112,-0.0000
 0504,0.00002660,0.00001500,0.00001123,0.00001041,0.00001273,0.00000812
 ,-0.00000132,-0.00001574,0.00000649,-0.00000483,0.00000167,0.00000582,
 -0.00000279,0.00001522,-0.00001702,-0.00000254,-0.00000317,0.00000044,
 -0.00000332,0.00000656,-0.00000207,0.00000426,0.00008782,0.00030002,-0
 .00001778,0.00020253,-0.00028390,0.00007704,0.00056152,0.00018544,0.00
 045571,-0.00053099,-0.00020080,0.00090746,-0.01195548,-0.00001484,-0.0
 1139839,0.14900477,0.12477288,0.19878409\\0.00000061,0.00000020,0.0000
 0187,0.00000330,0.00000009,-0.00000197,-0.00000001,-0.00000127,0.00000
 423,-0.00000244,0.00000166,-0.00000282,-0.00000212,0.00000091,0.000001
 41,-0.00000052,0.00000149,0.00000036,0.00000233,-0.00000122,-0.0000009
 5,-0.00000087,0.00000171,0.00000210,0.00000217,-0.00000168,-0.00000031
 ,-0.00000033,0.00000115,0.00000228,-0.00000036,0.00000076,-0.00000056,
 0.00000012,0.00000156,0.00000022,-0.00000085,-0.00000238,-0.00000249,-
 0.00000076,0.00000038,-0.00000041,-0.00000026,0.00000062,0.00000072,-0
 .00000099,0.00000029,-0.00000073,0.00000007,0.00000063,-0.00000207,-0.
 00000017,-0.00000006,0.00000037,-0.00000035,-0.00000162,0.00000074,-0.
 00000122,-0.00000085,0.00000117,0.00000034,-0.00000110,-0.00000150,0.0
 0000112,0.00000084,0.00000044,-0.00000048,0.00000063,-0.00000120,-0.00
 000056,-0.00000025,-0.00000125,0.00000086,-0.00000117,0.00000003,-0.00
 000008,0.00000042,-0.00000089,0.00000003,-0.00000075,0.00000095,0.0000
 0030,-0.00000012,-0.00000018,0.00000050,-0.00000126,-0.00000044,0.0000
 0061,0.00000038,0.00000087\\\@


 KNOWLEDGE IS CHIMERA - FOR BEYOND IT LIES OTHER KNOWLEDGE,
 AND THE INCOMPLETENESS OF WHAT IS KNOWN RENDERS THE KNOWING FALSE.
     -- THE THOMAS COVENANT CHRONICLES
 Job cpu time:       0 days  1 hours  0 minutes 32.8 seconds.
 File lengths (MBytes):  RWF=    260 Int=      0 D2E=      0 Chk=      8 Scr=      1
 Normal termination of Gaussian 09 at Tue Jul 27 02:06:41 2021.
