 Entering Gaussian System, Link 0=g09
 Input=opt_freq-conf-295.com
 Output=opt_freq-conf-295.log
 Initial command:
 /aerosol/software/g09/l1.exe "/scratch/nicole/10553/Gau-118893.inp" -scrdir="/scratch/nicole/10553/"
 Entering Link 1 = /aerosol/software/g09/l1.exe PID=    118894.
  
 Copyright (c) 1988,1990,1992,1993,1995,1998,2003,2009,2013,
            Gaussian, Inc.  All Rights Reserved.
  
 This is part of the Gaussian(R) 09 program.  It is based on
 the Gaussian(R) 03 system (copyright 2003, Gaussian, Inc.),
 the Gaussian(R) 98 system (copyright 1998, Gaussian, Inc.),
 the Gaussian(R) 94 system (copyright 1995, Gaussian, Inc.),
 the Gaussian 92(TM) system (copyright 1992, Gaussian, Inc.),
 the Gaussian 90(TM) system (copyright 1990, Gaussian, Inc.),
 the Gaussian 88(TM) system (copyright 1988, Gaussian, Inc.),
 the Gaussian 86(TM) system (copyright 1986, Carnegie Mellon
 University), and the Gaussian 82(TM) system (copyright 1983,
 Carnegie Mellon University). Gaussian is a federally registered
 trademark of Gaussian, Inc.
  
 This software contains proprietary and confidential information,
 including trade secrets, belonging to Gaussian, Inc.
  
 This software is provided under written license and may be
 used, copied, transmitted, or stored only in accord with that
 written license.
  
 The following legend is applicable only to US Government
 contracts under FAR:
  
                    RESTRICTED RIGHTS LEGEND
  
 Use, reproduction and disclosure by the US Government is
 subject to restrictions as set forth in subparagraphs (a)
 and (c) of the Commercial Computer Software - Restricted
 Rights clause in FAR 52.227-19.
  
 Gaussian, Inc.
 340 Quinnipiac St., Bldg. 40, Wallingford CT 06492
  
  
 ---------------------------------------------------------------
 Warning -- This program may not be used in any manner that
 competes with the business of Gaussian, Inc. or will provide
 assistance to any competitor of Gaussian, Inc.  The licensee
 of this program is prohibited from giving any competitor of
 Gaussian, Inc. access to this program.  By using this program,
 the user acknowledges that Gaussian, Inc. is engaged in the
 business of creating and licensing software in the field of
 computational chemistry and represents and warrants to the
 licensee that it is not a competitor of Gaussian, Inc. and that
 it will not use this program in any manner prohibited above.
 ---------------------------------------------------------------
  

 Cite this work as:
 Gaussian 09, Revision D.01,
 M. J. Frisch, G. W. Trucks, H. B. Schlegel, G. E. Scuseria, 
 M. A. Robb, J. R. Cheeseman, G. Scalmani, V. Barone, B. Mennucci, 
 G. A. Petersson, H. Nakatsuji, M. Caricato, X. Li, H. P. Hratchian, 
 A. F. Izmaylov, J. Bloino, G. Zheng, J. L. Sonnenberg, M. Hada, 
 M. Ehara, K. Toyota, R. Fukuda, J. Hasegawa, M. Ishida, T. Nakajima, 
 Y. Honda, O. Kitao, H. Nakai, T. Vreven, J. A. Montgomery, Jr., 
 J. E. Peralta, F. Ogliaro, M. Bearpark, J. J. Heyd, E. Brothers, 
 K. N. Kudin, V. N. Staroverov, T. Keith, R. Kobayashi, J. Normand, 
 K. Raghavachari, A. Rendell, J. C. Burant, S. S. Iyengar, J. Tomasi, 
 M. Cossi, N. Rega, J. M. Millam, M. Klene, J. E. Knox, J. B. Cross, 
 V. Bakken, C. Adamo, J. Jaramillo, R. Gomperts, R. E. Stratmann, 
 O. Yazyev, A. J. Austin, R. Cammi, C. Pomelli, J. W. Ochterski, 
 R. L. Martin, K. Morokuma, V. G. Zakrzewski, G. A. Voth, 
 P. Salvador, J. J. Dannenberg, S. Dapprich, A. D. Daniels, 
 O. Farkas, J. B. Foresman, J. V. Ortiz, J. Cioslowski, 
 and D. J. Fox, Gaussian, Inc., Wallingford CT, 2013.
 
 ******************************************
 Gaussian 09:  ES64L-G09RevD.01 24-Apr-2013
                27-Jul-2021 
 ******************************************
 %mem=2gb
 %nproc=4
 Will use up to    4 processors via shared memory.
 %chk=conf-295.chk
 ----------------------------------------------------------------------
 # B3LYP/6-31G(d) EmpiricalDispersion=GD3BJ opt=calcfc freq=noraman nos
 ymm integral(ultrafinegrid)
 ----------------------------------------------------------------------
 1/10=4,14=-1,18=20,19=15,26=4,38=1/1,3;
 2/9=110,12=2,15=1,17=6,18=5,40=1/2;
 3/5=1,6=6,7=1,11=2,16=1,25=1,30=1,71=2,74=-5,75=-5,124=41,140=1/1,2,3;
 4//1;
 5/5=2,38=5/2;
 8/6=4,10=90,11=11/1;
 11/6=1,8=1,9=11,15=111,16=1,31=1/1,2,10;
 10/6=1,13=1,31=1/2;
 6/7=2,8=2,9=2,10=2,28=1/1;
 7/10=1,18=20,25=1,30=1/1,2,3,16;
 1/10=4,14=-1,18=20,19=15,26=4/3(2);
 2/9=110,15=1/2;
 99//99;
 2/9=110,15=1/2;
 3/5=1,6=6,7=1,11=2,16=1,25=1,30=1,71=1,74=-5,75=-5,124=41/1,2,3;
 4/5=5,16=3,69=1/1;
 5/5=2,38=5/2;
 7/30=1/1,2,3,16;
 1/14=-1,18=20,19=15,26=4/3(-5);
 2/9=110,15=1/2;
 6/7=2,8=2,9=2,10=2,19=2,28=1/1;
 99/9=1/99;
 ------------------------------------------------------------
 Candidate Structure: Conf:295 OPT and FREQ calc in gas phase
 ------------------------------------------------------------
 Symbolic Z-matrix:
 Charge =  0 Multiplicity = 1
 O                     0.99868   0.25393  -1.30825 
 C                     1.54103  -0.4116   -0.43426 
 N                     0.88521  -0.77622   0.69038 
 C                    -0.45719  -0.27355   0.92541 
 C                    -0.73566  -0.43996   2.40348 
 O                    -1.96335   0.00395   2.75481 
 O                     0.03439  -0.91686   3.19448 
 C                    -1.48971  -0.99987   0.0266 
 C                    -2.56601  -0.09592  -0.47179 
 C                    -2.94691   0.23608  -1.74047 
 N                    -3.99656   1.13826  -1.71326 
 C                    -4.2317    1.3495   -0.44114 
 N                    -3.38666   0.6337    0.34865 
 C                     2.98549  -0.87192  -0.53834 
 C                     3.94273   0.31628  -0.57455 
 N                     3.84995   0.99938  -1.86386 
 H                     1.37442  -1.15506   1.48561 
 H                    -0.45034   0.79627   0.6873 
 H                    -2.03655  -0.13336   3.7117 
 H                    -0.96322  -1.38181  -0.84588 
 H                    -1.90081  -1.86282   0.55072 
 H                    -2.5303   -0.1175   -2.67275 
 H                    -4.98513   1.99431  -0.02581 
 H                    -3.32973   0.6303    1.35462 
 H                     3.21975  -1.53327   0.29868 
 H                     3.09015  -1.43985  -1.46574 
 H                     4.96531  -0.05625  -0.46242 
 H                     3.74311   0.97263   0.2886 
 H                     2.89883   1.32085  -2.00384 
 H                     4.44081   1.82038  -1.85746 
 

 GradGradGradGradGradGradGradGradGradGradGradGradGradGradGradGradGradGrad
 Berny optimization.
 Initialization pass.
                           ----------------------------
                           !    Initial Parameters    !
                           ! (Angstroms and Degrees)  !
 --------------------------                            --------------------------
 ! Name  Definition              Value          Derivative Info.                !
 --------------------------------------------------------------------------------
 ! R1    R(1,2)                  1.2251         calculate D2E/DX2 analytically  !
 ! R2    R(2,3)                  1.352          calculate D2E/DX2 analytically  !
 ! R3    R(2,14)                 1.5196         calculate D2E/DX2 analytically  !
 ! R4    R(3,4)                  1.4526         calculate D2E/DX2 analytically  !
 ! R5    R(3,17)                 1.0076         calculate D2E/DX2 analytically  !
 ! R6    R(4,5)                  1.5133         calculate D2E/DX2 analytically  !
 ! R7    R(4,8)                  1.5497         calculate D2E/DX2 analytically  !
 ! R8    R(4,18)                 1.096          calculate D2E/DX2 analytically  !
 ! R9    R(5,6)                  1.3519         calculate D2E/DX2 analytically  !
 ! R10   R(5,7)                  1.2025         calculate D2E/DX2 analytically  !
 ! R11   R(6,19)                 0.9695         calculate D2E/DX2 analytically  !
 ! R12   R(8,9)                  1.4913         calculate D2E/DX2 analytically  !
 ! R13   R(8,20)                 1.0882         calculate D2E/DX2 analytically  !
 ! R14   R(8,21)                 1.0901         calculate D2E/DX2 analytically  !
 ! R15   R(9,10)                 1.3656         calculate D2E/DX2 analytically  !
 ! R16   R(9,13)                 1.3707         calculate D2E/DX2 analytically  !
 ! R17   R(10,11)                1.3844         calculate D2E/DX2 analytically  !
 ! R18   R(10,22)                1.0806         calculate D2E/DX2 analytically  !
 ! R19   R(11,12)                1.3108         calculate D2E/DX2 analytically  !
 ! R20   R(12,13)                1.3602         calculate D2E/DX2 analytically  !
 ! R21   R(12,23)                1.0751         calculate D2E/DX2 analytically  !
 ! R22   R(13,24)                1.0076         calculate D2E/DX2 analytically  !
 ! R23   R(14,15)                1.5263         calculate D2E/DX2 analytically  !
 ! R24   R(14,25)                1.0922         calculate D2E/DX2 analytically  !
 ! R25   R(14,26)                1.0925         calculate D2E/DX2 analytically  !
 ! R26   R(15,16)                1.462          calculate D2E/DX2 analytically  !
 ! R27   R(15,27)                1.0941         calculate D2E/DX2 analytically  !
 ! R28   R(15,28)                1.1026         calculate D2E/DX2 analytically  !
 ! R29   R(16,29)                1.0137         calculate D2E/DX2 analytically  !
 ! R30   R(16,30)                1.0115         calculate D2E/DX2 analytically  !
 ! A1    A(1,2,3)              121.6817         calculate D2E/DX2 analytically  !
 ! A2    A(1,2,14)             122.4452         calculate D2E/DX2 analytically  !
 ! A3    A(3,2,14)             115.8724         calculate D2E/DX2 analytically  !
 ! A4    A(2,3,4)              119.311          calculate D2E/DX2 analytically  !
 ! A5    A(2,3,17)             121.4939         calculate D2E/DX2 analytically  !
 ! A6    A(4,3,17)             116.8152         calculate D2E/DX2 analytically  !
 ! A7    A(3,4,5)              106.8608         calculate D2E/DX2 analytically  !
 ! A8    A(3,4,8)              111.0823         calculate D2E/DX2 analytically  !
 ! A9    A(3,4,18)             107.2694         calculate D2E/DX2 analytically  !
 ! A10   A(5,4,8)              113.1012         calculate D2E/DX2 analytically  !
 ! A11   A(5,4,18)             108.7047         calculate D2E/DX2 analytically  !
 ! A12   A(8,4,18)             109.6119         calculate D2E/DX2 analytically  !
 ! A13   A(4,5,6)              112.6336         calculate D2E/DX2 analytically  !
 ! A14   A(4,5,7)              124.6287         calculate D2E/DX2 analytically  !
 ! A15   A(6,5,7)              122.7372         calculate D2E/DX2 analytically  !
 ! A16   A(5,6,19)             106.1745         calculate D2E/DX2 analytically  !
 ! A17   A(4,8,9)              112.992          calculate D2E/DX2 analytically  !
 ! A18   A(4,8,20)             107.8876         calculate D2E/DX2 analytically  !
 ! A19   A(4,8,21)             110.0859         calculate D2E/DX2 analytically  !
 ! A20   A(9,8,20)             107.0955         calculate D2E/DX2 analytically  !
 ! A21   A(9,8,21)             111.6136         calculate D2E/DX2 analytically  !
 ! A22   A(20,8,21)            106.8626         calculate D2E/DX2 analytically  !
 ! A23   A(8,9,10)             131.2355         calculate D2E/DX2 analytically  !
 ! A24   A(8,9,13)             123.6905         calculate D2E/DX2 analytically  !
 ! A25   A(10,9,13)            105.0498         calculate D2E/DX2 analytically  !
 ! A26   A(9,10,11)            110.5892         calculate D2E/DX2 analytically  !
 ! A27   A(9,10,22)            127.9094         calculate D2E/DX2 analytically  !
 ! A28   A(11,10,22)           121.5013         calculate D2E/DX2 analytically  !
 ! A29   A(10,11,12)           105.077          calculate D2E/DX2 analytically  !
 ! A30   A(11,12,13)           111.5461         calculate D2E/DX2 analytically  !
 ! A31   A(11,12,23)           126.6744         calculate D2E/DX2 analytically  !
 ! A32   A(13,12,23)           121.7793         calculate D2E/DX2 analytically  !
 ! A33   A(9,13,12)            107.7286         calculate D2E/DX2 analytically  !
 ! A34   A(9,13,24)            124.1906         calculate D2E/DX2 analytically  !
 ! A35   A(12,13,24)           128.0671         calculate D2E/DX2 analytically  !
 ! A36   A(2,14,15)            111.2212         calculate D2E/DX2 analytically  !
 ! A37   A(2,14,25)            109.5615         calculate D2E/DX2 analytically  !
 ! A38   A(2,14,26)            107.8592         calculate D2E/DX2 analytically  !
 ! A39   A(15,14,25)           110.7974         calculate D2E/DX2 analytically  !
 ! A40   A(15,14,26)           108.9339         calculate D2E/DX2 analytically  !
 ! A41   A(25,14,26)           108.3746         calculate D2E/DX2 analytically  !
 ! A42   A(14,15,16)           110.1732         calculate D2E/DX2 analytically  !
 ! A43   A(14,15,27)           108.5833         calculate D2E/DX2 analytically  !
 ! A44   A(14,15,28)           109.3486         calculate D2E/DX2 analytically  !
 ! A45   A(16,15,27)           107.9854         calculate D2E/DX2 analytically  !
 ! A46   A(16,15,28)           113.6246         calculate D2E/DX2 analytically  !
 ! A47   A(27,15,28)           106.9585         calculate D2E/DX2 analytically  !
 ! A48   A(15,16,29)           109.2373         calculate D2E/DX2 analytically  !
 ! A49   A(15,16,30)           109.6686         calculate D2E/DX2 analytically  !
 ! A50   A(29,16,30)           106.9504         calculate D2E/DX2 analytically  !
 ! D1    D(1,2,3,4)             -5.3613         calculate D2E/DX2 analytically  !
 ! D2    D(1,2,3,17)          -167.2917         calculate D2E/DX2 analytically  !
 ! D3    D(14,2,3,4)           174.3349         calculate D2E/DX2 analytically  !
 ! D4    D(14,2,3,17)           12.4045         calculate D2E/DX2 analytically  !
 ! D5    D(1,2,14,15)           63.0622         calculate D2E/DX2 analytically  !
 ! D6    D(1,2,14,25)         -174.1045         calculate D2E/DX2 analytically  !
 ! D7    D(1,2,14,26)          -56.332          calculate D2E/DX2 analytically  !
 ! D8    D(3,2,14,15)         -116.6315         calculate D2E/DX2 analytically  !
 ! D9    D(3,2,14,25)            6.2019         calculate D2E/DX2 analytically  !
 ! D10   D(3,2,14,26)          123.9744         calculate D2E/DX2 analytically  !
 ! D11   D(2,3,4,5)           -161.0865         calculate D2E/DX2 analytically  !
 ! D12   D(2,3,4,8)             75.118          calculate D2E/DX2 analytically  !
 ! D13   D(2,3,4,18)           -44.6545         calculate D2E/DX2 analytically  !
 ! D14   D(17,3,4,5)             1.675          calculate D2E/DX2 analytically  !
 ! D15   D(17,3,4,8)          -122.1205         calculate D2E/DX2 analytically  !
 ! D16   D(17,3,4,18)          118.107          calculate D2E/DX2 analytically  !
 ! D17   D(3,4,5,6)            179.5803         calculate D2E/DX2 analytically  !
 ! D18   D(3,4,5,7)             -0.6976         calculate D2E/DX2 analytically  !
 ! D19   D(8,4,5,6)            -57.878          calculate D2E/DX2 analytically  !
 ! D20   D(8,4,5,7)            121.8441         calculate D2E/DX2 analytically  !
 ! D21   D(18,4,5,6)            64.1058         calculate D2E/DX2 analytically  !
 ! D22   D(18,4,5,7)          -116.1721         calculate D2E/DX2 analytically  !
 ! D23   D(3,4,8,9)           -142.58           calculate D2E/DX2 analytically  !
 ! D24   D(3,4,8,20)           -24.3832         calculate D2E/DX2 analytically  !
 ! D25   D(3,4,8,21)            91.8849         calculate D2E/DX2 analytically  !
 ! D26   D(5,4,8,9)             97.2611         calculate D2E/DX2 analytically  !
 ! D27   D(5,4,8,20)          -144.5421         calculate D2E/DX2 analytically  !
 ! D28   D(5,4,8,21)           -28.274          calculate D2E/DX2 analytically  !
 ! D29   D(18,4,8,9)           -24.2128         calculate D2E/DX2 analytically  !
 ! D30   D(18,4,8,20)           93.984          calculate D2E/DX2 analytically  !
 ! D31   D(18,4,8,21)         -149.7479         calculate D2E/DX2 analytically  !
 ! D32   D(4,5,6,19)          -179.1609         calculate D2E/DX2 analytically  !
 ! D33   D(7,5,6,19)             1.1109         calculate D2E/DX2 analytically  !
 ! D34   D(4,8,9,10)           120.6832         calculate D2E/DX2 analytically  !
 ! D35   D(4,8,9,13)           -57.2465         calculate D2E/DX2 analytically  !
 ! D36   D(20,8,9,10)            2.0253         calculate D2E/DX2 analytically  !
 ! D37   D(20,8,9,13)         -175.9044         calculate D2E/DX2 analytically  !
 ! D38   D(21,8,9,10)         -114.6089         calculate D2E/DX2 analytically  !
 ! D39   D(21,8,9,13)           67.4613         calculate D2E/DX2 analytically  !
 ! D40   D(8,9,10,11)         -179.108          calculate D2E/DX2 analytically  !
 ! D41   D(8,9,10,22)            0.8329         calculate D2E/DX2 analytically  !
 ! D42   D(13,9,10,11)          -0.8916         calculate D2E/DX2 analytically  !
 ! D43   D(13,9,10,22)         179.0493         calculate D2E/DX2 analytically  !
 ! D44   D(8,9,13,12)          179.3457         calculate D2E/DX2 analytically  !
 ! D45   D(8,9,13,24)            0.5989         calculate D2E/DX2 analytically  !
 ! D46   D(10,9,13,12)           0.9577         calculate D2E/DX2 analytically  !
 ! D47   D(10,9,13,24)        -177.7891         calculate D2E/DX2 analytically  !
 ! D48   D(9,10,11,12)           0.471          calculate D2E/DX2 analytically  !
 ! D49   D(22,10,11,12)       -179.4743         calculate D2E/DX2 analytically  !
 ! D50   D(10,11,12,13)          0.1596         calculate D2E/DX2 analytically  !
 ! D51   D(10,11,12,23)       -179.7166         calculate D2E/DX2 analytically  !
 ! D52   D(11,12,13,9)          -0.7218         calculate D2E/DX2 analytically  !
 ! D53   D(11,12,13,24)        177.9615         calculate D2E/DX2 analytically  !
 ! D54   D(23,12,13,9)         179.1613         calculate D2E/DX2 analytically  !
 ! D55   D(23,12,13,24)         -2.1554         calculate D2E/DX2 analytically  !
 ! D56   D(2,14,15,16)         -72.2829         calculate D2E/DX2 analytically  !
 ! D57   D(2,14,15,27)         169.6456         calculate D2E/DX2 analytically  !
 ! D58   D(2,14,15,28)          53.2732         calculate D2E/DX2 analytically  !
 ! D59   D(25,14,15,16)        165.5973         calculate D2E/DX2 analytically  !
 ! D60   D(25,14,15,27)         47.5258         calculate D2E/DX2 analytically  !
 ! D61   D(25,14,15,28)        -68.8466         calculate D2E/DX2 analytically  !
 ! D62   D(26,14,15,16)         46.4684         calculate D2E/DX2 analytically  !
 ! D63   D(26,14,15,27)        -71.6032         calculate D2E/DX2 analytically  !
 ! D64   D(26,14,15,28)        172.0245         calculate D2E/DX2 analytically  !
 ! D65   D(14,15,16,29)         59.3398         calculate D2E/DX2 analytically  !
 ! D66   D(14,15,16,30)        176.2537         calculate D2E/DX2 analytically  !
 ! D67   D(27,15,16,29)        177.7789         calculate D2E/DX2 analytically  !
 ! D68   D(27,15,16,30)        -65.3072         calculate D2E/DX2 analytically  !
 ! D69   D(28,15,16,29)        -63.7502         calculate D2E/DX2 analytically  !
 ! D70   D(28,15,16,30)         53.1638         calculate D2E/DX2 analytically  !
 --------------------------------------------------------------------------------
 Trust Radius=3.00D-01 FncErr=1.00D-07 GrdErr=1.00D-06
 Number of steps in this run=    160 maximum allowed number of steps=    180.
 GradGradGradGradGradGradGradGradGradGradGradGradGradGradGradGradGradGrad

                          Input orientation:                          
 ---------------------------------------------------------------------
 Center     Atomic      Atomic             Coordinates (Angstroms)
 Number     Number       Type             X           Y           Z
 ---------------------------------------------------------------------
      1          8           0        0.998683    0.253927   -1.308250
      2          6           0        1.541026   -0.411601   -0.434263
      3          7           0        0.885208   -0.776224    0.690382
      4          6           0       -0.457190   -0.273549    0.925408
      5          6           0       -0.735662   -0.439963    2.403476
      6          8           0       -1.963350    0.003948    2.754810
      7          8           0        0.034390   -0.916863    3.194478
      8          6           0       -1.489712   -0.999874    0.026602
      9          6           0       -2.566006   -0.095922   -0.471785
     10          6           0       -2.946906    0.236082   -1.740470
     11          7           0       -3.996562    1.138259   -1.713258
     12          6           0       -4.231700    1.349504   -0.441144
     13          7           0       -3.386661    0.633703    0.348655
     14          6           0        2.985486   -0.871919   -0.538343
     15          6           0        3.942728    0.316283   -0.574547
     16          7           0        3.849954    0.999382   -1.863858
     17          1           0        1.374419   -1.155058    1.485610
     18          1           0       -0.450345    0.796273    0.687298
     19          1           0       -2.036547   -0.133365    3.711704
     20          1           0       -0.963225   -1.381810   -0.845878
     21          1           0       -1.900811   -1.862824    0.550719
     22          1           0       -2.530295   -0.117504   -2.672748
     23          1           0       -4.985133    1.994313   -0.025806
     24          1           0       -3.329726    0.630302    1.354620
     25          1           0        3.219749   -1.533269    0.298684
     26          1           0        3.090155   -1.439846   -1.465738
     27          1           0        4.965309   -0.056250   -0.462419
     28          1           0        3.743108    0.972631    0.288604
     29          1           0        2.898827    1.320853   -2.003836
     30          1           0        4.440808    1.820382   -1.857464
 ---------------------------------------------------------------------
                    Distance matrix (angstroms):
                    1          2          3          4          5
     1  O    0.000000
     2  C    1.225119   0.000000
     3  N    2.251359   1.351989   0.000000
     4  C    2.717908   2.420874   1.452567   0.000000
     5  C    4.155280   3.638252   2.382223   1.513250   0.000000
     6  O    5.034341   4.756419   3.603445   2.385840   1.351928
     7  O    4.751333   3.961440   2.648427   2.409187   1.202538
     8  C    3.089653   3.121512   2.476059   1.549679   2.555704
     9  C    3.678189   4.119317   3.704635   2.535904   3.425734
    10  C    3.969232   4.718814   4.649613   3.683113   4.745412
    11  N    5.089062   5.890906   5.768397   4.634967   5.483772
    12  C    5.413785   6.035387   5.655247   4.329976   4.849364
    13  N    4.703276   5.097815   4.511490   3.120506   3.521768
    14  C    2.409912   1.519602   2.435178   3.788487   4.763174
    15  C    3.034734   2.513497   3.484544   4.685834   5.597130
    16  N    2.999025   3.060353   4.297282   5.286950   6.427265
    17  H    3.151519   2.065526   1.007586   2.108476   2.409623
    18  H    2.525081   2.585037   2.063118   1.096022   2.134234
    19  H    5.878993   5.483200   4.251859   3.205849   1.870231
    20  H    2.595863   2.716985   2.478615   2.149830   3.390747
    21  H    4.042705   3.862962   2.993678   2.179502   2.610520
    22  H    3.801776   4.655423   4.838410   4.155580   5.393769
    23  H    6.362363   6.967497   6.530674   5.152696   5.466728
    24  H    5.095847   5.292437   4.492794   3.041814   2.995786
    25  H    3.272528   2.147897   2.485282   3.936947   4.612022
    26  H    2.695909   2.126271   3.154527   4.434127   5.532401
    27  H    4.067648   3.442787   4.300527   5.601497   6.392313
    28  H    3.255511   2.699593   3.374539   4.427300   5.150484
    29  H    2.287514   2.703438   3.963736   4.731325   5.977825
    30  H    3.821471   3.926319   5.086862   6.009934   7.075353
                    6          7          8          9         10
     6  O    0.000000
     7  O    2.243249   0.000000
     8  C    2.945354   3.516421   0.000000
     9  C    3.283913   4.569190   1.491284   0.000000
    10  C    4.607474   5.879721   2.602604   1.365603   0.000000
    11  N    5.038279   6.675176   3.725993   2.260741   1.384356
    12  C    4.143676   6.045965   3.640997   2.205613   2.139778
    13  N    2.865657   4.712384   2.524026   1.370748   2.171619
    14  C    6.008575   4.758669   4.512531   5.605860   6.153540
    15  C    6.787041   5.567881   5.621838   6.522584   6.988052
    16  N    7.491160   6.619462   6.006904   6.655982   6.840699
    17  H    3.754312   2.184638   3.218079   4.525496   5.569265
    18  H    2.681710   3.075021   2.177832   2.572064   3.527137
    19  H    0.969463   2.273801   3.824898   4.217027   5.539986
    20  H    3.985665   4.187587   1.088249   2.088627   2.711616
    21  H    2.889077   3.410177   1.090129   2.147078   3.278608
    22  H    5.458439   6.452978   3.024546   2.201358   1.080615
    23  H    4.563393   6.636323   4.602811   3.228027   3.191523
    24  H    2.054224   4.134740   2.794057   2.108655   3.143492
    25  H    5.938021   4.348803   4.747374   6.011202   6.731745
    26  H    6.740584   5.597216   4.836924   5.897985   6.271389
    27  H    7.639404   6.198992   6.541931   7.531425   8.020101
    28  H    6.291596   5.076305   5.598377   6.443983   7.029647
    29  H    6.929626   6.343093   5.363556   5.849687   5.951360
    30  H    8.098502   7.240935   6.831883   7.395118   7.556587
                   11         12         13         14         15
    11  N    0.000000
    12  C    1.310797   0.000000
    13  N    2.208629   1.360236   0.000000
    14  C    7.360044   7.551950   6.607414   0.000000
    15  C    8.062545   8.240547   7.394120   1.526252   0.000000
    16  N    7.849190   8.213393   7.576116   2.450727   1.462037
    17  H    6.658791   6.435353   5.211546   2.602324   3.606287
    18  H    4.295961   3.984732   2.960247   4.011233   4.595839
    19  H    5.906683   4.925824   3.704228   6.620360   7.370608
    20  H    4.037850   4.278646   3.370793   3.993355   5.198607
    21  H    4.303982   4.090952   2.912255   5.103317   6.337324
    22  H    2.155806   3.166536   3.229017   5.962271   6.818405
    23  H    2.134853   1.075150   2.132274   8.485797   9.100748
    24  H    3.180341   2.134379   1.007581   6.761795   7.530530
    25  H    7.953623   8.023828   6.952907   1.092189   2.169349
    26  H    7.545161   7.901887   7.038521   1.092502   2.145948
    27  H    9.127244   9.303847   8.419577   2.142610   1.094086
    28  H    7.996085   8.016990   7.138073   2.158749   1.102575
    29  H    6.903924   7.299811   6.746388   2.638830   2.035130
    30  H    8.466127   8.800004   8.218542   3.332645   2.038694
                   16         17         18         19         20
    16  N    0.000000
    17  H    4.689224   0.000000
    18  H    5.004220   2.788325   0.000000
    19  H    8.186629   4.199290   3.539392   0.000000
    20  H    5.465625   3.309355   2.712512   4.845843   0.000000
    21  H    6.862485   3.478804   3.032046   3.605729   1.749550
    22  H    6.527581   5.797865   4.055994   6.403535   2.718755
    23  H    9.078936   7.255812   4.744273   5.214418   5.314741
    24  H    7.876714   5.033254   2.960355   2.794878   3.806719
    25  H    3.389405   2.226450   4.364330   6.421610   4.339381
    26  H    2.585659   3.425684   4.708602   7.402423   4.100912
    27  H    2.079040   4.230448   5.601602   8.152008   6.087008
    28  H    2.155278   3.401554   4.216053   6.807734   5.383309
    29  H    1.013696   4.542046   4.328318   7.690258   4.853937
    30  H    1.011529   5.425138   5.607850   8.762926   6.362461
                   21         22         23         24         25
    21  H    0.000000
    22  H    3.719291   0.000000
    23  H    4.972216   4.182380   0.000000
    24  H    2.983912   4.173487   2.550779   0.000000
    25  H    5.137339   6.625466   8.936958   6.977941   0.000000
    26  H    5.399513   5.898722   8.892532   7.311279   1.771640
    27  H    7.171733   7.814946  10.168910   8.519424   2.409947
    28  H    6.321576   7.022363   8.793457   7.160905   2.559989
    29  H    6.300641   5.656119   8.156163   7.109920   3.681114
    30  H    7.718904   7.281234   9.603832   8.492053   4.169764
                   26         27         28         29         30
    26  H    0.000000
    27  H    2.537162   0.000000
    28  H    3.053541   1.765335   0.000000
    29  H    2.819151   2.922794   2.467660   0.000000
    30  H    3.550606   2.396456   2.410617   1.627470   0.000000
 Symmetry turned off by external request.
 Stoichiometry    C9H14N4O3
 Framework group  C1[X(C9H14N4O3)]
 Deg. of freedom    84
 Full point group                 C1      NOp   1
 Rotational constants (GHZ):      0.7362152      0.3081977      0.2331108
 Standard basis: 6-31G(d) (6D, 7F)
   268 basis functions,   504 primitive gaussians,   268 cartesian basis functions
    60 alpha electrons       60 beta electrons
       nuclear repulsion energy      1121.3042026874 Hartrees.
 NAtoms=   30 NActive=   30 NUniq=   30 SFac= 1.00D+00 NAtFMM=   60 NAOKFM=F Big=F
 Integral buffers will be    131072 words long.
 Raffenetti 2 integral format.
 Two-electron integral symmetry is turned off.
 Nuclear repulsion after empirical dispersion term =     1121.2501489104 Hartrees.
 One-electron integrals computed using PRISM.
 NBasis=   268 RedAO= T EigKep=  1.23D-03  NBF=   268
 NBsUse=   268 1.00D-06 EigRej= -1.00D+00 NBFU=   268
 ExpMin= 1.61D-01 ExpMax= 5.48D+03 ExpMxC= 8.25D+02 IAcc=3 IRadAn=         5 AccDes= 0.00D+00
 Harris functional with IExCor=  402 and IRadAn=       5 diagonalized for initial guess.
 HarFok:  IExCor=  402 AccDes= 0.00D+00 IRadAn=         5 IDoV= 1 UseB2=F ITyADJ=14
 ICtDFT=  3500011 ScaDFX=  1.000000  1.000000  1.000000  1.000000
 FoFCou: FMM=F IPFlag=           0 FMFlag=      100000 FMFlg1=           0
         NFxFlg=           0 DoJE=T BraDBF=F KetDBF=T FulRan=T
         wScrn=  0.000000 ICntrl=     500 IOpCl=  0 I1Cent=   200000004 NGrid=           0
         NMat0=    1 NMatS0=      1 NMatT0=    0 NMatD0=    1 NMtDS0=    0 NMtDT0=    0
 Symmetry not used in FoFCou.
 Requested convergence on RMS density matrix=1.00D-08 within 128 cycles.
 Requested convergence on MAX density matrix=1.00D-06.
 Requested convergence on             energy=1.00D-06.
 No special actions if energy rises.
 Integral accuracy reduced to 1.0D-05 until final iterations.
 Initial convergence to 1.0D-05 achieved.  Increase integral accuracy.
 SCF Done:  E(RB3LYP) =  -796.130282080     A.U. after   14 cycles
            NFock= 14  Conv=0.47D-08     -V/T= 2.0088
 DoSCS=F DFT=T ScalE2(SS,OS)=  1.000000  1.000000
 Range of M.O.s used for correlation:     1   268
 NBasis=   268 NAE=    60 NBE=    60 NFC=     0 NFV=     0
 NROrb=    268 NOA=    60 NOB=    60 NVA=   208 NVB=   208
 Symmetrizing basis deriv contribution to polar:
 IMax=3 JMax=2 DiffMx= 0.00D+00
 G2DrvN: will do    31 centers at a time, making    1 passes.
 Calling FoFCou, ICntrl=  3107 FMM=F I1Cent=   0 AccDes= 0.00D+00.
 End of G2Drv F.D. properties file   721 does not exist.
 End of G2Drv F.D. properties file   722 does not exist.
 End of G2Drv F.D. properties file   788 does not exist.
          IDoAtm=111111111111111111111111111111
          Differentiating once with respect to nuclear coordinates.
          There are    93 degrees of freedom in the 1st order CPHF.  IDoFFX=6 NUNeed=     0.
     87 vectors produced by pass  0 Test12= 1.34D-14 1.08D-09 XBig12= 1.68D-01 9.52D-02.
 AX will form    87 AO Fock derivatives at one time.
     87 vectors produced by pass  1 Test12= 1.34D-14 1.08D-09 XBig12= 3.98D-02 5.96D-02.
     87 vectors produced by pass  2 Test12= 1.34D-14 1.08D-09 XBig12= 2.65D-04 3.75D-03.
     87 vectors produced by pass  3 Test12= 1.34D-14 1.08D-09 XBig12= 9.15D-07 1.63D-04.
     87 vectors produced by pass  4 Test12= 1.34D-14 1.08D-09 XBig12= 1.08D-09 3.53D-06.
     70 vectors produced by pass  5 Test12= 1.34D-14 1.08D-09 XBig12= 8.96D-13 1.01D-07.
     11 vectors produced by pass  6 Test12= 1.34D-14 1.08D-09 XBig12= 7.82D-16 2.66D-09.
 InvSVY:  IOpt=1 It=  1 EMax= 6.66D-16
 Solved reduced A of dimension   516 with    93 vectors.
 End of Minotr F.D. properties file   721 does not exist.
 End of Minotr F.D. properties file   722 does not exist.
 End of Minotr F.D. properties file   788 does not exist.

 **********************************************************************

            Population analysis using the SCF density.

 **********************************************************************

 Alpha  occ. eigenvalues --  -19.24262 -19.18217 -19.11795 -14.37631 -14.36988
 Alpha  occ. eigenvalues --  -14.29823 -14.29784 -10.35962 -10.29003 -10.26046
 Alpha  occ. eigenvalues --  -10.22606 -10.21265 -10.21095 -10.20776 -10.19380
 Alpha  occ. eigenvalues --  -10.18203  -1.15358  -1.06420  -1.04314  -1.00509
 Alpha  occ. eigenvalues --   -0.94010  -0.87497  -0.85889  -0.81230  -0.76091
 Alpha  occ. eigenvalues --   -0.73962  -0.68674  -0.65395  -0.61465  -0.60592
 Alpha  occ. eigenvalues --   -0.59988  -0.58058  -0.54495  -0.52909  -0.52277
 Alpha  occ. eigenvalues --   -0.50273  -0.49519  -0.48595  -0.46896  -0.46155
 Alpha  occ. eigenvalues --   -0.45515  -0.44252  -0.42711  -0.41638  -0.40690
 Alpha  occ. eigenvalues --   -0.40111  -0.39474  -0.39186  -0.38876  -0.37806
 Alpha  occ. eigenvalues --   -0.36845  -0.36339  -0.34980  -0.31747  -0.27134
 Alpha  occ. eigenvalues --   -0.26719  -0.25380  -0.25209  -0.22502  -0.21419
 Alpha virt. eigenvalues --   -0.02641   0.02009   0.03720   0.04012   0.07678
 Alpha virt. eigenvalues --    0.08229   0.10692   0.11457   0.11814   0.12452
 Alpha virt. eigenvalues --    0.13570   0.14706   0.15481   0.15606   0.16251
 Alpha virt. eigenvalues --    0.18056   0.18729   0.19416   0.19757   0.20651
 Alpha virt. eigenvalues --    0.22765   0.23505   0.24764   0.25648   0.26019
 Alpha virt. eigenvalues --    0.26237   0.28001   0.30782   0.32412   0.33807
 Alpha virt. eigenvalues --    0.37579   0.40325   0.42021   0.45391   0.50143
 Alpha virt. eigenvalues --    0.50495   0.52628   0.52869   0.54029   0.54615
 Alpha virt. eigenvalues --    0.55783   0.56218   0.57382   0.58277   0.59444
 Alpha virt. eigenvalues --    0.61027   0.61910   0.63985   0.64662   0.64887
 Alpha virt. eigenvalues --    0.64992   0.65965   0.66857   0.68203   0.68516
 Alpha virt. eigenvalues --    0.71722   0.73073   0.73771   0.74082   0.74964
 Alpha virt. eigenvalues --    0.76389   0.77776   0.78777   0.79645   0.80694
 Alpha virt. eigenvalues --    0.81714   0.81973   0.83626   0.83831   0.84393
 Alpha virt. eigenvalues --    0.85417   0.86450   0.87104   0.87625   0.88702
 Alpha virt. eigenvalues --    0.89157   0.89906   0.91422   0.91496   0.92879
 Alpha virt. eigenvalues --    0.93253   0.93714   0.95924   0.96739   0.97535
 Alpha virt. eigenvalues --    1.00504   1.01499   1.02544   1.03359   1.05612
 Alpha virt. eigenvalues --    1.06620   1.10577   1.14112   1.14685   1.15347
 Alpha virt. eigenvalues --    1.19233   1.20618   1.22409   1.23725   1.26645
 Alpha virt. eigenvalues --    1.30009   1.32099   1.33780   1.36103   1.36494
 Alpha virt. eigenvalues --    1.37545   1.38920   1.42476   1.45888   1.47211
 Alpha virt. eigenvalues --    1.48194   1.49078   1.52447   1.55189   1.56670
 Alpha virt. eigenvalues --    1.57632   1.59068   1.60988   1.62130   1.63658
 Alpha virt. eigenvalues --    1.65503   1.68490   1.72184   1.73920   1.75997
 Alpha virt. eigenvalues --    1.77068   1.78314   1.79068   1.80096   1.81645
 Alpha virt. eigenvalues --    1.83184   1.85665   1.86519   1.88593   1.89664
 Alpha virt. eigenvalues --    1.90308   1.91361   1.93928   1.94941   1.95816
 Alpha virt. eigenvalues --    1.98351   1.99572   2.02499   2.04903   2.07960
 Alpha virt. eigenvalues --    2.08700   2.12141   2.12703   2.14378   2.15630
 Alpha virt. eigenvalues --    2.16831   2.19239   2.22081   2.22387   2.25092
 Alpha virt. eigenvalues --    2.26912   2.30192   2.33456   2.33815   2.36391
 Alpha virt. eigenvalues --    2.37741   2.39104   2.39784   2.40621   2.42310
 Alpha virt. eigenvalues --    2.44300   2.46511   2.50391   2.52030   2.54507
 Alpha virt. eigenvalues --    2.56178   2.59283   2.60487   2.61511   2.62950
 Alpha virt. eigenvalues --    2.64605   2.67501   2.70426   2.73518   2.74559
 Alpha virt. eigenvalues --    2.76821   2.78466   2.83278   2.85279   2.91270
 Alpha virt. eigenvalues --    2.96857   3.00581   3.01611   3.05420   3.09284
 Alpha virt. eigenvalues --    3.15238   3.19103   3.80456   3.85258   3.93712
 Alpha virt. eigenvalues --    4.02239   4.05453   4.07608   4.17087   4.18231
 Alpha virt. eigenvalues --    4.18845   4.24970   4.32118   4.38558   4.43557
 Alpha virt. eigenvalues --    4.56634   4.60458   4.63021
          Condensed to atoms (all electrons):
               1          2          3          4          5          6
     1  O    8.116745   0.543934  -0.102608   0.007968   0.000829   0.000000
     2  C    0.543934   4.350269   0.271180  -0.021997   0.005908  -0.000042
     3  N   -0.102608   0.271180   7.191048   0.215365  -0.028656   0.001893
     4  C    0.007968  -0.021997   0.215365   5.162834   0.293966  -0.092545
     5  C    0.000829   0.005908  -0.028656   0.293966   4.367110   0.262715
     6  O    0.000000  -0.000042   0.001893  -0.092545   0.262715   8.253068
     7  O   -0.000006   0.000507  -0.013156  -0.080928   0.580676  -0.084390
     8  C   -0.003232  -0.005886  -0.043819   0.301526  -0.023050   0.005569
     9  C   -0.000818  -0.000015   0.004021  -0.032021  -0.002228  -0.001141
    10  C    0.000159   0.000012  -0.000098  -0.000560   0.000060   0.000034
    11  N    0.000001   0.000001   0.000000  -0.000103  -0.000001  -0.000006
    12  C    0.000000   0.000000   0.000000   0.000268  -0.000031   0.000164
    13  N    0.000004   0.000002   0.000120  -0.001174  -0.000844  -0.012361
    14  C   -0.080327   0.356870  -0.108406   0.008374  -0.000126   0.000000
    15  C   -0.000490  -0.021151  -0.002914  -0.000225   0.000007   0.000000
    16  N   -0.008042  -0.004980   0.000154   0.000011   0.000000   0.000000
    17  H    0.002817  -0.014190   0.287861  -0.040815  -0.005495   0.000670
    18  H    0.011937   0.000934  -0.053000   0.371076  -0.029537   0.001053
    19  H    0.000000   0.000004  -0.000168   0.009901  -0.004494   0.219814
    20  H    0.007034   0.004172  -0.010995  -0.029515   0.002638   0.000089
    21  H    0.000200   0.000393   0.002512  -0.054963  -0.002587   0.000652
    22  H    0.000091  -0.000006   0.000002   0.000026  -0.000001   0.000000
    23  H    0.000000   0.000000   0.000000   0.000000   0.000001  -0.000009
    24  H    0.000000  -0.000001  -0.000025  -0.000595   0.001256   0.026816
    25  H    0.003573  -0.036981   0.004391   0.000248  -0.000090   0.000000
    26  H    0.000293  -0.028905   0.002299  -0.000167   0.000000   0.000000
    27  H   -0.000052   0.004487  -0.000119   0.000006   0.000000   0.000000
    28  H    0.000177  -0.010301   0.001496  -0.000076  -0.000007   0.000000
    29  H    0.023106   0.004814   0.000387  -0.000009   0.000000   0.000000
    30  H    0.000243   0.000357   0.000002  -0.000001   0.000000   0.000000
               7          8          9         10         11         12
     1  O   -0.000006  -0.003232  -0.000818   0.000159   0.000001   0.000000
     2  C    0.000507  -0.005886  -0.000015   0.000012   0.000001   0.000000
     3  N   -0.013156  -0.043819   0.004021  -0.000098   0.000000   0.000000
     4  C   -0.080928   0.301526  -0.032021  -0.000560  -0.000103   0.000268
     5  C    0.580676  -0.023050  -0.002228   0.000060  -0.000001  -0.000031
     6  O   -0.084390   0.005569  -0.001141   0.000034  -0.000006   0.000164
     7  O    8.009906  -0.000415   0.000132   0.000001   0.000000   0.000000
     8  C   -0.000415   5.251855   0.325300  -0.054752   0.007089   0.005927
     9  C    0.000132   0.325300   4.705603   0.581214  -0.041791  -0.092315
    10  C    0.000001  -0.054752   0.581214   4.924245   0.422733  -0.121022
    11  N    0.000000   0.007089  -0.041791   0.422733   6.670561   0.537889
    12  C    0.000000   0.005927  -0.092315  -0.121022   0.537889   4.740881
    13  N   -0.000026  -0.071628   0.355145  -0.070914  -0.087496   0.356651
    14  C   -0.000059  -0.000395  -0.000006   0.000000   0.000000   0.000000
    15  C    0.000001  -0.000009   0.000000   0.000000   0.000000   0.000000
    16  N    0.000000   0.000000   0.000000   0.000000   0.000000   0.000000
    17  H    0.029894   0.003452  -0.000121   0.000001   0.000000   0.000000
    18  H    0.000978  -0.053010   0.008243   0.001888  -0.000141  -0.000154
    19  H    0.010731  -0.000288  -0.000076  -0.000002   0.000000  -0.000002
    20  H   -0.000099   0.373354  -0.028139  -0.003567   0.000049  -0.000057
    21  H    0.000321   0.349972  -0.026477   0.000791  -0.000145   0.000186
    22  H    0.000000  -0.001995  -0.056587   0.381120  -0.043356   0.007598
    23  H    0.000000  -0.000196   0.003019   0.007599  -0.039159   0.381295
    24  H    0.000164  -0.003287  -0.024760   0.008560   0.004667  -0.021791
    25  H   -0.000026   0.000010   0.000001   0.000000   0.000000   0.000000
    26  H    0.000000   0.000039  -0.000001   0.000000   0.000000   0.000000
    27  H    0.000000   0.000000   0.000000   0.000000   0.000000   0.000000
    28  H   -0.000001   0.000003   0.000000   0.000000   0.000000   0.000000
    29  H    0.000000   0.000000   0.000000   0.000000   0.000000   0.000000
    30  H    0.000000   0.000000   0.000000   0.000000   0.000000   0.000000
              13         14         15         16         17         18
     1  O    0.000004  -0.080327  -0.000490  -0.008042   0.002817   0.011937
     2  C    0.000002   0.356870  -0.021151  -0.004980  -0.014190   0.000934
     3  N    0.000120  -0.108406  -0.002914   0.000154   0.287861  -0.053000
     4  C   -0.001174   0.008374  -0.000225   0.000011  -0.040815   0.371076
     5  C   -0.000844  -0.000126   0.000007   0.000000  -0.005495  -0.029537
     6  O   -0.012361   0.000000   0.000000   0.000000   0.000670   0.001053
     7  O   -0.000026  -0.000059   0.000001   0.000000   0.029894   0.000978
     8  C   -0.071628  -0.000395  -0.000009   0.000000   0.003452  -0.053010
     9  C    0.355145  -0.000006   0.000000   0.000000  -0.000121   0.008243
    10  C   -0.070914   0.000000   0.000000   0.000000   0.000001   0.001888
    11  N   -0.087496   0.000000   0.000000   0.000000   0.000000  -0.000141
    12  C    0.356651   0.000000   0.000000   0.000000   0.000000  -0.000154
    13  N    6.917279   0.000000   0.000000   0.000000   0.000000   0.000249
    14  C    0.000000   5.268222   0.352071  -0.056076  -0.000512   0.000455
    15  C    0.000000   0.352071   4.859428   0.332539   0.000172   0.000091
    16  N    0.000000  -0.056076   0.332539   6.937853   0.000011  -0.000009
    17  H    0.000000  -0.000512   0.000172   0.000011   0.379744   0.003660
    18  H    0.000249   0.000455   0.000091  -0.000009   0.003660   0.523583
    19  H    0.000405   0.000000   0.000000   0.000000  -0.000077  -0.000324
    20  H    0.003731  -0.000053   0.000002   0.000001   0.000106  -0.001274
    21  H   -0.002456   0.000026   0.000000   0.000000   0.000036   0.005335
    22  H    0.005011   0.000000   0.000000   0.000000   0.000000   0.000016
    23  H   -0.059955   0.000000   0.000000   0.000000   0.000000   0.000003
    24  H    0.281693   0.000000   0.000000   0.000000  -0.000004   0.000330
    25  H    0.000000   0.337653  -0.030795   0.004250   0.003382  -0.000029
    26  H    0.000000   0.353045  -0.030655   0.005907   0.000007  -0.000022
    27  H    0.000000  -0.029055   0.381683  -0.044911  -0.000031   0.000000
    28  H    0.000000  -0.048965   0.361059  -0.049348   0.000180  -0.000025
    29  H    0.000000  -0.011035  -0.034500   0.302864  -0.000029   0.000017
    30  H    0.000000   0.006276  -0.035062   0.305174  -0.000001   0.000000
              19         20         21         22         23         24
     1  O    0.000000   0.007034   0.000200   0.000091   0.000000   0.000000
     2  C    0.000004   0.004172   0.000393  -0.000006   0.000000  -0.000001
     3  N   -0.000168  -0.010995   0.002512   0.000002   0.000000  -0.000025
     4  C    0.009901  -0.029515  -0.054963   0.000026   0.000000  -0.000595
     5  C   -0.004494   0.002638  -0.002587  -0.000001   0.000001   0.001256
     6  O    0.219814   0.000089   0.000652   0.000000  -0.000009   0.026816
     7  O    0.010731  -0.000099   0.000321   0.000000   0.000000   0.000164
     8  C   -0.000288   0.373354   0.349972  -0.001995  -0.000196  -0.003287
     9  C   -0.000076  -0.028139  -0.026477  -0.056587   0.003019  -0.024760
    10  C   -0.000002  -0.003567   0.000791   0.381120   0.007599   0.008560
    11  N    0.000000   0.000049  -0.000145  -0.043356  -0.039159   0.004667
    12  C   -0.000002  -0.000057   0.000186   0.007598   0.381295  -0.021791
    13  N    0.000405   0.003731  -0.002456   0.005011  -0.059955   0.281693
    14  C    0.000000  -0.000053   0.000026   0.000000   0.000000   0.000000
    15  C    0.000000   0.000002   0.000000   0.000000   0.000000   0.000000
    16  N    0.000000   0.000001   0.000000   0.000000   0.000000   0.000000
    17  H   -0.000077   0.000106   0.000036   0.000000   0.000000  -0.000004
    18  H   -0.000324  -0.001274   0.005335   0.000016   0.000003   0.000330
    19  H    0.339717   0.000010  -0.000187   0.000000   0.000001  -0.000468
    20  H    0.000010   0.506410  -0.029059   0.003098   0.000004  -0.000058
    21  H   -0.000187  -0.029059   0.596401  -0.000030  -0.000001   0.000645
    22  H    0.000000   0.003098  -0.000030   0.568719  -0.000154  -0.000115
    23  H    0.000001   0.000004  -0.000001  -0.000154   0.560220   0.000494
    24  H   -0.000468  -0.000058   0.000645  -0.000115   0.000494   0.378116
    25  H    0.000000  -0.000025  -0.000003   0.000000   0.000000   0.000000
    26  H    0.000000   0.000030  -0.000003   0.000000   0.000000   0.000000
    27  H    0.000000   0.000000   0.000000   0.000000   0.000000   0.000000
    28  H    0.000000   0.000000   0.000000   0.000000   0.000000   0.000000
    29  H    0.000000  -0.000003   0.000000   0.000000   0.000000   0.000000
    30  H    0.000000   0.000000   0.000000   0.000000   0.000000   0.000000
              25         26         27         28         29         30
     1  O    0.003573   0.000293  -0.000052   0.000177   0.023106   0.000243
     2  C   -0.036981  -0.028905   0.004487  -0.010301   0.004814   0.000357
     3  N    0.004391   0.002299  -0.000119   0.001496   0.000387   0.000002
     4  C    0.000248  -0.000167   0.000006  -0.000076  -0.000009  -0.000001
     5  C   -0.000090   0.000000   0.000000  -0.000007   0.000000   0.000000
     6  O    0.000000   0.000000   0.000000   0.000000   0.000000   0.000000
     7  O   -0.000026   0.000000   0.000000  -0.000001   0.000000   0.000000
     8  C    0.000010   0.000039   0.000000   0.000003   0.000000   0.000000
     9  C    0.000001  -0.000001   0.000000   0.000000   0.000000   0.000000
    10  C    0.000000   0.000000   0.000000   0.000000   0.000000   0.000000
    11  N    0.000000   0.000000   0.000000   0.000000   0.000000   0.000000
    12  C    0.000000   0.000000   0.000000   0.000000   0.000000   0.000000
    13  N    0.000000   0.000000   0.000000   0.000000   0.000000   0.000000
    14  C    0.337653   0.353045  -0.029055  -0.048965  -0.011035   0.006276
    15  C   -0.030795  -0.030655   0.381683   0.361059  -0.034500  -0.035062
    16  N    0.004250   0.005907  -0.044911  -0.049348   0.302864   0.305174
    17  H    0.003382   0.000007  -0.000031   0.000180  -0.000029  -0.000001
    18  H   -0.000029  -0.000022   0.000000  -0.000025   0.000017   0.000000
    19  H    0.000000   0.000000   0.000000   0.000000   0.000000   0.000000
    20  H   -0.000025   0.000030   0.000000   0.000000  -0.000003   0.000000
    21  H   -0.000003  -0.000003   0.000000   0.000000   0.000000   0.000000
    22  H    0.000000   0.000000   0.000000   0.000000   0.000000   0.000000
    23  H    0.000000   0.000000   0.000000   0.000000   0.000000   0.000000
    24  H    0.000000   0.000000   0.000000   0.000000   0.000000   0.000000
    25  H    0.610888  -0.025920  -0.005678   0.002422   0.000010  -0.000216
    26  H   -0.025920   0.535116  -0.005581   0.007061  -0.000288   0.000016
    27  H   -0.005678  -0.005581   0.602977  -0.051887   0.005858  -0.002871
    28  H    0.002422   0.007061  -0.051887   0.682065  -0.002887  -0.004489
    29  H    0.000010  -0.000288   0.005858  -0.002887   0.413807  -0.027938
    30  H   -0.000216   0.000016  -0.002871  -0.004489  -0.027938   0.466491
 Mulliken charges:
               1
     1  O   -0.523534
     2  C    0.600612
     3  N   -0.618765
     4  C   -0.015875
     5  C    0.581985
     6  O   -0.582043
     7  O   -0.454204
     8  C   -0.362136
     9  C    0.323817
    10  C   -0.077501
    11  N   -0.430790
    12  C    0.204512
    13  N   -0.613436
    14  C   -0.347979
    15  C   -0.131251
    16  N   -0.725396
    17  H    0.349281
    18  H    0.207675
    19  H    0.425504
    20  H    0.202118
    21  H    0.158439
    22  H    0.136563
    23  H    0.146838
    24  H    0.348365
    25  H    0.132934
    26  H    0.187728
    27  H    0.145175
    28  H    0.113523
    29  H    0.325824
    30  H    0.292020
 Sum of Mulliken charges =   0.00000
 Mulliken charges with hydrogens summed into heavy atoms:
               1
     1  O   -0.523534
     2  C    0.600612
     3  N   -0.269484
     4  C    0.191800
     5  C    0.581985
     6  O   -0.156540
     7  O   -0.454204
     8  C   -0.001579
     9  C    0.323817
    10  C    0.059062
    11  N   -0.430790
    12  C    0.351350
    13  N   -0.265071
    14  C   -0.027318
    15  C    0.127447
    16  N   -0.107552
 APT charges:
               1
     1  O   -0.501211
     2  C    0.307185
     3  N   -0.792537
     4  C   -0.256169
     5  C   -0.324235
     6  O   -0.834417
     7  O    0.240780
     8  C   -0.914593
     9  C   -0.447598
    10  C   -0.294690
    11  N    0.116372
    12  C   -0.487343
    13  N   -0.654377
    14  C   -0.784378
    15  C   -0.897519
    16  N   -1.016336
    17  H    0.662388
    18  H    0.293741
    19  H    1.012210
    20  H    0.322896
    21  H    0.512230
    22  H    0.406869
    23  H    0.941443
    24  H    0.500651
    25  H    0.408591
    26  H    0.516843
    27  H    0.785210
    28  H    0.219646
    29  H    0.089577
    30  H    0.868771
 Sum of APT charges =   0.00000
 APT charges with hydrogens summed into heavy atoms:
               1
     1  O   -0.501211
     2  C    0.307185
     3  N   -0.130149
     4  C    0.037572
     5  C   -0.324235
     6  O    0.177792
     7  O    0.240780
     8  C   -0.079466
     9  C   -0.447598
    10  C    0.112179
    11  N    0.116372
    12  C    0.454100
    13  N   -0.153727
    14  C    0.141057
    15  C    0.107337
    16  N   -0.057988
 Electronic spatial extent (au):  <R**2>=           4646.6354
 Charge=              0.0000 electrons
 Dipole moment (field-independent basis, Debye):
    X=              0.7305    Y=             -0.9102    Z=              6.8235  Tot=              6.9226
 Quadrupole moment (field-independent basis, Debye-Ang):
   XX=            -95.9882   YY=            -89.9084   ZZ=            -96.6936
   XY=              4.3762   XZ=            -14.7258   YZ=              6.2855
 Traceless Quadrupole moment (field-independent basis, Debye-Ang):
   XX=             -1.7915   YY=              4.2883   ZZ=             -2.4969
   XY=              4.3762   XZ=            -14.7258   YZ=              6.2855
 Octapole moment (field-independent basis, Debye-Ang**2):
  XXX=            149.2738  YYY=              0.6805  ZZZ=             33.7401  XYY=             48.9942
  XXY=              4.9402  XXZ=             89.7101  XZZ=              0.1650  YZZ=             -1.7443
  YYZ=             -5.6751  XYZ=            -22.0614
 Hexadecapole moment (field-independent basis, Debye-Ang**3):
 XXXX=          -4232.1401 YYYY=           -430.1221 ZZZZ=          -1328.6584 XXXY=            202.3005
 XXXZ=            -85.5592 YYYX=            182.4611 YYYZ=            154.2202 ZZZX=              0.1361
 ZZZY=            210.6137 XXYY=           -701.0549 XXZZ=          -1023.1928 YYZZ=           -315.8846
 XXYZ=             99.4021 YYXZ=             -9.7653 ZZXY=            101.2599
 N-N= 1.121250148910D+03 E-N=-4.099352196503D+03  KE= 7.891835535982D+02
  Exact polarizability:   0.000   0.000   0.000   0.000   0.000   0.000
 Approx polarizability: 179.461 -35.192 145.975   5.505 -20.420 204.607
 Calling FoFJK, ICntrl=    100147 FMM=F ISym2X=0 I1Cent= 0 IOpClX= 0 NMat=1 NMatS=1 NMatT=0.
 -------------------------------------------------------------------
 Center     Atomic                   Forces (Hartrees/Bohr)
 Number     Number              X              Y              Z
 -------------------------------------------------------------------
      1        8          -0.005005813    0.006405098   -0.006303691
      2        6           0.011471446   -0.002863044   -0.004321358
      3        7          -0.006876639   -0.000763747    0.007434143
      4        6           0.010787234   -0.002109183   -0.000543208
      5        6          -0.003036050    0.003490108   -0.012055742
      6        8          -0.001236631    0.001764377   -0.001978466
      7        8           0.006879563   -0.004825606    0.011751283
      8        6          -0.005880225    0.006355981   -0.003578753
      9        6           0.009068800   -0.007320966    0.000336611
     10        6          -0.006651306    0.004624012   -0.007295947
     11        7           0.001162648   -0.001994479   -0.007261334
     12        6          -0.000068112    0.001453637    0.000088408
     13        7          -0.004374964    0.000192863    0.009207460
     14        6          -0.005633898   -0.002112377    0.003357444
     15        6           0.002364600    0.004362966   -0.004870727
     16        7           0.001572895   -0.004345959   -0.000686423
     17        1           0.001676759   -0.002733318    0.002341846
     18        1          -0.004710240    0.000653556   -0.001476300
     19        1          -0.001876573   -0.001111849    0.006543662
     20        1           0.002259674    0.000384181   -0.000387611
     21        1          -0.001292989   -0.004179195    0.003558139
     22        1           0.000430640   -0.000094554   -0.000356310
     23        1          -0.003597052    0.003768344    0.000589404
     24        1          -0.000980821    0.000212303    0.002170700
     25        1           0.002878080   -0.001590794    0.001633147
     26        1           0.000886554   -0.000434575   -0.001453334
     27        1           0.001463994   -0.000582025    0.000880125
     28        1          -0.000514777   -0.000299488    0.003482108
     29        1          -0.005002633   -0.000721216   -0.000777271
     30        1           0.003835837    0.004414949   -0.000028004
 -------------------------------------------------------------------
 Cartesian Forces:  Max     0.012055742 RMS     0.004407627
 FormGI is forming the generalized inverse of G from B-inverse, IUseBI=4.

 GradGradGradGradGradGradGradGradGradGradGradGradGradGradGradGradGradGrad
 Berny optimization.
 Internal  Forces:  Max     0.014048573 RMS     0.003167551
 Search for a local minimum.
 Step number   1 out of a maximum of  160
 All quantities printed in internal units (Hartrees-Bohrs-Radians)
 Mixed Optimization -- RFO/linear search
 Second derivative matrix not updated -- analytic derivatives used.
 ITU=  0
     Eigenvalues ---   -0.00030   0.00084   0.00191   0.00323   0.00376
     Eigenvalues ---    0.00513   0.00555   0.00594   0.00761   0.00978
     Eigenvalues ---    0.01934   0.01960   0.02094   0.02495   0.03487
     Eigenvalues ---    0.03860   0.04109   0.04255   0.04507   0.04542
     Eigenvalues ---    0.04624   0.04815   0.05103   0.05346   0.05753
     Eigenvalues ---    0.05826   0.06239   0.06432   0.07727   0.08161
     Eigenvalues ---    0.08493   0.10681   0.10887   0.11155   0.11862
     Eigenvalues ---    0.11952   0.12405   0.12894   0.15453   0.15686
     Eigenvalues ---    0.16544   0.18502   0.18724   0.19187   0.20681
     Eigenvalues ---    0.21532   0.21884   0.22708   0.23544   0.23637
     Eigenvalues ---    0.24966   0.25286   0.25567   0.27474   0.31112
     Eigenvalues ---    0.31298   0.31584   0.33169   0.33508   0.34383
     Eigenvalues ---    0.34516   0.34799   0.35161   0.35569   0.35935
     Eigenvalues ---    0.37137   0.37876   0.38399   0.38743   0.39115
     Eigenvalues ---    0.41634   0.42919   0.45825   0.46238   0.46327
     Eigenvalues ---    0.47641   0.47788   0.49098   0.49595   0.51534
     Eigenvalues ---    0.58575   0.61246   0.84567   0.94153
 RFO step:  Lambda=-5.08386862D-03 EMin=-3.01835652D-04
 Linear search not attempted -- first point.
 Iteration  1 RMS(Cart)=  0.19454943 RMS(Int)=  0.04375429
 Iteration  2 RMS(Cart)=  0.13193821 RMS(Int)=  0.00599227
 Iteration  3 RMS(Cart)=  0.01372119 RMS(Int)=  0.00019890
 Iteration  4 RMS(Cart)=  0.00011632 RMS(Int)=  0.00019409
 Iteration  5 RMS(Cart)=  0.00000001 RMS(Int)=  0.00019409
 Variable       Old X    -DE/DX   Delta X   Delta X   Delta X     New X
                                 (Linear)    (Quad)   (Total)
    R1        2.31514   0.01019   0.00000   0.01359   0.01359   2.32873
    R2        2.55489   0.01219   0.00000   0.01790   0.01790   2.57279
    R3        2.87163   0.00205   0.00000  -0.00010  -0.00010   2.87153
    R4        2.74495   0.00321   0.00000  -0.00551  -0.00551   2.73944
    R5        1.90406   0.00369   0.00000   0.00697   0.00697   1.91103
    R6        2.85963   0.00410   0.00000   0.00748   0.00748   2.86711
    R7        2.92847   0.00672   0.00000   0.02564   0.02564   2.95411
    R8        2.07118   0.00093   0.00000   0.00314   0.00314   2.07432
    R9        2.55477   0.00423   0.00000   0.00771   0.00771   2.56249
   R10        2.27247   0.01405   0.00000   0.01564   0.01564   2.28811
   R11        1.83202   0.00676   0.00000   0.01247   0.01247   1.84449
   R12        2.81812   0.00497   0.00000   0.00084   0.00084   2.81896
   R13        2.05649   0.00127   0.00000   0.00400   0.00400   2.06049
   R14        2.06005   0.00551   0.00000   0.01477   0.01477   2.07482
   R15        2.58062   0.01049   0.00000   0.01922   0.01923   2.59984
   R16        2.59034   0.01164   0.00000   0.02525   0.02531   2.61564
   R17        2.61605  -0.00173   0.00000  -0.01163  -0.01168   2.60437
   R18        2.04207   0.00050   0.00000   0.00197   0.00197   2.04403
   R19        2.47705   0.00593   0.00000   0.01063   0.01059   2.48764
   R20        2.57047   0.00773   0.00000   0.01142   0.01144   2.58191
   R21        2.03174   0.00501   0.00000   0.01226   0.01226   2.04400
   R22        1.90405   0.00211   0.00000   0.00404   0.00404   1.90809
   R23        2.88420   0.00458   0.00000   0.01661   0.01661   2.90081
   R24        2.06394   0.00283   0.00000   0.00690   0.00690   2.07084
   R25        2.06453   0.00154   0.00000   0.00961   0.00961   2.07414
   R26        2.76285   0.00098   0.00000   0.00039   0.00039   2.76324
   R27        2.06752   0.00166   0.00000   0.00474   0.00474   2.07227
   R28        2.08357   0.00264   0.00000   0.00699   0.00699   2.09055
   R29        1.91561   0.00457   0.00000   0.01089   0.01089   1.92649
   R30        1.91151   0.00582   0.00000   0.01269   0.01269   1.92420
    A1        2.12375  -0.00109   0.00000  -0.01035  -0.01050   2.11324
    A2        2.13707   0.00110   0.00000   0.00541   0.00525   2.14232
    A3        2.02236  -0.00001   0.00000   0.00509   0.00494   2.02729
    A4        2.08237   0.00387   0.00000   0.02644   0.02541   2.10778
    A5        2.12047  -0.00206   0.00000  -0.00189  -0.00295   2.11752
    A6        2.03881  -0.00159   0.00000  -0.00223  -0.00328   2.03553
    A7        1.86507  -0.00351   0.00000  -0.00782  -0.00775   1.85733
    A8        1.93875   0.00293   0.00000   0.01860   0.01866   1.95742
    A9        1.87220   0.00213   0.00000   0.03580   0.03603   1.90823
   A10        1.97399   0.00104   0.00000  -0.00672  -0.00687   1.96712
   A11        1.89725   0.00094   0.00000  -0.00115  -0.00158   1.89567
   A12        1.91309  -0.00344   0.00000  -0.03571  -0.03605   1.87704
   A13        1.96583   0.00214   0.00000   0.00713   0.00713   1.97295
   A14        2.17518   0.00274   0.00000   0.00874   0.00873   2.18392
   A15        2.14217  -0.00488   0.00000  -0.01589  -0.01589   2.12628
   A16        1.85309   0.00221   0.00000  -0.00025  -0.00025   1.85285
   A17        1.97208   0.00965   0.00000   0.03144   0.03148   2.00356
   A18        1.88299  -0.00460   0.00000  -0.03215  -0.03219   1.85081
   A19        1.92136  -0.00305   0.00000  -0.01068  -0.01101   1.91035
   A20        1.86917  -0.00189   0.00000  -0.00082  -0.00047   1.86870
   A21        1.94802  -0.00241   0.00000   0.00359   0.00355   1.95157
   A22        1.86510   0.00183   0.00000   0.00615   0.00585   1.87096
   A23        2.29049  -0.00150   0.00000  -0.00312  -0.00327   2.28722
   A24        2.15881   0.00433   0.00000   0.01288   0.01273   2.17154
   A25        1.83346  -0.00281   0.00000  -0.00905  -0.00905   1.82441
   A26        1.93015   0.00284   0.00000   0.00977   0.00977   1.93992
   A27        2.23244  -0.00158   0.00000  -0.01155  -0.01156   2.22088
   A28        2.12060  -0.00126   0.00000   0.00177   0.00177   2.12237
   A29        1.83394   0.00086   0.00000   0.00053   0.00044   1.83438
   A30        1.94685   0.00122   0.00000   0.00359   0.00360   1.95045
   A31        2.21089  -0.00209   0.00000  -0.01304  -0.01304   2.19784
   A32        2.12545   0.00087   0.00000   0.00945   0.00944   2.13489
   A33        1.88022  -0.00210   0.00000  -0.00454  -0.00462   1.87560
   A34        2.16753   0.00197   0.00000   0.00511   0.00486   2.17239
   A35        2.23519   0.00012   0.00000  -0.00130  -0.00152   2.23367
   A36        1.94118  -0.00147   0.00000   0.01004   0.00989   1.95106
   A37        1.91221   0.00199   0.00000   0.02277   0.02258   1.93479
   A38        1.88250   0.00085   0.00000   0.00186   0.00194   1.88444
   A39        1.93378  -0.00029   0.00000   0.00341   0.00303   1.93681
   A40        1.90125  -0.00087   0.00000  -0.02652  -0.02655   1.87470
   A41        1.89149  -0.00015   0.00000  -0.01260  -0.01274   1.87876
   A42        1.92289  -0.00136   0.00000  -0.00740  -0.00736   1.91552
   A43        1.89514   0.00090   0.00000  -0.00352  -0.00351   1.89163
   A44        1.90849  -0.00163   0.00000  -0.01256  -0.01253   1.89597
   A45        1.88470   0.00017   0.00000   0.00855   0.00850   1.89320
   A46        1.98312   0.00244   0.00000   0.01850   0.01844   2.00156
   A47        1.86678  -0.00048   0.00000  -0.00394  -0.00410   1.86268
   A48        1.90655  -0.00114   0.00000  -0.02814  -0.02817   1.87838
   A49        1.91408   0.00032   0.00000   0.00021   0.00018   1.91426
   A50        1.86664   0.00117   0.00000   0.01059   0.01052   1.87716
    D1       -0.09357  -0.00007   0.00000   0.02484   0.02496  -0.06861
    D2       -2.91979  -0.00065   0.00000  -0.05727  -0.05720  -2.97699
    D3        3.04272  -0.00045   0.00000   0.05717   0.05709   3.09981
    D4        0.21650  -0.00103   0.00000  -0.02494  -0.02506   0.19144
    D5        1.10064  -0.00137   0.00000  -0.40248  -0.40253   0.69811
    D6       -3.03870  -0.00136   0.00000  -0.37565  -0.37547   2.86902
    D7       -0.98318   0.00003   0.00000  -0.37710  -0.37704  -1.36022
    D8       -2.03560  -0.00098   0.00000  -0.43502  -0.43520  -2.47080
    D9        0.10824  -0.00098   0.00000  -0.40820  -0.40814  -0.29990
   D10        2.16376   0.00042   0.00000  -0.40965  -0.40971   1.75405
   D11       -2.81149   0.00013   0.00000  -0.06397  -0.06401  -2.87550
   D12        1.31106  -0.00065   0.00000  -0.06201  -0.06188   1.24918
   D13       -0.77937   0.00052   0.00000  -0.05155  -0.05182  -0.83118
   D14        0.02924   0.00054   0.00000   0.01411   0.01418   0.04342
   D15       -2.13141  -0.00024   0.00000   0.01607   0.01631  -2.11510
   D16        2.06136   0.00093   0.00000   0.02653   0.02637   2.08773
   D17        3.13427  -0.00026   0.00000   0.01267   0.01270  -3.13621
   D18       -0.01218  -0.00026   0.00000   0.00805   0.00806  -0.00411
   D19       -1.01016   0.00163   0.00000   0.02634   0.02641  -0.98376
   D20        2.12658   0.00164   0.00000   0.02172   0.02177   2.14835
   D21        1.11886  -0.00139   0.00000  -0.02447  -0.02454   1.09432
   D22       -2.02759  -0.00139   0.00000  -0.02909  -0.02918  -2.05677
   D23       -2.48849  -0.00083   0.00000  -0.03945  -0.03925  -2.52774
   D24       -0.42557  -0.00046   0.00000  -0.04284  -0.04291  -0.46848
   D25        1.60369  -0.00253   0.00000  -0.05949  -0.05925   1.54444
   D26        1.69753   0.00086   0.00000  -0.03805  -0.03781   1.65971
   D27       -2.52274   0.00124   0.00000  -0.04144  -0.04147  -2.56421
   D28       -0.49347  -0.00083   0.00000  -0.05809  -0.05781  -0.55128
   D29       -0.42259   0.00142   0.00000  -0.00637  -0.00657  -0.42916
   D30        1.64033   0.00179   0.00000  -0.00975  -0.01023   1.63010
   D31       -2.61359  -0.00027   0.00000  -0.02640  -0.02657  -2.64016
   D32       -3.12695  -0.00058   0.00000  -0.02101  -0.02098   3.13526
   D33        0.01939  -0.00061   0.00000  -0.01656  -0.01659   0.00280
   D34        2.10632  -0.00117   0.00000  -0.08480  -0.08481   2.02151
   D35       -0.99914  -0.00191   0.00000  -0.11487  -0.11496  -1.11410
   D36        0.03535   0.00011   0.00000  -0.06295  -0.06297  -0.02762
   D37       -3.07011  -0.00063   0.00000  -0.09303  -0.09312   3.11996
   D38       -2.00030   0.00035   0.00000  -0.07183  -0.07169  -2.07199
   D39        1.17742  -0.00040   0.00000  -0.10191  -0.10184   1.07559
   D40       -3.12602  -0.00010   0.00000  -0.01457  -0.01432  -3.14035
   D41        0.01454  -0.00044   0.00000  -0.01968  -0.01953  -0.00499
   D42       -0.01556   0.00066   0.00000   0.01168   0.01170  -0.00386
   D43        3.12500   0.00031   0.00000   0.00657   0.00650   3.13150
   D44        3.13017  -0.00043   0.00000   0.00700   0.00714   3.13732
   D45        0.01045   0.00011   0.00000   0.04045   0.04061   0.05106
   D46        0.01671  -0.00099   0.00000  -0.01641  -0.01633   0.00039
   D47       -3.10301  -0.00045   0.00000   0.01704   0.01714  -3.08587
   D48        0.00822  -0.00010   0.00000  -0.00231  -0.00235   0.00587
   D49       -3.13242   0.00022   0.00000   0.00243   0.00252  -3.12990
   D50        0.00278  -0.00050   0.00000  -0.00832  -0.00838  -0.00559
   D51       -3.13665  -0.00018   0.00000  -0.01042  -0.01037   3.13617
   D52       -0.01260   0.00094   0.00000   0.01595   0.01598   0.00338
   D53        3.10601   0.00040   0.00000  -0.01909  -0.01892   3.08709
   D54        3.12695   0.00063   0.00000   0.01790   0.01785  -3.13838
   D55       -0.03762   0.00010   0.00000  -0.01714  -0.01705  -0.05467
   D56       -1.26158   0.00002   0.00000  -0.03647  -0.03646  -1.29803
   D57        2.96087   0.00007   0.00000  -0.04047  -0.04043   2.92044
   D58        0.92979   0.00104   0.00000  -0.02691  -0.02689   0.90291
   D59        2.89022  -0.00129   0.00000  -0.07487  -0.07484   2.81537
   D60        0.82948  -0.00124   0.00000  -0.07887  -0.07882   0.75066
   D61       -1.20160  -0.00027   0.00000  -0.06530  -0.06527  -1.26687
   D62        0.81103  -0.00038   0.00000  -0.04484  -0.04491   0.76611
   D63       -1.24971  -0.00033   0.00000  -0.04884  -0.04889  -1.29860
   D64        3.00239   0.00064   0.00000  -0.03528  -0.03534   2.96705
   D65        1.03568  -0.00155   0.00000   0.00523   0.00520   1.04087
   D66        3.07621  -0.00062   0.00000   0.00187   0.00187   3.07808
   D67        3.10283  -0.00114   0.00000   0.00186   0.00178   3.10461
   D68       -1.13983  -0.00020   0.00000  -0.00151  -0.00155  -1.14137
   D69       -1.11265  -0.00015   0.00000   0.01393   0.01398  -1.09867
   D70        0.92788   0.00079   0.00000   0.01056   0.01066   0.93854
         Item               Value     Threshold  Converged?
 Maximum Force            0.014049     0.000450     NO 
 RMS     Force            0.003168     0.000300     NO 
 Maximum Displacement     1.246754     0.001800     NO 
 RMS     Displacement     0.320373     0.001200     NO 
 Predicted change in Energy=-4.159889D-03
 GradGradGradGradGradGradGradGradGradGradGradGradGradGradGradGradGradGrad

                          Input orientation:                          
 ---------------------------------------------------------------------
 Center     Atomic      Atomic             Coordinates (Angstroms)
 Number     Number       Type             X           Y           Z
 ---------------------------------------------------------------------
      1          8           0        1.142850    0.481845   -1.077819
      2          6           0        1.637595   -0.242898   -0.212625
      3          7           0        0.898221   -0.683254    0.842357
      4          6           0       -0.471031   -0.242992    1.023484
      5          6           0       -0.851123   -0.599415    2.448412
      6          8           0       -2.122879   -0.248650    2.762038
      7          8           0       -0.124998   -1.148793    3.246534
      8          6           0       -1.436688   -0.870526   -0.033613
      9          6           0       -2.542945    0.025163   -0.479922
     10          6           0       -2.824376    0.568190   -1.712270
     11          7           0       -3.960186    1.347317   -1.664681
     12          6           0       -4.365132    1.287261   -0.413552
     13          7           0       -3.546965    0.499797    0.346219
     14          6           0        3.077064   -0.726290   -0.269972
     15          6           0        4.028284    0.373587   -0.761705
     16          7           0        3.864055    0.561104   -2.202549
     17          1           0        1.328927   -1.157915    1.624573
     18          1           0       -0.520065    0.847723    0.910169
     19          1           0       -2.260832   -0.526160    3.687594
     20          1           0       -0.825157   -1.085155   -0.910458
     21          1           0       -1.815054   -1.830652    0.341204
     22          1           0       -2.262598    0.440443   -2.627730
     23          1           0       -5.232653    1.785754   -0.002641
     24          1           0       -3.603582    0.319949    1.338176
     25          1           0        3.397043   -1.115279    0.703255
     26          1           0        3.128569   -1.551808   -0.991470
     27          1           0        5.058570    0.051599   -0.568426
     28          1           0        3.860054    1.283437   -0.155312
     29          1           0        2.893925    0.825353   -2.370810
     30          1           0        4.451126    1.331268   -2.517218
 ---------------------------------------------------------------------
                    Distance matrix (angstroms):
                    1          2          3          4          5
     1  O    0.000000
     2  C    1.232309   0.000000
     3  N    2.259286   1.361460   0.000000
     4  C    2.746903   2.444232   1.449652   0.000000
     5  C    4.192774   3.660866   2.376267   1.517210   0.000000
     6  O    5.093438   4.794770   3.605704   2.398167   1.356010
     7  O    4.792332   3.986623   2.654011   2.425318   1.210814
     8  C    3.094073   3.142798   2.500839   1.563249   2.564535
     9  C    3.761798   4.197645   3.753918   2.573900   3.439113
    10  C    4.018565   4.776608   4.685078   3.698729   4.750612
    11  N    5.209071   5.997700   5.832030   4.682896   5.511223
    12  C    5.606051   6.197942   5.758743   4.423885   4.909037
    13  N    4.901282   5.267216   4.626601   3.236014   3.590968
    14  C    2.419378   1.519548   2.446729   3.807307   4.778740
    15  C    2.904716   2.529216   3.672495   4.879642   5.921165
    16  N    2.945548   3.092465   4.429001   5.463225   6.723923
    17  H    3.166443   2.075531   1.011273   2.106713   2.396508
    18  H    2.617489   2.665637   2.088068   1.097681   2.137756
    19  H    5.942245   5.521746   4.254370   3.221964   1.878355
    20  H    2.521220   2.694720   2.490766   2.138873   3.393910
    21  H    4.013784   3.840374   2.988232   2.189193   2.624010
    22  H    3.741793   4.638016   4.826487   4.124095   5.370362
    23  H    6.595697   7.166577   6.663155   5.276531   5.558282
    24  H    5.328401   5.494699   4.638803   3.198251   3.107071
    25  H    3.287007   2.166920   2.539706   3.978119   4.621537
    26  H    2.843639   2.131396   3.015254   4.327836   5.345820
    27  H    3.972085   3.452013   4.454080   5.761723   6.667054
    28  H    2.979390   2.696721   3.692651   4.741080   5.702604
    29  H    2.203654   2.716117   4.072244   4.897502   6.267396
    30  H    3.706492   3.962967   5.288495   6.264383   7.516572
                    6          7          8          9         10
     6  O    0.000000
     7  O    2.244220   0.000000
     8  C    2.945039   3.543632   0.000000
     9  C    3.280508   4.594683   1.491729   0.000000
    10  C    4.602039   5.901221   2.610263   1.375778   0.000000
    11  N    5.051599   6.712620   3.734602   2.271633   1.378176
    12  C    4.179844   6.108136   3.657346   2.217580   2.139547
    13  N    2.902477   4.779072   2.544666   1.384139   2.182703
    14  C    6.038264   4.774675   4.522237   5.673911   6.211513
    15  C    7.116232   5.969369   5.651889   6.586490   6.921010
    16  N    7.819604   6.966261   5.903534   6.656150   6.706380
    17  H    3.746405   2.178242   3.237406   4.562890   5.600347
    18  H    2.683369   3.098509   2.164094   2.588629   3.502167
    19  H    0.976061   2.268037   3.826902   4.213280   5.538386
    20  H    3.983849   4.216024   1.090363   2.090206   2.715387
    21  H    2.908250   3.429600   1.097948   2.155950   3.315107
    22  H    5.435436   6.449960   3.021624   2.205478   1.081656
    23  H    4.631732   6.727320   4.633156   3.249924   3.194541
    24  H    2.131471   4.230790   2.827450   2.125401   3.158166
    25  H    5.954761   4.344441   4.895696   6.163114   6.882942
    26  H    6.585192   5.358059   4.714150   5.908857   6.360149
    27  H    7.921828   6.547079   6.582151   7.602077   7.982235
    28  H    6.830352   5.776586   5.719252   6.533531   6.900529
    29  H    7.257268   6.675755   5.205065   5.811654   5.761838
    30  H    8.578125   7.766109   6.758886   7.400914   7.359562
                   11         12         13         14         15
    11  N    0.000000
    12  C    1.316401   0.000000
    13  N    2.220982   1.366290   0.000000
    14  C    7.467794   7.711114   6.764668   0.000000
    15  C    8.098096   8.450173   7.656880   1.535041   0.000000
    16  N    7.882016   8.452652   7.837295   2.451855   1.462246
    17  H    6.713426   6.523430   5.306271   2.613730   3.914888
    18  H    4.325954   4.090228   3.098582   4.099950   4.869029
    19  H    5.919845   4.953380   3.724448   6.647970   7.756209
    20  H    4.039081   4.290302   3.391098   3.970685   5.070103
    21  H    4.327199   4.098040   2.903538   5.052323   6.341898
    22  H    2.152136   3.168648   3.239983   5.952502   6.562142
    23  H    2.138638   1.081636   2.148705   8.685230   9.398688
    24  H    3.193713   2.141075   1.009718   6.950668   7.915665
    25  H    8.111740   8.201879   7.138291   1.095842   2.182039
    26  H    7.688211   8.034292   7.110643   1.097585   2.137621
    27  H    9.177070   9.505630   8.665604   2.149547   1.096596
    28  H    7.964824   8.229239   7.465222   2.159913   1.106274
    29  H    6.910131   7.532471   6.998092   2.618141   2.019921
    30  H    8.454422   9.063870   8.535811   3.342410   2.043960
                   16         17         18         19         20
    16  N    0.000000
    17  H    4.901914   0.000000
    18  H    5.384392   2.819881   0.000000
    19  H    8.566806   4.188262   3.554140   0.000000
    20  H    5.135015   3.327425   2.672785   4.849301   0.000000
    21  H    6.666592   3.461823   3.028928   3.619218   1.761340
    22  H    6.142574   5.791017   3.964722   6.388868   2.709743
    23  H    9.438721   7.373421   4.890971   5.272049   5.337815
    24  H    8.268041   5.157107   3.157501   2.835250   3.840615
    25  H    3.387042   2.264454   4.386335   6.423776   4.520172
    26  H    2.544022   3.199616   4.763036   7.210495   3.981995
    27  H    2.087299   4.492484   5.825910   8.486528   6.002287
    28  H    2.170935   3.941421   4.528856   7.450356   5.303930
    29  H    1.019456   4.727120   4.735045   8.068604   4.428797
    30  H    1.018245   5.753138   6.057519   9.327385   6.021623
                   21         22         23         24         25
    21  H    0.000000
    22  H    3.764670   0.000000
    23  H    4.987645   4.185950   0.000000
    24  H    2.969490   4.188218   2.569094   0.000000
    25  H    5.273404   6.748872   9.131590   7.174383   0.000000
    26  H    5.127688   5.975876   9.056883   7.365636   1.770516
    27  H    7.184497   7.615211  10.451635   8.873558   2.395715
    28  H    6.492374   6.656602   9.107850   7.672332   2.589470
    29  H    6.048460   5.177248   8.518912   7.498641   3.670022
    30  H    7.578478   6.773469  10.015250   8.986944   4.179489
                   26         27         28         29         30
    26  H    0.000000
    27  H    2.544560   0.000000
    28  H    3.045135   1.767634   0.000000
    29  H    2.758357   2.921125   2.460016   0.000000
    30  H    3.519828   2.409217   2.435211   1.643855   0.000000
 Symmetry turned off by external request.
 Stoichiometry    C9H14N4O3
 Framework group  C1[X(C9H14N4O3)]
 Deg. of freedom    84
 Full point group                 C1      NOp   1
 Rotational constants (GHZ):      0.7271854      0.3016277      0.2220018
 Standard basis: 6-31G(d) (6D, 7F)
   268 basis functions,   504 primitive gaussians,   268 cartesian basis functions
    60 alpha electrons       60 beta electrons
       nuclear repulsion energy      1112.3061116381 Hartrees.
 NAtoms=   30 NActive=   30 NUniq=   30 SFac= 1.00D+00 NAtFMM=   60 NAOKFM=F Big=F
 Integral buffers will be    131072 words long.
 Raffenetti 2 integral format.
 Two-electron integral symmetry is turned off.
 Nuclear repulsion after empirical dispersion term =     1112.2526004384 Hartrees.
 One-electron integrals computed using PRISM.
 NBasis=   268 RedAO= T EigKep=  1.28D-03  NBF=   268
 NBsUse=   268 1.00D-06 EigRej= -1.00D+00 NBFU=   268
 Initial guess from the checkpoint file:  "conf-295.chk"
 B after Tr=    -0.010550    0.006339    0.057111
         Rot=    0.999847   -0.016314    0.003803    0.005044 Ang=  -2.00 deg.
 ExpMin= 1.61D-01 ExpMax= 5.48D+03 ExpMxC= 8.25D+02 IAcc=2 IRadAn=         4 AccDes= 0.00D+00
 Harris functional with IExCor=  402 and IRadAn=       4 diagonalized for initial guess.
 HarFok:  IExCor=  402 AccDes= 0.00D+00 IRadAn=         4 IDoV= 1 UseB2=F ITyADJ=14
 ICtDFT=  3500011 ScaDFX=  1.000000  1.000000  1.000000  1.000000
 FoFCou: FMM=F IPFlag=           0 FMFlag=      100000 FMFlg1=           0
         NFxFlg=           0 DoJE=T BraDBF=F KetDBF=T FulRan=T
[...]
 ,-0.00000405,-0.00002482,0.00000314,0.00009798,0.00004183,-0.00009542,
 -0.00030163,-0.00015693,-0.00000317,0.00034535,0.00017117,0.00064379,-
 0.00011379,-0.00026211,0.00002698,0.00046415,-0.00078995,0.00002337,0.
 00053482,0.00177316,0.00044101,-0.00010189,-0.00083389,-0.00080442,0.0
 0002279,0.08007902,-0.00014801,0.00015453,-0.00031220,-0.00002460,-0.0
 0032254,0.00041247,-0.00003763,0.00022883,-0.00079755,0.00012449,0.000
 19225,0.00018054,-0.00616180,0.00074970,0.00363944,0.00269932,0.000927
 42,-0.00672028,0.00266642,-0.00107519,0.00000306,0.00031541,-0.0004569
 1,0.00068366,-0.00356073,0.00276144,-0.00895993,0.00165967,0.00009244,
 -0.00047594,-0.00026058,0.00181533,0.00266134,0.00067486,-0.00200044,-
 0.00578903,0.05752309,0.14471954,-0.39709929,0.00002175,0.00006211,-0.
 00001654,0.00000937,-0.00001333,0.00005881,-0.00000815,-0.00001656,-0.
 00005323,-0.00023162,-0.00005755,0.00025291,0.00006169,-0.00009583,0.0
 0003619,-0.00011691,0.00029055,-0.00079624,-0.00036028,0.00004988,-0.0
 0019721,0.00020139,-0.00019551,0.00000616,0.00012749,0.00074361,0.0004
 1706,-0.00027444,-0.00019972,-0.00001401,-0.05489931,-0.14837364,0.412
 88286,-0.00439128,0.00373447,0.00211728,-0.00889866,-0.00582610,-0.033
 35849,0.00003718,0.00054720,0.00255119,0.00017383,0.00052902,0.0005680
 8,-0.00015030,0.00028014,-0.00033389,-0.00000348,-0.00007449,0.0001074
 8,0.00010928,-0.00009259,0.00023479,0.00018012,-0.00005547,0.00005192,
 0.00003233,-0.00000658,0.00001841,0.00000452,-0.00001961,0.00000894,-0
 .00002971,0.00000815,-0.00000031,-0.00002336,0.00001515,0.00000291,-0.
 00000453,0.00000220,-0.00001127,-0.08433587,-0.01667685,-0.08854032,0.
 00828460,0.00520313,0.01692229,-0.00246661,-0.00199120,0.00330003,-0.0
 0112487,-0.00069114,0.00005708,-0.00009443,-0.00010334,0.00001092,-0.0
 0002613,-0.00001367,-0.00001008,0.00009063,0.00006349,0.00006135,-0.00
 002676,-0.00001100,-0.00000598,0.00000768,0.00000278,0.00001819,-0.000
 00411,0.00000194,0.00000116,0.00000523,0.00000246,-0.00001315,0.090980
 89,0.00238611,-0.00220033,-0.00090589,0.00530987,0.00075759,0.01195831
 ,-0.00117843,0.00026641,0.00001656,0.00005227,-0.00036470,-0.00015481,
 -0.00008852,0.00010772,-0.00009000,0.00006875,-0.00003570,0.00001076,0
 .00007258,-0.00007925,0.00005811,-0.00009544,-0.00000097,0.00000682,-0
 .00000179,-0.00001082,-0.00000257,-0.00000105,0.00000008,0.00000234,-0
 .00000647,0.00000245,0.00000418,-0.00000356,0.00000480,-0.00000479,-0.
 00000190,0.00000225,0.00000172,-0.01479150,-0.05147734,-0.03215106,0.0
 0774698,0.00306499,0.01494366,-0.00224691,-0.00103673,0.00111722,-0.00
 053460,0.00012198,0.00003925,0.00004130,0.00003233,0.00001804,-0.00000
 772,0.00000953,0.00000412,-0.00000176,-0.00001845,0.00002079,-0.000001
 30,-0.00000762,-0.00001560,-0.00000093,-0.00000233,-0.00000064,-0.0000
 0032,0.00000092,-0.00000010,-0.00000337,0.00000439,-0.00000662,0.01521
 373,0.05267471,-0.00102785,-0.00084972,0.00085256,0.00024708,0.0019512
 6,-0.00105902,0.00105674,0.00039680,0.00028938,-0.00046115,0.00026462,
 0.00051268,-0.00015869,0.00003658,-0.00010119,0.00007414,-0.00001235,0
 .00001519,0.00008533,-0.00003737,0.00006940,0.00014881,-0.00007361,-0.
 00007343,0.00004034,0.00004365,0.00002686,0.00002236,0.00001013,-0.000
 03320,0.00000968,-0.00002011,0.00001126,0.00000085,-0.00000488,0.00000
 754,-0.00002026,-0.00000378,0.00003477,-0.08559170,-0.03263278,-0.2632
 8241,-0.00984300,-0.00671655,-0.01746442,0.00468216,0.00256245,-0.0032
 3100,-0.00012188,-0.00064333,-0.00002461,0.00001386,-0.00002688,-0.000
 04907,-0.00001383,-0.00000285,0.00000139,0.00002266,0.00000607,-0.0000
 0610,0.00000836,0.00000925,0.00001219,0.00000429,-0.00000052,0.0000092
 1,-0.00000176,-0.00000159,0.00000103,-0.00001253,0.00000301,-0.0000118
 2,0.09340467,0.03596852,0.28855055,-0.00539865,-0.00093685,-0.00272220
 ,0.00165208,0.03494075,0.00743929,-0.00114098,-0.00271948,-0.00031373,
 0.00022210,-0.00052609,-0.00070861,0.00011696,0.00000235,-0.00017892,-
 0.00002998,0.00000674,0.00003646,-0.00001787,-0.00007140,0.00009685,-0
 .00018117,0.00000943,0.00008906,-0.00000738,-0.00005670,-0.00004878,0.
 00000424,-0.00001161,0.00000698,-0.00002579,0.00001143,-0.00000411,-0.
 00001090,0.00001307,0.00000098,-0.00000112,-0.00000203,-0.00001133,-0.
 04818773,0.01386765,0.00453334,0.00010967,-0.02198903,-0.00379988,0.00
 044094,0.00171032,-0.00127601,-0.00035613,0.00035168,0.00064441,0.0000
 7988,0.00007986,-0.00010837,0.00001192,0.00000914,-0.00000527,0.000008
 08,0.00016506,0.00009268,-0.00007509,-0.00005452,0.00002119,0.00001061
 ,0.00000473,0.00002054,-0.00000176,0.00000233,0.00000217,0.00000957,0.
 00000467,-0.00000250,0.00038349,-0.01290862,-0.00192600,0.05403971,0.0
 0208580,0.00064789,-0.00036528,0.00003074,-0.01064234,0.00001475,-0.00
 089681,0.00125075,0.00079954,0.00060937,0.00052752,0.00017378,0.000104
 54,-0.00004552,0.00001974,-0.00006836,0.00001807,0.00001159,-0.0000600
 8,0.00005445,-0.00001568,0.00004301,-0.00000313,0.00001478,-0.00000214
 ,-0.00000481,0.00001403,-0.00000459,0.00000197,0.00001848,-0.00000770,
 0.00002078,-0.00000588,-0.00000105,-0.00000315,-0.00000010,0.00001141,
 0.00001230,-0.00001886,0.01071403,-0.29656456,-0.05225789,-0.00066413,
 -0.01845974,-0.00338205,0.00145446,0.00219489,-0.00114237,0.00016466,-
 0.00038140,-0.00069646,-0.00027782,0.00003251,0.00008095,0.00000738,-0
 .00001100,-0.00000993,0.00000985,-0.00007554,-0.00004918,0.00003149,0.
 00001617,-0.00002449,-0.00000531,-0.00000832,-0.00001149,-0.00000173,-
 0.00000103,-0.00000178,0.00000901,-0.00000733,0.00000448,-0.00015272,-
 0.00274587,-0.00096459,-0.01050088,0.32374100,-0.00152411,0.00012561,-
 0.00104788,-0.00106236,0.00262914,-0.00010093,0.00125966,0.00060815,0.
 00023616,-0.00009556,-0.00000825,-0.00011479,0.00010265,-0.00015158,0.
 00010305,-0.00007507,0.00003804,-0.00001433,-0.00008021,0.00011383,-0.
 00005455,0.00001359,-0.00001312,0.00002985,-0.00000558,0.00000814,-0.0
 0001257,-0.00000615,-0.00000475,0.00000851,0.00000198,0.00000114,-0.00
 000817,0.00000612,-0.00000264,-0.00000081,0.00000952,-0.00000319,-0.00
 000960,0.00278573,-0.05279195,-0.05628756,-0.00053666,0.02349463,0.004
 36563,-0.00071939,-0.00041347,0.00202704,0.00055120,-0.00032504,-0.000
 43286,0.00002026,0.00001368,-0.00004968,0.00001064,-0.00000615,-0.0000
 0209,-0.00000781,0.00002661,-0.00001964,-0.00000024,0.00000902,0.00000
 724,0.00000106,0.00000498,0.00000040,0.00000135,-0.00000034,-0.0000000
 6,0.00000663,-0.00000438,0.00001004,0.00194671,-0.03038619,-0.00527000
 ,-0.00431551,0.05549692,0.05885878,0.00020718,-0.00024066,0.00031569,0
 .00061930,-0.00228253,0.00221451,-0.00165896,0.00024229,0.00014627,0.0
 0021469,-0.00030371,0.00020492,0.00007342,0.00011976,-0.00031021,-0.00
 016660,-0.00002385,0.00015416,-0.00007443,-0.00006207,0.00016817,-0.00
 000554,0.00003921,0.00003532,0.00000557,-0.00004636,-0.00002629,0.0000
 0933,-0.00002294,0.00000610,-0.00005492,0.00003245,-0.00000328,-0.0000
 1383,0.00001244,-0.00000032,-0.00000354,0.00000498,-0.00002075,-0.0174
 9045,0.00577440,-0.00098841,-0.28249995,0.07168211,-0.02463042,-0.0095
 8895,0.00103206,-0.00455252,-0.00000475,0.00013683,-0.00013235,-0.0000
 1667,0.00002495,-0.00001517,0.00000563,0.00000239,-0.00001291,0.000034
 37,0.00003151,0.00003265,-0.00002429,-0.00001096,-0.00000325,0.0000096
 5,-0.00000028,0.00001459,-0.00000608,0.00000256,0.00000260,0.00002931,
 0.00000168,0.00000074,0.00075599,0.00030855,0.00029957,0.00045764,-0.0
 0019974,-0.00060562,0.30811885,0.00083575,0.00131832,-0.00086620,-0.00
 044521,-0.00326251,0.00391916,-0.00129109,0.00055132,-0.00021659,-0.00
 010923,-0.00021936,0.00022418,-0.00006678,0.00006862,-0.00007326,-0.00
 003416,-0.00001695,0.00005215,0.00000239,-0.00001553,0.00002066,-0.000
 00141,0.00002255,0.00001437,-0.00000653,-0.00001067,0.00000031,-0.0000
 0250,-0.00000041,0.00000743,-0.00000276,0.00001092,-0.00000144,-0.0000
 0193,0.00000035,-0.00000106,0.00000591,0.00000417,-0.00000955,-0.01883
 223,0.00449387,-0.00075884,0.07560454,-0.07676078,0.00625780,-0.010253
 61,0.00351157,-0.00130043,-0.00000510,0.00005687,-0.00006032,-0.000004
 97,0.00000745,0.00000227,-0.00001235,-0.00000038,0.00000689,-0.0000115
 6,-0.00001457,-0.00000771,-0.00000062,-0.00000195,-0.00000488,-0.00000
 144,-0.00000413,-0.00000491,-0.00000044,-0.00000016,-0.00000091,0.0000
 0427,-0.00000280,0.00000328,0.00074647,0.00055319,-0.00063641,0.000113
 74,0.00076894,-0.00073465,-0.07752781,0.07727918,0.00003060,-0.0002067
 0,0.00062803,0.00127138,0.00393067,-0.00322212,0.00180053,-0.00067103,
 0.00014282,-0.00005917,0.00028540,-0.00034849,0.00000433,-0.00010104,0
 .00022069,0.00014267,0.00002442,-0.00012934,0.00005526,0.00002823,-0.0
 0010126,-0.00000768,-0.00001936,-0.00006492,0.00000734,0.00003859,0.00
 001158,0.00002221,0.00001894,-0.00004004,0.00002550,-0.00002940,0.0000
 1958,0.00000346,-0.00000516,0.00000266,-0.00001824,-0.00000950,0.00004
 390,0.02255263,-0.00739273,0.00174858,-0.01961484,0.00579754,-0.051530
 58,-0.03745474,0.00791314,-0.00920277,-0.00000152,-0.00008542,0.000103
 99,0.00001573,-0.00001142,-0.00000155,0.00000698,-0.00000078,-0.000001
 03,-0.00001679,-0.00001921,-0.00003134,0.00001798,0.00000498,0.0000109
 4,0.00000191,-0.00000219,-0.00000104,0.00000144,-0.00000180,0.00000124
 ,-0.00002566,0.00000323,-0.00001110,-0.00013167,-0.00070142,0.00067257
 ,-0.00076528,-0.00014751,0.00062451,0.02955473,-0.00712010,0.06490419,
 -0.00018821,0.00129235,-0.00042735,0.00090567,-0.00224452,0.00031943,0
 .00019288,0.00060604,-0.00041744,-0.00010625,0.00013037,0.00000360,-0.
 00001864,-0.00004039,0.00010958,0.00003318,0.00001191,-0.00003976,0.00
 001210,0.00004084,-0.00007470,0.00000232,-0.00000191,-0.00001147,-0.00
 000421,0.00001459,0.00001799,0.00000039,0.00001098,-0.00000036,0.00001
 661,-0.00000274,0.00000324,0.00000352,-0.00000514,-0.00000091,0.000003
 31,0.00000253,0.00000392,0.00076747,-0.02027687,-0.00114336,-0.0561597
 4,0.01855460,0.00334733,0.00279014,-0.01182742,-0.00634286,0.00020005,
 -0.00010610,-0.00017135,-0.00005127,-0.00000663,0.00003086,-0.00000316
 ,-0.00000391,0.00000345,-0.00001832,-0.00004671,-0.00002818,0.00002249
 ,0.00000992,-0.00001086,-0.00000563,-0.00000592,-0.00001157,0.00000133
 ,-0.00000131,-0.00000152,-0.00000825,-0.00000418,0.00000067,0.00040667
 ,0.00042325,-0.00014062,-0.00194502,-0.00234513,0.00235308,-0.00109362
 ,0.03162830,0.00466636,0.05370751,0.00031229,0.00233473,-0.00083171,0.
 00239149,-0.00184419,0.00116108,-0.00034734,0.00039097,-0.00011853,0.0
 0006033,-0.00005063,0.00002853,0.00006189,-0.00002161,-0.00003149,-0.0
 0006701,0.00002049,0.00004217,-0.00004147,0.00004393,0.00002004,-0.000
 00276,0.00001676,-0.00000975,0.00000674,-0.00001242,0.00001210,0.00001
 582,0.00000337,-0.00000028,-0.00001794,0.00002758,0.00000511,-0.000011
 19,0.00000137,0.00000410,-0.00000108,0.00001727,-0.00000603,-0.0000157
 6,-0.01773833,-0.00069595,0.01578203,-0.28037632,-0.03460933,-0.003194
 64,-0.00314964,-0.01114065,0.00010327,-0.00007478,-0.00028793,-0.00005
 920,0.00002767,-0.00000866,-0.00000010,-0.00001540,-0.00000941,-0.0000
 0098,-0.00003118,-0.00000086,0.00001195,0.00000970,-0.00000982,0.00000
 004,-0.00001509,-0.00000268,-0.00000485,-0.00000182,-0.00000067,0.0000
 0397,-0.00001222,-0.00000417,-0.00002552,-0.00011229,0.00067512,-0.001
 75700,-0.00056378,0.00246116,0.00170262,-0.00903959,-0.00057958,-0.015
 12374,0.30792791,0.00056245,-0.00024062,0.00075504,-0.00146028,0.00058
 118,0.00008406,0.00030514,-0.00012711,-0.00019788,-0.00018247,-0.00005
 955,-0.00002310,-0.00010512,0.00003116,0.00003809,0.00009440,-0.000005
 61,-0.00003253,0.00007431,-0.00002604,-0.00001664,0.00000860,-0.000011
 02,-0.00003156,0.00001221,0.00002158,0.00000990,0.00002208,0.00001557,
 -0.00002793,0.00001334,-0.00000861,0.00001806,-0.00000268,-0.00000286,
 0.00000297,-0.00001267,-0.00000148,0.00003004,0.00003027,0.02352070,0.
 00388346,0.00272396,-0.03703002,-0.05600758,-0.00418936,-0.03653572,-0
 .02041593,-0.00012992,0.00004500,0.00016740,0.00005516,-0.00001829,0.0
 0000150,-0.00000874,-0.00000067,0.00000304,0.00000086,-0.00001042,-0.0
 0002574,0.00000740,0.00000348,0.00000300,-0.00000070,-0.00001160,-0.00
 000342,-0.00000086,-0.00000214,0.00000043,-0.00001760,-0.00000058,-0.0
 0001129,-0.00088444,-0.00052705,0.00073912,0.00351535,0.00266166,-0.00
 304596,0.00069040,0.00255725,0.00158431,-0.00292123,0.04498063,0.07010
 355,-0.00380628,0.00135322,-0.00014063,0.00140839,-0.00229129,0.002791
 34,0.00024488,0.00094944,-0.00089301,-0.00036638,0.00008213,0.00004064
 ,-0.00016490,-0.00006739,0.00025325,0.00013554,0.00000351,-0.00011508,
 0.00007474,0.00005628,-0.00016996,-0.00002716,-0.00002950,0.00004219,-
 0.00003316,0.00004498,0.00001365,-0.00004673,0.00001538,0.00004124,0.0
 0007488,-0.00003859,-0.00000795,0.00003085,-0.00001119,-0.00002004,0.0
 0003306,-0.00001579,0.00000351,0.00035419,0.00000864,-0.00023199,-0.01
 193181,0.00696412,-0.00529900,-0.33837531,0.12437208,-0.04208050,0.000
 17371,0.00005085,0.00008959,0.00002253,-0.00004382,0.00002694,-0.00001
 724,0.00000360,0.00002134,-0.00007649,-0.00006128,-0.00000859,0.000034
 25,0.00001104,-0.00002430,-0.00002951,0.00001661,-0.00003727,0.0000105
 4,-0.00000169,-0.00000601,-0.00002234,-0.00000099,0.00001058,-0.000291
 91,-0.00003578,0.00005631,-0.00003949,-0.00007069,-0.00009860,0.001622
 79,-0.00078779,-0.00203647,0.00070593,0.00026147,0.00208251,0.37176416
 ,0.00028598,-0.00227669,-0.00099829,-0.00080570,0.00128098,0.00106497,
 0.00000193,-0.00053479,0.00031184,0.00008579,0.00009388,0.00001182,-0.
 00002985,-0.00004520,0.00007332,0.00001414,-0.00000878,-0.00003724,-0.
 00001895,0.00001546,-0.00004358,-0.00005471,-0.00000658,0.00010508,-0.
 00004305,0.00001866,-0.00006225,-0.00003897,-0.00001726,0.00000826,0.0
 0003160,-0.00004791,-0.00000989,0.00002868,0.00000067,-0.00001877,0.00
 002271,-0.00004037,0.00001249,0.00143343,0.00024389,0.00087432,-0.0133
 6454,-0.00043543,-0.00871208,0.18092730,-0.09604466,0.03802080,-0.0000
 2698,-0.00000070,0.00011622,0.00000870,-0.00001160,-0.00002185,-0.0000
 0246,0.00001233,0.00001419,-0.00005703,0.00007663,0.00003548,-0.000008
 74,-0.00002053,0.00000613,0.00000273,0.00005264,0.00000133,0.00000900,
 0.00000177,0.00000083,-0.00000022,0.00001342,0.00001684,-0.00031485,-0
 .00011320,0.00003483,0.00022701,-0.00031844,0.00014455,-0.00066165,0.0
 0046804,-0.00172413,-0.00135836,0.00141234,0.00064252,-0.14453413,0.09
 286770,0.00000997,-0.00212139,0.00431664,-0.00061055,0.00582969,-0.006
 70605,-0.00090140,-0.00203376,0.00174157,0.00087355,-0.00017666,-0.000
 06389,0.00041247,-0.00000535,-0.00045007,-0.00035479,0.00000381,0.0002
 0563,-0.00023954,-0.00003997,0.00029355,0.00000039,0.00003718,0.000073
 54,0.00001282,-0.00011933,-0.00001983,-0.00006121,-0.00006406,0.000110
 90,-0.00009148,0.00008003,-0.00006779,-0.00002395,0.00002028,0.0000076
 4,0.00003226,0.00003780,-0.00013396,-0.00019379,0.00042945,0.00084477,
 -0.03900737,0.01635602,-0.00811421,-0.03640617,0.02560523,-0.06789116,
 -0.00024813,-0.00001840,-0.00005207,0.00002467,0.00007783,-0.00010454,
 0.00003522,0.00000298,-0.00002576,0.00010965,0.00011677,0.00014060,-0.
 00006966,-0.00001866,0.00000247,0.00000828,0.00001046,0.00003469,-0.00
 000599,0.00000739,-0.00000155,0.00007161,-0.00000480,0.00002304,0.0004
 5508,-0.00027052,0.00014837,0.00006012,-0.00004752,-0.00005080,-0.0021
 4662,-0.00190679,-0.00732865,0.00028011,-0.00047362,0.00120556,0.05084
 743,-0.02783092,0.07707127,-0.00038542,0.00006685,0.00197136,-0.000662
 04,0.00135896,-0.00141352,-0.00001987,-0.00040837,0.00025400,0.0001165
 9,-0.00002853,-0.00002247,0.00005367,-0.00000619,-0.00005087,-0.000036
 23,0.00000392,0.00002021,-0.00002238,-0.00000102,0.00003889,0.00001616
 ,-0.00000068,-0.00001338,0.00001233,-0.00002153,0.00001565,-0.00001031
 ,-0.00000612,0.00002319,-0.00001228,0.00002115,-0.00001650,-0.00000965
 ,0.00000076,0.00000880,0.00000547,0.00001813,-0.00003315,0.00020684,-0
 .00044539,-0.00291212,0.00902597,0.00470416,-0.01150614,-0.20244289,-0
 .08588777,0.14305176,-0.00006583,-0.00005507,0.00002373,0.00001422,0.0
 0001326,-0.00001936,0.00000347,-0.00000228,-0.00000376,0.00003316,0.00
 000938,0.00001690,-0.00000971,0.00000269,0.00000119,0.00000208,-0.0000
 0900,0.00000681,-0.00000124,0.00000061,-0.00000145,0.00000857,-0.00000
 485,0.00000277,0.00041959,0.00028660,-0.00085794,-0.00012781,-0.000016
 88,0.00006271,0.00053884,0.00045816,-0.00004897,-0.00016925,-0.0000433
 3,-0.00028235,-0.02146173,-0.02175880,0.02712702,0.21497969,0.00023600
 ,-0.00011188,-0.00068055,0.00106108,-0.00039375,-0.00031840,-0.0003973
 1,-0.00003240,0.00013819,0.00018361,-0.00005319,0.00001519,0.00013626,
 0.00002836,-0.00013742,-0.00013045,-0.00000484,0.00007467,-0.00008612,
 -0.00002333,0.00007389,0.00000705,0.00002084,0.00000699,0.00000182,-0.
 00003293,-0.00000941,-0.00000193,-0.00002328,0.00000756,-0.00004295,0.
 00001438,-0.00001219,-0.00000660,0.00000798,0.00000137,-0.00000599,0.0
 0000235,-0.00002334,0.00008101,-0.00020774,0.00093671,0.00550362,-0.00
 221256,-0.01468111,-0.12278221,-0.09018003,0.13715296,0.00002240,0.000
 07578,-0.00007605,-0.00002337,0.00001497,-0.00000201,0.00001682,0.0000
 0588,-0.00000959,0.00003635,0.00001777,0.00003104,-0.00001691,-0.00000
 884,0.00000055,0.00001047,0.00001030,0.00001615,-0.00000285,0.00000387
 ,0.00000261,0.00002633,0.00000577,0.00000578,-0.00029521,0.00060227,0.
 00066501,0.00001424,0.00054871,-0.00032987,0.00023179,0.00023442,0.000
 78333,0.00067530,0.00082522,-0.00044136,0.01379658,0.00336373,-0.01348
 319,0.10175117,0.08750219,0.00023116,-0.00040630,0.00076518,-0.0011266
 3,0.00054146,-0.00044250,0.00022468,-0.00009501,0.00013656,-0.00002540
 ,0.00004408,0.00002750,-0.00003639,0.00001506,-0.00000296,0.00003221,-
 0.00000788,-0.00001123,0.00002882,-0.00001189,0.00000822,0.00002043,-0
 .00001067,-0.00002091,0.00000686,0.00000633,0.00000709,0.00000060,-0.0
 0000084,-0.00000729,0.00000124,-0.00000887,-0.00000139,-0.00000069,-0.
 00000037,0.00000284,-0.00000579,-0.00000088,0.00000390,-0.00392695,-0.
 00313075,-0.00642221,0.02506733,0.01884894,-0.02468873,0.13889548,0.09
 508568,-0.20369230,-0.00010751,-0.00008026,0.00003469,0.00001330,-0.00
 000211,-0.00000406,-0.00000223,0.00000176,0.00000177,0.00001270,0.0000
 0340,-0.00000189,-0.00000041,-0.00000025,0.00000539,0.00000406,0.00000
 332,0.00000652,0.00000055,0.00000061,0.00000054,-0.00000313,0.00000316
 ,-0.00000190,0.00145112,0.00104685,-0.00134781,-0.00037292,-0.00016964
 ,0.00025107,-0.00039231,0.00063831,0.00129464,0.00060392,-0.00056890,0
 .00121003,-0.00515112,-0.00203683,0.00479013,-0.15544299,-0.10970749,0
 .22809910\\0.00001328,0.00000315,-0.00001286,0.00000103,-0.00001329,0.
 00000702,0.00000061,-0.00000315,-0.00000394,0.00000142,0.00000255,0.00
 000355,-0.00000263,-0.00000064,0.00000001,0.00000191,0.00000314,-0.000
 00549,0.00000185,-0.00000233,0.00000245,0.00000238,0.00000050,-0.00000
 185,0.00000180,0.00000062,0.00000090,-0.00000062,-0.00000035,-0.000000
 61,0.00000017,-0.00000006,0.,-0.00000154,0.00000105,0.00000069,0.00000
 309,-0.00000122,0.00000209,-0.00001776,-0.00000705,0.00001653,0.000006
 76,0.00000449,-0.00000002,-0.00000558,0.00000707,0.00000605,-0.0000043
 2,0.00000267,-0.00000265,-0.00000045,0.00000049,-0.00000033,-0.0000003
 7,-0.00000007,0.00000046,0.00000150,-0.00000081,0.00000088,-0.00000097
 ,0.00000026,-0.00000018,-0.00000014,0.00000008,-0.00000022,-0.00000062
 ,-0.00000016,0.00000012,-0.00000153,-0.00000144,0.00000110,0.00000552,
 0.00000283,-0.00000463,0.00000338,0.00000248,-0.00000209,-0.00000003,0
 .00000087,0.00000030,0.00000101,0.00000032,-0.00000058,-0.00000764,-0.
 00000291,-0.00000575,-0.00000150,0.00000091,-0.00000094\\\@


 Boundary, n.  In political geography, an imaginary
 line between two nations, separating the imaginary
 rights of one from the imaginary rights of another.
                               -- Ambrose Bierce
 Job cpu time:       0 days  0 hours 59 minutes 47.4 seconds.
 File lengths (MBytes):  RWF=    260 Int=      0 D2E=      0 Chk=      8 Scr=      1
 Normal termination of Gaussian 09 at Tue Jul 27 02:09:28 2021.
