 Entering Gaussian System, Link 0=g09
 Input=opt_freq-conf-609.com
 Output=opt_freq-conf-609.log
 Initial command:
 /aerosol/software/g09/l1.exe "/scratch/nicole/10624/Gau-83766.inp" -scrdir="/scratch/nicole/10624/"
 Entering Link 1 = /aerosol/software/g09/l1.exe PID=     83772.
  
 Copyright (c) 1988,1990,1992,1993,1995,1998,2003,2009,2013,
            Gaussian, Inc.  All Rights Reserved.
  
 This is part of the Gaussian(R) 09 program.  It is based on
 the Gaussian(R) 03 system (copyright 2003, Gaussian, Inc.),
 the Gaussian(R) 98 system (copyright 1998, Gaussian, Inc.),
 the Gaussian(R) 94 system (copyright 1995, Gaussian, Inc.),
 the Gaussian 92(TM) system (copyright 1992, Gaussian, Inc.),
 the Gaussian 90(TM) system (copyright 1990, Gaussian, Inc.),
 the Gaussian 88(TM) system (copyright 1988, Gaussian, Inc.),
 the Gaussian 86(TM) system (copyright 1986, Carnegie Mellon
 University), and the Gaussian 82(TM) system (copyright 1983,
 Carnegie Mellon University). Gaussian is a federally registered
 trademark of Gaussian, Inc.
  
 This software contains proprietary and confidential information,
 including trade secrets, belonging to Gaussian, Inc.
  
 This software is provided under written license and may be
 used, copied, transmitted, or stored only in accord with that
 written license.
  
 The following legend is applicable only to US Government
 contracts under FAR:
  
                    RESTRICTED RIGHTS LEGEND
  
 Use, reproduction and disclosure by the US Government is
 subject to restrictions as set forth in subparagraphs (a)
 and (c) of the Commercial Computer Software - Restricted
 Rights clause in FAR 52.227-19.
  
 Gaussian, Inc.
 340 Quinnipiac St., Bldg. 40, Wallingford CT 06492
  
  
 ---------------------------------------------------------------
 Warning -- This program may not be used in any manner that
 competes with the business of Gaussian, Inc. or will provide
 assistance to any competitor of Gaussian, Inc.  The licensee
 of this program is prohibited from giving any competitor of
 Gaussian, Inc. access to this program.  By using this program,
 the user acknowledges that Gaussian, Inc. is engaged in the
 business of creating and licensing software in the field of
 computational chemistry and represents and warrants to the
 licensee that it is not a competitor of Gaussian, Inc. and that
 it will not use this program in any manner prohibited above.
 ---------------------------------------------------------------
  

 Cite this work as:
 Gaussian 09, Revision D.01,
 M. J. Frisch, G. W. Trucks, H. B. Schlegel, G. E. Scuseria, 
 M. A. Robb, J. R. Cheeseman, G. Scalmani, V. Barone, B. Mennucci, 
 G. A. Petersson, H. Nakatsuji, M. Caricato, X. Li, H. P. Hratchian, 
 A. F. Izmaylov, J. Bloino, G. Zheng, J. L. Sonnenberg, M. Hada, 
 M. Ehara, K. Toyota, R. Fukuda, J. Hasegawa, M. Ishida, T. Nakajima, 
 Y. Honda, O. Kitao, H. Nakai, T. Vreven, J. A. Montgomery, Jr., 
 J. E. Peralta, F. Ogliaro, M. Bearpark, J. J. Heyd, E. Brothers, 
 K. N. Kudin, V. N. Staroverov, T. Keith, R. Kobayashi, J. Normand, 
 K. Raghavachari, A. Rendell, J. C. Burant, S. S. Iyengar, J. Tomasi, 
 M. Cossi, N. Rega, J. M. Millam, M. Klene, J. E. Knox, J. B. Cross, 
 V. Bakken, C. Adamo, J. Jaramillo, R. Gomperts, R. E. Stratmann, 
 O. Yazyev, A. J. Austin, R. Cammi, C. Pomelli, J. W. Ochterski, 
 R. L. Martin, K. Morokuma, V. G. Zakrzewski, G. A. Voth, 
 P. Salvador, J. J. Dannenberg, S. Dapprich, A. D. Daniels, 
 O. Farkas, J. B. Foresman, J. V. Ortiz, J. Cioslowski, 
 and D. J. Fox, Gaussian, Inc., Wallingford CT, 2013.
 
 ******************************************
 Gaussian 09:  ES64L-G09RevD.01 24-Apr-2013
                28-Jul-2021 
 ******************************************
 %mem=2gb
 %nproc=4
 Will use up to    4 processors via shared memory.
 %chk=conf-609.chk
 ----------------------------------------------------------------------
 # B3LYP/6-311G(d,p) opt=calcfc freq=noraman nosymm integral(ultrafineg
 rid)
 ----------------------------------------------------------------------
 1/10=4,14=-1,18=20,19=15,26=4,38=1/1,3;
 2/9=110,12=2,15=1,17=6,18=5,40=1/2;
 3/5=4,6=6,7=101,11=2,16=1,25=1,30=1,71=2,74=-5,75=-5,140=1/1,2,3;
 4//1;
 5/5=2,38=5/2;
 8/6=4,10=90,11=11/1;
 11/6=1,8=1,9=11,15=111,16=1,31=1/1,2,10;
 10/6=1,13=1,31=1/2;
 6/7=2,8=2,9=2,10=2,28=1/1;
 7/10=1,18=20,25=1,30=1/1,2,3,16;
 1/10=4,14=-1,18=20,19=15,26=4/3(2);
 2/9=110,15=1/2;
 99//99;
 2/9=110,15=1/2;
 3/5=4,6=6,7=101,11=2,16=1,25=1,30=1,71=1,74=-5,75=-5/1,2,3;
 4/5=5,16=3,69=1/1;
 5/5=2,38=5/2;
 7/30=1/1,2,3,16;
 1/14=-1,18=20,19=15,26=4/3(-5);
 2/9=110,15=1/2;
 6/7=2,8=2,9=2,10=2,19=2,28=1/1;
 99/9=1/99;
 ------------------------------------------------------------
 Candidate Structure: Conf:609 OPT and FREQ calc in gas phase
 ------------------------------------------------------------
 Symbolic Z-matrix:
 Charge =  0 Multiplicity = 1
 O                     1.4177    0.85748  -0.67657 
 C                     1.59436  -0.0041    0.17026 
 N                     0.53894  -0.70679   0.68996 
 C                    -0.76947  -0.61446   0.04509 
 C                    -0.64827  -1.10746  -1.38772 
 O                    -1.61879  -0.61874  -2.20018 
 O                     0.17932  -1.88567  -1.77113 
 C                    -1.37787   0.79834   0.19937 
 C                    -2.85873   0.80124   0.37903 
 C                    -3.64977   1.26082   1.39423 
 N                    -4.98461   1.02988   1.11578 
 C                    -4.99278   0.43648  -0.05264 
 N                    -3.73342   0.27218  -0.53474 
 C                     2.94924  -0.35503   0.76111 
 C                     4.10813   0.28615  -0.00412 
 N                     5.43796  -0.03063   0.50635 
 H                     0.73699  -1.56765   1.16964 
 H                    -1.39207  -1.34935   0.56809 
 H                    -1.43624  -0.99233  -3.07559 
 H                    -0.94483   1.25313   1.08786 
 H                    -1.07567   1.42915  -0.63282 
 H                    -3.34519   1.74821   2.30793 
 H                    -5.85793   0.10731  -0.60024 
 H                    -3.44962  -0.1468   -1.40521 
 H                     2.9628   -0.0272    1.80781 
 H                     3.05558  -1.44622   0.77465 
 H                     4.05694  -0.02324  -1.04839 
 H                     3.98105   1.36867   0.00486 
 H                     5.59424  -1.03199   0.48736 
 H                     5.52208   0.25863   1.47443 
 

 GradGradGradGradGradGradGradGradGradGradGradGradGradGradGradGradGradGrad
 Berny optimization.
 Initialization pass.
                           ----------------------------
                           !    Initial Parameters    !
                           ! (Angstroms and Degrees)  !
 --------------------------                            --------------------------
 ! Name  Definition              Value          Derivative Info.                !
 --------------------------------------------------------------------------------
 ! R1    R(1,2)                  1.2209         calculate D2E/DX2 analytically  !
 ! R2    R(2,3)                  1.3703         calculate D2E/DX2 analytically  !
 ! R3    R(2,14)                 1.5192         calculate D2E/DX2 analytically  !
 ! R4    R(3,4)                  1.4616         calculate D2E/DX2 analytically  !
 ! R5    R(3,17)                 1.0052         calculate D2E/DX2 analytically  !
 ! R6    R(4,5)                  1.5201         calculate D2E/DX2 analytically  !
 ! R7    R(4,8)                  1.5459         calculate D2E/DX2 analytically  !
 ! R8    R(4,18)                 1.096          calculate D2E/DX2 analytically  !
 ! R9    R(5,6)                  1.3568         calculate D2E/DX2 analytically  !
 ! R10   R(5,7)                  1.199          calculate D2E/DX2 analytically  !
 ! R11   R(6,19)                 0.9691         calculate D2E/DX2 analytically  !
 ! R12   R(8,9)                  1.4917         calculate D2E/DX2 analytically  !
 ! R13   R(8,20)                 1.088          calculate D2E/DX2 analytically  !
 ! R14   R(8,21)                 1.0871         calculate D2E/DX2 analytically  !
 ! R15   R(9,10)                 1.3666         calculate D2E/DX2 analytically  !
 ! R16   R(9,13)                 1.3711         calculate D2E/DX2 analytically  !
 ! R17   R(10,11)                1.383          calculate D2E/DX2 analytically  !
 ! R18   R(10,22)                1.0794         calculate D2E/DX2 analytically  !
 ! R19   R(11,12)                1.3105         calculate D2E/DX2 analytically  !
 ! R20   R(12,13)                1.3584         calculate D2E/DX2 analytically  !
 ! R21   R(12,23)                1.0755         calculate D2E/DX2 analytically  !
 ! R22   R(13,24)                1.0069         calculate D2E/DX2 analytically  !
 ! R23   R(14,15)                1.5296         calculate D2E/DX2 analytically  !
 ! R24   R(14,25)                1.0969         calculate D2E/DX2 analytically  !
 ! R25   R(14,26)                1.0964         calculate D2E/DX2 analytically  !
 ! R26   R(15,16)                1.4592         calculate D2E/DX2 analytically  !
 ! R27   R(15,27)                1.0903         calculate D2E/DX2 analytically  !
 ! R28   R(15,28)                1.09           calculate D2E/DX2 analytically  !
 ! R29   R(16,29)                1.0137         calculate D2E/DX2 analytically  !
 ! R30   R(16,30)                1.0139         calculate D2E/DX2 analytically  !
 ! A1    A(1,2,3)              120.8952         calculate D2E/DX2 analytically  !
 ! A2    A(1,2,14)             124.1813         calculate D2E/DX2 analytically  !
 ! A3    A(3,2,14)             114.8943         calculate D2E/DX2 analytically  !
 ! A4    A(2,3,4)              119.3244         calculate D2E/DX2 analytically  !
 ! A5    A(2,3,17)             117.9301         calculate D2E/DX2 analytically  !
 ! A6    A(4,3,17)             116.1694         calculate D2E/DX2 analytically  !
 ! A7    A(3,4,5)              108.9051         calculate D2E/DX2 analytically  !
 ! A8    A(3,4,8)              111.4689         calculate D2E/DX2 analytically  !
 ! A9    A(3,4,18)             104.8106         calculate D2E/DX2 analytically  !
 ! A10   A(5,4,8)              114.9501         calculate D2E/DX2 analytically  !
 ! A11   A(5,4,18)             106.1182         calculate D2E/DX2 analytically  !
 ! A12   A(8,4,18)             109.9739         calculate D2E/DX2 analytically  !
 ! A13   A(4,5,6)              112.9903         calculate D2E/DX2 analytically  !
 ! A14   A(4,5,7)              124.5388         calculate D2E/DX2 analytically  !
 ! A15   A(6,5,7)              122.4154         calculate D2E/DX2 analytically  !
 ! A16   A(5,6,19)             105.5045         calculate D2E/DX2 analytically  !
 ! A17   A(4,8,9)              113.8582         calculate D2E/DX2 analytically  !
 ! A18   A(4,8,20)             107.8698         calculate D2E/DX2 analytically  !
 ! A19   A(4,8,21)             110.151          calculate D2E/DX2 analytically  !
 ! A20   A(9,8,20)             107.2145         calculate D2E/DX2 analytically  !
 ! A21   A(9,8,21)             111.5329         calculate D2E/DX2 analytically  !
 ! A22   A(20,8,21)            105.7795         calculate D2E/DX2 analytically  !
 ! A23   A(8,9,10)             131.6629         calculate D2E/DX2 analytically  !
 ! A24   A(8,9,13)             123.5236         calculate D2E/DX2 analytically  !
 ! A25   A(10,9,13)            104.8078         calculate D2E/DX2 analytically  !
 ! A26   A(9,10,11)            110.668          calculate D2E/DX2 analytically  !
 ! A27   A(9,10,22)            128.1211         calculate D2E/DX2 analytically  !
 ! A28   A(11,10,22)           121.2102         calculate D2E/DX2 analytically  !
 ! A29   A(10,11,12)           105.1382         calculate D2E/DX2 analytically  !
 ! A30   A(11,12,13)           111.4322         calculate D2E/DX2 analytically  !
 ! A31   A(11,12,23)           126.6952         calculate D2E/DX2 analytically  !
 ! A32   A(13,12,23)           121.8722         calculate D2E/DX2 analytically  !
 ! A33   A(9,13,12)            107.9521         calculate D2E/DX2 analytically  !
 ! A34   A(9,13,24)            123.8417         calculate D2E/DX2 analytically  !
 ! A35   A(12,13,24)           128.2027         calculate D2E/DX2 analytically  !
 ! A36   A(2,14,15)            112.5997         calculate D2E/DX2 analytically  !
 ! A37   A(2,14,25)            108.2457         calculate D2E/DX2 analytically  !
 ! A38   A(2,14,26)            108.7351         calculate D2E/DX2 analytically  !
 ! A39   A(15,14,25)           110.0428         calculate D2E/DX2 analytically  !
 ! A40   A(15,14,26)           110.4801         calculate D2E/DX2 analytically  !
 ! A41   A(25,14,26)           106.5261         calculate D2E/DX2 analytically  !
 ! A42   A(14,15,16)           115.1154         calculate D2E/DX2 analytically  !
 ! A43   A(14,15,27)           108.9426         calculate D2E/DX2 analytically  !
 ! A44   A(14,15,28)           108.8971         calculate D2E/DX2 analytically  !
 ! A45   A(16,15,27)           108.4343         calculate D2E/DX2 analytically  !
 ! A46   A(16,15,28)           108.6001         calculate D2E/DX2 analytically  !
 ! A47   A(27,15,28)           106.5126         calculate D2E/DX2 analytically  !
 ! A48   A(15,16,29)           110.3896         calculate D2E/DX2 analytically  !
 ! A49   A(15,16,30)           110.346          calculate D2E/DX2 analytically  !
 ! A50   A(29,16,30)           106.6742         calculate D2E/DX2 analytically  !
 ! D1    D(1,2,3,4)             12.0744         calculate D2E/DX2 analytically  !
 ! D2    D(1,2,3,17)           162.572          calculate D2E/DX2 analytically  !
 ! D3    D(14,2,3,4)          -169.8126         calculate D2E/DX2 analytically  !
 ! D4    D(14,2,3,17)          -19.315          calculate D2E/DX2 analytically  !
 ! D5    D(1,2,14,15)          -11.2469         calculate D2E/DX2 analytically  !
 ! D6    D(1,2,14,25)          110.6307         calculate D2E/DX2 analytically  !
 ! D7    D(1,2,14,26)         -134.0235         calculate D2E/DX2 analytically  !
 ! D8    D(3,2,14,15)          170.7105         calculate D2E/DX2 analytically  !
 ! D9    D(3,2,14,25)          -67.4119         calculate D2E/DX2 analytically  !
 ! D10   D(3,2,14,26)           47.9339         calculate D2E/DX2 analytically  !
 ! D11   D(2,3,4,5)             60.0931         calculate D2E/DX2 analytically  !
 ! D12   D(2,3,4,8)            -67.7728         calculate D2E/DX2 analytically  !
 ! D13   D(2,3,4,18)           173.3023         calculate D2E/DX2 analytically  !
 ! D14   D(17,3,4,5)           -90.908          calculate D2E/DX2 analytically  !
 ! D15   D(17,3,4,8)           141.2261         calculate D2E/DX2 analytically  !
 ! D16   D(17,3,4,18)           22.3011         calculate D2E/DX2 analytically  !
 ! D17   D(3,4,5,6)           -156.8426         calculate D2E/DX2 analytically  !
 ! D18   D(3,4,5,7)             25.8192         calculate D2E/DX2 analytically  !
 ! D19   D(8,4,5,6)            -30.9674         calculate D2E/DX2 analytically  !
 ! D20   D(8,4,5,7)            151.6944         calculate D2E/DX2 analytically  !
 ! D21   D(18,4,5,6)            90.8097         calculate D2E/DX2 analytically  !
 ! D22   D(18,4,5,7)           -86.5285         calculate D2E/DX2 analytically  !
 ! D23   D(3,4,8,9)           -143.8929         calculate D2E/DX2 analytically  !
 ! D24   D(3,4,8,20)           -25.0377         calculate D2E/DX2 analytically  !
 ! D25   D(3,4,8,21)            89.965          calculate D2E/DX2 analytically  !
 ! D26   D(5,4,8,9)             91.5679         calculate D2E/DX2 analytically  !
 ! D27   D(5,4,8,20)          -149.5769         calculate D2E/DX2 analytically  !
 ! D28   D(5,4,8,21)           -34.5742         calculate D2E/DX2 analytically  !
 ! D29   D(18,4,8,9)           -28.0945         calculate D2E/DX2 analytically  !
 ! D30   D(18,4,8,20)           90.7606         calculate D2E/DX2 analytically  !
 ! D31   D(18,4,8,21)         -154.2367         calculate D2E/DX2 analytically  !
 ! D32   D(4,5,6,19)           179.6235         calculate D2E/DX2 analytically  !
 ! D33   D(7,5,6,19)            -2.9738         calculate D2E/DX2 analytically  !
 ! D34   D(4,8,9,10)           119.8815         calculate D2E/DX2 analytically  !
 ! D35   D(4,8,9,13)           -59.1069         calculate D2E/DX2 analytically  !
 ! D36   D(20,8,9,10)            0.6533         calculate D2E/DX2 analytically  !
 ! D37   D(20,8,9,13)         -178.3351         calculate D2E/DX2 analytically  !
 ! D38   D(21,8,9,10)         -114.7065         calculate D2E/DX2 analytically  !
 ! D39   D(21,8,9,13)           66.3052         calculate D2E/DX2 analytically  !
 ! D40   D(8,9,10,11)         -179.4414         calculate D2E/DX2 analytically  !
 ! D41   D(8,9,10,22)            0.862          calculate D2E/DX2 analytically  !
 ! D42   D(13,9,10,11)          -0.3138         calculate D2E/DX2 analytically  !
 ! D43   D(13,9,10,22)         179.9897         calculate D2E/DX2 analytically  !
 ! D44   D(8,9,13,12)          179.6249         calculate D2E/DX2 analytically  !
 ! D45   D(8,9,13,24)           -1.0112         calculate D2E/DX2 analytically  !
 ! D46   D(10,9,13,12)           0.4067         calculate D2E/DX2 analytically  !
 ! D47   D(10,9,13,24)         179.7705         calculate D2E/DX2 analytically  !
 ! D48   D(9,10,11,12)           0.0957         calculate D2E/DX2 analytically  !
 ! D49   D(22,10,11,12)        179.8165         calculate D2E/DX2 analytically  !
 ! D50   D(10,11,12,13)          0.172          calculate D2E/DX2 analytically  !
 ! D51   D(10,11,12,23)       -179.599          calculate D2E/DX2 analytically  !
 ! D52   D(11,12,13,9)          -0.3752         calculate D2E/DX2 analytically  !
 ! D53   D(11,12,13,24)       -179.7028         calculate D2E/DX2 analytically  !
 ! D54   D(23,12,13,9)         179.4086         calculate D2E/DX2 analytically  !
 ! D55   D(23,12,13,24)          0.081          calculate D2E/DX2 analytically  !
 ! D56   D(2,14,15,16)        -179.1721         calculate D2E/DX2 analytically  !
 ! D57   D(2,14,15,27)         -57.159          calculate D2E/DX2 analytically  !
 ! D58   D(2,14,15,28)          58.633          calculate D2E/DX2 analytically  !
 ! D59   D(25,14,15,16)         59.9738         calculate D2E/DX2 analytically  !
 ! D60   D(25,14,15,27)       -178.0131         calculate D2E/DX2 analytically  !
 ! D61   D(25,14,15,28)        -62.2211         calculate D2E/DX2 analytically  !
 ! D62   D(26,14,15,16)        -57.3794         calculate D2E/DX2 analytically  !
 ! D63   D(26,14,15,27)         64.6337         calculate D2E/DX2 analytically  !
 ! D64   D(26,14,15,28)       -179.5743         calculate D2E/DX2 analytically  !
 ! D65   D(14,15,16,29)         59.1042         calculate D2E/DX2 analytically  !
 ! D66   D(14,15,16,30)        -58.5613         calculate D2E/DX2 analytically  !
 ! D67   D(27,15,16,29)        -63.1825         calculate D2E/DX2 analytically  !
 ! D68   D(27,15,16,30)        179.152          calculate D2E/DX2 analytically  !
 ! D69   D(28,15,16,29)       -178.5413         calculate D2E/DX2 analytically  !
 ! D70   D(28,15,16,30)         63.7932         calculate D2E/DX2 analytically  !
 --------------------------------------------------------------------------------
 Trust Radius=3.00D-01 FncErr=1.00D-07 GrdErr=1.00D-06
 Number of steps in this run=    160 maximum allowed number of steps=    180.
 GradGradGradGradGradGradGradGradGradGradGradGradGradGradGradGradGradGrad

                          Input orientation:                          
 ---------------------------------------------------------------------
 Center     Atomic      Atomic             Coordinates (Angstroms)
 Number     Number       Type             X           Y           Z
 ---------------------------------------------------------------------
      1          8           0        1.417701    0.857484   -0.676571
      2          6           0        1.594364   -0.004096    0.170265
      3          7           0        0.538935   -0.706795    0.689955
      4          6           0       -0.769472   -0.614461    0.045092
      5          6           0       -0.648268   -1.107456   -1.387719
      6          8           0       -1.618787   -0.618740   -2.200176
      7          8           0        0.179315   -1.885674   -1.771125
      8          6           0       -1.377870    0.798338    0.199367
      9          6           0       -2.858733    0.801239    0.379029
     10          6           0       -3.649774    1.260823    1.394234
     11          7           0       -4.984605    1.029882    1.115776
     12          6           0       -4.992777    0.436482   -0.052640
     13          7           0       -3.733425    0.272184   -0.534742
     14          6           0        2.949245   -0.355035    0.761106
     15          6           0        4.108125    0.286154   -0.004116
     16          7           0        5.437961   -0.030629    0.506347
     17          1           0        0.736987   -1.567649    1.169641
     18          1           0       -1.392069   -1.349352    0.568090
     19          1           0       -1.436240   -0.992330   -3.075593
     20          1           0       -0.944825    1.253127    1.087858
     21          1           0       -1.075666    1.429147   -0.632825
     22          1           0       -3.345191    1.748206    2.307926
     23          1           0       -5.857934    0.107305   -0.600236
     24          1           0       -3.449616   -0.146799   -1.405213
     25          1           0        2.962802   -0.027195    1.807808
     26          1           0        3.055580   -1.446224    0.774651
     27          1           0        4.056937   -0.023239   -1.048389
     28          1           0        3.981055    1.368669    0.004859
     29          1           0        5.594239   -1.031986    0.487363
     30          1           0        5.522075    0.258626    1.474429
 ---------------------------------------------------------------------
                    Distance matrix (angstroms):
                    1          2          3          4          5
     1  O    0.000000
     2  C    1.220926   0.000000
     3  N    2.255347   1.370326   0.000000
     4  C    2.733340   2.444573   1.461610   0.000000
     5  C    2.938529   2.945185   2.426255   1.520092   0.000000
     6  O    3.704169   4.039940   3.607821   2.400537   1.356774
     7  O    3.202588   3.051507   2.752454   2.411395   1.198965
     8  C    2.930185   3.078786   2.486009   1.545946   2.585191
     9  C    4.405150   4.530146   3.730281   2.545728   3.413308
    10  C    5.489100   5.531646   4.681113   3.692291   4.728324
    11  N    6.650696   6.726510   5.805762   4.649470   5.444219
    12  C    6.454516   6.605621   5.697225   4.353199   4.800098
    13  N    5.186212   5.381329   4.550972   3.147596   3.485566
    14  C    2.425437   1.519195   2.436881   3.795898   4.257427
    15  C    2.831430   2.536464   3.769191   4.960291   5.145851
    16  N    4.283751   3.858354   4.948875   6.251867   6.464459
    17  H    3.123001   2.044149   1.005183   2.107747   2.944622
    18  H    3.783400   3.299509   2.038752   1.096001   2.106405
    19  H    4.161983   4.549369   4.261713   3.213415   1.866299
    20  H    2.975109   2.978266   2.490214   2.146159   3.433480
    21  H    2.558435   3.134995   2.986458   2.174778   2.680837
    22  H    5.690848   5.660332   4.871478   4.163765   5.393143
    23  H    7.314606   7.492851   6.576267   5.179752   5.407069
    24  H    5.022975   5.286230   4.540029   3.083060   2.961540
    25  H    3.056490   2.134175   2.754375   4.169163   4.941476
    26  H    3.177383   2.140133   2.624391   3.981848   4.302220
    27  H    2.807042   2.747681   3.983143   4.983921   4.840416
    28  H    2.701192   2.758285   4.077388   5.148003   5.431491
    29  H    4.729515   4.141994   5.069802   6.392711   6.518475
    30  H    4.672399   4.146900   5.136061   6.510673   6.937666
                    6          7          8          9         10
     6  O    0.000000
     7  O    2.241066   0.000000
     8  C    2.797134   3.675811   0.000000
     9  C    3.194700   4.590469   1.491725   0.000000
    10  C    4.536238   5.880635   2.608284   1.366603   0.000000
    11  N    5.004221   6.595509   3.728533   2.261505   1.382985
    12  C    4.136329   5.924200   3.641703   2.207607   2.139309
    13  N    2.835333   4.636220   2.522775   1.371116   2.169182
    14  C    5.450289   4.053093   4.513285   5.934270   6.823408
    15  C    6.199922   4.824387   5.513609   6.996373   7.942944
    16  N    7.580820   6.023407   6.872916   8.339266   9.221883
    17  H    4.219687   3.010024   3.318425   4.377888   5.224402
    18  H    2.872018   2.868592   2.179158   2.609959   3.548628
    19  H    0.969148   2.260469   3.732997   4.144248   5.473188
    20  H    3.843082   4.391988   1.088015   2.090380   2.722255
    21  H    2.635415   3.722733   1.087102   2.144165   3.280752
    22  H    5.376420   6.501222   3.036218   2.203187   1.079419
    23  H    4.588826   6.464621   4.603027   3.230434   3.191313
    24  H    2.051007   4.040634   2.785694   2.105098   3.139804
    25  H    6.115947   4.900051   4.702129   6.051280   6.749533
    26  H    5.602145   3.866134   5.002448   6.339299   7.257669
    27  H    5.821947   4.361991   5.636401   7.109415   8.185879
    28  H    6.337996   5.310188   5.392698   6.873477   7.757032
    29  H    7.708526   5.928824   7.214107   8.650156   9.567192
    30  H    8.078639   6.608837   7.037494   8.469491   9.226790
                   11         12         13         14         15
    11  N    0.000000
    12  C    1.310491   0.000000
    13  N    2.205395   1.358449   0.000000
    14  C    8.061623   8.022743   6.835986   0.000000
    15  C    9.191574   9.102273   7.859495   1.529605   0.000000
    16  N   10.494092  10.456145   9.235252   2.522667   1.459242
    17  H    6.283844   6.191988   5.125865   2.555664   4.022296
    18  H    4.343620   4.066892   3.054106   4.457907   5.766666
    19  H    5.852164   4.881466   3.651299   5.861645   6.465947
    20  H    4.046040   4.284106   3.372146   4.225723   5.259254
    21  H    4.300793   4.082372   2.900322   4.618036   5.345409
    22  H    2.150556   3.163453   3.226473   6.814411   7.939462
    23  H    2.135075   1.075506   2.131903   8.923755   9.985473
    24  H    3.177445   2.133312   1.006884   6.758826   7.698699
    25  H    8.047211   8.183368   7.100466   1.096926   2.166338
    26  H    8.419741   8.306928   7.124466   1.096442   2.171513
    27  H    9.356397   9.115930   7.812864   2.147404   1.090344
    28  H    9.040574   9.022303   7.810675   2.146555   1.089984
    29  H   10.796210  10.702005   9.473694   2.743937   2.046358
    30  H   10.541053  10.626650   9.471073   2.739501   2.045998
                   16         17         18         19         20
    16  N    0.000000
    17  H    4.990145   0.000000
    18  H    6.956447   2.223151   0.000000
    19  H    7.810877   4.803740   3.661399   0.000000
    20  H    6.536524   3.285112   2.691298   4.755827   0.000000
    21  H    6.771705   3.938956   3.043413   3.458422   1.734604
    22  H    9.140771   5.380963   4.054205   6.335370   2.737777
    23  H   11.350806   7.030712   4.840535   5.185361   5.319887
    24  H    9.091566   5.116281   3.094117   2.749323   3.801207
    25  H    2.796466   2.781098   4.716980   6.643091   4.174578
    26  H    2.784176   2.355129   4.453497   5.933536   4.836097
    27  H    2.079540   4.280996   5.836373   5.934954   5.586617
    28  H    2.081370   4.527986   6.047754   6.664126   5.044852
    29  H    1.013657   4.934099   6.993979   7.881869   6.952820
    30  H    1.013867   5.130813   7.156287   8.407481   6.554332
                   21         22         23         24         25
    21  H    0.000000
    22  H    3.728345   0.000000
    23  H    4.961694   4.178975   0.000000
    24  H    2.952258   4.170054   2.551970   0.000000
    25  H    4.938303   6.572134   9.144514   7.173347   0.000000
    26  H    5.226465   7.316090   9.151748   6.982685   1.757743
    27  H    5.350302   8.318315   9.925852   7.516044   3.058596
    28  H    5.097129   7.689086   9.937951   7.713612   2.497179
    29  H    7.197196   9.537155  11.559979   9.282064   3.110891
    30  H    7.024302   9.030059  11.568567   9.431222   2.596674
                   26         27         28         29         30
    26  H    0.000000
    27  H    2.520135   0.000000
    28  H    3.061488   1.747140   0.000000
    29  H    2.588227   2.395706   2.932290   0.000000
    30  H    3.078929   2.930988   2.401370   1.626404   0.000000
 Symmetry turned off by external request.
 Stoichiometry    C9H14N4O3
 Framework group  C1[X(C9H14N4O3)]
 Deg. of freedom    84
 Full point group                 C1      NOp   1
 Rotational constants (GHZ):      1.2523698      0.2304720      0.2066994
 Standard basis: 6-311G(d,p) (5D, 7F)
   372 basis functions,   624 primitive gaussians,   388 cartesian basis functions
    60 alpha electrons       60 beta electrons
       nuclear repulsion energy      1113.3337131870 Hartrees.
 NAtoms=   30 NActive=   30 NUniq=   30 SFac= 1.00D+00 NAtFMM=   60 NAOKFM=F Big=F
 Integral buffers will be    131072 words long.
 Raffenetti 2 integral format.
 Two-electron integral symmetry is turned off.
 One-electron integrals computed using PRISM.
 NBasis=   372 RedAO= T EigKep=  5.03D-04  NBF=   372
 NBsUse=   372 1.00D-06 EigRej= -1.00D+00 NBFU=   372
 ExpMin= 1.03D-01 ExpMax= 8.59D+03 ExpMxC= 1.30D+03 IAcc=3 IRadAn=         5 AccDes= 0.00D+00
 Harris functional with IExCor=  402 and IRadAn=       5 diagonalized for initial guess.
 HarFok:  IExCor=  402 AccDes= 0.00D+00 IRadAn=         5 IDoV= 1 UseB2=F ITyADJ=14
 ICtDFT=  3500011 ScaDFX=  1.000000  1.000000  1.000000  1.000000
 FoFCou: FMM=F IPFlag=           0 FMFlag=      100000 FMFlg1=           0
         NFxFlg=           0 DoJE=T BraDBF=F KetDBF=T FulRan=T
         wScrn=  0.000000 ICntrl=     500 IOpCl=  0 I1Cent=   200000004 NGrid=           0
         NMat0=    1 NMatS0=      1 NMatT0=    0 NMatD0=    1 NMtDS0=    0 NMtDT0=    0
 Symmetry not used in FoFCou.
 Requested convergence on RMS density matrix=1.00D-08 within 128 cycles.
 Requested convergence on MAX density matrix=1.00D-06.
 Requested convergence on             energy=1.00D-06.
 No special actions if energy rises.
 Integral accuracy reduced to 1.0D-05 until final iterations.
 Initial convergence to 1.0D-05 achieved.  Increase integral accuracy.
 SCF Done:  E(RB3LYP) =  -796.304087325     A.U. after   14 cycles
            NFock= 14  Conv=0.53D-08     -V/T= 2.0033
 DoSCS=F DFT=T ScalE2(SS,OS)=  1.000000  1.000000
 Range of M.O.s used for correlation:     1   372
 NBasis=   372 NAE=    60 NBE=    60 NFC=     0 NFV=     0
 NROrb=    372 NOA=    60 NOB=    60 NVA=   312 NVB=   312
 Symmetrizing basis deriv contribution to polar:
 IMax=3 JMax=2 DiffMx= 0.00D+00
 G2DrvN: will do    31 centers at a time, making    1 passes.
 Calling FoFCou, ICntrl=  3107 FMM=F I1Cent=   0 AccDes= 0.00D+00.
 End of G2Drv F.D. properties file   721 does not exist.
 End of G2Drv F.D. properties file   722 does not exist.
 End of G2Drv F.D. properties file   788 does not exist.
          IDoAtm=111111111111111111111111111111
          Differentiating once with respect to nuclear coordinates.
          There are    93 degrees of freedom in the 1st order CPHF.  IDoFFX=6 NUNeed=     0.
     87 vectors produced by pass  0 Test12= 2.01D-14 1.08D-09 XBig12= 1.73D-01 1.15D-01.
 AX will form    87 AO Fock derivatives at one time.
     87 vectors produced by pass  1 Test12= 2.01D-14 1.08D-09 XBig12= 2.28D-02 5.38D-02.
     87 vectors produced by pass  2 Test12= 2.01D-14 1.08D-09 XBig12= 2.13D-04 2.35D-03.
     87 vectors produced by pass  3 Test12= 2.01D-14 1.08D-09 XBig12= 1.01D-06 1.64D-04.
     87 vectors produced by pass  4 Test12= 2.01D-14 1.08D-09 XBig12= 2.62D-09 3.84D-06.
     77 vectors produced by pass  5 Test12= 2.01D-14 1.08D-09 XBig12= 2.82D-12 1.96D-07.
     24 vectors produced by pass  6 Test12= 2.01D-14 1.08D-09 XBig12= 2.60D-15 5.08D-09.
 InvSVY:  IOpt=1 It=  1 EMax= 9.99D-16
 Solved reduced A of dimension   536 with    93 vectors.
 End of Minotr F.D. properties file   721 does not exist.
 End of Minotr F.D. properties file   722 does not exist.
 End of Minotr F.D. properties file   788 does not exist.

 **********************************************************************

            Population analysis using the SCF density.

 **********************************************************************

 Alpha  occ. eigenvalues --  -19.19925 -19.13337 -19.09958 -14.35607 -14.35004
 Alpha  occ. eigenvalues --  -14.29022 -14.27982 -10.32824 -10.28377 -10.25057
 Alpha  occ. eigenvalues --  -10.21363 -10.19796 -10.19481 -10.19116 -10.18828
 Alpha  occ. eigenvalues --  -10.17188  -1.14241  -1.05911  -1.04921  -1.01373
 Alpha  occ. eigenvalues --   -0.94538  -0.88933  -0.86663  -0.81499  -0.76900
 Alpha  occ. eigenvalues --   -0.74275  -0.68574  -0.66044  -0.62173  -0.61247
 Alpha  occ. eigenvalues --   -0.59469  -0.58796  -0.55015  -0.53027  -0.52071
 Alpha  occ. eigenvalues --   -0.51384  -0.51052  -0.48656  -0.47691  -0.45814
 Alpha  occ. eigenvalues --   -0.45184  -0.43830  -0.43501  -0.42915  -0.42236
 Alpha  occ. eigenvalues --   -0.41162  -0.40465  -0.39486  -0.39249  -0.38511
 Alpha  occ. eigenvalues --   -0.38351  -0.35457  -0.34944  -0.30731  -0.28711
 Alpha  occ. eigenvalues --   -0.27708  -0.27460  -0.26203  -0.24196  -0.22438
 Alpha virt. eigenvalues --   -0.02329   0.00054   0.01429   0.02254   0.02879
 Alpha virt. eigenvalues --    0.03541   0.06469   0.06621   0.06839   0.07436
 Alpha virt. eigenvalues --    0.07737   0.08963   0.10815   0.10916   0.11489
 Alpha virt. eigenvalues --    0.12515   0.13277   0.14318   0.16159   0.18194
 Alpha virt. eigenvalues --    0.20006   0.20632   0.21484   0.22142   0.23068
 Alpha virt. eigenvalues --    0.23741   0.25091   0.25996   0.27809   0.28517
 Alpha virt. eigenvalues --    0.31643   0.31995   0.32437   0.33452   0.34370
 Alpha virt. eigenvalues --    0.35269   0.36008   0.37074   0.38125   0.38131
 Alpha virt. eigenvalues --    0.39216   0.40434   0.40609   0.40928   0.42623
 Alpha virt. eigenvalues --    0.43216   0.45219   0.46029   0.46594   0.47798
 Alpha virt. eigenvalues --    0.49081   0.49814   0.51007   0.52145   0.52883
 Alpha virt. eigenvalues --    0.53701   0.54301   0.54937   0.55831   0.56487
 Alpha virt. eigenvalues --    0.57270   0.57695   0.58482   0.58917   0.59472
 Alpha virt. eigenvalues --    0.59684   0.60461   0.60919   0.61684   0.62611
 Alpha virt. eigenvalues --    0.63311   0.63668   0.66026   0.67031   0.67757
 Alpha virt. eigenvalues --    0.68245   0.68978   0.71107   0.71543   0.73143
 Alpha virt. eigenvalues --    0.73607   0.74146   0.75349   0.75558   0.76341
 Alpha virt. eigenvalues --    0.77114   0.79130   0.80620   0.82312   0.84334
 Alpha virt. eigenvalues --    0.86470   0.87259   0.89306   0.92028   0.93724
 Alpha virt. eigenvalues --    0.95825   0.97984   0.98401   0.99633   1.01283
 Alpha virt. eigenvalues --    1.03059   1.04166   1.05648   1.06805   1.07746
 Alpha virt. eigenvalues --    1.09956   1.12024   1.12724   1.16256   1.17366
 Alpha virt. eigenvalues --    1.19575   1.21100   1.23180   1.23907   1.25212
 Alpha virt. eigenvalues --    1.25922   1.27940   1.28835   1.30620   1.32028
 Alpha virt. eigenvalues --    1.32448   1.35303   1.36686   1.39192   1.39558
 Alpha virt. eigenvalues --    1.41545   1.42495   1.43486   1.44067   1.45314
 Alpha virt. eigenvalues --    1.48149   1.48265   1.50459   1.52885   1.53618
 Alpha virt. eigenvalues --    1.54362   1.54892   1.55813   1.56970   1.57930
 Alpha virt. eigenvalues --    1.59836   1.61165   1.61987   1.62963   1.64434
 Alpha virt. eigenvalues --    1.65180   1.66815   1.68485   1.69343   1.70253
 Alpha virt. eigenvalues --    1.71156   1.72204   1.72805   1.73668   1.74451
 Alpha virt. eigenvalues --    1.75836   1.76396   1.77583   1.78603   1.79340
 Alpha virt. eigenvalues --    1.81354   1.82083   1.83177   1.85095   1.85797
 Alpha virt. eigenvalues --    1.89432   1.90353   1.92033   1.92389   1.94449
 Alpha virt. eigenvalues --    1.96063   1.96272   2.00105   2.02114   2.03511
 Alpha virt. eigenvalues --    2.04715   2.06157   2.08164   2.10697   2.11802
 Alpha virt. eigenvalues --    2.13307   2.16119   2.17702   2.21015   2.22008
 Alpha virt. eigenvalues --    2.24332   2.25558   2.26687   2.28827   2.29567
 Alpha virt. eigenvalues --    2.30605   2.35128   2.37811   2.40960   2.41879
 Alpha virt. eigenvalues --    2.42951   2.43937   2.44893   2.47145   2.48222
 Alpha virt. eigenvalues --    2.48884   2.49441   2.51449   2.52047   2.54757
 Alpha virt. eigenvalues --    2.55362   2.57596   2.58484   2.60519   2.60751
 Alpha virt. eigenvalues --    2.61429   2.62519   2.63597   2.64956   2.65414
 Alpha virt. eigenvalues --    2.66985   2.68605   2.70391   2.70942   2.72664
 Alpha virt. eigenvalues --    2.74193   2.74849   2.78481   2.79298   2.81220
 Alpha virt. eigenvalues --    2.82761   2.82916   2.83761   2.84455   2.87276
 Alpha virt. eigenvalues --    2.88327   2.89031   2.91868   2.92436   2.93219
 Alpha virt. eigenvalues --    2.94248   2.94926   2.95787   2.99283   3.01491
 Alpha virt. eigenvalues --    3.01997   3.05984   3.06917   3.09760   3.11975
 Alpha virt. eigenvalues --    3.13517   3.20267   3.20544   3.28688   3.30155
 Alpha virt. eigenvalues --    3.33583   3.34290   3.36532   3.38907   3.47120
 Alpha virt. eigenvalues --    3.47669   3.52109   3.55965   3.57755   3.59292
 Alpha virt. eigenvalues --    3.62403   3.66237   3.68006   3.73917   3.75580
 Alpha virt. eigenvalues --    3.78231   3.79513   3.81527   3.82663   3.84086
 Alpha virt. eigenvalues --    3.85740   3.87219   3.92052   3.96756   4.00588
 Alpha virt. eigenvalues --    4.04886   4.23047   4.23544   4.34074   4.42677
 Alpha virt. eigenvalues --    4.72494   4.77528   4.81417   4.81772   4.85514
 Alpha virt. eigenvalues --    4.91118   4.93827   4.94311   4.97713   5.03001
 Alpha virt. eigenvalues --    5.16083   5.26230   5.32226   5.54610   5.65529
 Alpha virt. eigenvalues --    5.73940  23.71964  23.73943  23.76797  23.80511
 Alpha virt. eigenvalues --   23.83998  23.87155  23.90951  23.94403  24.15721
 Alpha virt. eigenvalues --   35.52949  35.57190  35.59666  35.70016  49.81106
 Alpha virt. eigenvalues --   49.98588  50.00620
          Condensed to atoms (all electrons):
               1          2          3          4          5          6
     1  O    7.893041   0.622491  -0.104286   0.004792   0.010655  -0.000544
     2  C    0.622491   4.579960   0.348561  -0.060846  -0.004916  -0.000700
     3  N   -0.104286   0.348561   6.695931   0.293263  -0.066249   0.002753
     4  C    0.004792  -0.060846   0.293263   5.239557   0.273352  -0.087671
     5  C    0.010655  -0.004916  -0.066249   0.273352   4.527235   0.311392
     6  O   -0.000544  -0.000700   0.002753  -0.087671   0.311392   7.875691
     7  O   -0.002822   0.009930   0.001073  -0.088482   0.665417  -0.080292
     8  C    0.004516  -0.009305  -0.058031   0.301202  -0.066784   0.006330
     9  C    0.001550   0.000964   0.002895  -0.078578   0.003455  -0.000839
    10  C   -0.000002  -0.000010  -0.000139  -0.001667   0.000124   0.000199
    11  N    0.000000   0.000000   0.000000  -0.000132   0.000000  -0.000011
    12  C    0.000000   0.000001   0.000000   0.000245  -0.000047  -0.000203
    13  N    0.000002  -0.000005   0.000097   0.001885  -0.001042  -0.012290
    14  C   -0.094812   0.246098  -0.083972   0.008036   0.000169  -0.000022
    15  C    0.014475  -0.051594   0.004922  -0.000353   0.000023   0.000000
    16  N    0.000206   0.008364  -0.000059   0.000004   0.000000   0.000000
    17  H    0.004176  -0.031695   0.363811  -0.033317   0.001963   0.000063
    18  H    0.000659   0.007422  -0.020889   0.392090  -0.031060   0.001025
    19  H    0.000051  -0.000179  -0.000641   0.016511  -0.027116   0.299591
    20  H   -0.002041  -0.000434   0.004942  -0.031982   0.005889  -0.000069
    21  H    0.011220  -0.000784  -0.000062  -0.052452  -0.003336   0.005538
    22  H    0.000002   0.000000  -0.000019   0.000042  -0.000004   0.000006
    23  H    0.000000   0.000000   0.000000  -0.000005   0.000007  -0.000061
    24  H   -0.000015   0.000025   0.000003   0.000636  -0.001290   0.026775
    25  H    0.000518  -0.020422   0.000178   0.000070   0.000017   0.000000
    26  H    0.001895  -0.025202  -0.000243  -0.000396  -0.000106   0.000007
    27  H    0.004830  -0.001029   0.000286  -0.000019   0.000062   0.000001
    28  H    0.009333  -0.003370   0.000662  -0.000028  -0.000012   0.000000
    29  H    0.000012  -0.000248  -0.000001   0.000001   0.000000   0.000000
    30  H    0.000005   0.000068  -0.000003   0.000000   0.000000   0.000000
               7          8          9         10         11         12
     1  O   -0.002822   0.004516   0.001550  -0.000002   0.000000   0.000000
     2  C    0.009930  -0.009305   0.000964  -0.000010   0.000000   0.000001
     3  N    0.001073  -0.058031   0.002895  -0.000139   0.000000   0.000000
     4  C   -0.088482   0.301202  -0.078578  -0.001667  -0.000132   0.000245
     5  C    0.665417  -0.066784   0.003455   0.000124   0.000000  -0.000047
     6  O   -0.080292   0.006330  -0.000839   0.000199  -0.000011  -0.000203
     7  O    7.800980   0.003038   0.000141   0.000002   0.000000   0.000000
     8  C    0.003038   4.995403   0.272812  -0.031285   0.007397   0.005500
     9  C    0.000141   0.272812   5.126287   0.573571  -0.092569  -0.126143
    10  C    0.000002  -0.031285   0.573571   4.848554   0.506833  -0.180798
    11  N    0.000000   0.007397  -0.092569   0.506833   6.430942   0.584009
    12  C    0.000000   0.005500  -0.126143  -0.180798   0.584009   4.745154
    13  N   -0.000034  -0.055236   0.384298  -0.073474  -0.092080   0.427391
    14  C   -0.000968   0.000133   0.000080  -0.000001   0.000000   0.000000
    15  C   -0.000015  -0.000035  -0.000001   0.000000   0.000000   0.000000
    16  N    0.000000   0.000000   0.000000   0.000000   0.000000   0.000000
    17  H    0.003473   0.006460  -0.000411  -0.000038   0.000000   0.000001
    18  H    0.000278  -0.030014   0.002171   0.001761  -0.000345  -0.000631
    19  H    0.011740  -0.001556  -0.000172  -0.000018   0.000003   0.000010
    20  H   -0.000197   0.404833  -0.036585  -0.004007   0.000252  -0.000208
    21  H   -0.000067   0.407501  -0.032519  -0.000786  -0.000236   0.000405
    22  H    0.000000  -0.000512  -0.051369   0.422537  -0.025456   0.008547
    23  H    0.000000  -0.000393   0.004651   0.006440  -0.023251   0.414926
    24  H    0.000264  -0.000020  -0.033818   0.008087   0.005601  -0.023621
    25  H    0.000001  -0.000109  -0.000013   0.000000   0.000000   0.000000
    26  H    0.000872   0.000027  -0.000001   0.000000   0.000000   0.000000
    27  H    0.000144  -0.000008   0.000000   0.000000   0.000000   0.000000
    28  H    0.000004   0.000010   0.000000   0.000000   0.000000   0.000000
    29  H   -0.000001   0.000000   0.000000   0.000000   0.000000   0.000000
    30  H    0.000000   0.000000   0.000000   0.000000   0.000000   0.000000
              13         14         15         16         17         18
     1  O    0.000002  -0.094812   0.014475   0.000206   0.004176   0.000659
     2  C   -0.000005   0.246098  -0.051594   0.008364  -0.031695   0.007422
     3  N    0.000097  -0.083972   0.004922  -0.000059   0.363811  -0.020889
     4  C    0.001885   0.008036  -0.000353   0.000004  -0.033317   0.392090
     5  C   -0.001042   0.000169   0.000023   0.000000   0.001963  -0.031060
     6  O   -0.012290  -0.000022   0.000000   0.000000   0.000063   0.001025
     7  O   -0.000034  -0.000968  -0.000015   0.000000   0.003473   0.000278
     8  C   -0.055236   0.000133  -0.000035   0.000000   0.006460  -0.030014
     9  C    0.384298   0.000080  -0.000001   0.000000  -0.000411   0.002171
    10  C   -0.073474  -0.000001   0.000000   0.000000  -0.000038   0.001761
    11  N   -0.092080   0.000000   0.000000   0.000000   0.000000  -0.000345
    12  C    0.427391   0.000000   0.000000   0.000000   0.000001  -0.000631
    13  N    6.463680   0.000000   0.000000   0.000000   0.000005   0.002584
    14  C    0.000000   5.263489   0.357672  -0.060532   0.002333  -0.000099
    15  C    0.000000   0.357672   4.800021   0.335133  -0.000230   0.000002
    16  N    0.000000  -0.060532   0.335133   6.456732  -0.000084   0.000000
    17  H    0.000005   0.002333  -0.000230  -0.000084   0.468893  -0.010087
    18  H    0.002584  -0.000099   0.000002   0.000000  -0.010087   0.518624
    19  H    0.000322   0.000002   0.000001   0.000000  -0.000004  -0.000718
    20  H    0.004490  -0.000335   0.000036   0.000000   0.000518  -0.001812
    21  H   -0.002048   0.000389  -0.000010   0.000000  -0.000574   0.006939
    22  H    0.004465   0.000000   0.000000   0.000000  -0.000001   0.000070
    23  H   -0.038603   0.000000   0.000000   0.000000   0.000000   0.000014
    24  H    0.347749   0.000000   0.000000   0.000000  -0.000009   0.000052
    25  H    0.000000   0.376308  -0.031123   0.002709  -0.000128   0.000022
    26  H    0.000000   0.376019  -0.036542   0.004236   0.001375  -0.000049
    27  H    0.000000  -0.050956   0.407978  -0.028392  -0.000097   0.000002
    28  H    0.000000  -0.047344   0.404506  -0.027893  -0.000080  -0.000002
    29  H    0.000000  -0.001088  -0.057872   0.376316  -0.000011   0.000000
    30  H    0.000000  -0.001221  -0.058172   0.375791   0.000000   0.000000
              19         20         21         22         23         24
     1  O    0.000051  -0.002041   0.011220   0.000002   0.000000  -0.000015
     2  C   -0.000179  -0.000434  -0.000784   0.000000   0.000000   0.000025
     3  N   -0.000641   0.004942  -0.000062  -0.000019   0.000000   0.000003
     4  C    0.016511  -0.031982  -0.052452   0.000042  -0.000005   0.000636
     5  C   -0.027116   0.005889  -0.003336  -0.000004   0.000007  -0.001290
     6  O    0.299591  -0.000069   0.005538   0.000006  -0.000061   0.026775
     7  O    0.011740  -0.000197  -0.000067   0.000000   0.000000   0.000264
     8  C   -0.001556   0.404833   0.407501  -0.000512  -0.000393  -0.000020
     9  C   -0.000172  -0.036585  -0.032519  -0.051369   0.004651  -0.033818
    10  C   -0.000018  -0.004007  -0.000786   0.422537   0.006440   0.008087
    11  N    0.000003   0.000252  -0.000236  -0.025456  -0.023251   0.005601
    12  C    0.000010  -0.000208   0.000405   0.008547   0.414926  -0.023621
    13  N    0.000322   0.004490  -0.002048   0.004465  -0.038603   0.347749
    14  C    0.000002  -0.000335   0.000389   0.000000   0.000000   0.000000
    15  C    0.000001   0.000036  -0.000010   0.000000   0.000000   0.000000
    16  N    0.000000   0.000000   0.000000   0.000000   0.000000   0.000000
    17  H   -0.000004   0.000518  -0.000574  -0.000001   0.000000  -0.000009
    18  H   -0.000718  -0.001812   0.006939   0.000070   0.000014   0.000052
    19  H    0.436938   0.000123  -0.000689   0.000000   0.000004  -0.000952
    20  H    0.000123   0.539003  -0.020923   0.002253   0.000020  -0.000091
    21  H   -0.000689  -0.020923   0.515453  -0.000036   0.000000   0.000237
    22  H    0.000000   0.002253  -0.000036   0.549183  -0.000384  -0.000340
    23  H    0.000004   0.000020   0.000000  -0.000384   0.537064  -0.002622
    24  H   -0.000952  -0.000091   0.000237  -0.000340  -0.002622   0.442503
    25  H    0.000000   0.000022  -0.000030   0.000000   0.000000   0.000000
    26  H   -0.000004  -0.000005  -0.000028   0.000000   0.000000   0.000000
    27  H    0.000000   0.000001  -0.000001   0.000000   0.000000   0.000000
    28  H    0.000000   0.000002  -0.000006   0.000000   0.000000   0.000000
    29  H    0.000000   0.000000   0.000000   0.000000   0.000000   0.000000
    30  H    0.000000   0.000000   0.000000   0.000000   0.000000   0.000000
              25         26         27         28         29         30
     1  O    0.000518   0.001895   0.004830   0.009333   0.000012   0.000005
     2  C   -0.020422  -0.025202  -0.001029  -0.003370  -0.000248   0.000068
     3  N    0.000178  -0.000243   0.000286   0.000662  -0.000001  -0.000003
     4  C    0.000070  -0.000396  -0.000019  -0.000028   0.000001   0.000000
     5  C    0.000017  -0.000106   0.000062  -0.000012   0.000000   0.000000
     6  O    0.000000   0.000007   0.000001   0.000000   0.000000   0.000000
     7  O    0.000001   0.000872   0.000144   0.000004  -0.000001   0.000000
     8  C   -0.000109   0.000027  -0.000008   0.000010   0.000000   0.000000
     9  C   -0.000013  -0.000001   0.000000   0.000000   0.000000   0.000000
    10  C    0.000000   0.000000   0.000000   0.000000   0.000000   0.000000
    11  N    0.000000   0.000000   0.000000   0.000000   0.000000   0.000000
    12  C    0.000000   0.000000   0.000000   0.000000   0.000000   0.000000
    13  N    0.000000   0.000000   0.000000   0.000000   0.000000   0.000000
    14  C    0.376308   0.376019  -0.050956  -0.047344  -0.001088  -0.001221
    15  C   -0.031123  -0.036542   0.407978   0.404506  -0.057872  -0.058172
    16  N    0.002709   0.004236  -0.028392  -0.027893   0.376316   0.375791
    17  H   -0.000128   0.001375  -0.000097  -0.000080  -0.000011   0.000000
    18  H    0.000022  -0.000049   0.000002  -0.000002   0.000000   0.000000
    19  H    0.000000  -0.000004   0.000000   0.000000   0.000000   0.000000
    20  H    0.000022  -0.000005   0.000001   0.000002   0.000000   0.000000
    21  H   -0.000030  -0.000028  -0.000001  -0.000006   0.000000   0.000000
    22  H    0.000000   0.000000   0.000000   0.000000   0.000000   0.000000
    23  H    0.000000   0.000000   0.000000   0.000000   0.000000   0.000000
    24  H    0.000000   0.000000   0.000000   0.000000   0.000000   0.000000
    25  H    0.567003  -0.030257   0.008949  -0.007337  -0.000842   0.007197
    26  H   -0.030257   0.586261  -0.006645   0.009365   0.007479  -0.000668
    27  H    0.008949  -0.006645   0.567249  -0.029510  -0.010438   0.010056
    28  H   -0.007337   0.009365  -0.029510   0.562365   0.009779  -0.010080
    29  H   -0.000842   0.007479  -0.010438   0.009779   0.539692  -0.044043
    30  H    0.007197  -0.000668   0.010056  -0.010080  -0.044043   0.540564
 Mulliken charges:
               1
     1  O   -0.379906
     2  C    0.386856
     3  N   -0.384784
     4  C   -0.095758
     5  C    0.402203
     6  O   -0.346671
     7  O   -0.324480
     8  C   -0.161874
     9  C    0.080146
    10  C   -0.075884
    11  N   -0.300958
    12  C    0.145460
    13  N   -0.362155
    14  C   -0.289377
    15  C   -0.088822
    16  N   -0.442530
    17  H    0.223695
    18  H    0.161992
    19  H    0.266754
    20  H    0.136307
    21  H    0.166906
    22  H    0.091015
    23  H    0.102196
    24  H    0.230845
    25  H    0.127268
    26  H    0.112610
    27  H    0.127538
    28  H    0.129636
    29  H    0.181263
    30  H    0.180506
 Sum of Mulliken charges =   0.00000
 Mulliken charges with hydrogens summed into heavy atoms:
               1
     1  O   -0.379906
     2  C    0.386856
     3  N   -0.161089
     4  C    0.066234
     5  C    0.402203
     6  O   -0.079916
     7  O   -0.324480
     8  C    0.141339
     9  C    0.080146
    10  C    0.015131
    11  N   -0.300958
    12  C    0.247656
    13  N   -0.131310
    14  C   -0.049499
    15  C    0.168352
    16  N   -0.080761
 APT charges:
               1
     1  O   -0.306492
     2  C    0.210980
     3  N   -0.643696
     4  C   -0.405789
     5  C   -0.339719
     6  O   -0.623391
     7  O    0.174409
     8  C   -0.582857
     9  C   -0.492081
    10  C   -0.495197
    11  N    0.719131
    12  C   -0.907346
    13  N   -0.534085
    14  C   -0.681149
    15  C   -0.640112
    16  N   -0.782890
    17  H    0.594238
    18  H    0.443736
    19  H    0.819433
    20  H    0.284811
    21  H    0.308503
    22  H    0.411207
    23  H    1.002296
    24  H    0.271257
    25  H    0.365476
    26  H    0.337943
    27  H    0.256082
    28  H    0.274747
    29  H    0.476311
    30  H    0.484246
 Sum of APT charges =   0.00000
 APT charges with hydrogens summed into heavy atoms:
               1
     1  O   -0.306492
     2  C    0.210980
     3  N   -0.049458
     4  C    0.037947
     5  C   -0.339719
     6  O    0.196042
     7  O    0.174409
     8  C    0.010458
     9  C   -0.492081
    10  C   -0.083990
    11  N    0.719131
    12  C    0.094949
    13  N   -0.262828
    14  C    0.022269
    15  C   -0.109284
    16  N    0.177667
 Electronic spatial extent (au):  <R**2>=           5197.1775
 Charge=              0.0000 electrons
 Dipole moment (field-independent basis, Debye):
    X=              1.1539    Y=             -3.8139    Z=             -0.1824  Tot=              3.9888
 Quadrupole moment (field-independent basis, Debye-Ang):
   XX=           -117.5348   YY=            -96.1217   ZZ=            -86.0732
   XY=              4.1559   XZ=             25.4917   YZ=             -0.8434
 Traceless Quadrupole moment (field-independent basis, Debye-Ang):
   XX=            -17.6249   YY=              3.7882   ZZ=             13.8367
   XY=              4.1559   XZ=             25.4917   YZ=             -0.8434
 Octapole moment (field-independent basis, Debye-Ang**2):
  XXX=            166.2617  YYY=            -10.1433  ZZZ=            -13.3464  XYY=             52.8238
  XXY=            -83.0449  XXZ=            -40.9631  XZZ=             40.4050  YZZ=             -7.5123
  YYZ=             16.4781  XYZ=              0.4144
 Hexadecapole moment (field-independent basis, Debye-Ang**3):
 XXXX=          -6741.2247 YYYY=           -534.3409 ZZZZ=           -559.4228 XXXY=            335.2312
 XXXZ=            576.8456 YYYX=            260.0697 YYYZ=           -158.8540 ZZZX=             76.1234
 ZZZY=            -99.9873 XXYY=          -1059.3251 XXZZ=          -1031.9731 YYZZ=           -198.1060
 XXYZ=            -73.1959 YYXZ=             18.8970 ZZXY=            109.7516
 N-N= 1.113333713187D+03 E-N=-4.088393851889D+03  KE= 7.937090218794D+02
  Exact polarizability:   0.000   0.000   0.000   0.000   0.000   0.000
 Approx polarizability: 211.382  -7.161 164.229  -1.270   9.448 189.972
 Calling FoFJK, ICntrl=    100147 FMM=F ISym2X=0 I1Cent= 0 IOpClX= 0 NMat=1 NMatS=1 NMatT=0.
 -------------------------------------------------------------------
 Center     Atomic                   Forces (Hartrees/Bohr)
 Number     Number              X              Y              Z
 -------------------------------------------------------------------
      1        8           0.004028117   -0.001698352    0.001139783
      2        6          -0.001416758    0.002423317   -0.000725651
      3        7          -0.004349721   -0.001564421   -0.001950763
      4        6           0.008730370    0.001939394    0.009822918
      5        6           0.001577362   -0.002651492   -0.001296446
      6        8           0.000886423   -0.001528716   -0.004073309
      7        8           0.000220360   -0.001498023   -0.002872421
      8        6          -0.006643844    0.002008176    0.002082674
      9        6           0.006527549    0.000309549    0.001409595
     10        6          -0.009324405    0.000685950    0.003322138
     11        7           0.000537850    0.002486338    0.003475356
     12        6          -0.000881227    0.001175026    0.002978190
     13        7          -0.000495398   -0.002900499   -0.007844042
     14        6          -0.001601589    0.000720578    0.000180625
     15        6           0.001144722   -0.000034490   -0.000116171
     16        7           0.001666900    0.000642157   -0.000331962
     17        1           0.001839920   -0.001878234    0.001694579
     18        1          -0.003215304    0.002949928   -0.001290926
     19        1          -0.001259580    0.000272255   -0.001615868
     20        1           0.001255598   -0.000999607    0.001797849
     21        1           0.001460251   -0.000363082   -0.002786031
     22        1           0.000352135   -0.000066288   -0.000086162
     23        1          -0.003282366   -0.000689326   -0.000223850
     24        1          -0.000388648    0.000257671   -0.001868460
     25        1          -0.000024476   -0.000267879    0.000344623
     26        1           0.000775307   -0.000224341    0.000060788
     27        1           0.000263021    0.000582969   -0.001718549
     28        1          -0.000074365    0.001152497   -0.001113100
     29        1           0.000860203   -0.001754880    0.000011070
     30        1           0.000831594    0.000513827    0.001593522
 -------------------------------------------------------------------
 Cartesian Forces:  Max     0.009822918 RMS     0.002697558
 FormGI is forming the generalized inverse of G from B-inverse, IUseBI=4.

 GradGradGradGradGradGradGradGradGradGradGradGradGradGradGradGradGradGrad
 Berny optimization.
 Internal  Forces:  Max     0.011158810 RMS     0.002635590
 Search for a local minimum.
 Step number   1 out of a maximum of  160
 All quantities printed in internal units (Hartrees-Bohrs-Radians)
 Mixed Optimization -- RFO/linear search
 Second derivative matrix not updated -- analytic derivatives used.
 ITU=  0
     Eigenvalues ---   -0.00077   0.00047   0.00207   0.00248   0.00312
     Eigenvalues ---    0.00405   0.00585   0.00947   0.01095   0.01240
     Eigenvalues ---    0.01914   0.02024   0.02063   0.02557   0.02945
     Eigenvalues ---    0.03362   0.04123   0.04170   0.04241   0.04375
     Eigenvalues ---    0.04413   0.04699   0.05019   0.05104   0.05433
     Eigenvalues ---    0.05578   0.06244   0.06353   0.07558   0.08007
     Eigenvalues ---    0.08685   0.10372   0.10690   0.10814   0.11580
     Eigenvalues ---    0.11866   0.12143   0.13567   0.14572   0.15494
     Eigenvalues ---    0.16742   0.18180   0.18430   0.18785   0.19354
     Eigenvalues ---    0.20867   0.21210   0.22772   0.23027   0.23606
     Eigenvalues ---    0.24157   0.24873   0.25537   0.26901   0.28317
     Eigenvalues ---    0.30171   0.32263   0.32640   0.33030   0.33320
     Eigenvalues ---    0.33622   0.33759   0.34224   0.34485   0.34819
     Eigenvalues ---    0.35390   0.36900   0.37199   0.37290   0.37556
     Eigenvalues ---    0.38529   0.41575   0.44402   0.44535   0.44898
     Eigenvalues ---    0.44971   0.47076   0.47799   0.48004   0.51053
     Eigenvalues ---    0.57623   0.59345   0.81179   0.90568
 RFO step:  Lambda=-3.66522897D-03 EMin=-7.69027362D-04
 Linear search not attempted -- first point.
 Iteration  1 RMS(Cart)=  0.14774622 RMS(Int)=  0.02463534
 Iteration  2 RMS(Cart)=  0.05699060 RMS(Int)=  0.00189181
 Iteration  3 RMS(Cart)=  0.00253801 RMS(Int)=  0.00012079
 Iteration  4 RMS(Cart)=  0.00000432 RMS(Int)=  0.00012077
 Iteration  5 RMS(Cart)=  0.00000000 RMS(Int)=  0.00012077
 Variable       Old X    -DE/DX   Delta X   Delta X   Delta X     New X
                                 (Linear)    (Quad)   (Total)
    R1        2.30721  -0.00257   0.00000  -0.00306  -0.00306   2.30416
    R2        2.58954   0.00628   0.00000   0.00743   0.00743   2.59697
    R3        2.87086   0.00269   0.00000   0.00703   0.00703   2.87790
    R4        2.76204   0.00321   0.00000  -0.00737  -0.00737   2.75467
    R5        1.89952   0.00278   0.00000   0.00445   0.00445   1.90397
    R6        2.87256   0.01116   0.00000   0.03234   0.03234   2.90489
    R7        2.92141   0.00625   0.00000   0.01868   0.01868   2.94010
    R8        2.07114  -0.00077   0.00000  -0.00233  -0.00233   2.06881
    R9        2.56393   0.00322   0.00000   0.00742   0.00742   2.57135
   R10        2.26572   0.00204   0.00000   0.00073   0.00073   2.26645
   R11        1.83142   0.00112   0.00000   0.00115   0.00115   1.83257
   R12        2.81895   0.00705   0.00000   0.00721   0.00721   2.82616
   R13        2.05605   0.00155   0.00000   0.00547   0.00547   2.06152
   R14        2.05432   0.00233   0.00000   0.00719   0.00719   2.06151
   R15        2.58251   0.00841   0.00000   0.01561   0.01563   2.59813
   R16        2.59103   0.00854   0.00000   0.01912   0.01916   2.61020
   R17        2.61346  -0.00299   0.00000  -0.01347  -0.01350   2.59996
   R18        2.03981   0.00000   0.00000   0.00087   0.00087   2.04068
   R19        2.47647   0.00173   0.00000   0.00368   0.00365   2.48012
   R20        2.56710   0.00728   0.00000   0.01242   0.01242   2.57952
   R21        2.03241   0.00297   0.00000   0.00763   0.00763   2.04004
   R22        1.90273   0.00140   0.00000   0.00331   0.00331   1.90604
   R23        2.89054   0.00486   0.00000   0.01778   0.01778   2.90831
   R24        2.07289   0.00025   0.00000   0.00168   0.00168   2.07457
   R25        2.07197   0.00030   0.00000  -0.00060  -0.00060   2.07138
   R26        2.75757   0.00364   0.00000   0.00564   0.00564   2.76321
   R27        2.06045   0.00147   0.00000   0.00618   0.00618   2.06664
   R28        2.05977   0.00114   0.00000   0.00140   0.00140   2.06117
   R29        1.91553   0.00187   0.00000   0.00356   0.00356   1.91909
   R30        1.91593   0.00174   0.00000   0.00325   0.00325   1.91918
    A1        2.11002   0.00327   0.00000   0.00741   0.00739   2.11741
    A2        2.16737  -0.00510   0.00000  -0.02021  -0.02023   2.14714
    A3        2.00528   0.00184   0.00000   0.01247   0.01245   2.01773
    A4        2.08260   0.00483   0.00000   0.01194   0.01142   2.09402
    A5        2.05827  -0.00366   0.00000  -0.00299  -0.00364   2.05462
    A6        2.02754  -0.00052   0.00000   0.01724   0.01679   2.04433
    A7        1.90075  -0.00392   0.00000  -0.00018  -0.00049   1.90026
    A8        1.94550   0.00184   0.00000   0.01721   0.01711   1.96261
    A9        1.82929   0.00181   0.00000   0.02530   0.02558   1.85487
   A10        2.00626   0.00456   0.00000   0.01371   0.01345   2.01971
   A11        1.85211  -0.00004   0.00000  -0.01331  -0.01345   1.83866
   A12        1.91941  -0.00459   0.00000  -0.04313  -0.04317   1.87623
   A13        1.97205   0.00433   0.00000   0.00714   0.00714   1.97920
   A14        2.17361   0.00066   0.00000   0.00098   0.00098   2.17459
   A15        2.13655  -0.00499   0.00000  -0.00827  -0.00827   2.12828
   A16        1.84140   0.00317   0.00000   0.00959   0.00959   1.85099
   A17        1.98720   0.00811   0.00000   0.02024   0.02029   2.00749
   A18        1.88268  -0.00419   0.00000  -0.02868  -0.02871   1.85397
   A19        1.92250  -0.00311   0.00000  -0.01359  -0.01379   1.90870
   A20        1.87125  -0.00230   0.00000  -0.00168  -0.00151   1.86974
   A21        1.94662  -0.00100   0.00000   0.00853   0.00856   1.95518
   A22        1.84620   0.00196   0.00000   0.01371   0.01345   1.85966
   A23        2.29795  -0.00316   0.00000  -0.00615  -0.00628   2.29167
   A24        2.15589   0.00620   0.00000   0.01361   0.01348   2.16938
   A25        1.82924  -0.00303   0.00000  -0.00714  -0.00715   1.82209
   A26        1.93152   0.00340   0.00000   0.00933   0.00934   1.94087
   A27        2.23614  -0.00207   0.00000  -0.01267  -0.01268   2.22346
   A28        2.11552  -0.00133   0.00000   0.00332   0.00331   2.11883
   A29        1.83501   0.00009   0.00000  -0.00044  -0.00049   1.83452
   A30        1.94486   0.00211   0.00000   0.00557   0.00556   1.95042
   A31        2.21125  -0.00263   0.00000  -0.01422  -0.01422   2.19703
   A32        2.12707   0.00052   0.00000   0.00866   0.00866   2.13573
   A33        1.88412  -0.00257   0.00000  -0.00727  -0.00724   1.87688
   A34        2.16144   0.00200   0.00000   0.00436   0.00430   2.16574
   A35        2.23756   0.00057   0.00000   0.00306   0.00300   2.24056
   A36        1.96523   0.00200   0.00000   0.00120   0.00108   1.96632
   A37        1.88924  -0.00082   0.00000  -0.01367  -0.01369   1.87555
   A38        1.89779   0.00002   0.00000   0.03062   0.03062   1.92841
   A39        1.92061  -0.00029   0.00000  -0.00932  -0.00943   1.91118
   A40        1.92824  -0.00116   0.00000  -0.00555  -0.00575   1.92249
   A41        1.85923   0.00016   0.00000  -0.00330  -0.00327   1.85596
   A42        2.00914   0.00080   0.00000   0.00411   0.00410   2.01324
   A43        1.90141   0.00030   0.00000   0.00455   0.00455   1.90596
   A44        1.90061   0.00009   0.00000  -0.00169  -0.00170   1.89891
   A45        1.89253  -0.00041   0.00000  -0.00406  -0.00407   1.88847
   A46        1.89543  -0.00030   0.00000   0.00426   0.00426   1.89969
   A47        1.85899  -0.00058   0.00000  -0.00821  -0.00821   1.85079
   A48        1.92666   0.00082   0.00000   0.00792   0.00788   1.93454
   A49        1.92590   0.00099   0.00000   0.00608   0.00604   1.93194
   A50        1.86182  -0.00048   0.00000   0.00262   0.00255   1.86437
    D1        0.21074  -0.00117   0.00000  -0.05908  -0.05888   0.15185
    D2        2.83742  -0.00001   0.00000   0.00020   0.00012   2.83753
    D3       -2.96379  -0.00111   0.00000  -0.07026  -0.07018  -3.03397
    D4       -0.33711   0.00005   0.00000  -0.01099  -0.01118  -0.34829
    D5       -0.19629   0.00000   0.00000  -0.28579  -0.28569  -0.48199
    D6        1.93087   0.00035   0.00000  -0.30629  -0.30619   1.62468
    D7       -2.33915   0.00012   0.00000  -0.30136  -0.30145  -2.64060
    D8        2.97946  -0.00025   0.00000  -0.27481  -0.27479   2.70467
    D9       -1.17656   0.00011   0.00000  -0.29530  -0.29528  -1.47184
   D10        0.83660  -0.00012   0.00000  -0.29038  -0.29054   0.54606
   D11        1.04882   0.00141   0.00000   0.00984   0.01003   1.05885
   D12       -1.18286  -0.00290   0.00000  -0.02062  -0.02039  -1.20324
   D13        3.02470   0.00054   0.00000   0.00685   0.00692   3.03162
   D14       -1.58664   0.00122   0.00000  -0.04265  -0.04279  -1.62944
   D15        2.46486  -0.00309   0.00000  -0.07312  -0.07321   2.39165
   D16        0.38923   0.00034   0.00000  -0.04564  -0.04590   0.34332
   D17       -2.73742  -0.00074   0.00000   0.03639   0.03641  -2.70102
   D18        0.45063  -0.00058   0.00000   0.04010   0.04012   0.49075
   D19       -0.54048   0.00197   0.00000   0.06968   0.06969  -0.47079
   D20        2.64757   0.00213   0.00000   0.07339   0.07341   2.72098
   D21        1.58493  -0.00102   0.00000   0.01388   0.01384   1.59877
   D22       -1.51021  -0.00086   0.00000   0.01759   0.01756  -1.49265
   D23       -2.51140   0.00140   0.00000  -0.01897  -0.01877  -2.53018
   D24       -0.43699   0.00061   0.00000  -0.02827  -0.02821  -0.46520
   D25        1.57019  -0.00102   0.00000  -0.03506  -0.03477   1.53542
   D26        1.59816   0.00156   0.00000  -0.04403  -0.04404   1.55412
   D27       -2.61061   0.00077   0.00000  -0.05333  -0.05348  -2.66409
   D28       -0.60343  -0.00086   0.00000  -0.06012  -0.06003  -0.66347
   D29       -0.49034   0.00191   0.00000  -0.00410  -0.00424  -0.49458
   D30        1.58407   0.00112   0.00000  -0.01340  -0.01368   1.57039
   D31       -2.69194  -0.00052   0.00000  -0.02019  -0.02024  -2.71217
   D32        3.13502   0.00014   0.00000   0.00784   0.00783  -3.14033
   D33       -0.05190   0.00015   0.00000   0.00448   0.00449  -0.04741
   D34        2.09233  -0.00172   0.00000  -0.10043  -0.10046   1.99187
   D35       -1.03161  -0.00230   0.00000  -0.12932  -0.12941  -1.16102
   D36        0.01140   0.00020   0.00000  -0.07567  -0.07565  -0.06425
   D37       -3.11253  -0.00039   0.00000  -0.10457  -0.10461   3.06605
   D38       -2.00201  -0.00028   0.00000  -0.09565  -0.09555  -2.09756
   D39        1.15724  -0.00086   0.00000  -0.12455  -0.12451   1.03274
   D40       -3.13184  -0.00031   0.00000  -0.02022  -0.01999   3.13135
   D41        0.01505  -0.00033   0.00000  -0.01669  -0.01655  -0.00150
   D42       -0.00548   0.00027   0.00000   0.00487   0.00487  -0.00061
   D43        3.14141   0.00025   0.00000   0.00840   0.00831  -3.13346
   D44        3.13505  -0.00001   0.00000   0.01552   0.01569  -3.13245
   D45       -0.01765  -0.00016   0.00000   0.02893   0.02906   0.01141
   D46        0.00710  -0.00043   0.00000  -0.00676  -0.00672   0.00038
   D47        3.13759  -0.00059   0.00000   0.00665   0.00665  -3.13895
   D48        0.00167  -0.00002   0.00000  -0.00108  -0.00107   0.00060
   D49        3.13839  -0.00001   0.00000  -0.00439  -0.00433   3.13406
   D50        0.00300  -0.00024   0.00000  -0.00330  -0.00335  -0.00035
   D51       -3.13459  -0.00002   0.00000  -0.00833  -0.00828   3.14031
   D52       -0.00655   0.00043   0.00000   0.00650   0.00653  -0.00002
   D53       -3.13641   0.00058   0.00000  -0.00768  -0.00760   3.13918
   D54        3.13127   0.00021   0.00000   0.01119   0.01120  -3.14072
   D55        0.00141   0.00036   0.00000  -0.00299  -0.00294  -0.00152
   D56       -3.12714  -0.00026   0.00000  -0.06609  -0.06606   3.08998
   D57       -0.99761  -0.00001   0.00000  -0.06503  -0.06499  -1.06260
   D58        1.02334  -0.00049   0.00000  -0.07324  -0.07321   0.95013
   D59        1.04674  -0.00036   0.00000  -0.04290  -0.04289   1.00385
   D60       -3.10691  -0.00011   0.00000  -0.04184  -0.04182   3.13445
   D61       -1.08596  -0.00059   0.00000  -0.05005  -0.05004  -1.13601
   D62       -1.00146   0.00032   0.00000  -0.02981  -0.02986  -1.03132
   D63        1.12807   0.00057   0.00000  -0.02875  -0.02879   1.09928
   D64       -3.13416   0.00009   0.00000  -0.03697  -0.03701   3.11202
   D65        1.03156   0.00030   0.00000  -0.01114  -0.01113   1.02043
   D66       -1.02209  -0.00022   0.00000  -0.02295  -0.02298  -1.04507
   D67       -1.10274  -0.00032   0.00000  -0.01680  -0.01678  -1.11952
   D68        3.12679  -0.00085   0.00000  -0.02861  -0.02863   3.09816
   D69       -3.11613   0.00073   0.00000  -0.00721  -0.00718  -3.12332
   D70        1.11340   0.00021   0.00000  -0.01902  -0.01903   1.09437
         Item               Value     Threshold  Converged?
 Maximum Force            0.011159     0.000450     NO 
 RMS     Force            0.002636     0.000300     NO 
 Maximum Displacement     0.936170     0.001800     NO 
 RMS     Displacement     0.191464     0.001200     NO 
 Predicted change in Energy=-2.294408D-03
 GradGradGradGradGradGradGradGradGradGradGradGradGradGradGradGradGradGrad

                          Input orientation:                          
 ---------------------------------------------------------------------
 Center     Atomic      Atomic             Coordinates (Angstroms)
 Number     Number       Type             X           Y           Z
 ---------------------------------------------------------------------
      1          8           0        1.450568    0.884349   -0.677847
      2          6           0        1.615480    0.036252    0.182529
      3          7           0        0.562233   -0.697179    0.673788
      4          6           0       -0.747058   -0.606713    0.039367
      5          6           0       -0.624959   -1.069646   -1.421380
      6          8           0       -1.577956   -0.542147   -2.236884
      7          8           0        0.185895   -1.858209   -1.820292
      8          6           0       -1.416689    0.781126    0.254118
      9          6           0       -2.903996    0.748869    0.407478
     10          6           0       -3.712785    1.052242    1.477105
     11          7           0       -5.041243    0.889029    1.158516
     12          6           0       -5.046675    0.489527   -0.091611
     13          7           0       -3.782192    0.387549   -0.595561
     14          6           0        2.967852   -0.242124    0.825081
     15          6           0        4.146888    0.096728   -0.104229
     16          7           0        5.475612   -0.084660    0.478611
     17          1           0        0.774589   -1.547988    1.169939
     18          1           0       -1.377667   -1.355800    0.528976
     19          1           0       -1.403380   -0.901240   -3.120628
     20          1           0       -1.006311    1.176921    1.184186
     21          1           0       -1.101846    1.461139   -0.538681
     22          1           0       -3.406187    1.386687    2.457047
     23          1           0       -5.923077    0.260276   -0.678786
     24          1           0       -3.497839    0.103369   -1.520618
     25          1           0        3.031772    0.367894    1.735571
     26          1           0        3.030789   -1.287352    1.149159
     27          1           0        4.082518   -0.518639   -1.005993
     28          1           0        4.046292    1.130568   -0.436998
     29          1           0        5.608346   -1.044097    0.783868
     30          1           0        5.591093    0.503278    1.298618
 ---------------------------------------------------------------------
                    Distance matrix (angstroms):
                    1          2          3          4          5
     1  O    0.000000
     2  C    1.219307   0.000000
     3  N    2.262142   1.374258   0.000000
     4  C    2.750858   2.452649   1.457710   0.000000
     5  C    2.945971   2.969024   2.436778   1.537204   0.000000
     6  O    3.692890   4.047979   3.616138   2.424021   1.360700
     7  O    3.228963   3.105477   2.776699   2.427957   1.199353
     8  C    3.016682   3.123141   2.505522   1.555834   2.619062
     9  C    4.489823   4.580839   3.765199   2.574002   3.441762
    10  C    5.597518   5.576609   4.688451   3.689817   4.736907
    11  N    6.746544   6.781721   5.843797   4.682922   5.476845
    12  C    6.535573   6.683182   5.783940   4.439099   4.873487
    13  N    5.256933   5.464768   4.654236   3.256336   3.574004
    14  C    2.414515   1.522917   2.452951   3.814555   4.317369
    15  C    2.866972   2.548316   3.753045   4.946328   5.085847
    16  N    4.298529   3.873358   4.955256   6.259960   6.465070
    17  H    3.128502   2.047411   1.007540   2.116507   2.983703
    18  H    3.804419   3.319151   2.053769   1.094768   2.110057
    19  H    4.159389   4.572007   4.278185   3.240844   1.876631
    20  H    3.096614   3.029559   2.496615   2.135222   3.461425
    21  H    2.620471   3.151874   2.982881   2.176241   2.722398
    22  H    5.802411   5.675760   4.823989   4.109718   5.367587
    23  H    7.400007   7.590908   6.693685   5.297035   5.512730
    24  H    5.080051   5.389920   4.684066   3.241074   3.104714
    25  H    2.931129   2.127864   2.891433   4.255176   5.040291
    26  H    3.248282   2.165503   2.582257   3.995878   4.474323
    27  H    3.000536   2.794059   3.904606   4.942200   4.757783
    28  H    2.618476   2.736821   4.088174   5.120671   5.256475
    29  H    4.810679   4.179921   5.059222   6.413794   6.611949
    30  H    4.603865   4.155630   5.207776   6.556672   6.965040
                    6          7          8          9         10
     6  O    0.000000
     7  O    2.239807   0.000000
     8  C    2.825270   3.719884   0.000000
     9  C    3.227655   4.615976   1.495541   0.000000
    10  C    4.570917   5.877350   2.615580   1.374873   0.000000
    11  N    5.056813   6.613893   3.737241   2.269697   1.375841
    12  C    4.206966   5.989990   3.658054   2.215270   2.134661
    13  N    2.901194   4.721133   2.544104   1.381256   2.177746
    14  C    5.489081   4.165215   4.538418   5.969511   6.836039
    15  C    6.142492   4.738789   5.616956   7.099443   8.073913
    16  N    7.572055   6.034198   6.950093   8.421262   9.312152
    17  H    4.260590   3.063377   3.326439   4.403281   5.195389
    18  H    2.890005   2.866392   2.154883   2.602705   3.485741
    19  H    0.969756   2.265492   3.770867   4.173995   5.503506
    20  H    3.871135   4.433989   1.090912   2.094686   2.725132
    21  H    2.669031   3.784029   1.090906   2.156453   3.323792
    22  H    5.394053   6.459723   3.029472   2.204481   1.079880
    23  H    4.685257   6.565862   4.631321   3.245542   3.187549
    24  H    2.148413   4.184194   2.817841   2.118224   3.151651
    25  H    6.152898   5.069389   4.706831   6.094449   6.784112
    26  H    5.767248   4.151740   4.985956   6.318066   7.145421
    27  H    5.792807   4.200144   5.789520   7.239880   8.330677
    28  H    6.137567   5.074343   5.517600   7.011800   7.992071
    29  H    7.811519   6.070207   7.277581   8.707259   9.579076
    30  H    8.061510   6.672360   7.090640   8.545231   9.321768
                   11         12         13         14         15
    11  N    0.000000
    12  C    1.312421   0.000000
    13  N    2.216637   1.365022   0.000000
    14  C    8.095448   8.099894   6.926601   0.000000
    15  C    9.308276   9.201959   7.949609   1.539013   0.000000
    16  N   10.583694  10.553358   9.331868   2.536473   1.462228
    17  H    6.305798   6.295244   5.256191   2.575774   3.962448
    18  H    4.342507   4.153550   3.175782   4.495719   5.747303
    19  H    5.894928   4.937892   3.700768   5.925430   6.395317
    20  H    4.045271   4.292401   3.390593   4.235164   5.420543
    21  H    4.327428   4.087246   2.887921   4.617726   5.440549
    22  H    2.146451   3.160973   3.233894   6.778253   8.079175
    23  H    2.132754   1.079542   2.146279   9.031204  10.087668
    24  H    3.190159   2.142446   1.008635   6.886714   7.774834
    25  H    8.110372   8.283398   7.201712   1.097816   2.168381
    26  H    8.360288   8.363148   7.229526   1.096125   2.175393
    27  H    9.482069   9.230095   7.927376   2.161428   1.093617
    28  H    9.229696   9.122076   7.865264   2.154103   1.090724
    29  H   10.830101  10.800368   9.598679   2.759904   2.055738
    30  H   10.640253  10.728235   9.563460   2.767897   2.054017
                   16         17         18         19         20
    16  N    0.000000
    17  H    4.971809   0.000000
    18  H    6.970349   2.253880   0.000000
    19  H    7.806526   4.854976   3.677893   0.000000
    20  H    6.641141   3.255294   2.642325   4.796648   0.000000
    21  H    6.832813   3.936399   3.025082   3.512578   1.748764
    22  H    9.217670   5.267623   3.918365   6.352661   2.724625
    23  H   11.462489   7.179578   4.973042   5.266818   5.337180
    24  H    9.195384   5.312223   3.290158   2.820643   3.830951
    25  H    2.785159   3.014202   4.885708   6.698054   4.155077
    26  H    2.805933   2.271299   4.452392   6.167821   4.729910
    27  H    2.081609   4.091043   5.733288   5.891786   5.793789
    28  H    2.087600   4.523378   6.044375   6.405391   5.306523
    29  H    1.015539   4.875260   6.997607   8.026817   6.989053
    30  H    1.015588   5.236693   7.253422   8.391963   6.632694
                   21         22         23         24         25
    21  H    0.000000
    22  H    3.780201   0.000000
    23  H    4.970510   4.175761   0.000000
    24  H    2.923785   4.180565   2.571980   0.000000
    25  H    4.842954   6.557879   9.275237   7.301270   0.000000
    26  H    5.242298   7.091948   9.268671   7.189214   1.756052
    27  H    5.569159   8.467799  10.041201   7.623224   3.066949
    28  H    5.159742   7.998784  10.010204   7.690467   2.516144
    29  H    7.283682   9.485255  11.696772   9.463083   3.088397
    30  H    7.006325   9.114462  11.685259   9.524531   2.599881
                   26         27         28         29         30
    26  H    0.000000
    27  H    2.518280   0.000000
    28  H    3.064878   1.744978   0.000000
    29  H    2.614653   2.409950   2.942736   0.000000
    30  H    3.127914   2.937914   2.406712   1.630839   0.000000
 Symmetry turned off by external request.
 Stoichiometry    C9H14N4O3
 Framework group  C1[X(C9H14N4O3)]
[...]
 135,-0.00003109,0.00001654,0.00005874,0.00003540,0.00002393,-0.0000096
 5,-0.00005009,-0.00000871,0.00000524,0.00001472,-0.00000828,0.00001984
 ,0.00005752,-0.00011981,0.00016778,0.00031113,0.00041020,-0.00051840,0
 .00004948,-0.00029262,0.00011612,-0.00073379,-0.00020861,-0.00001946,-
 0.00009380,0.00195770,-0.00018195,0.00005691,-0.00127002,0.00003079,-0
 .00674066,0.01798310,0.00008922,0.00001973,-0.00025422,-0.00020635,-0.
 00017265,0.00028036,0.00036354,-0.00010257,-0.00031595,-0.00050248,0.0
 0046486,0.00002657,0.00105289,-0.00111662,0.00341636,0.00036498,0.0002
 4270,-0.00549158,-0.00081340,0.00070528,-0.00070857,-0.00036597,0.0002
 1252,0.00072325,0.01238687,0.00020815,-0.01349032,-0.00288561,-0.00092
 278,-0.00302238,-0.00087294,-0.00070636,0.00350436,0.00160480,0.001387
 09,0.00108926,0.12142851,-0.03455887,-0.40606033,0.00003405,0.00002703
 ,-0.00000941,-0.00003307,0.00002743,0.00005252,0.00003896,-0.00001548,
 -0.00003108,0.00002354,0.00001408,0.00002814,-0.00008529,0.00003491,-0
 .00013485,0.00137428,-0.00045453,-0.00023182,0.00036492,-0.00004711,0.
 00007349,-0.00025778,-0.00006764,0.00005391,0.00061997,-0.00011273,-0.
 00010488,-0.00004711,0.00020080,-0.00009100,-0.13366840,0.03473062,0.4
 2069380,0.00124135,0.00254337,0.00287537,-0.01053355,-0.03007900,-0.01
 400830,-0.00389765,0.00197881,-0.00093139,-0.00068130,0.00047490,0.001
 14822,0.00015599,0.00002704,0.00047858,-0.00008219,0.00005583,-0.00019
 069,0.00000865,-0.00001878,-0.00018125,-0.00032896,-0.00023216,-0.0001
 8955,-0.00006227,0.00017284,0.00003593,0.00002077,0.00002060,-0.000054
 63,-0.00006712,-0.00001830,-0.00001279,-0.00003739,-0.00001005,0.00002
 503,0.00003116,0.00002573,0.00005130,-0.06271394,-0.06241790,-0.034585
 48,0.00421353,0.02099131,0.01161719,0.00319587,-0.00002859,-0.00052522
 ,0.00029458,-0.00000068,-0.00080812,-0.00019685,-0.00000461,-0.0000833
 3,-0.00001048,-0.00001305,0.00000682,-0.00003001,-0.00004109,0.0000213
 4,0.00001448,0.00001015,-0.00002811,-0.00000086,-0.00000345,0.00000558
 ,-0.00000201,-0.00000440,0.00000033,0.00002286,-0.00001560,0.00000594,
 0.07262714,0.00061345,0.00036080,-0.00019184,0.00031364,0.00310244,0.0
 0353815,-0.00009763,0.00016936,-0.00062980,0.00016835,0.00009247,-0.00
 000425,0.00009589,-0.00016433,0.00007722,-0.00008693,0.00008536,-0.000
 09782,-0.00010422,0.00008575,-0.00002493,-0.00007482,-0.00006885,-0.00
 004809,-0.00000291,0.00004850,-0.00001247,0.00000559,0.00000497,-0.000
 01779,-0.00002082,-0.00000306,0.00000299,-0.00000356,-0.00000203,0.000
 00319,-0.00000074,0.00001028,0.00002282,-0.06185368,-0.23862655,-0.091
 93576,-0.00215057,-0.00734441,-0.00491339,-0.00017875,0.00142211,0.001
 57281,0.00052214,0.00014517,-0.00028071,0.00001959,-0.00000428,-0.0000
 1706,0.00000743,-0.00000772,0.00000692,-0.00000510,-0.00001461,0.00000
 218,-0.00002553,0.00002052,-0.00000848,-0.00000037,-0.00000184,0.00000
 202,-0.00000025,-0.00000229,0.00000032,0.00001439,-0.00001050,-0.00000
 106,0.06658506,0.25746623,-0.00020335,0.00233027,0.00080208,-0.0021835
 6,-0.01219371,-0.00520376,-0.00083220,0.00072782,-0.00050163,0.0000248
 0,-0.00028511,0.00014228,0.00007211,-0.00004018,0.00008427,-0.00005352
 ,0.00004092,-0.00008182,-0.00007895,0.00000242,-0.00000228,-0.00001685
 ,-0.00001974,0.00003956,0.00000117,0.00001028,-0.00000224,0.00000277,0
 .00000226,-0.00000512,-0.00001981,-0.00000129,0.00000065,-0.00000202,-
 0.00000149,-0.00000282,-0.00000705,0.00000723,0.00001128,-0.03359739,-
 0.09184304,-0.09103874,-0.00473818,-0.02332955,-0.01391778,-0.00204065
 ,0.00203268,0.00157300,-0.00022860,-0.00006548,0.00017471,-0.00008794,
 0.00001289,-0.00002767,0.00000560,-0.00000384,0.00001089,0.00000597,-0
 .00000367,-0.00001112,0.00002130,-0.00001673,-0.00000537,0.00000224,-0
 .00000081,-0.00000090,-0.00000148,-0.00000118,-0.00000046,0.00001380,-
 0.00000880,0.00000090,0.03270754,0.10340742,0.09928183,-0.00796059,0.0
 0162477,-0.00519033,0.00729730,0.02329997,-0.01955779,-0.00023983,-0.0
 0094831,0.00133025,0.00050456,0.00016711,0.00011893,0.00030342,0.00038
 725,-0.00012036,-0.00006098,-0.00009640,0.00005594,-0.00002704,-0.0001
 6196,0.00002486,0.00004908,0.00010464,-0.00003306,0.00002218,-0.000071
 20,0.00001376,-0.00000665,-0.00001592,-0.00001566,-0.00002217,0.000005
 98,0.00000773,0.00000292,0.00000356,-0.00000150,-0.00000795,0.00000074
 ,0.00002079,-0.04997178,-0.00628682,0.00203121,-0.00144856,-0.01647226
 ,0.01716254,0.00254776,-0.00054292,-0.00083735,-0.00183001,-0.00060212
 ,-0.00079121,0.00003162,-0.00001247,0.00005060,0.00002039,0.00001139,0
 .00003409,0.00000100,0.00000370,-0.00000188,0.00009994,-0.00008943,0.0
 0002749,-0.00000093,0.00000395,0.00000241,-0.00000095,-0.00000017,0.00
 000038,0.00001787,0.00000427,-0.00000378,-0.00039384,-0.00623116,0.007
 10395,0.05421766,0.00222983,0.00236081,0.00091473,-0.00415141,-0.00624
 346,0.00143297,-0.00036283,0.00025492,-0.00126008,0.00033456,0.0003240
 4,-0.00014018,-0.00028959,-0.00012870,-0.00002785,0.00009355,0.0000106
 4,-0.00001537,0.00009311,0.00007849,-0.00003368,-0.00001411,-0.0000069
 8,0.00003298,-0.00001056,0.00002260,-0.00000547,0.00000759,0.00001456,
 0.00002938,0.00003305,0.00000189,-0.00002067,-0.00001049,-0.00000192,0
 .00000535,0.00000962,-0.00000134,-0.00004065,-0.00161528,-0.17673985,0
 .12616096,0.00120407,0.00588068,-0.00615741,-0.00151561,0.00067262,-0.
 00073899,0.00010699,0.00119361,0.00010004,0.00006829,0.00001278,0.0000
 1678,-0.00003610,-0.00001872,-0.00003108,-0.00000262,-0.00002646,0.000
 01116,-0.00005994,0.00004093,-0.00001464,0.00000230,-0.00000689,-0.000
 00394,0.00000085,-0.00000084,-0.00000048,-0.00002699,0.00000004,0.0000
 0624,0.00020140,-0.01885909,0.01969202,0.00323448,0.18943416,-0.004195
 95,0.00087006,0.00010826,0.00588778,0.00904385,-0.01031742,0.00072284,
 -0.00049499,0.00087648,-0.00019870,-0.00035320,-0.00003543,0.00005800,
 0.00027590,-0.00007667,0.00001187,-0.00009279,0.00008806,0.00001536,-0
 .00018163,0.00007694,0.00005868,0.00005264,0.00002992,0.00001374,-0.00
 007099,0.00001461,-0.00000931,-0.00001168,-0.00000658,-0.00001188,0.00
 000295,0.00001287,0.00001001,0.00000257,-0.00000806,-0.00000904,-0.000
 00315,0.00001296,-0.00080819,0.12574706,-0.17025869,-0.00016273,0.0176
 5966,-0.01821915,-0.00119185,-0.00109108,0.00207104,-0.00109089,-0.000
 60524,0.00066793,-0.00005265,0.00000878,0.00000638,0.00003134,0.000032
 01,0.00000914,0.00000400,0.00001663,-0.00000973,0.00007756,-0.00006938
 ,0.00001400,-0.00000048,0.00000413,0.00000165,-0.00000049,0.00000197,-
 0.00000021,0.00001156,0.00000812,-0.00000559,0.00032528,-0.00915907,0.
 01005029,-0.00315739,-0.13939712,0.18628695,-0.00027646,-0.00008678,-0
 .00061301,0.00206891,0.00082519,0.00107325,-0.00009484,-0.00046237,-0.
 00022523,-0.00002359,0.00002036,0.00006732,-0.00036236,0.00047129,0.00
 011940,0.00019223,-0.00024895,0.00013201,0.00033768,-0.00022395,-0.000
 22390,-0.00000242,0.00001643,-0.00000179,0.00000055,-0.00001391,0.0000
 1526,0.00000037,-0.00000204,0.00000664,0.00001377,0.00000146,-0.000010
 25,-0.00001126,-0.00000032,0.00000169,0.00000836,-0.00000834,-0.000018
 78,0.00393589,0.01971161,0.01018368,-0.06206460,-0.05175606,-0.0263545
 6,-0.01854835,-0.03129058,-0.01440692,-0.00003973,0.00008485,0.0001885
 1,-0.00001745,-0.00000720,-0.00001109,-0.00001823,0.00000914,-0.000044
 60,0.00000836,0.00000021,-0.00001263,0.00000971,0.00000182,0.00000640,
 0.00000060,0.00000049,-0.00000193,0.00000028,0.00000072,0.00000001,-0.
 00002680,0.00001320,0.00000620,-0.00299420,0.00122116,0.00369391,0.000
 67967,-0.00062805,-0.00061724,0.08111271,0.00082752,0.00002577,0.00076
 585,-0.00120225,-0.00016676,-0.00137966,0.00078241,0.00031542,0.000216
 01,-0.00003271,-0.00001188,-0.00007494,0.00061570,-0.00063379,-0.00028
 461,-0.00022821,0.00024577,-0.00007799,-0.00065990,0.00024062,0.000254
 91,0.00004757,0.00000562,0.00003260,-0.00000519,-0.00000212,-0.0000282
 6,-0.00000390,0.00000272,-0.00000193,-0.00000565,0.00000300,0.00002176
 ,0.00002805,0.00000252,-0.00000786,-0.00001391,0.00001304,0.00002316,-
 0.00012649,-0.00591469,-0.00245795,-0.05749917,-0.24478729,-0.09309513
 ,0.00007571,0.00571108,0.00178620,0.00000084,-0.00010081,-0.00012545,0
 .00003304,0.00001967,0.00002398,0.00004988,-0.00001434,0.00003448,-0.0
 0001806,0.00001231,0.00002185,-0.00001802,-0.00000275,-0.00001343,-0.0
 0000114,-0.00000130,0.00000336,0.00000166,-0.00000166,0.,0.00003511,-0
 .00002162,-0.00001558,0.00094424,0.00134499,-0.00070981,0.00036732,0.0
 0095682,-0.00026166,0.06098520,0.25916671,0.00022611,-0.00022801,0.000
 55209,-0.00199885,-0.00042911,-0.00084591,0.00046709,0.00052262,0.0002
 0075,0.00002808,0.00000714,-0.00006217,0.00007428,-0.00010475,0.000021
 66,-0.00004338,0.00006628,-0.00003002,-0.00008281,0.00008344,-0.000080
 54,0.00000177,-0.00001042,-0.00001451,-0.00000778,0.00001035,-0.000001
 74,-0.00000164,0.00000205,-0.00000039,0.00000917,0.00000335,0.00000108
 ,0.00000392,-0.00000011,0.00000283,0.00000287,0.00000457,-0.00000265,-
 0.00125714,-0.02217848,-0.01161352,-0.02756536,-0.09042689,-0.09511483
 ,-0.00758894,-0.00964620,-0.00360622,0.00016160,-0.00013437,-0.0001854
 0,0.00003432,-0.00000111,0.00000472,-0.00001114,-0.00000837,0.00000715
 ,-0.00001070,-0.00000337,0.00001126,-0.00001305,0.00000887,-0.00000614
 ,-0.00000160,-0.00000227,0.00000156,0.00000105,-0.00000125,0.00000059,
 -0.00000056,-0.00000475,-0.00000158,0.00339263,-0.00112470,-0.00255958
 ,-0.00101130,0.00041030,0.00063549,0.03047744,0.10441377,0.10261697,0.
 00029132,0.00125944,-0.00198696,0.00082266,-0.00325933,0.00335744,-0.0
 0000855,0.00078676,-0.00069861,-0.00005079,-0.00003138,-0.00007608,-0.
 00022064,-0.00007948,0.00004171,0.00005441,0.00001773,-0.00001196,0.00
 010215,0.00007447,-0.00006377,-0.00000225,-0.00002353,0.00003765,-0.00
 001090,0.00001646,-0.00000674,0.00000146,0.00000487,0.00001316,0.00002
 358,0.00000006,-0.00000702,-0.00000245,-0.00000055,0.00000159,0.000005
 12,-0.00000271,-0.00002027,-0.00173132,-0.01469560,0.01631722,-0.04643
 325,-0.00264519,-0.00113107,-0.00831009,0.02882269,-0.02515834,0.00036
 963,0.00021970,0.00013550,0.00001121,0.00000271,-0.00002038,-0.0000310
 7,-0.00001744,-0.00002099,-0.00000471,-0.00000176,0.00000057,-0.000028
 96,0.00003290,-0.00001494,-0.00000055,-0.00000136,-0.00000102,0.000000
 93,0.00000008,0.00000017,-0.00001821,0.00000146,0.00000267,0.00091921,
 0.00032418,-0.00069743,-0.00314046,0.00142548,0.00318480,0.00049501,-0
 .00593808,0.00645205,0.06145598,0.00038249,-0.00022489,-0.00104954,0.0
 0019338,-0.00010832,0.00105230,-0.00000280,0.00009748,0.00009282,0.000
 02264,-0.00002291,0.00007822,-0.00006060,0.00007473,0.00011532,0.00002
 491,0.00000031,-0.00002055,0.00009948,0.00003115,-0.00012675,-0.000015
 44,-0.00000503,-0.00000591,-0.00000026,0.00000080,0.00000936,0.0000011
 8,0.00000053,0.00000103,0.00000607,0.00000050,-0.00000925,-0.00000981,
 -0.00000082,0.00000460,0.00000543,-0.00000153,-0.00001139,0.00040795,0
 .00568422,-0.00663283,0.00131794,-0.18525948,0.13158908,0.00218010,-0.
 00045372,0.00109252,-0.00009283,-0.00000950,-0.00010497,-0.00000834,-0
 .00000657,-0.00001456,-0.00003693,-0.00001708,0.00000717,0.00000265,-0
 .00000124,-0.00000735,0.00000616,0.00000373,0.00000464,-0.00000008,-0.
 00000039,-0.00000114,-0.00000053,-0.00000020,0.00000030,-0.00001300,0.
 00000359,0.00000711,-0.00066808,0.00104479,0.00010634,0.00172529,0.000
 98824,-0.00168947,0.00024345,-0.01926369,0.01895062,-0.00612593,0.1947
 3611,-0.00132825,-0.00137096,0.00168784,-0.00136676,0.00229558,-0.0024
 8473,0.00016890,-0.00016483,0.00052437,-0.00002723,0.00007043,0.000074
 01,0.00010359,0.00005126,-0.00003861,-0.00000591,-0.00000759,0.0000369
 2,-0.00001505,-0.00000667,0.00001675,-0.00000103,0.00002284,-0.0000175
 6,0.00000352,-0.00002208,0.00000836,-0.00000405,-0.00000573,-0.0000045
 9,0.,0.00000035,0.00000398,0.00000290,0.00000132,-0.00000032,0.0000001
 6,-0.00000190,0.00000407,0.00515737,0.01672466,-0.01952320,-0.00355995
 ,0.12845985,-0.17666110,-0.00489565,0.00829392,-0.00637360,-0.00015430
 ,-0.00025293,-0.00006241,0.00000935,-0.00000597,0.00001510,0.00000048,
 0.00000043,0.00000838,-0.00000145,0.00001068,-0.00000334,0.00002144,-0
 .00001962,0.00001291,-0.00000118,0.00000292,0.00000105,0.00000025,0.00
 000085,0.00000030,0.00000027,0.00000495,-0.00000170,-0.00091539,0.0000
 4927,0.00073900,0.00307092,-0.00138534,-0.00249885,0.00084895,-0.00982
 162,0.01114386,0.00450000,-0.14242994,0.19399356,0.00020319,-0.0004758
 4,0.00106994,-0.00112566,0.00010701,-0.00122051,0.00046313,0.00005212,
 0.00014177,-0.00015850,0.00006379,-0.00002069,-0.00002642,-0.00004334,
 -0.00023337,0.00007827,-0.00002988,0.00014676,0.00001060,0.00004126,0.
 00012305,0.00001560,0.00002117,0.00001980,-0.00002118,-0.00002691,0.00
 000273,-0.00001054,-0.00000372,0.00001312,0.00004954,0.00000533,0.0000
 0362,0.00001177,0.00000312,0.00000286,0.00000878,-0.00000422,-0.000024
 61,0.00265778,0.00093571,-0.00158064,-0.00708393,0.03043616,-0.0278193
 8,-0.04186389,-0.01261235,-0.02100820,-0.00011497,-0.00006246,0.000024
 11,0.00001825,0.00000965,0.00001471,-0.00000777,-0.00000475,-0.0000214
 5,-0.00001454,0.00001283,0.00001209,-0.00000740,-0.00000016,-0.0000030
 6,-0.00000566,0.00000246,0.00000407,0.00000339,0.00000101,0.00000158,-
 0.00002227,0.00000694,-0.00000809,-0.00012393,-0.00000930,0.00022424,-
 0.00060044,-0.00042331,0.00095959,0.00113346,-0.00063075,0.00038084,-0
 .00588186,-0.00006711,-0.00185792,0.05243676,-0.00045696,0.00025728,-0
 .00053612,0.00081619,0.00026721,0.00069403,-0.00048787,-0.00021736,-0.
 00009881,0.00011980,-0.00005557,0.00001242,-0.00004429,0.00014126,0.00
 019894,-0.00002100,-0.00002015,-0.00009168,0.00004648,-0.00011897,-0.0
 0011434,-0.00001455,-0.00000938,-0.00001613,0.00001965,0.00001343,0.00
 000348,0.00000761,0.00000063,-0.00000777,-0.00003506,-0.00000608,-0.00
 000656,-0.00001358,-0.00000213,-0.00000065,-0.00000461,-0.00000045,0.0
 0001304,-0.00220814,0.00022456,-0.00051780,0.00168258,-0.00095639,0.00
 301065,0.00714189,-0.23157412,0.17299022,0.00001405,0.00007859,0.00002
 552,-0.00002710,-0.00000808,-0.00001028,0.00000555,0.00001287,0.000012
 85,0.00001451,-0.00000964,-0.00001271,0.00001232,-0.00000652,0.0000063
 9,0.00000407,0.00000006,-0.00000344,-0.00000317,0.00000032,-0.00000121
 ,0.00001178,0.00000026,0.00000806,0.00014800,-0.00028348,-0.00005373,0
 .00074643,-0.00008952,-0.00027044,0.00006747,0.00055358,-0.00050565,0.
 00004154,0.00216344,-0.00056885,-0.00976783,0.25437415,-0.00029140,-0.
 00001676,0.00007335,0.00095940,0.00024961,-0.00014837,-0.00040670,-0.0
 0023771,0.00003252,0.00015254,-0.00001661,0.00001454,-0.00000669,0.000
 10842,0.00014676,-0.00003258,-0.00001921,-0.00008131,0.00000534,-0.000
 11169,-0.00008179,-0.00001335,-0.00000522,-0.00001874,0.00001945,0.000
 01131,0.00000042,0.00000716,0.00000034,-0.00000866,-0.00003854,-0.0000
 0604,-0.00000302,-0.00000945,-0.00000185,-0.00000262,-0.00000721,-0.00
 000047,0.00001801,-0.00003599,-0.00127544,0.00230385,0.00626745,0.0075
 5810,-0.01214567,-0.04403928,0.21250364,-0.22208235,0.00002362,0.00006
 731,0.00003324,-0.00001597,-0.00000643,-0.00000186,0.00001603,0.000019
 67,0.00001176,0.00001354,-0.00000975,-0.00001146,0.00001145,-0.0000065
 7,0.00000562,0.00000431,0.00000002,-0.00000334,-0.00000298,0.00000048,
 -0.00000139,0.00001643,0.00000050,0.00000572,0.00000977,-0.00007139,-0
 .00003061,-0.00039581,0.00036892,0.00051200,-0.00013071,-0.00010338,-0
 .00046458,-0.00401422,-0.00080659,-0.00011246,0.03873316,-0.20156156,0
 .22366303,0.00039399,-0.00015367,0.00055357,-0.00066078,0.00053317,-0.
 00089862,0.00077620,0.00011473,0.00021822,-0.00012022,0.00005067,-0.00
 012704,0.00001872,-0.00014479,-0.00025824,0.00004151,0.00001819,0.0001
 2302,-0.00006212,0.00008784,0.00014812,0.00002798,0.00002059,0.0000254
 2,-0.00002321,-0.00002667,-0.00000301,-0.00001201,-0.00000342,0.000014
 49,0.00005343,0.00000577,0.00000775,0.00001792,0.00000367,0.00000134,0
 .00000677,-0.00000300,-0.00002324,0.00214010,-0.00182238,-0.00023829,-
 0.01728608,-0.03424819,-0.01665971,-0.06736079,-0.07726087,-0.05614673
 ,-0.00002929,-0.00007322,-0.00000296,0.00004618,0.00001371,0.00002237,
 -0.00000553,-0.00000619,-0.00001758,-0.00001965,0.00001196,0.00001907,
 -0.00001618,0.00000452,-0.00000922,-0.00000619,0.00000209,0.00000472,0
 .00000394,0.00000112,0.00000165,-0.00001852,0.00000424,-0.00001104,-0.
 00058904,0.00095548,0.00090958,-0.00008320,0.00010172,0.00013435,-0.00
 551728,0.00158917,-0.00211900,0.00132340,0.00048261,0.00024600,-0.0000
 2156,0.00218425,0.00320123,0.08698151,0.00000392,-0.00015676,0.0001586
 4,0.00018517,0.00019262,-0.00034714,0.00013812,-0.00002938,0.00012147,
 -0.00000520,0.00003579,-0.00000514,0.00002005,-0.00002386,-0.00005635,
 -0.00000073,-0.00000167,0.00002419,-0.00001448,0.00002297,0.00003192,0
 .00000332,0.00000479,0.00000013,-0.00000264,-0.00000376,-0.00000233,-0
 .00000149,-0.00000193,0.00000003,0.00000255,0.00000030,0.00000380,0.00
 000465,0.00000058,-0.00000161,-0.00000100,-0.00000128,0.00000222,0.001
 25273,0.00088610,0.00137901,0.00446459,0.00433899,-0.00080518,-0.10614
 077,-0.32987981,-0.11054517,-0.00000681,-0.00002547,-0.00000984,0.0000
 1269,0.00000008,0.00000661,0.00000352,0.00000112,-0.00000274,-0.000002
 31,0.00000333,0.00000144,0.00000011,0.,0.00000087,-0.00000047,0.000000
 97,0.00000051,0.00000062,0.00000035,0.00000006,0.00000055,0.00000147,-
 0.00000263,-0.00062354,-0.00001071,0.00020561,-0.00015972,-0.00012406,
 0.00002554,0.00105448,0.00230305,0.00032645,-0.00020819,0.00054574,0.0
 0007473,-0.00753665,-0.02472979,-0.01663165,0.10755692,0.34665022,-0.0
 0021856,0.00031641,-0.00033437,0.00084449,-0.00041280,0.00040335,-0.00
 033136,0.00001518,-0.00011498,0.00011708,-0.00003027,0.00004912,0.0001
 9251,-0.00011907,0.00013172,-0.00012403,0.00008830,-0.00014951,-0.0001
 6836,0.00003920,-0.00005101,-0.00001160,-0.00001709,-0.00000642,0.0000
 1800,0.00002184,-0.00000247,0.00000841,0.00000526,-0.00000983,-0.00004
 294,-0.00000278,-0.00000365,-0.00000906,-0.00000236,-0.00000156,-0.000
 00969,0.00000817,0.00001949,0.00004781,0.00176155,0.00123168,0.0023715
 8,-0.01348631,-0.00765277,-0.08117893,-0.14223572,-0.09838254,0.000045
 53,0.00004369,-0.00003151,-0.00001858,-0.00000467,-0.00000824,0.000014
 26,-0.00000956,0.00003232,0.00001016,-0.00000763,-0.00000828,0.0000071
 2,-0.00000570,0.00000193,0.00000485,-0.00000336,-0.00000331,-0.0000031
 2,-0.00000209,-0.00000128,0.00002457,-0.00001341,0.00000661,-0.0001925
 9,-0.00014671,0.00048115,0.00006155,0.00009112,-0.00003858,-0.00414804
 ,0.00086132,-0.00061019,-0.00011471,-0.00020121,-0.00048801,0.01191987
 ,0.02740214,0.00837742,0.07088378,0.12604657,0.09716371\\-0.00000132,0
 .00000111,0.00000076,0.00000524,0.00000052,-0.00000870,0.00000360,-0.0
 0000033,0.00000112,0.00000285,0.00000154,-0.00000155,-0.00000588,-0.00
 000682,0.00000330,-0.00000644,0.00000309,0.00000077,0.00000106,0.00000
 102,-0.00000082,-0.00000408,0.00000558,0.00000325,0.00000431,-0.000007
 36,0.00000400,-0.00000024,0.00000018,0.00000067,-0.00000063,-0.0000005
 1,-0.00000008,-0.00000138,0.00000104,-0.00000005,0.00000171,0.00000343
 ,-0.00000457,-0.00000297,-0.00000750,0.00000053,-0.00000229,0.00000901
 ,0.00000018,-0.00000046,-0.00000207,0.00000130,0.00000006,0.00000009,-
 0.00000021,-0.00000020,0.00000105,-0.00000150,0.00000083,0.00000077,-0
 .00000002,-0.00000051,-0.00000008,-0.00000097,-0.00000039,0.00000128,-
 0.00000087,0.00000028,-0.00000030,-0.00000010,-0.00000067,-0.00000009,
 -0.00000022,0.00000558,-0.00000364,-0.00000093,0.00000282,0.00000178,0
 .00000363,0.00000031,0.00000206,0.00000078,0.00000022,-0.00000218,-0.0
 0000098,-0.00000262,-0.00000272,0.00000076,0.00000081,-0.00000016,0.00
 000068,0.00000041,0.00000023,-0.00000016\\\@


 HONESTY IN A LAWYER IS LIKE A HEN'S HIND LEGS.
  -- MAGNUS OLESON, LAKE WOBEGON PATRIARCH, C.1875
 Job cpu time:       0 days  2 hours  1 minutes 50.0 seconds.
 File lengths (MBytes):  RWF=    415 Int=      0 D2E=      0 Chk=     13 Scr=      1
 Normal termination of Gaussian 09 at Wed Jul 28 23:23:42 2021.
