 Entering Gaussian System, Link 0=g09
 Input=opt_freq-conf-490.com
 Output=opt_freq-conf-490.log
 Initial command:
 /aerosol/software/g09/l1.exe "/scratch/nicole/10627/Gau-83423.inp" -scrdir="/scratch/nicole/10627/"
 Entering Link 1 = /aerosol/software/g09/l1.exe PID=     83428.
  
 Copyright (c) 1988,1990,1992,1993,1995,1998,2003,2009,2013,
            Gaussian, Inc.  All Rights Reserved.
  
 This is part of the Gaussian(R) 09 program.  It is based on
 the Gaussian(R) 03 system (copyright 2003, Gaussian, Inc.),
 the Gaussian(R) 98 system (copyright 1998, Gaussian, Inc.),
 the Gaussian(R) 94 system (copyright 1995, Gaussian, Inc.),
 the Gaussian 92(TM) system (copyright 1992, Gaussian, Inc.),
 the Gaussian 90(TM) system (copyright 1990, Gaussian, Inc.),
 the Gaussian 88(TM) system (copyright 1988, Gaussian, Inc.),
 the Gaussian 86(TM) system (copyright 1986, Carnegie Mellon
 University), and the Gaussian 82(TM) system (copyright 1983,
 Carnegie Mellon University). Gaussian is a federally registered
 trademark of Gaussian, Inc.
  
 This software contains proprietary and confidential information,
 including trade secrets, belonging to Gaussian, Inc.
  
 This software is provided under written license and may be
 used, copied, transmitted, or stored only in accord with that
 written license.
  
 The following legend is applicable only to US Government
 contracts under FAR:
  
                    RESTRICTED RIGHTS LEGEND
  
 Use, reproduction and disclosure by the US Government is
 subject to restrictions as set forth in subparagraphs (a)
 and (c) of the Commercial Computer Software - Restricted
 Rights clause in FAR 52.227-19.
  
 Gaussian, Inc.
 340 Quinnipiac St., Bldg. 40, Wallingford CT 06492
  
  
 ---------------------------------------------------------------
 Warning -- This program may not be used in any manner that
 competes with the business of Gaussian, Inc. or will provide
 assistance to any competitor of Gaussian, Inc.  The licensee
 of this program is prohibited from giving any competitor of
 Gaussian, Inc. access to this program.  By using this program,
 the user acknowledges that Gaussian, Inc. is engaged in the
 business of creating and licensing software in the field of
 computational chemistry and represents and warrants to the
 licensee that it is not a competitor of Gaussian, Inc. and that
 it will not use this program in any manner prohibited above.
 ---------------------------------------------------------------
  

 Cite this work as:
 Gaussian 09, Revision D.01,
 M. J. Frisch, G. W. Trucks, H. B. Schlegel, G. E. Scuseria, 
 M. A. Robb, J. R. Cheeseman, G. Scalmani, V. Barone, B. Mennucci, 
 G. A. Petersson, H. Nakatsuji, M. Caricato, X. Li, H. P. Hratchian, 
 A. F. Izmaylov, J. Bloino, G. Zheng, J. L. Sonnenberg, M. Hada, 
 M. Ehara, K. Toyota, R. Fukuda, J. Hasegawa, M. Ishida, T. Nakajima, 
 Y. Honda, O. Kitao, H. Nakai, T. Vreven, J. A. Montgomery, Jr., 
 J. E. Peralta, F. Ogliaro, M. Bearpark, J. J. Heyd, E. Brothers, 
 K. N. Kudin, V. N. Staroverov, T. Keith, R. Kobayashi, J. Normand, 
 K. Raghavachari, A. Rendell, J. C. Burant, S. S. Iyengar, J. Tomasi, 
 M. Cossi, N. Rega, J. M. Millam, M. Klene, J. E. Knox, J. B. Cross, 
 V. Bakken, C. Adamo, J. Jaramillo, R. Gomperts, R. E. Stratmann, 
 O. Yazyev, A. J. Austin, R. Cammi, C. Pomelli, J. W. Ochterski, 
 R. L. Martin, K. Morokuma, V. G. Zakrzewski, G. A. Voth, 
 P. Salvador, J. J. Dannenberg, S. Dapprich, A. D. Daniels, 
 O. Farkas, J. B. Foresman, J. V. Ortiz, J. Cioslowski, 
 and D. J. Fox, Gaussian, Inc., Wallingford CT, 2013.
 
 ******************************************
 Gaussian 09:  ES64L-G09RevD.01 24-Apr-2013
                28-Jul-2021 
 ******************************************
 %mem=2gb
 %nproc=4
 Will use up to    4 processors via shared memory.
 %chk=conf-490.chk
 ----------------------------------------------------------------------
 # B3LYP/6-311G(d,p) opt=calcfc freq=noraman nosymm integral(ultrafineg
 rid)
 ----------------------------------------------------------------------
 1/10=4,14=-1,18=20,19=15,26=4,38=1/1,3;
 2/9=110,12=2,15=1,17=6,18=5,40=1/2;
 3/5=4,6=6,7=101,11=2,16=1,25=1,30=1,71=2,74=-5,75=-5,140=1/1,2,3;
 4//1;
 5/5=2,38=5/2;
 8/6=4,10=90,11=11/1;
 11/6=1,8=1,9=11,15=111,16=1,31=1/1,2,10;
 10/6=1,13=1,31=1/2;
 6/7=2,8=2,9=2,10=2,28=1/1;
 7/10=1,18=20,25=1,30=1/1,2,3,16;
 1/10=4,14=-1,18=20,19=15,26=4/3(2);
 2/9=110,15=1/2;
 99//99;
 2/9=110,15=1/2;
 3/5=4,6=6,7=101,11=2,16=1,25=1,30=1,71=1,74=-5,75=-5/1,2,3;
 4/5=5,16=3,69=1/1;
 5/5=2,38=5/2;
 7/30=1/1,2,3,16;
 1/14=-1,18=20,19=15,26=4/3(-5);
 2/9=110,15=1/2;
 6/7=2,8=2,9=2,10=2,19=2,28=1/1;
 99/9=1/99;
 ------------------------------------------------------------
 Candidate Structure: Conf:490 OPT and FREQ calc in gas phase
 ------------------------------------------------------------
 Symbolic Z-matrix:
 Charge =  0 Multiplicity = 1
 O                     0.913     0.9289   -2.24247 
 C                     1.56627   0.4006   -1.35321 
 N                     1.05027   0.12252  -0.13577 
 C                    -0.32435   0.42458   0.18659 
 C                    -0.43043   0.50298   1.702 
 O                    -1.3911    1.30232   2.19774 
 O                     0.28298  -0.12782   2.43433 
 C                    -1.257    -0.67083  -0.37914 
 C                    -2.70556  -0.35734  -0.2054 
 C                    -3.62833   0.20778  -1.04377 
 N                    -4.84486   0.36254  -0.40561 
 C                    -4.65235  -0.10291   0.80672 
 N                    -3.384    -0.55819   0.97765 
 C                     3.01793  -0.01984  -1.55981 
 C                     3.91774   0.14247  -0.34199 
 N                     3.5602   -0.81054   0.72089 
 H                     1.63306  -0.33931   0.55327 
 H                    -0.58842   1.37988  -0.27792 
 H                    -1.92064   1.69836   1.49395 
 H                    -1.03512  -0.75151  -1.44155 
 H                    -1.00271  -1.62409   0.08654 
 H                    -3.48786   0.51616  -2.06882 
 H                    -5.37716  -0.13527   1.60067 
 H                    -2.98236  -0.89499   1.84194 
 H                     3.0311   -1.06763  -1.88145 
 H                     3.38508   0.57857  -2.39458 
 H                     4.96258   0.03916  -0.65667 
 H                     3.80551   1.15342   0.05491 
 H                     4.0109   -0.55718   1.58976 
 H                     3.87546  -1.74291   0.48584 
 

 GradGradGradGradGradGradGradGradGradGradGradGradGradGradGradGradGradGrad
 Berny optimization.
 Initialization pass.
                           ----------------------------
                           !    Initial Parameters    !
                           ! (Angstroms and Degrees)  !
 --------------------------                            --------------------------
 ! Name  Definition              Value          Derivative Info.                !
 --------------------------------------------------------------------------------
 ! R1    R(1,2)                  1.2234         calculate D2E/DX2 analytically  !
 ! R2    R(2,3)                  1.3512         calculate D2E/DX2 analytically  !
 ! R3    R(2,14)                 1.5254         calculate D2E/DX2 analytically  !
 ! R4    R(3,4)                  1.4439         calculate D2E/DX2 analytically  !
 ! R5    R(3,17)                 1.0138         calculate D2E/DX2 analytically  !
 ! R6    R(4,5)                  1.5211         calculate D2E/DX2 analytically  !
 ! R7    R(4,8)                  1.5459         calculate D2E/DX2 analytically  !
 ! R8    R(4,18)                 1.0946         calculate D2E/DX2 analytically  !
 ! R9    R(5,6)                  1.3445         calculate D2E/DX2 analytically  !
 ! R10   R(5,7)                  1.2013         calculate D2E/DX2 analytically  !
 ! R11   R(6,19)                 0.9657         calculate D2E/DX2 analytically  !
 ! R12   R(8,9)                  1.4922         calculate D2E/DX2 analytically  !
 ! R13   R(8,20)                 1.0883         calculate D2E/DX2 analytically  !
 ! R14   R(8,21)                 1.091          calculate D2E/DX2 analytically  !
 ! R15   R(9,10)                 1.3688         calculate D2E/DX2 analytically  !
 ! R16   R(9,13)                 1.3785         calculate D2E/DX2 analytically  !
 ! R17   R(10,11)                1.3824         calculate D2E/DX2 analytically  !
 ! R18   R(10,22)                1.0796         calculate D2E/DX2 analytically  !
 ! R19   R(11,12)                1.3128         calculate D2E/DX2 analytically  !
 ! R20   R(12,13)                1.3584         calculate D2E/DX2 analytically  !
 ! R21   R(12,23)                1.0755         calculate D2E/DX2 analytically  !
 ! R22   R(13,24)                1.0108         calculate D2E/DX2 analytically  !
 ! R23   R(14,15)                1.5229         calculate D2E/DX2 analytically  !
 ! R24   R(14,25)                1.0961         calculate D2E/DX2 analytically  !
 ! R25   R(14,26)                1.0907         calculate D2E/DX2 analytically  !
 ! R26   R(15,16)                1.4717         calculate D2E/DX2 analytically  !
 ! R27   R(15,27)                1.0961         calculate D2E/DX2 analytically  !
 ! R28   R(15,28)                1.0919         calculate D2E/DX2 analytically  !
 ! R29   R(16,29)                1.0111         calculate D2E/DX2 analytically  !
 ! R30   R(16,30)                1.0119         calculate D2E/DX2 analytically  !
 ! A1    A(1,2,3)              122.6757         calculate D2E/DX2 analytically  !
 ! A2    A(1,2,14)             121.9219         calculate D2E/DX2 analytically  !
 ! A3    A(3,2,14)             115.3873         calculate D2E/DX2 analytically  !
 ! A4    A(2,3,4)              121.4445         calculate D2E/DX2 analytically  !
 ! A5    A(2,3,17)             119.1189         calculate D2E/DX2 analytically  !
 ! A6    A(4,3,17)             119.3977         calculate D2E/DX2 analytically  !
 ! A7    A(3,4,5)              107.4332         calculate D2E/DX2 analytically  !
 ! A8    A(3,4,8)              110.1472         calculate D2E/DX2 analytically  !
 ! A9    A(3,4,18)             108.5134         calculate D2E/DX2 analytically  !
 ! A10   A(5,4,8)              111.0402         calculate D2E/DX2 analytically  !
 ! A11   A(5,4,18)             111.1595         calculate D2E/DX2 analytically  !
 ! A12   A(8,4,18)             108.5163         calculate D2E/DX2 analytically  !
 ! A13   A(4,5,6)              116.6033         calculate D2E/DX2 analytically  !
 ! A14   A(4,5,7)              122.6042         calculate D2E/DX2 analytically  !
 ! A15   A(6,5,7)              120.7797         calculate D2E/DX2 analytically  !
 ! A16   A(5,6,19)             111.5252         calculate D2E/DX2 analytically  !
 ! A17   A(4,8,9)              113.215          calculate D2E/DX2 analytically  !
 ! A18   A(4,8,20)             106.6644         calculate D2E/DX2 analytically  !
 ! A19   A(4,8,21)             108.803          calculate D2E/DX2 analytically  !
 ! A20   A(9,8,20)             109.095          calculate D2E/DX2 analytically  !
 ! A21   A(9,8,21)             111.1082         calculate D2E/DX2 analytically  !
 ! A22   A(20,8,21)            107.7212         calculate D2E/DX2 analytically  !
 ! A23   A(8,9,10)             132.0529         calculate D2E/DX2 analytically  !
 ! A24   A(8,9,13)             123.166          calculate D2E/DX2 analytically  !
 ! A25   A(10,9,13)            104.7145         calculate D2E/DX2 analytically  !
 ! A26   A(9,10,11)            110.8988         calculate D2E/DX2 analytically  !
 ! A27   A(9,10,22)            127.7144         calculate D2E/DX2 analytically  !
 ! A28   A(11,10,22)           121.3863         calculate D2E/DX2 analytically  !
 ! A29   A(10,11,12)           104.9249         calculate D2E/DX2 analytically  !
 ! A30   A(11,12,13)           111.8363         calculate D2E/DX2 analytically  !
 ! A31   A(11,12,23)           126.409          calculate D2E/DX2 analytically  !
 ! A32   A(13,12,23)           121.7538         calculate D2E/DX2 analytically  !
 ! A33   A(9,13,12)            107.6208         calculate D2E/DX2 analytically  !
 ! A34   A(9,13,24)            125.9311         calculate D2E/DX2 analytically  !
 ! A35   A(12,13,24)           126.1763         calculate D2E/DX2 analytically  !
 ! A36   A(2,14,15)            115.1268         calculate D2E/DX2 analytically  !
 ! A37   A(2,14,25)            108.34           calculate D2E/DX2 analytically  !
 ! A38   A(2,14,26)            105.8295         calculate D2E/DX2 analytically  !
 ! A39   A(15,14,25)           109.235          calculate D2E/DX2 analytically  !
 ! A40   A(15,14,26)           110.7724         calculate D2E/DX2 analytically  !
 ! A41   A(25,14,26)           107.2067         calculate D2E/DX2 analytically  !
 ! A42   A(14,15,16)           111.4072         calculate D2E/DX2 analytically  !
 ! A43   A(14,15,27)           108.8818         calculate D2E/DX2 analytically  !
 ! A44   A(14,15,28)           109.1871         calculate D2E/DX2 analytically  !
 ! A45   A(16,15,27)           112.204          calculate D2E/DX2 analytically  !
 ! A46   A(16,15,28)           108.1845         calculate D2E/DX2 analytically  !
 ! A47   A(27,15,28)           106.8347         calculate D2E/DX2 analytically  !
 ! A48   A(15,16,29)           110.4925         calculate D2E/DX2 analytically  !
 ! A49   A(15,16,30)           110.6847         calculate D2E/DX2 analytically  !
 ! A50   A(29,16,30)           106.9547         calculate D2E/DX2 analytically  !
 ! D1    D(1,2,3,4)              0.6325         calculate D2E/DX2 analytically  !
 ! D2    D(1,2,3,17)           178.3495         calculate D2E/DX2 analytically  !
 ! D3    D(14,2,3,4)          -177.9788         calculate D2E/DX2 analytically  !
 ! D4    D(14,2,3,17)           -0.2618         calculate D2E/DX2 analytically  !
 ! D5    D(1,2,14,15)          144.5836         calculate D2E/DX2 analytically  !
 ! D6    D(1,2,14,25)          -92.813          calculate D2E/DX2 analytically  !
 ! D7    D(1,2,14,26)           21.8904         calculate D2E/DX2 analytically  !
 ! D8    D(3,2,14,15)          -36.7936         calculate D2E/DX2 analytically  !
 ! D9    D(3,2,14,25)           85.8098         calculate D2E/DX2 analytically  !
 ! D10   D(3,2,14,26)         -159.4868         calculate D2E/DX2 analytically  !
 ! D11   D(2,3,4,5)           -158.5048         calculate D2E/DX2 analytically  !
 ! D12   D(2,3,4,8)             80.4281         calculate D2E/DX2 analytically  !
 ! D13   D(2,3,4,18)           -38.2303         calculate D2E/DX2 analytically  !
 ! D14   D(17,3,4,5)            23.7844         calculate D2E/DX2 analytically  !
 ! D15   D(17,3,4,8)           -97.2827         calculate D2E/DX2 analytically  !
 ! D16   D(17,3,4,18)          144.0588         calculate D2E/DX2 analytically  !
 ! D17   D(3,4,5,6)            151.9438         calculate D2E/DX2 analytically  !
 ! D18   D(3,4,5,7)            -29.3497         calculate D2E/DX2 analytically  !
 ! D19   D(8,4,5,6)            -87.5523         calculate D2E/DX2 analytically  !
 ! D20   D(8,4,5,7)             91.1542         calculate D2E/DX2 analytically  !
 ! D21   D(18,4,5,6)            33.3616         calculate D2E/DX2 analytically  !
 ! D22   D(18,4,5,7)          -147.9319         calculate D2E/DX2 analytically  !
 ! D23   D(3,4,8,9)           -174.1792         calculate D2E/DX2 analytically  !
 ! D24   D(3,4,8,20)           -54.1825         calculate D2E/DX2 analytically  !
 ! D25   D(3,4,8,21)            61.7659         calculate D2E/DX2 analytically  !
 ! D26   D(5,4,8,9)             66.9364         calculate D2E/DX2 analytically  !
 ! D27   D(5,4,8,20)          -173.0669         calculate D2E/DX2 analytically  !
 ! D28   D(5,4,8,21)           -57.1185         calculate D2E/DX2 analytically  !
 ! D29   D(18,4,8,9)           -55.5225         calculate D2E/DX2 analytically  !
 ! D30   D(18,4,8,20)           64.4741         calculate D2E/DX2 analytically  !
 ! D31   D(18,4,8,21)         -179.5774         calculate D2E/DX2 analytically  !
 ! D32   D(4,5,6,19)             2.5046         calculate D2E/DX2 analytically  !
 ! D33   D(7,5,6,19)          -176.2271         calculate D2E/DX2 analytically  !
 ! D34   D(4,8,9,10)            96.2482         calculate D2E/DX2 analytically  !
 ! D35   D(4,8,9,13)           -80.3055         calculate D2E/DX2 analytically  !
 ! D36   D(20,8,9,10)          -22.3509         calculate D2E/DX2 analytically  !
 ! D37   D(20,8,9,13)          161.0954         calculate D2E/DX2 analytically  !
 ! D38   D(21,8,9,10)         -140.9653         calculate D2E/DX2 analytically  !
 ! D39   D(21,8,9,13)           42.4809         calculate D2E/DX2 analytically  !
 ! D40   D(8,9,10,11)         -176.74           calculate D2E/DX2 analytically  !
 ! D41   D(8,9,10,22)            3.0061         calculate D2E/DX2 analytically  !
 ! D42   D(13,9,10,11)           0.2778         calculate D2E/DX2 analytically  !
 ! D43   D(13,9,10,22)        -179.9761         calculate D2E/DX2 analytically  !
 ! D44   D(8,9,13,12)          176.7648         calculate D2E/DX2 analytically  !
 ! D45   D(8,9,13,24)            2.4705         calculate D2E/DX2 analytically  !
 ! D46   D(10,9,13,12)          -0.5902         calculate D2E/DX2 analytically  !
 ! D47   D(10,9,13,24)        -174.8844         calculate D2E/DX2 analytically  !
 ! D48   D(9,10,11,12)           0.1513         calculate D2E/DX2 analytically  !
 ! D49   D(22,10,11,12)       -179.6135         calculate D2E/DX2 analytically  !
 ! D50   D(10,11,12,13)         -0.5434         calculate D2E/DX2 analytically  !
 ! D51   D(10,11,12,23)        179.1346         calculate D2E/DX2 analytically  !
 ! D52   D(11,12,13,9)           0.7367         calculate D2E/DX2 analytically  !
 ! D53   D(11,12,13,24)        175.0131         calculate D2E/DX2 analytically  !
 ! D54   D(23,12,13,9)        -178.9585         calculate D2E/DX2 analytically  !
 ! D55   D(23,12,13,24)         -4.6821         calculate D2E/DX2 analytically  !
 ! D56   D(2,14,15,16)          68.7485         calculate D2E/DX2 analytically  !
 ! D57   D(2,14,15,27)        -166.9823         calculate D2E/DX2 analytically  !
 ! D58   D(2,14,15,28)         -50.6803         calculate D2E/DX2 analytically  !
 ! D59   D(25,14,15,16)        -53.3744         calculate D2E/DX2 analytically  !
 ! D60   D(25,14,15,27)         70.8948         calculate D2E/DX2 analytically  !
 ! D61   D(25,14,15,28)       -172.8032         calculate D2E/DX2 analytically  !
 ! D62   D(26,14,15,16)       -171.2428         calculate D2E/DX2 analytically  !
 ! D63   D(26,14,15,27)        -46.9737         calculate D2E/DX2 analytically  !
 ! D64   D(26,14,15,28)         69.3284         calculate D2E/DX2 analytically  !
 ! D65   D(14,15,16,29)       -166.9431         calculate D2E/DX2 analytically  !
 ! D66   D(14,15,16,30)         74.7706         calculate D2E/DX2 analytically  !
 ! D67   D(27,15,16,29)         70.6818         calculate D2E/DX2 analytically  !
 ! D68   D(27,15,16,30)        -47.6044         calculate D2E/DX2 analytically  !
 ! D69   D(28,15,16,29)        -46.9204         calculate D2E/DX2 analytically  !
 ! D70   D(28,15,16,30)       -165.2066         calculate D2E/DX2 analytically  !
 --------------------------------------------------------------------------------
 Trust Radius=3.00D-01 FncErr=1.00D-07 GrdErr=1.00D-06
 Number of steps in this run=    160 maximum allowed number of steps=    180.
 GradGradGradGradGradGradGradGradGradGradGradGradGradGradGradGradGradGrad

                          Input orientation:                          
 ---------------------------------------------------------------------
 Center     Atomic      Atomic             Coordinates (Angstroms)
 Number     Number       Type             X           Y           Z
 ---------------------------------------------------------------------
      1          8           0        0.912995    0.928898   -2.242469
      2          6           0        1.566268    0.400600   -1.353211
      3          7           0        1.050270    0.122519   -0.135770
      4          6           0       -0.324350    0.424580    0.186588
      5          6           0       -0.430428    0.502982    1.702000
      6          8           0       -1.391102    1.302319    2.197742
      7          8           0        0.282982   -0.127818    2.434331
      8          6           0       -1.257004   -0.670830   -0.379137
      9          6           0       -2.705561   -0.357344   -0.205402
     10          6           0       -3.628335    0.207776   -1.043768
     11          7           0       -4.844860    0.362539   -0.405613
     12          6           0       -4.652348   -0.102914    0.806716
     13          7           0       -3.383998   -0.558186    0.977647
     14          6           0        3.017931   -0.019844   -1.559812
     15          6           0        3.917736    0.142471   -0.341993
     16          7           0        3.560197   -0.810536    0.720886
     17          1           0        1.633057   -0.339307    0.553266
     18          1           0       -0.588425    1.379876   -0.277918
     19          1           0       -1.920635    1.698362    1.493947
     20          1           0       -1.035118   -0.751509   -1.441555
     21          1           0       -1.002711   -1.624088    0.086538
     22          1           0       -3.487863    0.516163   -2.068825
     23          1           0       -5.377159   -0.135273    1.600669
     24          1           0       -2.982363   -0.894988    1.841938
     25          1           0        3.031100   -1.067628   -1.881448
     26          1           0        3.385082    0.578567   -2.394580
     27          1           0        4.962581    0.039163   -0.656669
     28          1           0        3.805507    1.153424    0.054911
     29          1           0        4.010903   -0.557177    1.589758
     30          1           0        3.875463   -1.742913    0.485843
 ---------------------------------------------------------------------
                    Distance matrix (angstroms):
                    1          2          3          4          5
     1  O    0.000000
     2  C    1.223374   0.000000
     3  N    2.259928   1.351202   0.000000
     4  C    2.772306   2.438441   1.443861   0.000000
     5  C    4.188678   3.651245   2.390526   1.521142   0.000000
     6  O    5.016351   4.708333   3.577359   2.439903   1.344468
     7  O    4.835910   4.033798   2.693848   2.392979   1.201321
     8  C    3.277199   3.172956   2.451968   1.545902   2.528279
     9  C    4.347184   4.487813   3.787002   2.536775   3.091047
    10  C    4.751903   5.207383   4.766662   3.532293   4.225280
    11  N    6.070230   6.480891   5.906181   4.559557   4.893768
    12  C    6.429246   6.602272   5.784371   4.403904   4.358124
    13  N    5.571779   5.554935   4.622314   3.309539   3.220921
    14  C    2.407672   1.525379   2.433075   3.797139   4.775347
    15  C    3.641256   2.572663   2.874942   4.284190   4.818133
    16  N    4.337601   3.121615   2.811438   4.111045   4.314279
    17  H    3.153247   2.046113   1.013753   2.132937   2.507391
    18  H    2.513385   2.599603   2.070380   1.094574   2.171170
    19  H    4.752089   4.684975   3.737049   2.424837   1.921701
    20  H    2.694509   2.846467   2.611100   2.130546   3.438216
    21  H    3.951195   3.573779   2.704587   2.160376   2.731602
    22  H    4.423580   5.105850   4.948364   3.886269   4.854606
    23  H    7.447699   7.564638   6.662846   5.276736   4.988766
    24  H    5.931505   5.707676   4.605299   3.398011   2.913121
    25  H    2.933056   2.140201   2.896123   4.214558   5.223991
    26  H    2.501416   2.103380   3.280480   4.521728   5.598732
    27  H    4.439091   3.485792   3.947716   5.367613   5.904489
    28  H    3.700675   2.750226   2.947958   4.195745   4.591201
    29  H    5.146981   3.943938   3.493534   4.661239   4.567489
    30  H    4.833060   3.648170   3.442086   4.735611   5.006374
                    6          7          8          9         10
     6  O    0.000000
     7  O    2.214458   0.000000
     8  C    3.248324   3.253003   0.000000
     9  C    3.202715   3.994029   1.492238   0.000000
    10  C    4.087862   5.244826   2.614745   1.368842   0.000000
    11  N    4.425956   5.882219   3.733800   2.266035   1.382435
    12  C    3.813838   5.196849   3.641035   2.208868   2.137620
    13  N    2.986929   3.969117   2.525402   1.378485   2.175435
    14  C    5.941960   4.841981   4.482505   5.891239   6.670154
    15  C    5.998272   4.581754   5.238395   6.643534   7.578914
    16  N    5.582170   3.760603   4.943177   6.350048   7.471676
    17  H    3.813761   2.325045   3.054789   4.404487   5.525582
    18  H    2.603689   3.223165   2.159315   2.739610   3.346849
    19  H    0.965703   3.012505   3.092236   2.780256   3.402658
    20  H    4.193974   4.141120   1.088335   2.115140   2.793427
    21  H    3.629310   3.066589   1.090972   2.142328   3.395175
    22  H    4.818510   5.908672   3.039857   2.201671   1.079619
    23  H    4.279231   5.721210   4.602405   3.232436   3.188905
    24  H    2.736214   3.406165   2.821397   2.134779   3.156052
    25  H    6.466243   5.202052   4.560945   6.018547   6.832015
    26  H    6.665221   5.782767   5.212674   6.539447   7.151936
    27  H    7.079018   5.610776   6.266127   7.691636   8.601285
    28  H    5.623045   4.439753   5.398641   6.689110   7.573860
    29  H    5.745348   3.846433   5.624972   6.955100   8.116561
    30  H    6.319869   4.394435   5.314111   6.760732   7.902650
                   11         12         13         14         15
    11  N    0.000000
    12  C    1.312802   0.000000
    13  N    2.212524   1.358382   0.000000
    14  C    7.956247   8.027486   6.907474   0.000000
    15  C    8.765590   8.650208   7.453032   1.522852   0.000000
    16  N    8.560963   8.243421   6.953520   2.474031   1.471655
    17  H    6.586004   6.294953   5.039727   2.546573   2.500672
    18  H    4.378187   4.459885   3.625984   4.075324   4.673410
    19  H    3.734145   3.343521   2.738613   6.055337   6.314907
    20  H    4.102244   4.308102   3.377447   4.120258   5.151602
    21  H    4.353276   4.019015   2.756946   4.631374   5.245490
    22  H    2.152048   3.163545   3.232028   6.547653   7.613442
    23  H    2.134556   1.075528   2.130658   8.971037   9.499798
    24  H    3.178326   2.118470   1.010814   6.952791   7.311446
    25  H    8.139668   8.197089   7.041834   1.096118   2.149507
    26  H    8.469628   8.678306   7.647520   1.090749   2.164951
    27  H    9.815981   9.726692   8.526030   2.144950   1.096081
    28  H    8.698646   8.583642   7.447821   2.145731   1.091858
    29  H    9.124249   8.710420   7.420191   3.345820   2.056660
    30  H    9.015079   8.690001   7.371921   2.808742   2.059556
                   16         17         18         19         20
    16  N    0.000000
    17  H    1.990985   0.000000
    18  H    4.796517   2.929410   0.000000
    19  H    6.077147   4.203059   2.239581   0.000000
    20  H    5.079031   3.356841   2.469087   3.924688   0.000000
    21  H    4.678075   2.969136   3.054221   3.723179   1.759975
    22  H    7.695308   5.816443   3.515692   4.067818   2.831328
    23  H    9.005905   7.090967   5.362532   3.914226   5.337433
    24  H    6.638447   4.824060   3.924250   2.823796   3.820166
    25  H    2.667992   2.900484   4.654303   6.600278   4.102142
    26  H    3.415612   3.549913   4.572867   6.672722   4.713335
    27  H    2.141571   3.562711   5.723166   7.399780   6.100295
    28  H    2.088263   2.682563   4.412334   5.929291   5.412933
    29  H    1.011071   2.603062   5.328621   6.346635   5.889733
    30  H    1.011911   2.646326   5.501040   6.815673   5.367639
                   21         22         23         24         25
    21  H    0.000000
    22  H    3.924570   0.000000
    23  H    4.862608   4.178396   0.000000
    24  H    2.744456   4.188191   2.523970   0.000000
    25  H    4.522637   6.711213   9.148401   7.074966   0.000000
    26  H    5.500942   6.880944   9.656524   7.788697   1.760274
    27  H    6.237264   8.580893  10.584716   8.380800   2.540805
    28  H    5.552886   7.622966   9.400610   7.311952   3.046680
    29  H    5.341750   8.412418   9.397544   7.005960   3.642779
    30  H    4.895931   8.114698   9.457186   7.041857   2.602503
                   26         27         28         29         30
    26  H    0.000000
    27  H    2.408276   0.000000
    28  H    2.550926   1.756912   0.000000
    29  H    4.190050   2.511523   2.307401   0.000000
    30  H    3.731833   2.379696   2.929055   1.625712   0.000000
 Symmetry turned off by external request.
 Stoichiometry    C9H14N4O3
 Framework group  C1[X(C9H14N4O3)]
 Deg. of freedom    84
 Full point group                 C1      NOp   1
 Rotational constants (GHZ):      1.0604546      0.2826876      0.2409768
 Standard basis: 6-311G(d,p) (5D, 7F)
   372 basis functions,   624 primitive gaussians,   388 cartesian basis functions
    60 alpha electrons       60 beta electrons
       nuclear repulsion energy      1133.1818804999 Hartrees.
 NAtoms=   30 NActive=   30 NUniq=   30 SFac= 1.00D+00 NAtFMM=   60 NAOKFM=F Big=F
 Integral buffers will be    131072 words long.
 Raffenetti 2 integral format.
 Two-electron integral symmetry is turned off.
 One-electron integrals computed using PRISM.
 NBasis=   372 RedAO= T EigKep=  5.44D-04  NBF=   372
 NBsUse=   372 1.00D-06 EigRej= -1.00D+00 NBFU=   372
 ExpMin= 1.03D-01 ExpMax= 8.59D+03 ExpMxC= 1.30D+03 IAcc=3 IRadAn=         5 AccDes= 0.00D+00
 Harris functional with IExCor=  402 and IRadAn=       5 diagonalized for initial guess.
 HarFok:  IExCor=  402 AccDes= 0.00D+00 IRadAn=         5 IDoV= 1 UseB2=F ITyADJ=14
 ICtDFT=  3500011 ScaDFX=  1.000000  1.000000  1.000000  1.000000
 FoFCou: FMM=F IPFlag=           0 FMFlag=      100000 FMFlg1=           0
         NFxFlg=           0 DoJE=T BraDBF=F KetDBF=T FulRan=T
         wScrn=  0.000000 ICntrl=     500 IOpCl=  0 I1Cent=   200000004 NGrid=           0
         NMat0=    1 NMatS0=      1 NMatT0=    0 NMatD0=    1 NMtDS0=    0 NMtDT0=    0
 Symmetry not used in FoFCou.
 Requested convergence on RMS density matrix=1.00D-08 within 128 cycles.
 Requested convergence on MAX density matrix=1.00D-06.
 Requested convergence on             energy=1.00D-06.
 No special actions if energy rises.
 Integral accuracy reduced to 1.0D-05 until final iterations.
 Initial convergence to 1.0D-05 achieved.  Increase integral accuracy.
 SCF Done:  E(RB3LYP) =  -796.308494222     A.U. after   14 cycles
            NFock= 14  Conv=0.49D-08     -V/T= 2.0033
 DoSCS=F DFT=T ScalE2(SS,OS)=  1.000000  1.000000
 Range of M.O.s used for correlation:     1   372
 NBasis=   372 NAE=    60 NBE=    60 NFC=     0 NFV=     0
 NROrb=    372 NOA=    60 NOB=    60 NVA=   312 NVB=   312

 **** Warning!!: The largest alpha MO coefficient is  0.10275959D+02

 Symmetrizing basis deriv contribution to polar:
 IMax=3 JMax=2 DiffMx= 0.00D+00
 G2DrvN: will do    31 centers at a time, making    1 passes.
 Calling FoFCou, ICntrl=  3107 FMM=F I1Cent=   0 AccDes= 0.00D+00.
 End of G2Drv F.D. properties file   721 does not exist.
 End of G2Drv F.D. properties file   722 does not exist.
 End of G2Drv F.D. properties file   788 does not exist.
          IDoAtm=111111111111111111111111111111
          Differentiating once with respect to nuclear coordinates.
          There are    93 degrees of freedom in the 1st order CPHF.  IDoFFX=6 NUNeed=     0.
     87 vectors produced by pass  0 Test12= 2.01D-14 1.08D-09 XBig12= 1.61D-01 9.87D-02.
 AX will form    87 AO Fock derivatives at one time.
     87 vectors produced by pass  1 Test12= 2.01D-14 1.08D-09 XBig12= 1.82D-02 4.18D-02.
     87 vectors produced by pass  2 Test12= 2.01D-14 1.08D-09 XBig12= 2.55D-04 2.49D-03.
     87 vectors produced by pass  3 Test12= 2.01D-14 1.08D-09 XBig12= 1.05D-06 1.16D-04.
     87 vectors produced by pass  4 Test12= 2.01D-14 1.08D-09 XBig12= 2.61D-09 4.79D-06.
     79 vectors produced by pass  5 Test12= 2.01D-14 1.08D-09 XBig12= 3.66D-12 1.55D-07.
     26 vectors produced by pass  6 Test12= 2.01D-14 1.08D-09 XBig12= 4.46D-15 8.99D-09.
 InvSVY:  IOpt=1 It=  1 EMax= 6.66D-16
 Solved reduced A of dimension   540 with    93 vectors.
 End of Minotr F.D. properties file   721 does not exist.
 End of Minotr F.D. properties file   722 does not exist.
 End of Minotr F.D. properties file   788 does not exist.

 **********************************************************************

            Population analysis using the SCF density.

 **********************************************************************

 Alpha  occ. eigenvalues --  -19.18445 -19.12203 -19.07740 -14.37437 -14.32672
 Alpha  occ. eigenvalues --  -14.31505 -14.29252 -10.31875 -10.26667 -10.23778
 Alpha  occ. eigenvalues --  -10.22654 -10.21430 -10.21065 -10.19880 -10.18426
 Alpha  occ. eigenvalues --  -10.18368  -1.12742  -1.04585  -1.03645  -1.02654
 Alpha  occ. eigenvalues --   -0.93320  -0.90751  -0.87940  -0.81400  -0.77360
 Alpha  occ. eigenvalues --   -0.74139  -0.68383  -0.64937  -0.63528  -0.62354
 Alpha  occ. eigenvalues --   -0.60231  -0.58600  -0.56754  -0.54346  -0.52282
 Alpha  occ. eigenvalues --   -0.50378  -0.48817  -0.47989  -0.46731  -0.46607
 Alpha  occ. eigenvalues --   -0.45526  -0.44754  -0.43609  -0.43231  -0.42057
 Alpha  occ. eigenvalues --   -0.41391  -0.40569  -0.39947  -0.39477  -0.38767
 Alpha  occ. eigenvalues --   -0.37791  -0.35544  -0.34179  -0.29835  -0.29015
 Alpha  occ. eigenvalues --   -0.27549  -0.27151  -0.26288  -0.25135  -0.23505
 Alpha virt. eigenvalues --   -0.01642   0.00825   0.01288   0.02671   0.03215
 Alpha virt. eigenvalues --    0.04019   0.05134   0.06303   0.06519   0.07510
 Alpha virt. eigenvalues --    0.08400   0.09438   0.09574   0.10701   0.11390
 Alpha virt. eigenvalues --    0.12523   0.13332   0.14821   0.18089   0.18384
 Alpha virt. eigenvalues --    0.19082   0.20223   0.20718   0.21111   0.22205
 Alpha virt. eigenvalues --    0.23966   0.24790   0.25537   0.28098   0.30012
 Alpha virt. eigenvalues --    0.30915   0.31278   0.31803   0.33317   0.33977
 Alpha virt. eigenvalues --    0.35385   0.35721   0.36823   0.36970   0.38352
 Alpha virt. eigenvalues --    0.39936   0.40282   0.41292   0.42912   0.43206
 Alpha virt. eigenvalues --    0.43831   0.45418   0.45786   0.45925   0.46228
 Alpha virt. eigenvalues --    0.48120   0.49260   0.50227   0.51442   0.52024
 Alpha virt. eigenvalues --    0.53904   0.54206   0.54271   0.55122   0.56274
 Alpha virt. eigenvalues --    0.56950   0.57591   0.58302   0.58605   0.59479
 Alpha virt. eigenvalues --    0.59886   0.60218   0.61330   0.62122   0.62501
 Alpha virt. eigenvalues --    0.63548   0.64054   0.66123   0.66918   0.68169
 Alpha virt. eigenvalues --    0.68967   0.69821   0.70806   0.71323   0.71892
 Alpha virt. eigenvalues --    0.72850   0.73846   0.75309   0.75861   0.78483
 Alpha virt. eigenvalues --    0.79447   0.81141   0.82023   0.83091   0.85201
 Alpha virt. eigenvalues --    0.88957   0.90696   0.91834   0.93710   0.95136
 Alpha virt. eigenvalues --    0.96167   0.96426   0.98061   0.98461   0.99867
 Alpha virt. eigenvalues --    1.01159   1.01835   1.04665   1.05055   1.08456
 Alpha virt. eigenvalues --    1.10265   1.11072   1.12256   1.13484   1.16006
 Alpha virt. eigenvalues --    1.16295   1.18283   1.19985   1.22953   1.24751
 Alpha virt. eigenvalues --    1.26289   1.27905   1.28410   1.30321   1.31453
 Alpha virt. eigenvalues --    1.33842   1.35194   1.37466   1.39101   1.40220
 Alpha virt. eigenvalues --    1.41479   1.43958   1.45594   1.47214   1.48212
 Alpha virt. eigenvalues --    1.49007   1.49434   1.50749   1.52104   1.52252
 Alpha virt. eigenvalues --    1.54490   1.56011   1.57072   1.57109   1.59065
 Alpha virt. eigenvalues --    1.60346   1.61345   1.61512   1.62616   1.63522
 Alpha virt. eigenvalues --    1.64972   1.66471   1.67195   1.68362   1.69359
 Alpha virt. eigenvalues --    1.70105   1.71109   1.72310   1.72633   1.73398
 Alpha virt. eigenvalues --    1.74426   1.75665   1.76764   1.77328   1.78867
 Alpha virt. eigenvalues --    1.80001   1.83313   1.83651   1.84080   1.86721
 Alpha virt. eigenvalues --    1.87256   1.91369   1.91918   1.94359   1.96184
 Alpha virt. eigenvalues --    1.97043   1.99252   1.99692   2.01114   2.03125
 Alpha virt. eigenvalues --    2.05620   2.07631   2.09497   2.10482   2.13779
 Alpha virt. eigenvalues --    2.16384   2.16666   2.18608   2.19341   2.21909
 Alpha virt. eigenvalues --    2.23545   2.24187   2.25709   2.28372   2.29005
 Alpha virt. eigenvalues --    2.31560   2.34972   2.38062   2.40228   2.42110
 Alpha virt. eigenvalues --    2.42861   2.43765   2.44860   2.46178   2.47799
 Alpha virt. eigenvalues --    2.48994   2.50260   2.51536   2.52782   2.55183
 Alpha virt. eigenvalues --    2.55683   2.56427   2.57237   2.58051   2.59862
 Alpha virt. eigenvalues --    2.62387   2.63675   2.64969   2.65816   2.66481
 Alpha virt. eigenvalues --    2.67660   2.68060   2.68578   2.70830   2.72803
 Alpha virt. eigenvalues --    2.73273   2.76530   2.77743   2.79880   2.80694
 Alpha virt. eigenvalues --    2.81984   2.82965   2.84195   2.85732   2.86790
 Alpha virt. eigenvalues --    2.88492   2.89198   2.89567   2.92678   2.94424
 Alpha virt. eigenvalues --    2.94825   2.96906   2.98254   3.01830   3.02803
 Alpha virt. eigenvalues --    3.04254   3.06128   3.07432   3.12103   3.13759
 Alpha virt. eigenvalues --    3.16182   3.18759   3.24488   3.25684   3.31973
 Alpha virt. eigenvalues --    3.34209   3.35576   3.36158   3.39384   3.45308
 Alpha virt. eigenvalues --    3.47719   3.48867   3.56900   3.57603   3.58639
 Alpha virt. eigenvalues --    3.63713   3.65604   3.68803   3.74984   3.77516
 Alpha virt. eigenvalues --    3.79949   3.81312   3.82576   3.84265   3.84635
 Alpha virt. eigenvalues --    3.86011   3.89429   3.92178   3.99711   4.07286
 Alpha virt. eigenvalues --    4.10912   4.19667   4.29044   4.30349   4.41505
 Alpha virt. eigenvalues --    4.71130   4.75356   4.82419   4.83303   4.87416
 Alpha virt. eigenvalues --    4.92052   4.92712   4.94439   4.95055   5.04929
 Alpha virt. eigenvalues --    5.09026   5.24371   5.26237   5.53020   5.66792
 Alpha virt. eigenvalues --    5.79033  23.70785  23.74813  23.78518  23.79306
 Alpha virt. eigenvalues --   23.85318  23.87862  23.89697  23.92822  24.13744
 Alpha virt. eigenvalues --   35.51856  35.55906  35.62031  35.68160  49.83990
 Alpha virt. eigenvalues --   50.00301  50.01541
          Condensed to atoms (all electrons):
               1          2          3          4          5          6
     1  O    7.875806   0.654419  -0.118444   0.008534   0.000605   0.000000
     2  C    0.654419   4.527846   0.327131  -0.053988   0.007097  -0.000205
     3  N   -0.118444   0.327131   6.852906   0.222579  -0.022245   0.002565
     4  C    0.008534  -0.053988   0.222579   5.387026   0.237747  -0.094161
     5  C    0.000605   0.007097  -0.022245   0.237747   4.527245   0.342984
     6  O    0.000000  -0.000205   0.002565  -0.094161   0.342984   7.794001
     7  O   -0.000005  -0.000339  -0.005666  -0.111593   0.659808  -0.068736
     8  C   -0.008246  -0.008527  -0.043682   0.301920  -0.053929  -0.002895
     9  C   -0.000813   0.000043   0.008440  -0.072437  -0.006871   0.007386
    10  C    0.000046   0.000033  -0.000048  -0.000619  -0.000298  -0.000269
    11  N    0.000000   0.000000   0.000001  -0.000083  -0.000019  -0.000044
    12  C    0.000000   0.000000   0.000003   0.000360  -0.000008   0.001142
    13  N   -0.000001  -0.000004  -0.000014  -0.002616   0.002854  -0.004745
    14  C   -0.071613   0.339967  -0.103868   0.010882  -0.000200  -0.000001
    15  C    0.002782  -0.046239   0.016648  -0.000933   0.000079   0.000001
    16  N   -0.000057  -0.010957  -0.032132   0.001294  -0.000083  -0.000001
    17  H    0.001662  -0.016926   0.334808  -0.048006  -0.008620   0.001489
    18  H    0.022512  -0.006654  -0.035515   0.384692  -0.030348   0.002437
    19  H   -0.000083  -0.000052  -0.000282   0.009089  -0.033279   0.310974
    20  H    0.014175   0.003746  -0.015002  -0.024523   0.005162  -0.000288
    21  H   -0.000132  -0.000229   0.006846  -0.055089  -0.002873   0.000005
    22  H    0.000083   0.000002  -0.000015   0.000054   0.000021  -0.000008
    23  H    0.000000   0.000000   0.000000   0.000016   0.000001   0.000158
    24  H    0.000000   0.000004  -0.000059   0.000498   0.002281   0.003254
    25  H    0.000837  -0.029377   0.002029  -0.000718  -0.000008   0.000000
    26  H    0.010850  -0.035608   0.008117  -0.000488  -0.000004   0.000000
    27  H   -0.000322   0.006541  -0.000350   0.000096  -0.000003   0.000000
    28  H    0.000285  -0.004466   0.005273  -0.000532   0.000105  -0.000001
    29  H    0.000008   0.000188   0.000887  -0.000040   0.000052   0.000001
    30  H    0.000008  -0.000163   0.001223  -0.000049  -0.000017   0.000000
               7          8          9         10         11         12
     1  O   -0.000005  -0.008246  -0.000813   0.000046   0.000000   0.000000
     2  C   -0.000339  -0.008527   0.000043   0.000033   0.000000   0.000000
     3  N   -0.005666  -0.043682   0.008440  -0.000048   0.000001   0.000003
     4  C   -0.111593   0.301920  -0.072437  -0.000619  -0.000083   0.000360
     5  C    0.659808  -0.053929  -0.006871  -0.000298  -0.000019  -0.000008
     6  O   -0.068736  -0.002895   0.007386  -0.000269  -0.000044   0.001142
     7  O    7.801076   0.003573  -0.001294  -0.000023   0.000000  -0.000007
     8  C    0.003573   5.014807   0.260787  -0.031759   0.007468   0.004657
     9  C   -0.001294   0.260787   5.236195   0.562906  -0.095488  -0.124566
    10  C   -0.000023  -0.031759   0.562906   4.842678   0.501445  -0.178192
    11  N    0.000000   0.007468  -0.095488   0.501445   6.432084   0.577636
    12  C   -0.000007   0.004657  -0.124566  -0.178192   0.577636   4.760817
    13  N   -0.000119  -0.048069   0.354291  -0.078069  -0.085636   0.412855
    14  C   -0.000011  -0.001991   0.000018   0.000000   0.000000   0.000000
    15  C   -0.000112   0.000273  -0.000002   0.000000   0.000000   0.000000
    16  N   -0.000641  -0.000145  -0.000002   0.000000   0.000000   0.000000
    17  H    0.030923   0.001240  -0.000185  -0.000012   0.000000   0.000001
    18  H    0.003152  -0.048793   0.007724   0.003223  -0.000180  -0.000397
    19  H    0.004093  -0.003486   0.003717   0.000620  -0.000150   0.000469
    20  H   -0.000291   0.412365  -0.035371  -0.002141   0.000210  -0.000351
    21  H    0.005407   0.393079  -0.032188   0.001415  -0.000330   0.000029
    22  H    0.000000  -0.000340  -0.049122   0.424496  -0.024986   0.007780
    23  H   -0.000002  -0.000420   0.004957   0.006063  -0.023417   0.415639
    24  H    0.000063   0.003493  -0.037661   0.007124   0.006348  -0.022136
    25  H   -0.000005   0.000326  -0.000005   0.000000   0.000000   0.000000
    26  H    0.000001   0.000020   0.000003   0.000000   0.000000   0.000000
    27  H   -0.000005  -0.000004   0.000000   0.000000   0.000000   0.000000
    28  H    0.000031   0.000066  -0.000002   0.000000   0.000000   0.000000
    29  H    0.000503   0.000005   0.000000   0.000000   0.000000   0.000000
    30  H   -0.000073   0.000005   0.000001   0.000000   0.000000   0.000000
              13         14         15         16         17         18
     1  O   -0.000001  -0.071613   0.002782  -0.000057   0.001662   0.022512
     2  C   -0.000004   0.339967  -0.046239  -0.010957  -0.016926  -0.006654
     3  N   -0.000014  -0.103868   0.016648  -0.032132   0.334808  -0.035515
     4  C   -0.002616   0.010882  -0.000933   0.001294  -0.048006   0.384692
     5  C    0.002854  -0.000200   0.000079  -0.000083  -0.008620  -0.030348
     6  O   -0.004745  -0.000001   0.000001  -0.000001   0.001489   0.002437
     7  O   -0.000119  -0.000011  -0.000112  -0.000641   0.030923   0.003152
     8  C   -0.048069  -0.001991   0.000273  -0.000145   0.001240  -0.048793
     9  C    0.354291   0.000018  -0.000002  -0.000002  -0.000185   0.007724
    10  C   -0.078069   0.000000   0.000000   0.000000  -0.000012   0.003223
    11  N   -0.085636   0.000000   0.000000   0.000000   0.000000  -0.000180
    12  C    0.412855   0.000000   0.000000   0.000000   0.000001  -0.000397
    13  N    6.482105   0.000000   0.000000   0.000000   0.000009  -0.000450
    14  C    0.000000   5.138702   0.285679  -0.048088  -0.010255   0.003164
    15  C    0.000000   0.285679   4.947510   0.270089  -0.018410  -0.000695
    16  N    0.000000  -0.048088   0.270089   6.571973   0.071143  -0.000128
    17  H    0.000009  -0.010255  -0.018410   0.071143   0.403687   0.005511
    18  H   -0.000450   0.003164  -0.000695  -0.000128   0.005511   0.531777
    19  H    0.003110  -0.000007   0.000002   0.000000  -0.000366   0.002546
    20  H    0.003669   0.000360   0.000034   0.000005  -0.001206  -0.006700
    21  H   -0.002578   0.000148  -0.000067  -0.000095   0.002391   0.009811
    22  H    0.004185   0.000001   0.000000   0.000000  -0.000001   0.000394
    23  H   -0.038484   0.000000   0.000000   0.000000   0.000000  -0.000005
    24  H    0.352258   0.000000   0.000000   0.000000  -0.000022  -0.000027
    25  H    0.000000   0.383839  -0.035461  -0.004897  -0.000542  -0.000102
    26  H    0.000000   0.384077  -0.027288   0.004984   0.000918  -0.000066
    27  H    0.000000  -0.040169   0.405040  -0.033274   0.002682   0.000004
    28  H    0.000000  -0.045478   0.411021  -0.036576  -0.003285  -0.000216
    29  H    0.000000   0.008651  -0.032654   0.364395  -0.003245  -0.000002
    30  H    0.000000  -0.004352  -0.039176   0.360624  -0.003203   0.000013
              19         20         21         22         23         24
     1  O   -0.000083   0.014175  -0.000132   0.000083   0.000000   0.000000
     2  C   -0.000052   0.003746  -0.000229   0.000002   0.000000   0.000004
     3  N   -0.000282  -0.015002   0.006846  -0.000015   0.000000  -0.000059
     4  C    0.009089  -0.024523  -0.055089   0.000054   0.000016   0.000498
     5  C   -0.033279   0.005162  -0.002873   0.000021   0.000001   0.002281
     6  O    0.310974  -0.000288   0.000005  -0.000008   0.000158   0.003254
     7  O    0.004093  -0.000291   0.005407   0.000000  -0.000002   0.000063
     8  C   -0.003486   0.412365   0.393079  -0.000340  -0.000420   0.003493
     9  C    0.003717  -0.035371  -0.032188  -0.049122   0.004957  -0.037661
    10  C    0.000620  -0.002141   0.001415   0.424496   0.006063   0.007124
    11  N   -0.000150   0.000210  -0.000330  -0.024986  -0.023417   0.006348
    12  C    0.000469  -0.000351   0.000029   0.007780   0.415639  -0.022136
    13  N    0.003110   0.003669  -0.002578   0.004185  -0.038484   0.352258
    14  C   -0.000007   0.000360   0.000148   0.000001   0.000000   0.000000
    15  C    0.000002   0.000034  -0.000067   0.000000   0.000000   0.000000
    16  N    0.000000   0.000005  -0.000095   0.000000   0.000000   0.000000
    17  H   -0.000366  -0.001206   0.002391  -0.000001   0.000000  -0.000022
    18  H    0.002546  -0.006700   0.009811   0.000394  -0.000005  -0.000027
    19  H    0.438743   0.000025   0.000134   0.000048  -0.000012  -0.000526
    20  H    0.000025   0.503969  -0.020884   0.001622   0.000013   0.000079
    21  H    0.000134  -0.020884   0.559900   0.000002  -0.000027   0.001568
    22  H    0.000048   0.001622   0.000002   0.528921  -0.000358  -0.000305
    23  H   -0.000012   0.000013  -0.000027  -0.000358   0.526864  -0.002231
    24  H   -0.000526   0.000079   0.001568  -0.000305  -0.002231   0.447339
    25  H    0.000000  -0.000259  -0.000028   0.000000   0.000000   0.000000
    26  H    0.000001  -0.000042   0.000005   0.000000   0.000000   0.000000
    27  H    0.000000   0.000007  -0.000004   0.000000   0.000000   0.000000
    28  H    0.000000  -0.000003  -0.000011   0.000000   0.000000   0.000000
    29  H    0.000000  -0.000002   0.000000   0.000000   0.000000   0.000000
    30  H    0.000000  -0.000004   0.000029   0.000000   0.000000   0.000000
              25         26         27         28         29         30
     1  O    0.000837   0.010850  -0.000322   0.000285   0.000008   0.000008
     2  C   -0.029377  -0.035608   0.006541  -0.004466   0.000188  -0.000163
     3  N    0.002029   0.008117  -0.000350   0.005273   0.000887   0.001223
     4  C   -0.000718  -0.000488   0.000096  -0.000532  -0.000040  -0.000049
     5  C   -0.000008  -0.000004  -0.000003   0.000105   0.000052  -0.000017
     6  O    0.000000   0.000000   0.000000  -0.000001   0.000001   0.000000
     7  O   -0.000005   0.000001  -0.000005   0.000031   0.000503  -0.000073
     8  C    0.000326   0.000020  -0.000004   0.000066   0.000005   0.000005
     9  C   -0.000005   0.000003   0.000000  -0.000002   0.000000   0.000001
    10  C    0.000000   0.000000   0.000000   0.000000   0.000000   0.000000
    11  N    0.000000   0.000000   0.000000   0.000000   0.000000   0.000000
    12  C    0.000000   0.000000   0.000000   0.000000   0.000000   0.000000
    13  N    0.000000   0.000000   0.000000   0.000000   0.000000   0.000000
    14  C    0.383839   0.384077  -0.040169  -0.045478   0.008651  -0.004352
    15  C   -0.035461  -0.027288   0.405040   0.411021  -0.032654  -0.039176
    16  N   -0.004897   0.004984  -0.033274  -0.036576   0.364395   0.360624
    17  H   -0.000542   0.000918   0.002682  -0.003285  -0.003245  -0.003203
    18  H   -0.000102  -0.000066   0.000004  -0.000216  -0.000002   0.000013
    19  H    0.000000   0.000001   0.000000   0.000000   0.000000   0.000000
    20  H   -0.000259  -0.000042   0.000007  -0.000003  -0.000002  -0.000004
    21  H   -0.000028   0.000005  -0.000004  -0.000011   0.000000   0.000029
    22  H    0.000000   0.000000   0.000000   0.000000   0.000000   0.000000
    23  H    0.000000   0.000000   0.000000   0.000000   0.000000   0.000000
    24  H    0.000000   0.000000   0.000000   0.000000   0.000000   0.000000
    25  H    0.567117  -0.017019  -0.006933   0.009116  -0.000334   0.005649
    26  H   -0.017019   0.541357  -0.005043  -0.002176  -0.000556  -0.000342
    27  H   -0.006933  -0.005043   0.609558  -0.038994  -0.001685  -0.010292
    28  H    0.009116  -0.002176  -0.038994   0.576771  -0.009728   0.009975
    29  H   -0.000334  -0.000556  -0.001685  -0.009728   0.495317  -0.034451
    30  H    0.005649  -0.000342  -0.010292   0.009975  -0.034451   0.512721
 Mulliken charges:
               1
     1  O   -0.392895
     2  C    0.346717
     3  N   -0.412134
     4  C   -0.098914
     5  C    0.372767
     6  O   -0.295041
     7  O   -0.319709
     8  C   -0.151799
     9  C    0.009541
    10  C   -0.058620
    11  N   -0.294859
    12  C    0.144267
    13  N   -0.354550
    14  C   -0.229458
    15  C   -0.138122
    16  N   -0.477430
    17  H    0.257818
    18  H    0.153317
    19  H    0.264672
    20  H    0.161628
    21  H    0.133766
    22  H    0.107526
    23  H    0.111245
    24  H    0.238658
    25  H    0.126777
    26  H    0.138297
    27  H    0.113151
    28  H    0.128824
    29  H    0.212688
    30  H    0.201874
 Sum of Mulliken charges =   0.00000
 Mulliken charges with hydrogens summed into heavy atoms:
               1
     1  O   -0.392895
     2  C    0.346717
     3  N   -0.154317
     4  C    0.054403
     5  C    0.372767
     6  O   -0.030369
     7  O   -0.319709
     8  C    0.143595
     9  C    0.009541
    10  C    0.048905
    11  N   -0.294859
    12  C    0.255511
    13  N   -0.115892
    14  C    0.035616
    15  C    0.103853
    16  N   -0.062869
 APT charges:
               1
     1  O   -0.060089
     2  C   -0.068801
     3  N   -0.485036
     4  C   -0.318089
     5  C   -0.431147
     6  O   -0.092350
     7  O    0.114155
     8  C   -0.600284
     9  C   -0.420323
    10  C   -0.478603
    11  N    0.589522
    12  C   -0.852076
    13  N   -0.593509
    14  C   -0.782048
    15  C   -1.014000
    16  N   -1.525328
    17  H    0.454684
    18  H    0.334470
    19  H    0.443131
    20  H    0.327691
    21  H    0.297434
    22  H    0.396071
    23  H    0.980625
    24  H    0.346307
    25  H    0.346604
    26  H    0.613002
    27  H    0.799380
    28  H    0.226066
    29  H    0.754989
    30  H    0.697550
 Sum of APT charges =   0.00000
 APT charges with hydrogens summed into heavy atoms:
               1
     1  O   -0.060089
     2  C   -0.068801
     3  N   -0.030351
     4  C    0.016381
     5  C   -0.431147
     6  O    0.350781
     7  O    0.114155
     8  C    0.024840
     9  C   -0.420323
    10  C   -0.082532
    11  N    0.589522
    12  C    0.128549
    13  N   -0.247201
    14  C    0.177558
    15  C    0.011446
    16  N   -0.072789
 Electronic spatial extent (au):  <R**2>=           4536.4975
 Charge=              0.0000 electrons
 Dipole moment (field-independent basis, Debye):
    X=              4.0834    Y=             -1.9985    Z=              2.1687  Tot=              5.0370
 Quadrupole moment (field-independent basis, Debye-Ang):
   XX=            -89.7327   YY=            -91.1940   ZZ=           -105.4191
   XY=             -0.3735   XZ=             -9.1974   YZ=              2.4675
 Traceless Quadrupole moment (field-independent basis, Debye-Ang):
   XX=              5.7159   YY=              4.2546   ZZ=             -9.9705
   XY=             -0.3735   XZ=             -9.1974   YZ=              2.4675
 Octapole moment (field-independent basis, Debye-Ang**2):
  XXX=            296.5475  YYY=            -26.1138  ZZZ=            -24.2750  XYY=             47.2823
  XXY=            -39.7466  XXZ=             55.4637  XZZ=             24.0814  YZZ=            -24.6993
  YYZ=              0.8939  XYZ=              7.3233
 Hexadecapole moment (field-independent basis, Debye-Ang**3):
 XXXX=          -4896.1243 YYYY=           -291.3852 ZZZZ=          -1171.1692 XXXY=             85.9397
 XXXZ=            -48.3394 YYYX=              7.3147 YYYZ=             15.4153 ZZZX=            220.3070
 ZZZY=              9.1752 XXYY=           -799.9811 XXZZ=           -827.3288 YYZZ=           -238.8474
 XXYZ=            -15.2253 YYXZ=             63.0257 ZZXY=             18.2338
 N-N= 1.133181880500D+03 E-N=-4.128043995007D+03  KE= 7.937246275090D+02
  Exact polarizability:   0.000   0.000   0.000   0.000   0.000   0.000
 Approx polarizability: 210.634 -26.343 155.255   3.591 -25.492 206.104
 Calling FoFJK, ICntrl=    100147 FMM=F ISym2X=0 I1Cent= 0 IOpClX= 0 NMat=1 NMatS=1 NMatT=0.
 -------------------------------------------------------------------
 Center     Atomic                   Forces (Hartrees/Bohr)
 Number     Number              X              Y              Z
 -------------------------------------------------------------------
      1        8          -0.000589030    0.001577919   -0.002613867
      2        6          -0.000884034   -0.001236664   -0.005556000
      3        7          -0.003286561    0.002210720    0.002125020
      4        6           0.007343426    0.001227362   -0.002904931
      5        6           0.005677007   -0.000614800   -0.001190060
      6        8          -0.004976308    0.002297466    0.005148424
      7        8          -0.001671401    0.000481102    0.002873267
      8        6          -0.008449982    0.000737900   -0.000910243
      9        6           0.005997471   -0.002507927   -0.003117277
     10        6          -0.007394255    0.002934796   -0.000499274
     11        7           0.002850252   -0.000417657   -0.000422843
     12        6          -0.005540972    0.001761245   -0.002517778
     13        7           0.003155458   -0.002375083    0.007042220
     14        6          -0.002149176    0.001023588   -0.001778267
     15        6           0.005899207   -0.000748306    0.001397740
     16        7          -0.001027509    0.002807313    0.000394805
     17        1           0.004461400   -0.003756975    0.004716299
     18        1          -0.000735662   -0.000740585   -0.000333450
     19        1           0.001221477    0.000133406   -0.001641900
     20        1           0.000187424    0.000536159   -0.001351424
     21        1           0.001545924   -0.001935818    0.001107109
     22        1           0.000115691   -0.000623625    0.000120225
     23        1          -0.003079029   -0.000120402    0.001193982
     24        1          -0.001699738   -0.000846916   -0.001874076
     25        1          -0.000607119   -0.000290966   -0.001405073
     26        1           0.000754366   -0.000417296   -0.000292592
     27        1           0.001832564    0.000869398   -0.000983530
     28        1           0.000042306    0.000707322    0.001504102
     29        1           0.000621962    0.000279652    0.003037005
     30        1           0.000384841   -0.002952327   -0.001267615
 -------------------------------------------------------------------
 Cartesian Forces:  Max     0.008449982 RMS     0.002802799
 FormGI is forming the generalized inverse of G from B-inverse, IUseBI=4.

 GradGradGradGradGradGradGradGradGradGradGradGradGradGradGradGradGradGrad
 Berny optimization.
 Internal  Forces:  Max     0.011087865 RMS     0.002748836
 Search for a local minimum.
 Step number   1 out of a maximum of  160
 All quantities printed in internal units (Hartrees-Bohrs-Radians)
 Mixed Optimization -- RFO/linear search
 Second derivative matrix not updated -- analytic derivatives used.
 ITU=  0
     Eigenvalues ---   -0.00019   0.00069   0.00147   0.00294   0.00342
     Eigenvalues ---    0.00357   0.00481   0.00550   0.01059   0.01271
     Eigenvalues ---    0.01559   0.02041   0.02568   0.02983   0.03250
     Eigenvalues ---    0.03743   0.04182   0.04262   0.04387   0.04464
     Eigenvalues ---    0.04575   0.05035   0.05181   0.05242   0.05604
     Eigenvalues ---    0.05632   0.05825   0.06189   0.07679   0.07800
     Eigenvalues ---    0.08389   0.10304   0.10776   0.10856   0.11276
     Eigenvalues ---    0.11658   0.12831   0.13415   0.14865   0.15606
     Eigenvalues ---    0.16311   0.16673   0.16913   0.18588   0.20415
     Eigenvalues ---    0.21725   0.22308   0.22886   0.23089   0.23241
     Eigenvalues ---    0.24236   0.24611   0.25281   0.27502   0.30127
     Eigenvalues ---    0.30529   0.31515   0.32777   0.32876   0.33075
     Eigenvalues ---    0.33493   0.33759   0.34098   0.34231   0.34704
     Eigenvalues ---    0.35596   0.36831   0.37526   0.37609   0.40001
     Eigenvalues ---    0.41233   0.42302   0.43326   0.44865   0.45571
     Eigenvalues ---    0.45952   0.46573   0.47532   0.48187   0.51944
     Eigenvalues ---    0.57550   0.59685   0.81076   0.89507
 RFO step:  Lambda=-4.48997006D-03 EMin=-1.93166585D-04
 Linear search not attempted -- first point.
 Iteration  1 RMS(Cart)=  0.22505522 RMS(Int)=  0.02971916
 Iteration  2 RMS(Cart)=  0.08806576 RMS(Int)=  0.00297656
 Iteration  3 RMS(Cart)=  0.00458554 RMS(Int)=  0.00012454
 Iteration  4 RMS(Cart)=  0.00001198 RMS(Int)=  0.00012439
 Iteration  5 RMS(Cart)=  0.00000000 RMS(Int)=  0.00012439
 Variable       Old X    -DE/DX   Delta X   Delta X   Delta X     New X
                                 (Linear)    (Quad)   (Total)
    R1        2.31184   0.00290   0.00000   0.00108   0.00108   2.31292
    R2        2.55340   0.00878   0.00000   0.01798   0.01798   2.57138
    R3        2.88255   0.00504   0.00000   0.00815   0.00815   2.89069
    R4        2.72850   0.00534   0.00000   0.00103   0.00103   2.72954
    R5        1.91572   0.00748   0.00000   0.01588   0.01588   1.93159
    R6        2.87454   0.00527   0.00000   0.00991   0.00991   2.88445
    R7        2.92133   0.00990   0.00000   0.02739   0.02739   2.94872
    R8        2.06844  -0.00033   0.00000  -0.00123  -0.00123   2.06721
    R9        2.54068   0.00542   0.00000   0.00444   0.00444   2.54511
   R10        2.27017   0.00051   0.00000   0.00330   0.00330   2.27347
   R11        1.82491   0.00058   0.00000   0.00315   0.00315   1.82806
   R12        2.81992   0.00496   0.00000   0.00279   0.00279   2.82271
   R13        2.05666   0.00132   0.00000   0.00578   0.00578   2.06243
   R14        2.06164   0.00252   0.00000   0.00533   0.00533   2.06697
   R15        2.58674   0.00565   0.00000   0.01471   0.01473   2.60147
   R16        2.60496   0.00731   0.00000   0.00913   0.00913   2.61409
   R17        2.61242  -0.00216   0.00000  -0.00951  -0.00951   2.60292
   R18        2.04018  -0.00028   0.00000   0.00026   0.00026   2.04044
   R19        2.48084  -0.00107   0.00000   0.00001  -0.00001   2.48083
   R20        2.56697   0.00754   0.00000   0.00952   0.00950   2.57647
   R21        2.03245   0.00296   0.00000   0.00676   0.00676   2.03922
   R22        1.91016  -0.00200   0.00000  -0.00360  -0.00360   1.90656
   R23        2.87777   0.00795   0.00000   0.02086   0.02086   2.89864
   R24        2.07136   0.00068   0.00000   0.00271   0.00271   2.07407
   R25        2.06122   0.00025   0.00000   0.00092   0.00092   2.06214
   R26        2.78103   0.00148   0.00000   0.00194   0.00194   2.78296
   R27        2.07129   0.00195   0.00000   0.00521   0.00521   2.07650
   R28        2.06331   0.00120   0.00000   0.00350   0.00350   2.06681
   R29        1.91065   0.00296   0.00000   0.00584   0.00584   1.91648
   R30        1.91224   0.00313   0.00000   0.00672   0.00672   1.91896
    A1        2.14110  -0.00154   0.00000   0.00156   0.00154   2.14264
    A2        2.12794  -0.00394   0.00000  -0.00782  -0.00784   2.12010
    A3        2.01389   0.00549   0.00000   0.00650   0.00648   2.02037
    A4        2.11961  -0.00321   0.00000  -0.01138  -0.01147   2.10813
    A5        2.07902   0.00125   0.00000  -0.00255  -0.00264   2.07637
    A6        2.08388   0.00196   0.00000   0.01481   0.01471   2.09860
    A7        1.87506   0.00066   0.00000   0.03163   0.03148   1.90654
    A8        1.92243   0.00164   0.00000   0.02654   0.02639   1.94882
    A9        1.89392  -0.00068   0.00000  -0.00503  -0.00463   1.88929
   A10        1.93802   0.00052   0.00000  -0.00847  -0.00941   1.92860
   A11        1.94010  -0.00068   0.00000  -0.01831  -0.01867   1.92143
   A12        1.89397  -0.00143   0.00000  -0.02525  -0.02548   1.86848
   A13        2.03511  -0.00183   0.00000  -0.01399  -0.01401   2.02110
   A14        2.13985   0.00458   0.00000   0.01259   0.01257   2.15242
   A15        2.10800  -0.00276   0.00000   0.00119   0.00117   2.10917
   A16        1.94648  -0.00316   0.00000  -0.01990  -0.01990   1.92658
   A17        1.97597   0.01109   0.00000   0.00814   0.00805   1.98403
   A18        1.86164  -0.00435   0.00000  -0.01288  -0.01313   1.84851
   A19        1.89897  -0.00292   0.00000  -0.01142  -0.01149   1.88748
   A20        1.90407  -0.00286   0.00000   0.03082   0.03085   1.93492
   A21        1.93920  -0.00296   0.00000  -0.01400  -0.01396   1.92525
   A22        1.88009   0.00159   0.00000  -0.00088  -0.00094   1.87915
   A23        2.30476  -0.00097   0.00000   0.02442   0.02439   2.32915
   A24        2.14965   0.00442   0.00000  -0.01740  -0.01742   2.13223
   A25        1.82761  -0.00341   0.00000  -0.00718  -0.00714   1.82048
   A26        1.93555   0.00240   0.00000   0.00283   0.00276   1.93831
   A27        2.22904  -0.00151   0.00000  -0.00365  -0.00379   2.22525
   A28        2.11859  -0.00089   0.00000   0.00093   0.00079   2.11938
   A29        1.83128   0.00238   0.00000   0.00627   0.00630   1.83758
   A30        1.95191  -0.00080   0.00000  -0.00356  -0.00358   1.94834
   A31        2.20625  -0.00094   0.00000  -0.00844  -0.00845   2.19780
   A32        2.12501   0.00175   0.00000   0.01205   0.01204   2.13704
   A33        1.87834  -0.00056   0.00000   0.00171   0.00170   1.88003
   A34        2.19791   0.00086   0.00000  -0.00750  -0.00754   2.19037
   A35        2.20219  -0.00017   0.00000   0.00700   0.00697   2.20916
   A36        2.00934   0.00820   0.00000   0.02477   0.02471   2.03405
   A37        1.89089  -0.00326   0.00000  -0.01186  -0.01196   1.87893
   A38        1.84707  -0.00215   0.00000   0.00127   0.00125   1.84832
   A39        1.90651  -0.00076   0.00000   0.00328   0.00328   1.90979
   A40        1.93334  -0.00301   0.00000  -0.00862  -0.00869   1.92465
   A41        1.87111   0.00051   0.00000  -0.01146  -0.01150   1.85961
   A42        1.94442   0.00064   0.00000  -0.00371  -0.00372   1.94070
   A43        1.90035  -0.00075   0.00000  -0.00393  -0.00393   1.89642
   A44        1.90567   0.00079   0.00000   0.00330   0.00326   1.90894
   A45        1.95833   0.00062   0.00000   0.01499   0.01500   1.97333
   A46        1.88818  -0.00116   0.00000  -0.01021  -0.01021   1.87797
   A47        1.86462  -0.00016   0.00000  -0.00047  -0.00044   1.86418
   A48        1.92846   0.00167   0.00000   0.01149   0.01146   1.93992
   A49        1.93181  -0.00044   0.00000   0.00068   0.00065   1.93247
   A50        1.86671  -0.00004   0.00000   0.00487   0.00482   1.87153
    D1        0.01104  -0.00040   0.00000  -0.02315  -0.02306  -0.01202
    D2        3.11279  -0.00019   0.00000   0.00317   0.00311   3.11590
    D3       -3.10632  -0.00082   0.00000  -0.03401  -0.03395  -3.14027
    D4       -0.00457  -0.00061   0.00000  -0.00769  -0.00778  -0.01235
    D5        2.52346  -0.00129   0.00000   0.00829   0.00838   2.53184
    D6       -1.61989   0.00090   0.00000   0.02063   0.02060  -1.59930
    D7        0.38206  -0.00108   0.00000   0.00255   0.00254   0.38460
    D8       -0.64217  -0.00083   0.00000   0.01920   0.01926  -0.62291
    D9        1.49766   0.00136   0.00000   0.03154   0.03148   1.52914
   D10       -2.78357  -0.00063   0.00000   0.01346   0.01342  -2.77015
   D11       -2.76643   0.00110   0.00000   0.06094   0.06133  -2.70510
   D12        1.40374  -0.00091   0.00000   0.03612   0.03585   1.43959
   D13       -0.66724   0.00028   0.00000   0.05434   0.05438  -0.61286
   D14        0.41512   0.00091   0.00000   0.03494   0.03522   0.45034
   D15       -1.69790  -0.00110   0.00000   0.01012   0.00974  -1.68816
   D16        2.51430   0.00009   0.00000   0.02834   0.02827   2.54258
   D17        2.65192  -0.00103   0.00000  -0.02422  -0.02424   2.62768
   D18       -0.51225  -0.00178   0.00000  -0.03503  -0.03507  -0.54732
   D19       -1.52808   0.00171   0.00000   0.02322   0.02313  -1.50495
   D20        1.59094   0.00096   0.00000   0.01241   0.01230   1.60324
   D21        0.58227  -0.00022   0.00000  -0.02706  -0.02692   0.55535
   D22       -2.58190  -0.00097   0.00000  -0.03787  -0.03775  -2.61965
   D23       -3.04000   0.00119   0.00000  -0.23355  -0.23349   3.00970
   D24       -0.94566   0.00131   0.00000  -0.19913  -0.19919  -1.14485
   D25        1.07802  -0.00056   0.00000  -0.21260  -0.21253   0.86549
   D26        1.16826  -0.00101   0.00000  -0.28456  -0.28438   0.88388
   D27       -3.02059  -0.00089   0.00000  -0.25015  -0.25008   3.01252
   D28       -0.99691  -0.00277   0.00000  -0.26361  -0.26342  -1.26033
   D29       -0.96905   0.00046   0.00000  -0.23938  -0.23951  -1.20856
   D30        1.12529   0.00058   0.00000  -0.20496  -0.20521   0.92007
   D31       -3.13422  -0.00129   0.00000  -0.21843  -0.21856   2.93041
   D32        0.04371  -0.00110   0.00000   0.05800   0.05803   0.10175
   D33       -3.07574  -0.00047   0.00000   0.06844   0.06841  -3.00733
   D34        1.67985  -0.00142   0.00000  -0.30025  -0.30017   1.37968
   D35       -1.40160  -0.00252   0.00000  -0.29566  -0.29555  -1.69714
   D36       -0.39010  -0.00097   0.00000  -0.31006  -0.31021  -0.70031
   D37        2.81164  -0.00208   0.00000  -0.30546  -0.30559   2.50606
   D38       -2.46031   0.00066   0.00000  -0.31988  -0.31986  -2.78017
   D39        0.74143  -0.00045   0.00000  -0.31529  -0.31523   0.42620
   D40       -3.08470  -0.00110   0.00000   0.00459   0.00467  -3.08003
   D41        0.05247  -0.00055   0.00000   0.03295   0.03295   0.08542
   D42        0.00485   0.00006   0.00000   0.00012   0.00014   0.00499
   D43       -3.14118   0.00061   0.00000   0.02848   0.02843  -3.11275
   D44        3.08513   0.00108   0.00000   0.00008   0.00013   3.08526
   D45        0.04312  -0.00015   0.00000  -0.01302  -0.01292   0.03019
   D46       -0.01030   0.00023   0.00000   0.00250   0.00248  -0.00782
   D47       -3.05231  -0.00100   0.00000  -0.01060  -0.01058  -3.06289
   D48        0.00264  -0.00030   0.00000  -0.00273  -0.00275  -0.00011
   D49       -3.13485  -0.00081   0.00000  -0.02899  -0.02904   3.11930
   D50       -0.00948   0.00044   0.00000   0.00439   0.00439  -0.00509
   D51        3.12649   0.00082   0.00000   0.01399   0.01395   3.14044
   D52        0.01286  -0.00043   0.00000  -0.00448  -0.00446   0.00840
   D53        3.05455   0.00088   0.00000   0.00761   0.00772   3.06227
   D54       -3.12342  -0.00078   0.00000  -0.01349  -0.01356  -3.13697
   D55       -0.08172   0.00053   0.00000  -0.00140  -0.00138  -0.08310
   D56        1.19989  -0.00021   0.00000  -0.02505  -0.02500   1.17489
   D57       -2.91439   0.00049   0.00000  -0.01129  -0.01124  -2.92563
   D58       -0.88454   0.00032   0.00000  -0.01221  -0.01216  -0.89670
   D59       -0.93156  -0.00114   0.00000  -0.02953  -0.02957  -0.96112
   D60        1.23735  -0.00044   0.00000  -0.01577  -0.01581   1.22154
   D61       -3.01599  -0.00061   0.00000  -0.01669  -0.01672  -3.03271
   D62       -2.98875   0.00049   0.00000  -0.01238  -0.01240  -3.00115
   D63       -0.81985   0.00119   0.00000   0.00137   0.00136  -0.81849
   D64        1.21001   0.00102   0.00000   0.00045   0.00044   1.21045
   D65       -2.91371   0.00003   0.00000  -0.00339  -0.00339  -2.91710
   D66        1.30499  -0.00070   0.00000  -0.01710  -0.01713   1.28786
   D67        1.23363   0.00008   0.00000  -0.00641  -0.00641   1.22722
   D68       -0.83085  -0.00064   0.00000  -0.02012  -0.02015  -0.85101
   D69       -0.81892   0.00065   0.00000  -0.00813  -0.00809  -0.82700
   D70       -2.88340  -0.00008   0.00000  -0.02184  -0.02183  -2.90523
         Item               Value     Threshold  Converged?
 Maximum Force            0.011088     0.000450     NO 
 RMS     Force            0.002749     0.000300     NO 
 Maximum Displacement     1.212417     0.001800     NO 
 RMS     Displacement     0.298700     0.001200     NO 
 Predicted change in Energy=-3.471071D-03
 GradGradGradGradGradGradGradGradGradGradGradGradGradGradGradGradGradGrad

                          Input orientation:                          
 ---------------------------------------------------------------------
 Center     Atomic      Atomic             Coordinates (Angstroms)
 Number     Number       Type             X           Y           Z
 ---------------------------------------------------------------------
      1          8           0        1.070600    0.820555   -2.366573
      2          6           0        1.655187    0.330030   -1.409662
      3          7           0        1.056157    0.129932   -0.204394
      4          6           0       -0.321332    0.508743    0.008546
      5          6           0       -0.547981    0.766050    1.495917
      6          8           0       -1.501215    1.668927    1.796035
      7          8           0        0.048619    0.186758    2.365323
      8          6           0       -1.306216   -0.583208   -0.513450
      9          6           0       -2.733433   -0.323193   -0.157613
     10          6           0       -3.702951    0.504707   -0.676986
     11          7           0       -4.861367    0.436584    0.065090
     12          6           0       -4.606860   -0.420823    1.026089
     13          7           0       -3.339416   -0.915143    0.935981
     14          6           0        3.115328   -0.115159   -1.508374
     15          6           0        3.975735    0.073155   -0.252563
     16          7           0        3.531552   -0.814683    0.835202
     17          1           0        1.592722   -0.305293    0.548917
     18          1           0       -0.518723    1.419305   -0.564670
     19          1           0       -1.962566    1.951094    0.993952
     20          1           0       -1.174652   -0.611702   -1.596509
     21          1           0       -0.985555   -1.549875   -0.114553
     22          1           0       -3.632954    1.128412   -1.555599
     23          1           0       -5.291956   -0.722402    1.803369
     24          1           0       -2.888534   -1.536572    1.590523
     25          1           0        3.121727   -1.173268   -1.799890
     26          1           0        3.541340    0.440413   -2.345424
     27          1           0        5.030461   -0.072964   -0.523937
     28          1           0        3.880089    1.103494    0.101628
     29          1           0        3.951851   -0.548970    1.719094
     30          1           0        3.804153   -1.775020    0.649140
 ---------------------------------------------------------------------
                    Distance matrix (angstroms):
                    1          2          3          4          5
     1  O    0.000000
     2  C    1.223943   0.000000
     3  N    2.269843   1.360715   0.000000
     4  C    2.770540   2.439237   1.444409   0.000000
     5  C    4.188269   3.672390   2.422594   1.526384   0.000000
     6  O    4.966011   4.693826   3.593101   2.435830   1.346816
     7  O    4.882313   4.105130   2.760762   2.407267   1.203070
     8  C    3.324736   3.226004   2.486943   1.560394   2.536330
     9  C    4.545143   4.610240   3.816871   2.556943   2.949036
    10  C    5.073584   5.410820   4.797177   3.450408   3.839745
    11  N    6.422511   6.682194   5.931589   4.540961   4.556437
    12  C    6.729392   6.760909   5.821269   4.501692   4.254869
    13  N    5.776482   5.656726   4.659796   3.463584   3.306365
    14  C    2.406861   1.529690   2.449616   3.808009   4.818934
    15  C    3.669803   2.605725   2.920527   4.326973   4.899111
    16  N    4.356794   3.141740   2.846162   4.156866   4.424686
    17  H    3.168631   2.059992   1.022155   2.149013   2.574334
    18  H    2.476147   2.574183   2.067010   1.093921   2.161854
    19  H    4.665977   4.636092   3.723621   2.396884   1.912420
    20  H    2.772276   2.988270   2.732126   2.135358   3.442966
    21  H    3.862422   3.490682   2.645450   2.166622   2.854574
    22  H    4.782873   5.350060   4.981012   3.714482   4.354321
    23  H    7.762167   7.726187   6.712386   5.426252   4.981497
    24  H    6.073664   5.755928   4.643226   3.643691   3.284693
    25  H    2.916090   2.136099   2.917278   4.237246   5.300004
    26  H    2.499902   2.108414   3.294926   4.523945   5.620007
    27  H    4.458048   3.512747   3.992289   5.409585   5.991892
    28  H    3.750373   2.798648   3.002676   4.244329   4.654644
    29  H    5.183616   3.979500   3.541999   4.722798   4.693354
    30  H    4.827406   3.645265   3.450919   4.758735   5.110297
                    6          7          8          9         10
     6  O    0.000000
     7  O    2.218760   0.000000
     8  C    3.231695   3.273493   0.000000
     9  C    3.050187   3.790128   1.493712   0.000000
    10  C    3.509826   4.840559   2.637166   1.376638   0.000000
    11  N    3.975608   5.427840   3.743499   2.270454   1.377405
    12  C    3.821636   4.882232   3.645655   2.218200   2.138719
    13  N    3.285740   3.838748   2.518915   1.383317   2.179402
    14  C    5.951013   4.949888   4.556204   6.006317   6.896693
    15  C    6.061371   4.721066   5.328965   6.721535   7.702505
    16  N    5.693879   3.933824   5.027568   6.362176   7.507699
    17  H    3.876248   2.434276   3.099952   4.383506   5.495734
    18  H    2.569149   3.228917   2.152400   2.847268   3.314877
    19  H    0.967367   3.006394   3.020884   2.663216   2.813007
    20  H    4.100886   4.222563   1.091393   2.140901   2.912764
    21  H    3.778483   3.199249   1.093795   2.135809   3.452808
    22  H    4.008730   5.460249   3.070737   2.206957   1.079754
    23  H    4.481989   5.446477   4.612282   3.248208   3.191064
    24  H    3.498872   3.492427   2.799881   2.133618   3.157798
    25  H    6.510018   5.351883   4.648631   6.140244   7.117074
    26  H    6.639901   5.869801   5.282303   6.688974   7.434216
    27  H    7.146975   5.764896   6.357196   7.776559   8.753835
    28  H    5.670023   4.543663   5.488263   6.770621   7.646390
    29  H    5.887352   4.024192   5.712503   6.947375   8.089958
    30  H    6.428302   4.571421   5.374746   6.745271   7.956907
                   11         12         13         14         15
    11  N    0.000000
    12  C    1.312799   0.000000
    13  N    2.214035   1.363409   0.000000
    14  C    8.149103   8.133211   6.948278   0.000000
    15  C    8.850274   8.691369   7.476684   1.533892   0.000000
    16  N    8.520554   8.150173   6.872442   2.480913   1.472680
    17  H    6.514579   6.218992   4.984749   2.566501   2.542507
    18  H    4.496765   4.757041   3.957007   4.056044   4.702094
    19  H    3.399937   3.552367   3.180312   6.026280   6.351683
    20  H    4.177521   4.323714   3.345412   4.319520   5.366722
    21  H    4.358923   3.961019   2.654650   4.562717   5.221845
    22  H    2.148082   3.164448   3.235776   6.862070   7.791252
    23  H    2.133136   1.079106   2.145209   9.056424   9.526272
    24  H    3.179994   2.125117   1.008908   6.904342   7.287412
    25  H    8.354613   8.263376   7.021252   1.097550   2.162665
    26  H    8.741629   8.860134   7.742735   1.091237   2.168789
    27  H    9.922442   9.767371   8.537885   2.153749   1.098837
    28  H    8.766935   8.672166   7.542698   2.159185   1.093709
    29  H    9.021078   8.587677   7.342338   3.362219   2.067617
    30  H    8.962340   8.527665   7.200850   2.807933   2.063555
                   16         17         18         19         20
    16  N    0.000000
    17  H    2.024969   0.000000
    18  H    4.832709   2.944914   0.000000
    19  H    6.153053   4.234314   2.190156   0.000000
    20  H    5.301205   3.514982   2.370638   3.728166   0.000000
    21  H    4.674056   2.938824   3.039172   3.800015   1.764120
    22  H    7.798827   5.813105   3.281005   3.157090   3.012129
    23  H    8.876945   7.010451   5.742670   4.345983   5.340750
    24  H    6.504547   4.762630   4.358677   3.657475   3.734963
    25  H    2.690771   2.933961   4.636818   6.589175   4.337694
    26  H    3.419319   3.567968   4.540201   6.612607   4.889621
    27  H    2.155025   3.608745   5.746475   7.436615   6.320133
    28  H    2.083030   2.723379   4.460183   5.970870   5.601425
    29  H    1.014159   2.644651   5.392190   6.461925   6.105587
    30  H    1.015469   2.657173   5.510382   6.874436   5.584330
                   21         22         23         24         25
    21  H    0.000000
    22  H    4.032190   0.000000
    23  H    4.786254   4.178572   0.000000
    24  H    2.555150   4.189795   2.546490   0.000000
    25  H    4.455553   7.140246   9.163886   6.910146   0.000000
    26  H    5.425016   7.250355   9.828109   7.793806   1.754322
    27  H    6.208165   8.806952  10.601435   8.326078   2.545975
    28  H    5.546313   7.693687   9.505589   7.416266   3.061785
    29  H    5.361161   8.430094   9.245817   6.912507   3.669073
    30  H    4.855432   8.282593   9.229271   6.762774   2.612577
                   26         27         28         29         30
    26  H    0.000000
    27  H    2.408081   0.000000
    28  H    2.557829   1.760325   0.000000
    29  H    4.203297   2.534003   2.313436   0.000000
    30  H    3.734251   2.403526   2.931106   1.633957   0.000000
 Symmetry turned off by external request.
[...]
 6,0.20632235,0.00002215,0.00000875,-0.00000935,-0.00001840,-0.00000898
 ,-0.00000340,0.00006401,-0.00002363,-0.00000794,-0.00009177,0.00007313
 ,0.00002955,-0.00001000,-0.00006681,-0.00002010,-0.00010720,-0.0004551
 9,0.00045538,0.00032294,0.00012862,-0.00008184,-0.00008137,0.00017427,
 0.00027673,0.00062248,0.00078294,0.00084931,-0.00014624,-0.00042773,-0
 .00076163,-0.08865511,0.26584355,-0.00009980,-0.00005895,0.00000740,0.
 00015120,0.00001074,-0.00009061,-0.00031817,-0.00008543,-0.00006962,0.
 00023019,-0.00002986,0.00030752,-0.00068622,0.00009943,0.00108436,0.00
 056761,0.00010730,-0.00052831,0.00012011,0.00008413,-0.00045114,-0.000
 90954,-0.00081812,-0.00056120,-0.01194913,0.00694375,-0.00916344,0.002
 56153,0.00283773,-0.00152782,0.00293420,0.00105211,0.00433288,-0.00279
 774,-0.00681499,-0.00040033,-0.04825353,0.20736069,-0.18725693,-0.0000
 0876,0.00003450,-0.00000348,0.00002485,-0.00000433,0.00004390,-0.00002
 801,0.00001489,-0.00005692,0.00002732,-0.00001190,0.00012944,-0.000100
 08,-0.00013830,-0.00008155,0.00007647,-0.00002976,0.00037974,0.0000198
 6,-0.00005263,0.00001726,0.00089830,-0.00037466,0.00033453,-0.00008415
 ,0.00124453,0.00099385,-0.00019146,-0.00048849,-0.00068083,0.05785455,
 -0.21087799,0.19323300,-0.00331423,-0.00359505,-0.00096163,0.00019577,
 0.03449975,0.00437557,-0.00133477,-0.00176842,0.00075158,-0.00025577,-
 0.00135407,-0.00028035,0.00005764,-0.00013991,-0.00029725,-0.00004805,
 0.00005612,0.00006939,0.00003395,0.00001627,0.00017816,-0.00036305,0.0
 0022289,0.00020925,-0.00005020,-0.00015032,-0.00005425,0.00001965,-0.0
 0000116,-0.00000473,-0.00004307,-0.00000953,0.00003016,-0.00004326,0.0
 0001834,0.00001275,-0.00002938,0.00000468,-0.00001955,-0.04625083,0.01
 607453,0.00332529,0.00073084,-0.02258220,-0.00485260,0.00068039,0.0004
 1118,0.00190175,-0.00029593,0.00066581,0.00009704,0.00004698,0.0000119
 0,-0.00011283,0.00002643,-0.00000997,-0.00001691,0.00005367,0.00017331
 ,-0.00000390,-0.00001307,-0.00002808,0.00008310,0.00000905,-0.00000923
 ,0.00000552,-0.00000287,0.00000516,0.00000499,0.00000369,0.00001694,-0
 .00000512,0.05140686,0.00180191,0.00131475,-0.00014171,0.00036161,-0.0
 0846364,-0.00011869,0.00045963,0.00077387,0.00032068,0.00016388,0.0002
 0031,-0.00014825,-0.00002057,0.00003654,0.00009174,0.00005724,-0.00002
 642,-0.00004318,0.00001782,0.00001655,-0.00005418,0.00007622,-0.000071
 54,-0.00002164,-0.00000125,0.00003973,0.00000724,-0.00000584,0.0000048
 6,0.00001181,0.00001414,0.00000962,-0.00000729,0.00001588,-0.00000505,
 -0.00000697,0.00001395,0.00000584,0.00000718,0.01143572,-0.28934799,-0
 .04219743,-0.00025034,-0.00865096,-0.00164982,0.00017737,0.00202083,0.
 00078351,-0.00000984,-0.00035704,-0.00008227,-0.00009149,0.00001738,0.
 00007312,-0.00002997,-0.00000759,-0.00000393,-0.00002409,-0.00007412,-
 0.00001678,0.00000438,0.00002074,-0.00003758,-0.00000799,0.00000010,-0
 .00000726,0.00000100,-0.00000205,-0.00000270,-0.00000277,-0.00001381,-
 0.00000191,-0.01258351,0.31548398,-0.00107906,-0.00028674,0.00004105,0
 .00037224,-0.00592878,-0.00251249,0.00112143,0.00073783,-0.00027584,0.
 00013701,0.00042607,0.00001929,0.00002897,-0.00002921,0.00004667,-0.00
 003070,0.00000842,0.00000221,-0.00001631,0.00006114,-0.00001700,0.0001
 1566,-0.00009189,-0.00004020,0.00003013,0.00004065,0.00001750,-0.00000
 381,0.00000084,-0.00000151,-0.00000574,0.00000371,-0.00000748,0.000008
 20,-0.00000762,0.00000136,-0.00000084,0.00000163,-0.00000042,0.0028958
 3,-0.04164605,-0.05043045,-0.00029729,-0.02711328,-0.00751645,0.001000
 02,-0.00034157,0.00255910,0.00024588,-0.00061051,-0.00002596,0.0000065
 4,-0.00000906,-0.00003485,0.00000171,-0.00000212,0.00000335,0.00001256
 ,0.00001582,-0.00000211,0.00000896,0.00000668,-0.00001744,0.00000360,0
 .00000096,0.00000210,0.00000020,-0.00000103,-0.00000004,0.00000685,-0.
 00000152,0.00000184,0.00031287,0.04762840,0.05530215,0.00323821,0.0010
 7089,-0.00203876,-0.01143760,-0.01749661,0.03131744,-0.00626509,0.0028
 0939,-0.00089658,0.00048685,0.00021004,0.00153301,-0.00053385,0.000079
 02,-0.00051138,-0.00018573,0.00015284,0.00034724,0.00012261,-0.0000092
 5,0.00020288,0.00008092,0.00008952,0.00004258,-0.00000300,-0.00005400,
 -0.00003784,0.00000915,-0.00003621,0.00002315,-0.00004552,0.00000313,0
 .00000508,-0.00002239,0.00001498,0.00000778,0.00000092,0.00001941,-0.0
 0003921,-0.07088986,-0.03750532,0.06361745,0.00672307,0.01138992,-0.01
 572009,-0.00220129,-0.00210332,-0.00427137,-0.00047624,-0.00011887,-0.
 00073017,-0.00010045,0.00006928,0.00006529,0.00009359,-0.00003390,0.00
 001902,-0.00002112,-0.00006611,0.00000442,0.00000290,-0.00001174,-0.00
 001714,-0.00000093,0.00000322,0.00000615,-0.00000122,0.00000415,0.0000
 0266,0.00001124,0.00001186,-0.00000527,0.00004338,0.00054428,-0.001653
 67,0.08045403,-0.00119592,-0.00003210,-0.00105651,0.00592850,0.0030637
 4,-0.00839454,0.00151315,0.00000484,0.00034971,0.00041843,0.00027643,-
 0.00046827,0.00015633,-0.00000632,0.00001059,-0.00002834,-0.00002779,-
 0.00002119,-0.00004576,0.00002418,0.00000577,-0.00001696,-0.00005607,-
 0.00000130,0.00002251,0.00000090,0.00000163,0.00000002,-0.00000304,0.0
 0000116,-0.00002017,0.00000148,-0.00000078,-0.00000168,-0.00000173,0.0
 0000385,-0.00000981,0.00000615,-0.00000397,-0.03979660,-0.10352275,0.1
 0407015,0.00343122,0.00373260,-0.00765437,-0.00075385,0.00044388,-0.00
 138181,-0.00009693,-0.00027521,-0.00009853,-0.00007411,0.00002302,0.00
 001135,0.00000938,0.00000673,-0.00000233,0.00001398,0.00001370,0.00002
 279,0.00001004,0.00000291,-0.00001536,0.00000425,0.00000060,0.00000440
 ,-0.00000086,0.00000068,0.00000123,0.00000748,0.00000281,-0.00000286,-
 0.00992786,-0.01481325,0.02667147,0.03989686,0.10998774,-0.00255559,-0
 .00082906,0.00174355,0.00243790,0.00309765,-0.00796850,0.00153093,-0.0
 0027587,0.00122686,-0.00021157,0.00022428,-0.00020885,-0.00005554,0.00
 004232,0.00001806,0.00011768,-0.00007393,-0.00005466,0.00010761,-0.000
 03504,0.00003134,0.00002181,-0.00002773,0.00000553,0.00001647,0.000024
 66,0.00001462,-0.00000254,0.00001319,-0.00001113,0.00001379,-0.0000055
 9,0.00000225,0.00000048,-0.00000224,-0.00000313,-0.00000062,-0.0000068
 8,0.00001954,0.06686227,0.10249429,-0.23253632,0.00893394,0.01167703,-
 0.01689465,-0.00296492,-0.00263402,-0.00390178,-0.00072673,-0.00001795
 ,0.00008532,0.00005820,-0.00001534,-0.00003709,-0.00002465,0.00000817,
 -0.00001452,0.00004095,0.00004561,-0.00000103,-0.00001020,-0.00001068,
 0.00000973,0.00000219,-0.00000084,-0.00000006,-0.00000061,-0.00000176,
 -0.00000140,-0.00000586,-0.00000320,-0.00000222,-0.00213084,-0.0026836
 6,0.00581360,-0.07105127,-0.11192621,0.25230443,-0.00205408,0.00122909
 ,-0.00040669,0.00201834,-0.00246212,-0.00421821,-0.00008856,-0.0001007
 2,0.00033556,0.00040607,0.00009407,-0.00002622,0.00030089,-0.00022052,
 -0.00022337,-0.00028401,0.00015270,0.00014644,-0.00019533,0.00010438,0
 .00014116,-0.00002773,0.00002436,0.00003446,0.00004308,-0.00005740,-0.
 00004279,0.00002439,-0.00001994,0.00000833,-0.00008866,0.00000223,0.00
 002381,-0.00003518,0.00001050,0.00001322,-0.00001813,0.00002202,-0.000
 03615,-0.02163631,0.00403739,0.00417971,-0.26350959,0.03399443,0.06363
 364,-0.00092197,-0.00458600,0.00808429,0.00065796,-0.00013279,0.000241
 87,-0.00008311,0.00000562,0.00000133,0.00007643,-0.00001450,0.00000440
 ,0.00003924,0.00004972,0.00000323,0.00000773,0.00000081,0.00001333,0.0
 0001632,-0.00001004,0.00001151,-0.00000342,0.00000269,0.00000478,0.000
 02565,0.00002238,-0.00001190,0.00066940,-0.00059032,0.00058061,0.00045
 598,0.00048735,-0.00046497,0.28653960,-0.00077299,0.00048284,-0.000085
 49,0.00006829,-0.00015301,-0.00216018,0.00005578,0.00052292,0.00023484
 ,-0.00022594,0.00003501,-0.00004953,0.00010780,-0.00009490,0.00014200,
 -0.00005823,0.00003848,-0.00003684,-0.00011585,0.00011353,-0.00006854,
 0.00001602,-0.00001230,-0.00001851,0.00000152,0.00000806,0.00001258,-0
 .00000270,0.00000155,-0.00000029,0.00000541,0.00000360,-0.00000539,0.0
 0000768,-0.00000492,0.00000055,-0.00000147,0.00000028,-0.00000122,-0.0
 0987722,0.00176388,0.00110591,0.03441981,-0.05851282,-0.01255573,-0.02
 083698,0.00050031,0.01453957,0.00071785,-0.00072685,0.00070106,-0.0000
 3336,-0.00002046,-0.00002383,-0.00001358,-0.00000274,0.00000698,-0.000
 00023,0.00000025,-0.00000065,0.00000368,0.00000706,0.00000167,-0.00000
 086,-0.00000019,-0.00000168,0.00000043,-0.00000019,-0.00000019,0.00000
 254,-0.00000067,0.00000368,0.00008061,0.00036044,0.00085977,0.00061049
 ,0.00038803,0.00027492,-0.03302786,0.05728444,-0.00214131,0.00143679,-
 0.00004377,0.00093723,-0.00325725,-0.00527112,-0.00008087,-0.00026414,
 0.00194584,0.00017396,-0.00002618,0.00036896,-0.00059524,0.00022544,-0
 .00051861,0.00022127,-0.00010408,0.00013130,0.00044549,-0.00016459,0.0
 0031402,-0.00003741,0.00001845,0.00000301,0.00001773,-0.00001076,-0.00
 000636,0.00001048,0.00001746,-0.00000573,-0.00000492,-0.00001324,0.000
 02239,-0.00002924,0.00001042,-0.00000359,-0.00000057,-0.00000356,0.000
 01867,-0.02665863,0.00371654,0.00634587,0.06453038,-0.01224958,-0.0672
 0943,0.02933906,0.00545569,-0.01895849,-0.00223978,0.00101089,-0.00128
 737,0.00005874,-0.00004648,-0.00002448,0.00000846,-0.00001724,-0.00004
 153,0.00004998,0.00004737,0.00000728,-0.00001077,-0.00002171,0.0000068
 0,0.00000507,-0.00000675,-0.00000122,-0.00000254,-0.00000086,-0.000000
 91,-0.00001116,-0.00000080,-0.00001171,0.00084243,-0.00005962,0.000795
 69,0.00044873,0.00046058,0.00085921,-0.07358685,0.00720833,0.08278904,
 0.00022908,0.00008570,0.00009736,0.00110258,-0.00136690,-0.00025857,0.
 00007221,0.00049144,0.00027914,-0.00026115,0.00013001,0.00011816,-0.00
 019445,0.00007273,0.00009888,0.00011231,-0.00005190,-0.00005689,0.0001
 1590,0.00001938,-0.00007073,0.00008549,-0.00005191,-0.00003461,-0.0000
 0015,0.00004792,0.00002856,-0.00001154,0.00000992,-0.00000086,0.000033
 46,0.00000308,-0.00001147,0.00001875,-0.00000845,-0.00000725,0.0000096
 5,-0.00000594,0.00001470,0.00110003,-0.02107154,-0.00639655,-0.0551267
 0,0.03417787,0.01080106,0.00095700,-0.00811935,-0.00215626,0.00007063,
 -0.00062776,0.00011364,-0.00000203,-0.00001846,0.00000190,-0.00003916,
 -0.00000310,-0.00000403,-0.00000390,-0.00001957,-0.00000570,-0.0000007
 6,0.00000707,-0.00001369,-0.00000634,0.00000229,-0.00000631,0.00000154
 ,-0.00000188,-0.00000259,-0.00000805,-0.00001177,0.00000502,-0.0022029
 0,-0.00143497,-0.00346014,0.00048871,0.00053556,0.00047674,-0.00372573
 ,0.02969319,0.00841942,0.05610592,-0.00054960,0.00011936,0.00000459,0.
 00126610,0.00011759,-0.00058148,-0.00045176,0.00082113,0.00059675,-0.0
 0019023,-0.00004372,0.00003603,-0.00012424,-0.00003279,-0.00005566,0.0
 0003172,0.00000933,0.00001182,0.00008746,0.00010962,0.00003398,0.00000
 440,-0.00002025,-0.00000756,0.00001071,0.00000957,0.00001656,-0.000001
 58,0.00000754,0.00000624,-0.00000257,0.00000917,-0.00000052,0.00000547
 ,-0.00000702,-0.00000086,-0.00000134,0.00000996,0.00000137,-0.00061049
 ,-0.00583762,-0.00337765,0.03015644,-0.28291494,-0.05915939,0.00119213
 ,-0.02112933,-0.00028142,0.00040562,-0.00075869,0.00016867,-0.00003440
 ,-0.00000826,-0.00002868,-0.00002150,-0.00002061,-0.00001416,0.0000090
 2,0.00000292,0.00000664,0.00000511,0.00000843,-0.00000621,-0.00000113,
 -0.00000377,-0.00000453,-0.00000029,-0.00000145,-0.00000156,0.00000197
 ,-0.00000925,-0.00000217,-0.00045186,0.00122614,-0.00101479,-0.0002134
 1,0.00013136,-0.00050417,0.00193331,-0.00361424,-0.00215246,-0.0317873
 5,0.31159694,-0.00032038,0.00032245,-0.00021448,0.00180783,-0.00024778
 ,0.00066967,-0.00015028,0.00020354,0.00046563,-0.00001477,-0.00012703,
 0.00010819,0.00004593,-0.00001936,0.00000326,-0.00003343,0.00003266,0.
 00001906,-0.00005994,-0.00005225,-0.00000005,-0.00002176,0.00001891,-0
 .00001510,0.00000575,-0.00001017,0.00000434,0.00000515,-0.00000177,0.0
 0000582,-0.00001180,0.00000205,0.00000594,-0.00000736,0.00000221,0.000
 00078,-0.00000268,0.00000851,-0.00000548,0.00134897,-0.02466327,-0.006
 95012,0.01002395,-0.06753266,-0.06577489,-0.00271914,0.03427531,0.0033
 2821,-0.00041556,0.00016968,-0.00012640,-0.00000314,-0.00000329,-0.000
 03057,0.00000579,-0.00000764,0.00000177,0.00001758,-0.00000132,0.00000
 623,0.00000149,-0.00000175,-0.00000469,0.00000018,-0.00000449,-0.00000
 144,-0.00000091,0.00000004,-0.00000038,0.00000151,0.00000192,-0.000004
 91,-0.00357665,-0.00060319,-0.00359306,0.00052610,0.00032089,0.0003252
 2,0.00097512,-0.00891822,-0.00162104,-0.00850562,0.06255186,0.07656591
 ,-0.00030046,0.00013708,0.00013019,0.00096801,-0.00058645,-0.00002674,
 -0.00187723,0.00117088,0.00041696,0.00035181,0.00016844,-0.00030208,-0
 .00135151,0.00046276,-0.00126974,0.00067567,-0.00031923,0.00023607,0.0
 0125423,-0.00016200,0.00091348,-0.00011821,-0.00001720,0.00007867,0.00
 002266,0.00000476,-0.00000294,0.00000182,0.00003737,0.00000882,0.00000
 332,-0.00001148,0.00002603,-0.00003872,0.00000834,-0.00000796,0.000000
 80,0.00000098,0.00004263,0.00003977,0.00024073,-0.00056842,-0.00099180
 ,0.00212120,0.01309943,-0.10514832,-0.08065493,-0.17683462,0.00056335,
 -0.00201635,-0.00237225,-0.00019843,0.00006910,0.00005670,-0.00002308,
 -0.00005865,-0.00011397,0.00006577,0.00003991,0.00003541,0.00001195,-0
 .00000879,-0.00002925,0.00000027,-0.00000742,-0.00000620,-0.00000444,-
 0.00000230,-0.00000347,-0.00002085,-0.00002439,-0.00002607,0.00002961,
 0.00013267,0.00024650,0.00005130,0.00000632,-0.00033364,0.00028929,0.0
 0013868,0.00112116,0.00076274,0.00042401,-0.00051710,0.10308366,0.0002
 7128,-0.00013214,-0.00024946,-0.00078530,0.00016780,0.00054112,0.00051
 631,-0.00014060,-0.00033258,0.00000952,0.00000675,-0.00001421,0.000272
 87,-0.00004402,0.00020134,-0.00010254,0.00003486,-0.00004048,-0.000243
 44,-0.00016125,-0.00011589,0.00001942,0.00000453,-0.00001185,-0.000000
 43,0.00000259,-0.00000818,0.00000096,-0.00001297,-0.00000181,-0.000003
 26,-0.00000608,-0.00000127,-0.00000199,0.00000553,0.00000054,0.0000012
 6,-0.00000441,-0.00000556,-0.00139502,-0.00259018,0.00360182,0.0116052
 6,0.00900306,0.01944491,-0.06120743,-0.11350763,-0.10938108,-0.0001359
 8,0.00022330,0.00022233,0.00002748,-0.00000219,0.00000697,0.00002076,0
 .00002607,0.00002451,-0.00001396,-0.00001712,-0.00000152,-0.00000272,-
 0.00000379,-0.00000426,0.00000063,0.00000300,0.00000429,-0.00000006,0.
 00000135,0.00000107,0.00000111,0.00000968,-0.00000101,-0.00012114,0.00
 028062,0.00008296,0.00075018,0.00051065,0.00115269,-0.00031432,-0.0001
 9765,0.00001835,0.00048883,0.00033256,0.00006159,0.07065326,0.11967634
 ,-0.00013132,-0.00007075,0.00029606,0.00037225,0.00018179,-0.00054534,
 0.00064707,-0.00041545,0.00040511,-0.00015037,-0.00007540,0.00017761,0
 .00021446,-0.00007855,0.00033053,-0.00014234,0.00006703,-0.00007447,-0
 .00021281,0.00004402,-0.00031906,0.00003129,0.00000581,-0.00002546,-0.
 00001014,0.00000270,0.00000986,-0.00000150,-0.00000612,-0.00000445,0.0
 0000657,0.00000466,-0.00000973,0.00001524,-0.00000557,0.00000152,-0.00
 000033,-0.00000129,-0.00001037,0.00325630,0.00451842,-0.00380580,-0.01
 631185,-0.01194821,-0.02251913,-0.13484254,-0.10829669,-0.28684524,-0.
 00116253,0.00071468,0.00009662,0.00007283,-0.00004025,-0.00001760,-0.0
 0000110,0.00001109,0.00003230,-0.00001188,-0.00000617,-0.00001013,-0.0
 0000693,0.00000175,0.00001147,-0.00000086,0.00000167,-0.00000037,0.000
 00209,0.00000046,0.00000086,0.00000402,0.00000539,0.00001175,0.0003439
 0,0.00007223,0.00042594,-0.00136465,-0.00041857,-0.00083692,0.00036775
 ,-0.00085138,0.00028027,-0.00043227,0.00012909,0.00163547,0.15285057,0
 .11689780,0.31415689,0.00000624,0.00007833,-0.00013661,-0.00026311,0.0
 0026892,0.00010203,-0.00202802,-0.00084328,-0.00093612,-0.00008934,-0.
 00006511,-0.00027389,0.00006018,0.00005942,-0.00000942,-0.00001270,0.0
 0000464,-0.00000785,-0.00019782,-0.00024895,0.00006601,-0.00007876,0.0
 0017832,-0.00003458,-0.00005094,-0.00005485,-0.00001292,0.00000880,-0.
 00000022,-0.00001999,0.00003675,-0.00003228,0.00001215,-0.00003080,0.0
 0002065,-0.00000080,0.00000807,-0.00002952,0.00001089,-0.00024291,0.00
 147777,-0.00008790,-0.00107630,-0.01400685,0.00326431,-0.05865420,0.14
 620060,0.01115631,0.00242635,0.00280298,0.00115333,0.00000724,-0.00000
 905,0.00001014,0.00001417,0.00003233,0.00001249,-0.00000152,0.00001077
 ,-0.00001691,-0.00004035,-0.00004747,0.00004804,0.00000024,0.00000325,
 0.00000415,0.00000056,0.00000276,0.00000164,-0.00002660,0.00001655,0.0
 0000375,0.00024007,-0.00022474,-0.00058823,-0.00007856,-0.00047254,-0.
 00008142,0.00110144,-0.00096246,-0.00123031,0.00031689,-0.00109173,0.0
 0159515,0.00189704,-0.02031156,-0.00340092,0.05674788,-0.00017418,0.00
 010450,-0.00013597,0.00011791,-0.00019783,-0.00003694,-0.00042635,-0.0
 0000741,-0.00031827,0.00005481,0.00004888,-0.00003865,0.00004194,-0.00
 003649,-0.00000530,-0.00003963,0.00002064,0.00001394,-0.00004780,0.000
 01308,0.00002085,-0.00000266,0.00001962,-0.00000686,0.00000147,-0.0000
 1038,-0.00000717,0.00000333,-0.00000181,-0.00000234,-0.00000286,-0.000
 00629,0.00000489,-0.00001087,0.00000540,0.00000106,0.00000006,-0.00000
 464,-0.00000115,-0.00000952,0.00108903,0.00026420,0.00798566,-0.020225
 17,-0.00341824,0.09764899,-0.37514038,-0.04457883,0.00100742,-0.000190
 04,0.00043792,-0.00003269,0.00000654,-0.00000682,0.00000931,0.00000193
 ,0.00000171,0.00000668,0.00000969,-0.00000265,-0.00000039,-0.00000328,
 0.00001105,0.00000186,-0.00000084,0.00000200,-0.00000049,0.00000093,0.
 00000088,-0.00000148,0.00000755,-0.00000011,0.00047482,0.00002115,0.00
 053781,-0.00008071,0.00011583,-0.00000063,-0.00063650,0.00183026,-0.00
 122702,-0.00118416,-0.00010968,0.00422258,0.00805271,-0.01346866,-0.00
 044421,-0.11275669,0.40610785,0.00028629,-0.00007672,0.00010677,-0.000
 44155,0.00007487,0.00003118,0.00026904,0.00000046,-0.00005755,-0.00013
 796,0.00004910,0.00002003,-0.00010876,0.00005454,0.00007064,0.00009471
 ,-0.00005880,-0.00005085,0.00017159,0.00009397,-0.00008071,0.00003965,
 -0.00004212,0.00000592,-0.00001460,0.00002107,0.00001531,-0.00001170,0
 .00000634,-0.00000269,0.00002441,0.00000881,-0.00001806,0.00002610,-0.
 00001256,-0.00000158,0.00000232,-0.00000339,0.00000389,0.00038021,0.00
 105345,0.00158138,-0.00978093,0.03346557,0.00400379,0.00587341,-0.0487
 4488,-0.06838123,-0.00032948,-0.00021615,-0.00028237,0.00002746,-0.000
 00638,0.00001076,-0.00002269,-0.00000331,0.00000261,-0.00002030,-0.000
 00437,-0.00000983,0.00000141,0.00000943,0.00000363,-0.00000428,0.00000
 490,-0.00000305,0.00000274,-0.00000078,-0.00000050,0.00000078,-0.00001
 088,0.00001357,-0.00022715,-0.00110783,-0.00055655,0.00016841,-0.00048
 898,0.00001300,0.00021259,-0.00031416,0.00111702,0.00096897,0.00362967
 ,-0.00480289,0.01315184,-0.03209314,-0.00284821,-0.01060253,0.04471228
 ,0.07009657\\-0.00000098,-0.00000013,-0.00000014,-0.00000314,0.0000009
 7,0.00000696,0.00000224,-0.00000010,-0.00000289,0.00000165,0.00000025,
 -0.00000106,0.00000176,-0.00000081,-0.00000510,-0.00000200,0.00000010,
 -0.00000705,-0.00000085,-0.00000095,0.00000300,-0.00000002,-0.00000120
 ,0.00000295,0.00000154,0.00000811,0.00000233,-0.00000132,-0.00000285,-
 0.00000136,0.00000245,0.00000275,-0.00000382,0.00000338,-0.00000578,0.
 00000178,-0.00000763,0.00000045,-0.00000023,0.00000038,-0.00000120,0.0
 0000111,-0.00000167,-0.00000049,-0.00000065,-0.00000006,-0.00000065,0.
 00000106,-0.00000182,0.00000068,-0.00000376,-0.00000094,0.00000075,0.0
 0000118,0.00000529,0.00000011,0.00000376,0.00000172,0.00000108,0.00000
 048,-0.00000111,-0.00000082,-0.00000015,0.00000073,0.00000107,0.000001
 19,0.00000067,0.00000047,-0.00000015,-0.00000003,-0.00000006,-0.000000
 02,0.00000022,-0.00000010,0.00000013,-0.00000014,-0.00000018,0.0000002
 5,-0.00000023,-0.00000062,0.00000058,0.00000002,-0.00000045,-0.0000000
 7,0.00000021,-0.00000060,-0.00000056,-0.00000036,0.00000021,0.00000027
 \\\@


 A DANDELION FROM A LOVER MEANS MORE THAN AN ORCHID FROM A FRIEND.
 Job cpu time:       0 days  2 hours  6 minutes 35.7 seconds.
 File lengths (MBytes):  RWF=    415 Int=      0 D2E=      0 Chk=     13 Scr=      1
 Normal termination of Gaussian 09 at Wed Jul 28 23:33:21 2021.
