 Entering Gaussian System, Link 0=g09
 Input=opt_freq-conf-295.com
 Output=opt_freq-conf-295.log
 Initial command:
 /aerosol/software/g09/l1.exe "/scratch/nicole/10633/Gau-83272.inp" -scrdir="/scratch/nicole/10633/"
 Entering Link 1 = /aerosol/software/g09/l1.exe PID=     83275.
  
 Copyright (c) 1988,1990,1992,1993,1995,1998,2003,2009,2013,
            Gaussian, Inc.  All Rights Reserved.
  
 This is part of the Gaussian(R) 09 program.  It is based on
 the Gaussian(R) 03 system (copyright 2003, Gaussian, Inc.),
 the Gaussian(R) 98 system (copyright 1998, Gaussian, Inc.),
 the Gaussian(R) 94 system (copyright 1995, Gaussian, Inc.),
 the Gaussian 92(TM) system (copyright 1992, Gaussian, Inc.),
 the Gaussian 90(TM) system (copyright 1990, Gaussian, Inc.),
 the Gaussian 88(TM) system (copyright 1988, Gaussian, Inc.),
 the Gaussian 86(TM) system (copyright 1986, Carnegie Mellon
 University), and the Gaussian 82(TM) system (copyright 1983,
 Carnegie Mellon University). Gaussian is a federally registered
 trademark of Gaussian, Inc.
  
 This software contains proprietary and confidential information,
 including trade secrets, belonging to Gaussian, Inc.
  
 This software is provided under written license and may be
 used, copied, transmitted, or stored only in accord with that
 written license.
  
 The following legend is applicable only to US Government
 contracts under FAR:
  
                    RESTRICTED RIGHTS LEGEND
  
 Use, reproduction and disclosure by the US Government is
 subject to restrictions as set forth in subparagraphs (a)
 and (c) of the Commercial Computer Software - Restricted
 Rights clause in FAR 52.227-19.
  
 Gaussian, Inc.
 340 Quinnipiac St., Bldg. 40, Wallingford CT 06492
  
  
 ---------------------------------------------------------------
 Warning -- This program may not be used in any manner that
 competes with the business of Gaussian, Inc. or will provide
 assistance to any competitor of Gaussian, Inc.  The licensee
 of this program is prohibited from giving any competitor of
 Gaussian, Inc. access to this program.  By using this program,
 the user acknowledges that Gaussian, Inc. is engaged in the
 business of creating and licensing software in the field of
 computational chemistry and represents and warrants to the
 licensee that it is not a competitor of Gaussian, Inc. and that
 it will not use this program in any manner prohibited above.
 ---------------------------------------------------------------
  

 Cite this work as:
 Gaussian 09, Revision D.01,
 M. J. Frisch, G. W. Trucks, H. B. Schlegel, G. E. Scuseria, 
 M. A. Robb, J. R. Cheeseman, G. Scalmani, V. Barone, B. Mennucci, 
 G. A. Petersson, H. Nakatsuji, M. Caricato, X. Li, H. P. Hratchian, 
 A. F. Izmaylov, J. Bloino, G. Zheng, J. L. Sonnenberg, M. Hada, 
 M. Ehara, K. Toyota, R. Fukuda, J. Hasegawa, M. Ishida, T. Nakajima, 
 Y. Honda, O. Kitao, H. Nakai, T. Vreven, J. A. Montgomery, Jr., 
 J. E. Peralta, F. Ogliaro, M. Bearpark, J. J. Heyd, E. Brothers, 
 K. N. Kudin, V. N. Staroverov, T. Keith, R. Kobayashi, J. Normand, 
 K. Raghavachari, A. Rendell, J. C. Burant, S. S. Iyengar, J. Tomasi, 
 M. Cossi, N. Rega, J. M. Millam, M. Klene, J. E. Knox, J. B. Cross, 
 V. Bakken, C. Adamo, J. Jaramillo, R. Gomperts, R. E. Stratmann, 
 O. Yazyev, A. J. Austin, R. Cammi, C. Pomelli, J. W. Ochterski, 
 R. L. Martin, K. Morokuma, V. G. Zakrzewski, G. A. Voth, 
 P. Salvador, J. J. Dannenberg, S. Dapprich, A. D. Daniels, 
 O. Farkas, J. B. Foresman, J. V. Ortiz, J. Cioslowski, 
 and D. J. Fox, Gaussian, Inc., Wallingford CT, 2013.
 
 ******************************************
 Gaussian 09:  ES64L-G09RevD.01 24-Apr-2013
                28-Jul-2021 
 ******************************************
 %mem=2gb
 %nproc=4
 Will use up to    4 processors via shared memory.
 %chk=conf-295.chk
 ----------------------------------------------------------------------
 # B3LYP/6-311G(d,p) opt=calcfc freq=noraman nosymm integral(ultrafineg
 rid)
 ----------------------------------------------------------------------
 1/10=4,14=-1,18=20,19=15,26=4,38=1/1,3;
 2/9=110,12=2,15=1,17=6,18=5,40=1/2;
 3/5=4,6=6,7=101,11=2,16=1,25=1,30=1,71=2,74=-5,75=-5,140=1/1,2,3;
 4//1;
 5/5=2,38=5/2;
 8/6=4,10=90,11=11/1;
 11/6=1,8=1,9=11,15=111,16=1,31=1/1,2,10;
 10/6=1,13=1,31=1/2;
 6/7=2,8=2,9=2,10=2,28=1/1;
 7/10=1,18=20,25=1,30=1/1,2,3,16;
 1/10=4,14=-1,18=20,19=15,26=4/3(2);
 2/9=110,15=1/2;
 99//99;
 2/9=110,15=1/2;
 3/5=4,6=6,7=101,11=2,16=1,25=1,30=1,71=1,74=-5,75=-5/1,2,3;
 4/5=5,16=3,69=1/1;
 5/5=2,38=5/2;
 7/30=1/1,2,3,16;
 1/14=-1,18=20,19=15,26=4/3(-5);
 2/9=110,15=1/2;
 6/7=2,8=2,9=2,10=2,19=2,28=1/1;
 99/9=1/99;
 ------------------------------------------------------------
 Candidate Structure: Conf:295 OPT and FREQ calc in gas phase
 ------------------------------------------------------------
 Symbolic Z-matrix:
 Charge =  0 Multiplicity = 1
 O                     0.99868   0.25393  -1.30825 
 C                     1.54103  -0.4116   -0.43426 
 N                     0.88521  -0.77622   0.69038 
 C                    -0.45719  -0.27355   0.92541 
 C                    -0.73566  -0.43996   2.40348 
 O                    -1.96335   0.00395   2.75481 
 O                     0.03439  -0.91686   3.19448 
 C                    -1.48971  -0.99987   0.0266 
 C                    -2.56601  -0.09592  -0.47179 
 C                    -2.94691   0.23608  -1.74047 
 N                    -3.99656   1.13826  -1.71326 
 C                    -4.2317    1.3495   -0.44114 
 N                    -3.38666   0.6337    0.34865 
 C                     2.98549  -0.87192  -0.53834 
 C                     3.94273   0.31628  -0.57455 
 N                     3.84995   0.99938  -1.86386 
 H                     1.37442  -1.15506   1.48561 
 H                    -0.45034   0.79627   0.6873 
 H                    -2.03655  -0.13336   3.7117 
 H                    -0.96322  -1.38181  -0.84588 
 H                    -1.90081  -1.86282   0.55072 
 H                    -2.5303   -0.1175   -2.67275 
 H                    -4.98513   1.99431  -0.02581 
 H                    -3.32973   0.6303    1.35462 
 H                     3.21975  -1.53327   0.29868 
 H                     3.09015  -1.43985  -1.46574 
 H                     4.96531  -0.05625  -0.46242 
 H                     3.74311   0.97263   0.2886 
 H                     2.89883   1.32085  -2.00384 
 H                     4.44081   1.82038  -1.85746 
 

 GradGradGradGradGradGradGradGradGradGradGradGradGradGradGradGradGradGrad
 Berny optimization.
 Initialization pass.
                           ----------------------------
                           !    Initial Parameters    !
                           ! (Angstroms and Degrees)  !
 --------------------------                            --------------------------
 ! Name  Definition              Value          Derivative Info.                !
 --------------------------------------------------------------------------------
 ! R1    R(1,2)                  1.2251         calculate D2E/DX2 analytically  !
 ! R2    R(2,3)                  1.352          calculate D2E/DX2 analytically  !
 ! R3    R(2,14)                 1.5196         calculate D2E/DX2 analytically  !
 ! R4    R(3,4)                  1.4526         calculate D2E/DX2 analytically  !
 ! R5    R(3,17)                 1.0076         calculate D2E/DX2 analytically  !
 ! R6    R(4,5)                  1.5133         calculate D2E/DX2 analytically  !
 ! R7    R(4,8)                  1.5497         calculate D2E/DX2 analytically  !
 ! R8    R(4,18)                 1.096          calculate D2E/DX2 analytically  !
 ! R9    R(5,6)                  1.3519         calculate D2E/DX2 analytically  !
 ! R10   R(5,7)                  1.2025         calculate D2E/DX2 analytically  !
 ! R11   R(6,19)                 0.9695         calculate D2E/DX2 analytically  !
 ! R12   R(8,9)                  1.4913         calculate D2E/DX2 analytically  !
 ! R13   R(8,20)                 1.0882         calculate D2E/DX2 analytically  !
 ! R14   R(8,21)                 1.0901         calculate D2E/DX2 analytically  !
 ! R15   R(9,10)                 1.3656         calculate D2E/DX2 analytically  !
 ! R16   R(9,13)                 1.3707         calculate D2E/DX2 analytically  !
 ! R17   R(10,11)                1.3844         calculate D2E/DX2 analytically  !
 ! R18   R(10,22)                1.0806         calculate D2E/DX2 analytically  !
 ! R19   R(11,12)                1.3108         calculate D2E/DX2 analytically  !
 ! R20   R(12,13)                1.3602         calculate D2E/DX2 analytically  !
 ! R21   R(12,23)                1.0751         calculate D2E/DX2 analytically  !
 ! R22   R(13,24)                1.0076         calculate D2E/DX2 analytically  !
 ! R23   R(14,15)                1.5263         calculate D2E/DX2 analytically  !
 ! R24   R(14,25)                1.0922         calculate D2E/DX2 analytically  !
 ! R25   R(14,26)                1.0925         calculate D2E/DX2 analytically  !
 ! R26   R(15,16)                1.462          calculate D2E/DX2 analytically  !
 ! R27   R(15,27)                1.0941         calculate D2E/DX2 analytically  !
 ! R28   R(15,28)                1.1026         calculate D2E/DX2 analytically  !
 ! R29   R(16,29)                1.0137         calculate D2E/DX2 analytically  !
 ! R30   R(16,30)                1.0115         calculate D2E/DX2 analytically  !
 ! A1    A(1,2,3)              121.6817         calculate D2E/DX2 analytically  !
 ! A2    A(1,2,14)             122.4452         calculate D2E/DX2 analytically  !
 ! A3    A(3,2,14)             115.8724         calculate D2E/DX2 analytically  !
 ! A4    A(2,3,4)              119.311          calculate D2E/DX2 analytically  !
 ! A5    A(2,3,17)             121.4939         calculate D2E/DX2 analytically  !
 ! A6    A(4,3,17)             116.8152         calculate D2E/DX2 analytically  !
 ! A7    A(3,4,5)              106.8608         calculate D2E/DX2 analytically  !
 ! A8    A(3,4,8)              111.0823         calculate D2E/DX2 analytically  !
 ! A9    A(3,4,18)             107.2694         calculate D2E/DX2 analytically  !
 ! A10   A(5,4,8)              113.1012         calculate D2E/DX2 analytically  !
 ! A11   A(5,4,18)             108.7047         calculate D2E/DX2 analytically  !
 ! A12   A(8,4,18)             109.6119         calculate D2E/DX2 analytically  !
 ! A13   A(4,5,6)              112.6336         calculate D2E/DX2 analytically  !
 ! A14   A(4,5,7)              124.6287         calculate D2E/DX2 analytically  !
 ! A15   A(6,5,7)              122.7372         calculate D2E/DX2 analytically  !
 ! A16   A(5,6,19)             106.1745         calculate D2E/DX2 analytically  !
 ! A17   A(4,8,9)              112.992          calculate D2E/DX2 analytically  !
 ! A18   A(4,8,20)             107.8876         calculate D2E/DX2 analytically  !
 ! A19   A(4,8,21)             110.0859         calculate D2E/DX2 analytically  !
 ! A20   A(9,8,20)             107.0955         calculate D2E/DX2 analytically  !
 ! A21   A(9,8,21)             111.6136         calculate D2E/DX2 analytically  !
 ! A22   A(20,8,21)            106.8626         calculate D2E/DX2 analytically  !
 ! A23   A(8,9,10)             131.2355         calculate D2E/DX2 analytically  !
 ! A24   A(8,9,13)             123.6905         calculate D2E/DX2 analytically  !
 ! A25   A(10,9,13)            105.0498         calculate D2E/DX2 analytically  !
 ! A26   A(9,10,11)            110.5892         calculate D2E/DX2 analytically  !
 ! A27   A(9,10,22)            127.9094         calculate D2E/DX2 analytically  !
 ! A28   A(11,10,22)           121.5013         calculate D2E/DX2 analytically  !
 ! A29   A(10,11,12)           105.077          calculate D2E/DX2 analytically  !
 ! A30   A(11,12,13)           111.5461         calculate D2E/DX2 analytically  !
 ! A31   A(11,12,23)           126.6744         calculate D2E/DX2 analytically  !
 ! A32   A(13,12,23)           121.7793         calculate D2E/DX2 analytically  !
 ! A33   A(9,13,12)            107.7286         calculate D2E/DX2 analytically  !
 ! A34   A(9,13,24)            124.1906         calculate D2E/DX2 analytically  !
 ! A35   A(12,13,24)           128.0671         calculate D2E/DX2 analytically  !
 ! A36   A(2,14,15)            111.2212         calculate D2E/DX2 analytically  !
 ! A37   A(2,14,25)            109.5615         calculate D2E/DX2 analytically  !
 ! A38   A(2,14,26)            107.8592         calculate D2E/DX2 analytically  !
 ! A39   A(15,14,25)           110.7974         calculate D2E/DX2 analytically  !
 ! A40   A(15,14,26)           108.9339         calculate D2E/DX2 analytically  !
 ! A41   A(25,14,26)           108.3746         calculate D2E/DX2 analytically  !
 ! A42   A(14,15,16)           110.1732         calculate D2E/DX2 analytically  !
 ! A43   A(14,15,27)           108.5833         calculate D2E/DX2 analytically  !
 ! A44   A(14,15,28)           109.3486         calculate D2E/DX2 analytically  !
 ! A45   A(16,15,27)           107.9854         calculate D2E/DX2 analytically  !
 ! A46   A(16,15,28)           113.6246         calculate D2E/DX2 analytically  !
 ! A47   A(27,15,28)           106.9585         calculate D2E/DX2 analytically  !
 ! A48   A(15,16,29)           109.2373         calculate D2E/DX2 analytically  !
 ! A49   A(15,16,30)           109.6686         calculate D2E/DX2 analytically  !
 ! A50   A(29,16,30)           106.9504         calculate D2E/DX2 analytically  !
 ! D1    D(1,2,3,4)             -5.3613         calculate D2E/DX2 analytically  !
 ! D2    D(1,2,3,17)          -167.2917         calculate D2E/DX2 analytically  !
 ! D3    D(14,2,3,4)           174.3349         calculate D2E/DX2 analytically  !
 ! D4    D(14,2,3,17)           12.4045         calculate D2E/DX2 analytically  !
 ! D5    D(1,2,14,15)           63.0622         calculate D2E/DX2 analytically  !
 ! D6    D(1,2,14,25)         -174.1045         calculate D2E/DX2 analytically  !
 ! D7    D(1,2,14,26)          -56.332          calculate D2E/DX2 analytically  !
 ! D8    D(3,2,14,15)         -116.6315         calculate D2E/DX2 analytically  !
 ! D9    D(3,2,14,25)            6.2019         calculate D2E/DX2 analytically  !
 ! D10   D(3,2,14,26)          123.9744         calculate D2E/DX2 analytically  !
 ! D11   D(2,3,4,5)           -161.0865         calculate D2E/DX2 analytically  !
 ! D12   D(2,3,4,8)             75.118          calculate D2E/DX2 analytically  !
 ! D13   D(2,3,4,18)           -44.6545         calculate D2E/DX2 analytically  !
 ! D14   D(17,3,4,5)             1.675          calculate D2E/DX2 analytically  !
 ! D15   D(17,3,4,8)          -122.1205         calculate D2E/DX2 analytically  !
 ! D16   D(17,3,4,18)          118.107          calculate D2E/DX2 analytically  !
 ! D17   D(3,4,5,6)            179.5803         calculate D2E/DX2 analytically  !
 ! D18   D(3,4,5,7)             -0.6976         calculate D2E/DX2 analytically  !
 ! D19   D(8,4,5,6)            -57.878          calculate D2E/DX2 analytically  !
 ! D20   D(8,4,5,7)            121.8441         calculate D2E/DX2 analytically  !
 ! D21   D(18,4,5,6)            64.1058         calculate D2E/DX2 analytically  !
 ! D22   D(18,4,5,7)          -116.1721         calculate D2E/DX2 analytically  !
 ! D23   D(3,4,8,9)           -142.58           calculate D2E/DX2 analytically  !
 ! D24   D(3,4,8,20)           -24.3832         calculate D2E/DX2 analytically  !
 ! D25   D(3,4,8,21)            91.8849         calculate D2E/DX2 analytically  !
 ! D26   D(5,4,8,9)             97.2611         calculate D2E/DX2 analytically  !
 ! D27   D(5,4,8,20)          -144.5421         calculate D2E/DX2 analytically  !
 ! D28   D(5,4,8,21)           -28.274          calculate D2E/DX2 analytically  !
 ! D29   D(18,4,8,9)           -24.2128         calculate D2E/DX2 analytically  !
 ! D30   D(18,4,8,20)           93.984          calculate D2E/DX2 analytically  !
 ! D31   D(18,4,8,21)         -149.7479         calculate D2E/DX2 analytically  !
 ! D32   D(4,5,6,19)          -179.1609         calculate D2E/DX2 analytically  !
 ! D33   D(7,5,6,19)             1.1109         calculate D2E/DX2 analytically  !
 ! D34   D(4,8,9,10)           120.6832         calculate D2E/DX2 analytically  !
 ! D35   D(4,8,9,13)           -57.2465         calculate D2E/DX2 analytically  !
 ! D36   D(20,8,9,10)            2.0253         calculate D2E/DX2 analytically  !
 ! D37   D(20,8,9,13)         -175.9044         calculate D2E/DX2 analytically  !
 ! D38   D(21,8,9,10)         -114.6089         calculate D2E/DX2 analytically  !
 ! D39   D(21,8,9,13)           67.4613         calculate D2E/DX2 analytically  !
 ! D40   D(8,9,10,11)         -179.108          calculate D2E/DX2 analytically  !
 ! D41   D(8,9,10,22)            0.8329         calculate D2E/DX2 analytically  !
 ! D42   D(13,9,10,11)          -0.8916         calculate D2E/DX2 analytically  !
 ! D43   D(13,9,10,22)         179.0493         calculate D2E/DX2 analytically  !
 ! D44   D(8,9,13,12)          179.3457         calculate D2E/DX2 analytically  !
 ! D45   D(8,9,13,24)            0.5989         calculate D2E/DX2 analytically  !
 ! D46   D(10,9,13,12)           0.9577         calculate D2E/DX2 analytically  !
 ! D47   D(10,9,13,24)        -177.7891         calculate D2E/DX2 analytically  !
 ! D48   D(9,10,11,12)           0.471          calculate D2E/DX2 analytically  !
 ! D49   D(22,10,11,12)       -179.4743         calculate D2E/DX2 analytically  !
 ! D50   D(10,11,12,13)          0.1596         calculate D2E/DX2 analytically  !
 ! D51   D(10,11,12,23)       -179.7166         calculate D2E/DX2 analytically  !
 ! D52   D(11,12,13,9)          -0.7218         calculate D2E/DX2 analytically  !
 ! D53   D(11,12,13,24)        177.9615         calculate D2E/DX2 analytically  !
 ! D54   D(23,12,13,9)         179.1613         calculate D2E/DX2 analytically  !
 ! D55   D(23,12,13,24)         -2.1554         calculate D2E/DX2 analytically  !
 ! D56   D(2,14,15,16)         -72.2829         calculate D2E/DX2 analytically  !
 ! D57   D(2,14,15,27)         169.6456         calculate D2E/DX2 analytically  !
 ! D58   D(2,14,15,28)          53.2732         calculate D2E/DX2 analytically  !
 ! D59   D(25,14,15,16)        165.5973         calculate D2E/DX2 analytically  !
 ! D60   D(25,14,15,27)         47.5258         calculate D2E/DX2 analytically  !
 ! D61   D(25,14,15,28)        -68.8466         calculate D2E/DX2 analytically  !
 ! D62   D(26,14,15,16)         46.4684         calculate D2E/DX2 analytically  !
 ! D63   D(26,14,15,27)        -71.6032         calculate D2E/DX2 analytically  !
 ! D64   D(26,14,15,28)        172.0245         calculate D2E/DX2 analytically  !
 ! D65   D(14,15,16,29)         59.3398         calculate D2E/DX2 analytically  !
 ! D66   D(14,15,16,30)        176.2537         calculate D2E/DX2 analytically  !
 ! D67   D(27,15,16,29)        177.7789         calculate D2E/DX2 analytically  !
 ! D68   D(27,15,16,30)        -65.3072         calculate D2E/DX2 analytically  !
 ! D69   D(28,15,16,29)        -63.7502         calculate D2E/DX2 analytically  !
 ! D70   D(28,15,16,30)         53.1638         calculate D2E/DX2 analytically  !
 --------------------------------------------------------------------------------
 Trust Radius=3.00D-01 FncErr=1.00D-07 GrdErr=1.00D-06
 Number of steps in this run=    160 maximum allowed number of steps=    180.
 GradGradGradGradGradGradGradGradGradGradGradGradGradGradGradGradGradGrad

                          Input orientation:                          
 ---------------------------------------------------------------------
 Center     Atomic      Atomic             Coordinates (Angstroms)
 Number     Number       Type             X           Y           Z
 ---------------------------------------------------------------------
      1          8           0        0.998683    0.253927   -1.308250
      2          6           0        1.541026   -0.411601   -0.434263
      3          7           0        0.885208   -0.776224    0.690382
      4          6           0       -0.457190   -0.273549    0.925408
      5          6           0       -0.735662   -0.439963    2.403476
      6          8           0       -1.963350    0.003948    2.754810
      7          8           0        0.034390   -0.916863    3.194478
      8          6           0       -1.489712   -0.999874    0.026602
      9          6           0       -2.566006   -0.095922   -0.471785
     10          6           0       -2.946906    0.236082   -1.740470
     11          7           0       -3.996562    1.138259   -1.713258
     12          6           0       -4.231700    1.349504   -0.441144
     13          7           0       -3.386661    0.633703    0.348655
     14          6           0        2.985486   -0.871919   -0.538343
     15          6           0        3.942728    0.316283   -0.574547
     16          7           0        3.849954    0.999382   -1.863858
     17          1           0        1.374419   -1.155058    1.485610
     18          1           0       -0.450345    0.796273    0.687298
     19          1           0       -2.036547   -0.133365    3.711704
     20          1           0       -0.963225   -1.381810   -0.845878
     21          1           0       -1.900811   -1.862824    0.550719
     22          1           0       -2.530295   -0.117504   -2.672748
     23          1           0       -4.985133    1.994313   -0.025806
     24          1           0       -3.329726    0.630302    1.354620
     25          1           0        3.219749   -1.533269    0.298684
     26          1           0        3.090155   -1.439846   -1.465738
     27          1           0        4.965309   -0.056250   -0.462419
     28          1           0        3.743108    0.972631    0.288604
     29          1           0        2.898827    1.320853   -2.003836
     30          1           0        4.440808    1.820382   -1.857464
 ---------------------------------------------------------------------
                    Distance matrix (angstroms):
                    1          2          3          4          5
     1  O    0.000000
     2  C    1.225119   0.000000
     3  N    2.251359   1.351989   0.000000
     4  C    2.717908   2.420874   1.452567   0.000000
     5  C    4.155280   3.638252   2.382223   1.513250   0.000000
     6  O    5.034341   4.756419   3.603445   2.385840   1.351928
     7  O    4.751333   3.961440   2.648427   2.409187   1.202538
     8  C    3.089653   3.121512   2.476059   1.549679   2.555704
     9  C    3.678189   4.119317   3.704635   2.535904   3.425734
    10  C    3.969232   4.718814   4.649613   3.683113   4.745412
    11  N    5.089062   5.890906   5.768397   4.634967   5.483772
    12  C    5.413785   6.035387   5.655247   4.329976   4.849364
    13  N    4.703276   5.097815   4.511490   3.120506   3.521768
    14  C    2.409912   1.519602   2.435178   3.788487   4.763174
    15  C    3.034734   2.513497   3.484544   4.685834   5.597130
    16  N    2.999025   3.060353   4.297282   5.286950   6.427265
    17  H    3.151519   2.065526   1.007586   2.108476   2.409623
    18  H    2.525081   2.585037   2.063118   1.096022   2.134234
    19  H    5.878993   5.483200   4.251859   3.205849   1.870231
    20  H    2.595863   2.716985   2.478615   2.149830   3.390747
    21  H    4.042705   3.862962   2.993678   2.179502   2.610520
    22  H    3.801776   4.655423   4.838410   4.155580   5.393769
    23  H    6.362363   6.967497   6.530674   5.152696   5.466728
    24  H    5.095847   5.292437   4.492794   3.041814   2.995786
    25  H    3.272528   2.147897   2.485282   3.936947   4.612022
    26  H    2.695909   2.126271   3.154527   4.434127   5.532401
    27  H    4.067648   3.442787   4.300527   5.601497   6.392313
    28  H    3.255511   2.699593   3.374539   4.427300   5.150484
    29  H    2.287514   2.703438   3.963736   4.731325   5.977825
    30  H    3.821471   3.926319   5.086862   6.009934   7.075353
                    6          7          8          9         10
     6  O    0.000000
     7  O    2.243249   0.000000
     8  C    2.945354   3.516421   0.000000
     9  C    3.283913   4.569190   1.491284   0.000000
    10  C    4.607474   5.879721   2.602604   1.365603   0.000000
    11  N    5.038279   6.675176   3.725993   2.260741   1.384356
    12  C    4.143676   6.045965   3.640997   2.205613   2.139778
    13  N    2.865657   4.712384   2.524026   1.370748   2.171619
    14  C    6.008575   4.758669   4.512531   5.605860   6.153540
    15  C    6.787041   5.567881   5.621838   6.522584   6.988052
    16  N    7.491160   6.619462   6.006904   6.655982   6.840699
    17  H    3.754312   2.184638   3.218079   4.525496   5.569265
    18  H    2.681710   3.075021   2.177832   2.572064   3.527137
    19  H    0.969463   2.273801   3.824898   4.217027   5.539986
    20  H    3.985665   4.187587   1.088249   2.088627   2.711616
    21  H    2.889077   3.410177   1.090129   2.147078   3.278608
    22  H    5.458439   6.452978   3.024546   2.201358   1.080615
    23  H    4.563393   6.636323   4.602811   3.228027   3.191523
    24  H    2.054224   4.134740   2.794057   2.108655   3.143492
    25  H    5.938021   4.348803   4.747374   6.011202   6.731745
    26  H    6.740584   5.597216   4.836924   5.897985   6.271389
    27  H    7.639404   6.198992   6.541931   7.531425   8.020101
    28  H    6.291596   5.076305   5.598377   6.443983   7.029647
    29  H    6.929626   6.343093   5.363556   5.849687   5.951360
    30  H    8.098502   7.240935   6.831883   7.395118   7.556587
                   11         12         13         14         15
    11  N    0.000000
    12  C    1.310797   0.000000
    13  N    2.208629   1.360236   0.000000
    14  C    7.360044   7.551950   6.607414   0.000000
    15  C    8.062545   8.240547   7.394120   1.526252   0.000000
    16  N    7.849190   8.213393   7.576116   2.450727   1.462037
    17  H    6.658791   6.435353   5.211546   2.602324   3.606287
    18  H    4.295961   3.984732   2.960247   4.011233   4.595839
    19  H    5.906683   4.925824   3.704228   6.620360   7.370608
    20  H    4.037850   4.278646   3.370793   3.993355   5.198607
    21  H    4.303982   4.090952   2.912255   5.103317   6.337324
    22  H    2.155806   3.166536   3.229017   5.962271   6.818405
    23  H    2.134853   1.075150   2.132274   8.485797   9.100748
    24  H    3.180341   2.134379   1.007581   6.761795   7.530530
    25  H    7.953623   8.023828   6.952907   1.092189   2.169349
    26  H    7.545161   7.901887   7.038521   1.092502   2.145948
    27  H    9.127244   9.303847   8.419577   2.142610   1.094086
    28  H    7.996085   8.016990   7.138073   2.158749   1.102575
    29  H    6.903924   7.299811   6.746388   2.638830   2.035130
    30  H    8.466127   8.800004   8.218542   3.332645   2.038694
                   16         17         18         19         20
    16  N    0.000000
    17  H    4.689224   0.000000
    18  H    5.004220   2.788325   0.000000
    19  H    8.186629   4.199290   3.539392   0.000000
    20  H    5.465625   3.309355   2.712512   4.845843   0.000000
    21  H    6.862485   3.478804   3.032046   3.605729   1.749550
    22  H    6.527581   5.797865   4.055994   6.403535   2.718755
    23  H    9.078936   7.255812   4.744273   5.214418   5.314741
    24  H    7.876714   5.033254   2.960355   2.794878   3.806719
    25  H    3.389405   2.226450   4.364330   6.421610   4.339381
    26  H    2.585659   3.425684   4.708602   7.402423   4.100912
    27  H    2.079040   4.230448   5.601602   8.152008   6.087008
    28  H    2.155278   3.401554   4.216053   6.807734   5.383309
    29  H    1.013696   4.542046   4.328318   7.690258   4.853937
    30  H    1.011529   5.425138   5.607850   8.762926   6.362461
                   21         22         23         24         25
    21  H    0.000000
    22  H    3.719291   0.000000
    23  H    4.972216   4.182380   0.000000
    24  H    2.983912   4.173487   2.550779   0.000000
    25  H    5.137339   6.625466   8.936958   6.977941   0.000000
    26  H    5.399513   5.898722   8.892532   7.311279   1.771640
    27  H    7.171733   7.814946  10.168910   8.519424   2.409947
    28  H    6.321576   7.022363   8.793457   7.160905   2.559989
    29  H    6.300641   5.656119   8.156163   7.109920   3.681114
    30  H    7.718904   7.281234   9.603832   8.492053   4.169764
                   26         27         28         29         30
    26  H    0.000000
    27  H    2.537162   0.000000
    28  H    3.053541   1.765335   0.000000
    29  H    2.819151   2.922794   2.467660   0.000000
    30  H    3.550606   2.396456   2.410617   1.627470   0.000000
 Symmetry turned off by external request.
 Stoichiometry    C9H14N4O3
 Framework group  C1[X(C9H14N4O3)]
 Deg. of freedom    84
 Full point group                 C1      NOp   1
 Rotational constants (GHZ):      0.7362152      0.3081977      0.2331108
 Standard basis: 6-311G(d,p) (5D, 7F)
   372 basis functions,   624 primitive gaussians,   388 cartesian basis functions
    60 alpha electrons       60 beta electrons
       nuclear repulsion energy      1121.3042026874 Hartrees.
 NAtoms=   30 NActive=   30 NUniq=   30 SFac= 1.00D+00 NAtFMM=   60 NAOKFM=F Big=F
 Integral buffers will be    131072 words long.
 Raffenetti 2 integral format.
 Two-electron integral symmetry is turned off.
 One-electron integrals computed using PRISM.
 NBasis=   372 RedAO= T EigKep=  5.57D-04  NBF=   372
 NBsUse=   372 1.00D-06 EigRej= -1.00D+00 NBFU=   372
 ExpMin= 1.03D-01 ExpMax= 8.59D+03 ExpMxC= 1.30D+03 IAcc=3 IRadAn=         5 AccDes= 0.00D+00
 Harris functional with IExCor=  402 and IRadAn=       5 diagonalized for initial guess.
 HarFok:  IExCor=  402 AccDes= 0.00D+00 IRadAn=         5 IDoV= 1 UseB2=F ITyADJ=14
 ICtDFT=  3500011 ScaDFX=  1.000000  1.000000  1.000000  1.000000
 FoFCou: FMM=F IPFlag=           0 FMFlag=      100000 FMFlg1=           0
         NFxFlg=           0 DoJE=T BraDBF=F KetDBF=T FulRan=T
         wScrn=  0.000000 ICntrl=     500 IOpCl=  0 I1Cent=   200000004 NGrid=           0
         NMat0=    1 NMatS0=      1 NMatT0=    0 NMatD0=    1 NMtDS0=    0 NMtDT0=    0
 Symmetry not used in FoFCou.
 Requested convergence on RMS density matrix=1.00D-08 within 128 cycles.
 Requested convergence on MAX density matrix=1.00D-06.
 Requested convergence on             energy=1.00D-06.
 No special actions if energy rises.
 Integral accuracy reduced to 1.0D-05 until final iterations.
 Initial convergence to 1.0D-05 achieved.  Increase integral accuracy.
 SCF Done:  E(RB3LYP) =  -796.307905206     A.U. after   14 cycles
            NFock= 14  Conv=0.40D-08     -V/T= 2.0032
 DoSCS=F DFT=T ScalE2(SS,OS)=  1.000000  1.000000
 Range of M.O.s used for correlation:     1   372
 NBasis=   372 NAE=    60 NBE=    60 NFC=     0 NFV=     0
 NROrb=    372 NOA=    60 NOB=    60 NVA=   312 NVB=   312
 Symmetrizing basis deriv contribution to polar:
 IMax=3 JMax=2 DiffMx= 0.00D+00
 G2DrvN: will do    31 centers at a time, making    1 passes.
 Calling FoFCou, ICntrl=  3107 FMM=F I1Cent=   0 AccDes= 0.00D+00.
 End of G2Drv F.D. properties file   721 does not exist.
 End of G2Drv F.D. properties file   722 does not exist.
 End of G2Drv F.D. properties file   788 does not exist.
          IDoAtm=111111111111111111111111111111
          Differentiating once with respect to nuclear coordinates.
          There are    93 degrees of freedom in the 1st order CPHF.  IDoFFX=6 NUNeed=     0.
     87 vectors produced by pass  0 Test12= 2.01D-14 1.08D-09 XBig12= 1.75D-01 9.97D-02.
 AX will form    87 AO Fock derivatives at one time.
     87 vectors produced by pass  1 Test12= 2.01D-14 1.08D-09 XBig12= 3.03D-02 4.31D-02.
     87 vectors produced by pass  2 Test12= 2.01D-14 1.08D-09 XBig12= 2.57D-04 3.76D-03.
     87 vectors produced by pass  3 Test12= 2.01D-14 1.08D-09 XBig12= 8.88D-07 1.39D-04.
     87 vectors produced by pass  4 Test12= 2.01D-14 1.08D-09 XBig12= 1.39D-09 4.01D-06.
     78 vectors produced by pass  5 Test12= 2.01D-14 1.08D-09 XBig12= 1.88D-12 1.63D-07.
     26 vectors produced by pass  6 Test12= 2.01D-14 1.08D-09 XBig12= 2.53D-15 6.50D-09.
 InvSVY:  IOpt=1 It=  1 EMax= 7.22D-16
 Solved reduced A of dimension   539 with    93 vectors.
 End of Minotr F.D. properties file   721 does not exist.
 End of Minotr F.D. properties file   722 does not exist.
 End of Minotr F.D. properties file   788 does not exist.

 **********************************************************************

            Population analysis using the SCF density.

 **********************************************************************

 Alpha  occ. eigenvalues --  -19.21453 -19.15371 -19.09066 -14.35558 -14.34933
 Alpha  occ. eigenvalues --  -14.27798 -14.27523 -10.34534 -10.27747 -10.25024
 Alpha  occ. eigenvalues --  -10.21232 -10.19960 -10.19945 -10.19638 -10.18177
 Alpha  occ. eigenvalues --  -10.16925  -1.15921  -1.07033  -1.05082  -1.01197
 Alpha  occ. eigenvalues --   -0.94689  -0.87999  -0.86531  -0.81824  -0.76661
 Alpha  occ. eigenvalues --   -0.74528  -0.69251  -0.65977  -0.61968  -0.61141
 Alpha  occ. eigenvalues --   -0.60593  -0.58688  -0.55145  -0.53589  -0.53007
 Alpha  occ. eigenvalues --   -0.50946  -0.50095  -0.49288  -0.47526  -0.46807
 Alpha  occ. eigenvalues --   -0.46182  -0.44959  -0.43436  -0.42444  -0.41430
 Alpha  occ. eigenvalues --   -0.40846  -0.40085  -0.39785  -0.39518  -0.38420
 Alpha  occ. eigenvalues --   -0.37417  -0.37131  -0.35684  -0.32521  -0.28031
 Alpha  occ. eigenvalues --   -0.27552  -0.26260  -0.26009  -0.23356  -0.22256
 Alpha virt. eigenvalues --   -0.03454   0.00184   0.00862   0.02704   0.03659
 Alpha virt. eigenvalues --    0.06138   0.06547   0.06611   0.07061   0.07934
 Alpha virt. eigenvalues --    0.08118   0.09699   0.09945   0.10917   0.11797
 Alpha virt. eigenvalues --    0.12292   0.14013   0.14909   0.16233   0.17949
 Alpha virt. eigenvalues --    0.19626   0.20018   0.21741   0.22264   0.22906
 Alpha virt. eigenvalues --    0.23005   0.24069   0.25294   0.26956   0.29096
 Alpha virt. eigenvalues --    0.30676   0.32922   0.33998   0.34592   0.35393
 Alpha virt. eigenvalues --    0.36136   0.36466   0.37077   0.38262   0.38578
 Alpha virt. eigenvalues --    0.38817   0.39324   0.40487   0.41628   0.41916
 Alpha virt. eigenvalues --    0.42860   0.43889   0.45285   0.47288   0.48065
 Alpha virt. eigenvalues --    0.48882   0.50234   0.50963   0.51011   0.53587
 Alpha virt. eigenvalues --    0.54413   0.54662   0.55309   0.55704   0.56717
 Alpha virt. eigenvalues --    0.57237   0.57779   0.58535   0.58799   0.59172
 Alpha virt. eigenvalues --    0.60100   0.60900   0.61394   0.62140   0.62998
 Alpha virt. eigenvalues --    0.63900   0.64432   0.65481   0.66634   0.66957
 Alpha virt. eigenvalues --    0.68155   0.68640   0.71100   0.71707   0.72911
 Alpha virt. eigenvalues --    0.73287   0.74732   0.75721   0.76192   0.76634
 Alpha virt. eigenvalues --    0.78621   0.80412   0.81249   0.82058   0.84673
 Alpha virt. eigenvalues --    0.86508   0.87049   0.89973   0.91026   0.92618
 Alpha virt. eigenvalues --    0.93459   0.96140   0.98400   0.99105   0.99883
 Alpha virt. eigenvalues --    1.01095   1.02820   1.03659   1.07364   1.08019
 Alpha virt. eigenvalues --    1.10190   1.11485   1.12386   1.14983   1.17918
 Alpha virt. eigenvalues --    1.19895   1.21044   1.22234   1.23185   1.25681
 Alpha virt. eigenvalues --    1.26591   1.27612   1.28747   1.30644   1.31998
 Alpha virt. eigenvalues --    1.34200   1.35289   1.37841   1.39723   1.40648
 Alpha virt. eigenvalues --    1.41974   1.42912   1.44815   1.46210   1.47090
 Alpha virt. eigenvalues --    1.48742   1.50252   1.51619   1.52824   1.53951
 Alpha virt. eigenvalues --    1.54464   1.54994   1.56020   1.56944   1.57644
 Alpha virt. eigenvalues --    1.59727   1.61106   1.62729   1.63475   1.64865
 Alpha virt. eigenvalues --    1.65907   1.66379   1.66629   1.68363   1.69145
 Alpha virt. eigenvalues --    1.70164   1.70453   1.71765   1.73131   1.74145
 Alpha virt. eigenvalues --    1.74835   1.75774   1.75931   1.77339   1.79645
 Alpha virt. eigenvalues --    1.80792   1.83869   1.84631   1.84845   1.87257
 Alpha virt. eigenvalues --    1.87666   1.89102   1.90756   1.93435   1.95468
 Alpha virt. eigenvalues --    1.96204   1.98964   2.00633   2.01767   2.03963
 Alpha virt. eigenvalues --    2.05293   2.07369   2.08868   2.11684   2.12529
 Alpha virt. eigenvalues --    2.15555   2.15635   2.17803   2.19897   2.22371
 Alpha virt. eigenvalues --    2.24161   2.24794   2.25945   2.29240   2.29718
 Alpha virt. eigenvalues --    2.32001   2.36043   2.36608   2.38780   2.41360
 Alpha virt. eigenvalues --    2.43600   2.44364   2.44987   2.46674   2.48329
 Alpha virt. eigenvalues --    2.49323   2.50792   2.52655   2.53287   2.55148
 Alpha virt. eigenvalues --    2.55491   2.56969   2.58724   2.60109   2.61082
 Alpha virt. eigenvalues --    2.62029   2.63939   2.65179   2.66145   2.66413
 Alpha virt. eigenvalues --    2.67925   2.69087   2.69635   2.70542   2.72327
 Alpha virt. eigenvalues --    2.73621   2.76054   2.76638   2.79407   2.81802
 Alpha virt. eigenvalues --    2.82117   2.82812   2.83394   2.83950   2.86457
 Alpha virt. eigenvalues --    2.88449   2.89308   2.90786   2.91659   2.92502
 Alpha virt. eigenvalues --    2.94816   2.97284   2.99921   3.00702   3.02588
 Alpha virt. eigenvalues --    3.03945   3.06341   3.07533   3.10635   3.11718
 Alpha virt. eigenvalues --    3.15715   3.20100   3.20877   3.25106   3.28280
 Alpha virt. eigenvalues --    3.31164   3.34996   3.38253   3.39039   3.43803
 Alpha virt. eigenvalues --    3.47054   3.51796   3.54165   3.58277   3.59482
 Alpha virt. eigenvalues --    3.65469   3.66479   3.68201   3.75407   3.76046
 Alpha virt. eigenvalues --    3.77520   3.79775   3.81551   3.82504   3.84590
 Alpha virt. eigenvalues --    3.85928   3.87854   3.89836   4.00172   4.03216
 Alpha virt. eigenvalues --    4.11354   4.20821   4.23338   4.33607   4.42540
 Alpha virt. eigenvalues --    4.75579   4.77128   4.77973   4.82723   4.85024
 Alpha virt. eigenvalues --    4.88225   4.93898   4.94504   4.95436   5.05113
 Alpha virt. eigenvalues --    5.13750   5.26360   5.30575   5.53488   5.66535
 Alpha virt. eigenvalues --    5.71623  23.71895  23.73014  23.77173  23.78758
 Alpha virt. eigenvalues --   23.86581  23.88724  23.91050  23.93752  24.16135
 Alpha virt. eigenvalues --   35.53048  35.58945  35.59729  35.69939  49.80015
 Alpha virt. eigenvalues --   49.95909  50.01595
          Condensed to atoms (all electrons):
               1          2          3          4          5          6
     1  O    7.908920   0.611329  -0.106982   0.009551   0.001050   0.000000
     2  C    0.611329   4.608625   0.337247  -0.063548   0.009537  -0.000130
     3  N   -0.106982   0.337247   6.768524   0.244317  -0.033845   0.001672
     4  C    0.009551  -0.063548   0.244317   5.285109   0.269810  -0.097446
     5  C    0.001050   0.009537  -0.033845   0.269810   4.501066   0.330401
     6  O    0.000000  -0.000130   0.001672  -0.097446   0.330401   7.856965
     7  O   -0.000008  -0.000404  -0.008052  -0.092167   0.651292  -0.075652
     8  C   -0.003927  -0.010966  -0.044726   0.308422  -0.055377   0.010040
     9  C   -0.002625   0.000794   0.007878  -0.079674   0.002030  -0.002477
    10  C    0.000584   0.000081  -0.000102  -0.001181   0.000104   0.000128
    11  N    0.000000   0.000001   0.000000  -0.000175  -0.000003  -0.000008
    12  C    0.000003  -0.000001   0.000001   0.000252  -0.000014  -0.000167
    13  N   -0.000006  -0.000013   0.000119   0.001243  -0.001494  -0.010450
    14  C   -0.078020   0.322649  -0.074891   0.011175  -0.000126   0.000000
    15  C    0.002290  -0.049937  -0.004790  -0.000712   0.000028   0.000000
    16  N   -0.006938  -0.006221   0.000257   0.000025   0.000000   0.000000
    17  H    0.002736  -0.019669   0.357389  -0.050676  -0.012239   0.001603
    18  H    0.016263  -0.004909  -0.041385   0.402404  -0.023900   0.002491
    19  H    0.000001   0.000048  -0.000376   0.016413  -0.027915   0.302350
    20  H    0.006970   0.001218  -0.010386  -0.024301   0.003290   0.000105
    21  H    0.000333   0.000339   0.004491  -0.062073  -0.000975   0.001493
    22  H    0.000698  -0.000027  -0.000029   0.000072   0.000006   0.000004
    23  H    0.000000   0.000000   0.000000  -0.000002   0.000008  -0.000055
    24  H   -0.000011   0.000000  -0.000001  -0.000212  -0.001465   0.025101
    25  H    0.004495  -0.047086   0.005108   0.000646  -0.000247  -0.000002
    26  H    0.003807  -0.039814   0.002339  -0.000532  -0.000008   0.000000
    27  H   -0.000236   0.008948  -0.000353   0.000038   0.000000   0.000000
    28  H    0.000054  -0.016379   0.002894  -0.000260  -0.000007   0.000000
    29  H    0.024056   0.003725   0.000980   0.000061  -0.000002   0.000000
    30  H   -0.000061   0.000677  -0.000021  -0.000007   0.000000   0.000000
               7          8          9         10         11         12
     1  O   -0.000008  -0.003927  -0.002625   0.000584   0.000000   0.000003
     2  C   -0.000404  -0.010966   0.000794   0.000081   0.000001  -0.000001
     3  N   -0.008052  -0.044726   0.007878  -0.000102   0.000000   0.000001
     4  C   -0.092167   0.308422  -0.079674  -0.001181  -0.000175   0.000252
     5  C    0.651292  -0.055377   0.002030   0.000104  -0.000003  -0.000014
     6  O   -0.075652   0.010040  -0.002477   0.000128  -0.000008  -0.000167
     7  O    7.802974  -0.000293   0.000384   0.000003   0.000000   0.000000
     8  C   -0.000293   5.041361   0.240167  -0.034990   0.007675   0.005232
     9  C    0.000384   0.240167   5.150371   0.571421  -0.090068  -0.127587
    10  C    0.000003  -0.034990   0.571421   4.826461   0.503540  -0.177823
    11  N    0.000000   0.007675  -0.090068   0.503540   6.434452   0.581896
    12  C    0.000000   0.005232  -0.127587  -0.177823   0.581896   4.746547
    13  N   -0.000031  -0.050340   0.379570  -0.069686  -0.091571   0.425145
    14  C   -0.000130  -0.001289  -0.000009   0.000003   0.000000   0.000000
    15  C    0.000003  -0.000033   0.000004   0.000000   0.000000   0.000000
    16  N    0.000000   0.000001   0.000000   0.000000   0.000000   0.000000
    17  H    0.035474   0.005613  -0.000561  -0.000001   0.000000   0.000000
    18  H    0.001090  -0.059153   0.009689   0.002098  -0.000405  -0.000183
    19  H    0.009981  -0.000864  -0.000173  -0.000021   0.000003   0.000011
    20  H   -0.000320   0.421679  -0.038483  -0.001852   0.000257  -0.000240
    21  H    0.000607   0.389678  -0.028865  -0.001194  -0.000289   0.000467
    22  H    0.000000  -0.000815  -0.048760   0.422333  -0.025295   0.008248
    23  H    0.000000  -0.000411   0.004598   0.006607  -0.023270   0.414756
    24  H    0.000356   0.000176  -0.034138   0.007999   0.005706  -0.022912
    25  H   -0.000319   0.000016   0.000012   0.000000   0.000000   0.000000
    26  H   -0.000002   0.000188  -0.000016  -0.000001   0.000000   0.000000
    27  H    0.000000  -0.000001   0.000000   0.000000   0.000000   0.000000
    28  H   -0.000009   0.000030  -0.000003   0.000000   0.000000   0.000000
    29  H    0.000000  -0.000006   0.000005   0.000002   0.000000   0.000000
    30  H    0.000000   0.000000   0.000000   0.000000   0.000000   0.000000
              13         14         15         16         17         18
     1  O   -0.000006  -0.078020   0.002290  -0.006938   0.002736   0.016263
     2  C   -0.000013   0.322649  -0.049937  -0.006221  -0.019669  -0.004909
     3  N    0.000119  -0.074891  -0.004790   0.000257   0.357389  -0.041385
     4  C    0.001243   0.011175  -0.000712   0.000025  -0.050676   0.402404
     5  C   -0.001494  -0.000126   0.000028   0.000000  -0.012239  -0.023900
     6  O   -0.010450   0.000000   0.000000   0.000000   0.001603   0.002491
     7  O   -0.000031  -0.000130   0.000003   0.000000   0.035474   0.001090
     8  C   -0.050340  -0.001289  -0.000033   0.000001   0.005613  -0.059153
     9  C    0.379570  -0.000009   0.000004   0.000000  -0.000561   0.009689
    10  C   -0.069686   0.000003   0.000000   0.000000  -0.000001   0.002098
    11  N   -0.091571   0.000000   0.000000   0.000000   0.000000  -0.000405
    12  C    0.425145   0.000000   0.000000   0.000000   0.000000  -0.000183
    13  N    6.466258   0.000000   0.000000   0.000000   0.000006   0.002807
    14  C    0.000000   5.086433   0.341706  -0.054139  -0.004464   0.001382
    15  C    0.000000   0.341706   4.820778   0.332041   0.000715   0.000271
    16  N    0.000000  -0.054139   0.332041   6.520993   0.000001  -0.000031
    17  H    0.000006  -0.004464   0.000715   0.000001   0.438709   0.004796
    18  H    0.002807   0.001382   0.000271  -0.000031   0.004796   0.497896
    19  H    0.000329   0.000000   0.000000   0.000000  -0.000403  -0.000730
    20  H    0.003839   0.000044  -0.000012   0.000001  -0.000173  -0.002126
    21  H   -0.001384   0.000101   0.000004   0.000000   0.000297   0.007856
    22  H    0.004256   0.000005   0.000000   0.000000  -0.000001   0.000129
    23  H   -0.039034   0.000000   0.000000   0.000000   0.000000   0.000025
    24  H    0.348264   0.000000   0.000000   0.000000  -0.000031   0.000496
    25  H    0.000000   0.380131  -0.030707   0.005244   0.000703  -0.000219
    26  H    0.000000   0.385798  -0.034055   0.013071   0.000394  -0.000135
    27  H    0.000000  -0.028585   0.405819  -0.034319  -0.000119   0.000013
    28  H    0.000000  -0.044001   0.393665  -0.044402   0.000623  -0.000195
    29  H    0.000000  -0.015736  -0.044258   0.371485  -0.000128   0.000083
    30  H    0.000000   0.009523  -0.039587   0.358356   0.000000  -0.000002
              19         20         21         22         23         24
     1  O    0.000001   0.006970   0.000333   0.000698   0.000000  -0.000011
     2  C    0.000048   0.001218   0.000339  -0.000027   0.000000   0.000000
     3  N   -0.000376  -0.010386   0.004491  -0.000029   0.000000  -0.000001
     4  C    0.016413  -0.024301  -0.062073   0.000072  -0.000002  -0.000212
     5  C   -0.027915   0.003290  -0.000975   0.000006   0.000008  -0.001465
     6  O    0.302350   0.000105   0.001493   0.000004  -0.000055   0.025101
     7  O    0.009981  -0.000320   0.000607   0.000000   0.000000   0.000356
     8  C   -0.000864   0.421679   0.389678  -0.000815  -0.000411   0.000176
     9  C   -0.000173  -0.038483  -0.028865  -0.048760   0.004598  -0.034138
    10  C   -0.000021  -0.001852  -0.001194   0.422333   0.006607   0.007999
    11  N    0.000003   0.000257  -0.000289  -0.025295  -0.023270   0.005706
    12  C    0.000011  -0.000240   0.000467   0.008248   0.414756  -0.022912
    13  N    0.000329   0.003839  -0.001384   0.004256  -0.039034   0.348264
    14  C    0.000000   0.000044   0.000101   0.000005   0.000000   0.000000
    15  C    0.000000  -0.000012   0.000004   0.000000   0.000000   0.000000
    16  N    0.000000   0.000001   0.000000   0.000000   0.000000   0.000000
    17  H   -0.000403  -0.000173   0.000297  -0.000001   0.000000  -0.000031
    18  H   -0.000730  -0.002126   0.007856   0.000129   0.000025   0.000496
    19  H    0.430438   0.000071  -0.000483   0.000000   0.000004  -0.001207
    20  H    0.000071   0.501507  -0.022968   0.002207   0.000017  -0.000105
    21  H   -0.000483  -0.022968   0.583008  -0.000035   0.000004   0.000775
    22  H    0.000000   0.002207  -0.000035   0.539688  -0.000375  -0.000335
    23  H    0.000004   0.000017   0.000004  -0.000375   0.538151  -0.002591
    24  H   -0.001207  -0.000105   0.000775  -0.000335  -0.002591   0.444497
    25  H    0.000001  -0.000132  -0.000018  -0.000001   0.000000   0.000000
    26  H    0.000000   0.000110  -0.000030   0.000000   0.000000   0.000000
    27  H    0.000000  -0.000001   0.000000   0.000000   0.000000   0.000000
    28  H    0.000000   0.000006  -0.000002   0.000000   0.000000   0.000000
    29  H    0.000000   0.000007   0.000000   0.000002   0.000000   0.000000
    30  H    0.000000   0.000000   0.000000   0.000000   0.000000   0.000000
              25         26         27         28         29         30
     1  O    0.004495   0.003807  -0.000236   0.000054   0.024056  -0.000061
     2  C   -0.047086  -0.039814   0.008948  -0.016379   0.003725   0.000677
     3  N    0.005108   0.002339  -0.000353   0.002894   0.000980  -0.000021
     4  C    0.000646  -0.000532   0.000038  -0.000260   0.000061  -0.000007
     5  C   -0.000247  -0.000008   0.000000  -0.000007  -0.000002   0.000000
     6  O   -0.000002   0.000000   0.000000   0.000000   0.000000   0.000000
     7  O   -0.000319  -0.000002   0.000000  -0.000009   0.000000   0.000000
     8  C    0.000016   0.000188  -0.000001   0.000030  -0.000006   0.000000
     9  C    0.000012  -0.000016   0.000000  -0.000003   0.000005   0.000000
    10  C    0.000000  -0.000001   0.000000   0.000000   0.000002   0.000000
    11  N    0.000000   0.000000   0.000000   0.000000   0.000000   0.000000
    12  C    0.000000   0.000000   0.000000   0.000000   0.000000   0.000000
    13  N    0.000000   0.000000   0.000000   0.000000   0.000000   0.000000
    14  C    0.380131   0.385798  -0.028585  -0.044001  -0.015736   0.009523
    15  C   -0.030707  -0.034055   0.405819   0.393665  -0.044258  -0.039587
    16  N    0.005244   0.013071  -0.034319  -0.044402   0.371485   0.358356
    17  H    0.000703   0.000394  -0.000119   0.000623  -0.000128   0.000000
    18  H   -0.000219  -0.000135   0.000013  -0.000195   0.000083  -0.000002
    19  H    0.000001   0.000000   0.000000   0.000000   0.000000   0.000000
    20  H   -0.000132   0.000110  -0.000001   0.000006   0.000007   0.000000
    21  H   -0.000018  -0.000030   0.000000  -0.000002   0.000000   0.000000
    22  H   -0.000001   0.000000   0.000000   0.000000   0.000002   0.000000
    23  H    0.000000   0.000000   0.000000   0.000000   0.000000   0.000000
    24  H    0.000000   0.000000   0.000000   0.000000   0.000000   0.000000
    25  H    0.601525  -0.019084  -0.008179   0.001954   0.000009  -0.000660
    26  H   -0.019084   0.542042  -0.010461   0.013299  -0.001563  -0.000308
    27  H   -0.008179  -0.010461   0.599924  -0.048106   0.009089  -0.006709
    28  H    0.001954   0.013299  -0.048106   0.665338  -0.004397  -0.006583
    29  H    0.000009  -0.001563   0.009089  -0.004397   0.485607  -0.034358
    30  H   -0.000660  -0.000308  -0.006709  -0.006583  -0.034358   0.538690
 Mulliken charges:
               1
     1  O   -0.394328
     2  C    0.353887
     3  N   -0.407280
     4  C   -0.076572
     5  C    0.388995
     6  O   -0.345967
     7  O   -0.324778
     8  C   -0.167087
     9  C    0.086516
    10  C   -0.054513
    11  N   -0.302445
    12  C    0.146369
    13  N   -0.367826
    14  C   -0.237559
    15  C   -0.093233
    16  N   -0.455425
    17  H    0.239406
    18  H    0.183584
    19  H    0.272519
    20  H    0.159771
    21  H    0.128862
    22  H    0.098022
    23  H    0.101568
    24  H    0.229637
    25  H    0.106808
    26  H    0.144964
    27  H    0.113236
    28  H    0.086481
    29  H    0.205338
    30  H    0.181049
 Sum of Mulliken charges =   0.00000
 Mulliken charges with hydrogens summed into heavy atoms:
               1
     1  O   -0.394328
     2  C    0.353887
     3  N   -0.167874
     4  C    0.107011
     5  C    0.388995
     6  O   -0.073448
     7  O   -0.324778
     8  C    0.121546
     9  C    0.086516
    10  C    0.043510
    11  N   -0.302445
    12  C    0.247937
    13  N   -0.138189
    14  C    0.014213
    15  C    0.106483
    16  N   -0.069038
 APT charges:
               1
     1  O   -0.374751
     2  C    0.247756
     3  N   -0.658775
     4  C   -0.201894
     5  C   -0.493424
     6  O   -0.779466
     7  O    0.328644
     8  C   -0.744744
     9  C   -0.320143
    10  C   -0.460313
    11  N    0.417000
    12  C   -0.763277
    13  N   -0.557883
    14  C   -0.790873
    15  C   -0.874348
    16  N   -0.741627
    17  H    0.618910
    18  H    0.234814
    19  H    1.005794
    20  H    0.247446
    21  H    0.480507
    22  H    0.329461
    23  H    0.939659
    24  H    0.425514
    25  H    0.365830
    26  H    0.473493
    27  H    0.798885
    28  H    0.129869
    29  H   -0.129149
    30  H    0.847084
 Sum of APT charges =   0.00000
 APT charges with hydrogens summed into heavy atoms:
               1
     1  O   -0.374751
     2  C    0.247756
     3  N   -0.039865
     4  C    0.032920
     5  C   -0.493424
     6  O    0.226329
     7  O    0.328644
     8  C   -0.016791
     9  C   -0.320143
    10  C   -0.130852
    11  N    0.417000
    12  C    0.176382
    13  N   -0.132369
    14  C    0.048450
    15  C    0.054406
    16  N   -0.023692
 Electronic spatial extent (au):  <R**2>=           4649.7879
 Charge=              0.0000 electrons
 Dipole moment (field-independent basis, Debye):
    X=              0.8622    Y=             -0.9529    Z=              6.7579  Tot=              6.8790
 Quadrupole moment (field-independent basis, Debye-Ang):
   XX=            -97.0092   YY=            -91.4652   ZZ=            -98.3559
   XY=              4.1656   XZ=            -15.0865   YZ=              6.5153
 Traceless Quadrupole moment (field-independent basis, Debye-Ang):
   XX=             -1.3991   YY=              4.1449   ZZ=             -2.7458
   XY=              4.1656   XZ=            -15.0865   YZ=              6.5153
 Octapole moment (field-independent basis, Debye-Ang**2):
  XXX=            155.0802  YYY=              0.5535  ZZZ=             31.4865  XYY=             49.0081
  XXY=              4.8458  XXZ=             89.2515  XZZ=              1.8156  YZZ=             -1.6683
  YYZ=             -5.0666  XYZ=            -22.0101
 Hexadecapole moment (field-independent basis, Debye-Ang**3):
 XXXX=          -4282.7297 YYYY=           -443.2424 ZZZZ=          -1358.1828 XXXY=            198.7392
 XXXZ=            -95.3140 YYYX=            183.7875 YYYZ=            157.0636 ZZZX=             -1.5998
 ZZZY=            215.5137 XXYY=           -714.2345 XXZZ=          -1037.5353 YYZZ=           -323.4365
 XXYZ=            101.2154 YYXZ=             -9.6188 ZZXY=            103.0025
 N-N= 1.121304202687D+03 E-N=-4.104201969181D+03  KE= 7.937299310155D+02
  Exact polarizability:   0.000   0.000   0.000   0.000   0.000   0.000
 Approx polarizability: 191.556 -32.505 161.436   5.458 -18.707 214.465
 Calling FoFJK, ICntrl=    100147 FMM=F ISym2X=0 I1Cent= 0 IOpClX= 0 NMat=1 NMatS=1 NMatT=0.
 -------------------------------------------------------------------
 Center     Atomic                   Forces (Hartrees/Bohr)
 Number     Number              X              Y              Z
 -------------------------------------------------------------------
      1        8          -0.000695231    0.001494614   -0.000149280
      2        6           0.008235432    0.000534290   -0.009099129
      3        7          -0.005070142   -0.000757117    0.007312181
      4        6           0.010406762   -0.002096636   -0.000168721
      5        6           0.002339858    0.000301025   -0.004359910
      6        8           0.000807264   -0.000177391    0.004766993
      7        8          -0.000678355   -0.000226490    0.004530738
      8        6          -0.005620156    0.005049842   -0.004103642
      9        6           0.005562316   -0.005270549   -0.001176427
     10        6          -0.007233549    0.004752466   -0.006275687
     11        7           0.001988927   -0.002802824   -0.002639731
     12        6           0.000861000    0.000627043   -0.002938522
     13        7          -0.004252109   -0.000071036    0.008112986
     14        6          -0.004800493   -0.002914207    0.003422120
     15        6           0.003760916    0.003244734   -0.003125784
     16        7           0.000990240   -0.000158434   -0.000495675
     17        1           0.001247583   -0.002244861    0.000834288
     18        1          -0.004741627   -0.000304981   -0.000861687
     19        1          -0.001848729   -0.000063657    0.000745462
     20        1           0.001170298    0.000799525    0.000651606
     21        1          -0.001167976   -0.003092283    0.002638353
     22        1          -0.000184791    0.000566843    0.001202603
     23        1          -0.002387731    0.002723035   -0.000158026
     24        1          -0.001458659    0.000403849    0.000428926
     25        1           0.002359109   -0.000746244    0.000501518
     26        1           0.000572365    0.000283303   -0.000527114
     27        1           0.000188553   -0.000344759    0.000889462
     28        1          -0.000174928   -0.000815710    0.002003921
     29        1          -0.002793539   -0.000999658   -0.001288743
     30        1           0.002617392    0.002306267   -0.000673081
 -------------------------------------------------------------------
 Cartesian Forces:  Max     0.010406762 RMS     0.003271062
 FormGI is forming the generalized inverse of G from B-inverse, IUseBI=4.

 GradGradGradGradGradGradGradGradGradGradGradGradGradGradGradGradGradGrad
 Berny optimization.
 Internal  Forces:  Max     0.013550186 RMS     0.002946177
 Search for a local minimum.
 Step number   1 out of a maximum of  160
 All quantities printed in internal units (Hartrees-Bohrs-Radians)
 Mixed Optimization -- RFO/linear search
 Second derivative matrix not updated -- analytic derivatives used.
 ITU=  0
     Eigenvalues ---    0.00027   0.00103   0.00212   0.00359   0.00365
     Eigenvalues ---    0.00516   0.00581   0.00646   0.00810   0.01028
     Eigenvalues ---    0.02000   0.02005   0.02053   0.02530   0.03356
     Eigenvalues ---    0.03901   0.04086   0.04158   0.04409   0.04465
     Eigenvalues ---    0.04630   0.04654   0.05139   0.05333   0.05729
     Eigenvalues ---    0.05749   0.06211   0.06311   0.07465   0.07903
     Eigenvalues ---    0.08248   0.10415   0.10656   0.10868   0.11564
     Eigenvalues ---    0.11656   0.12250   0.12612   0.15108   0.15592
     Eigenvalues ---    0.16540   0.18207   0.18619   0.19146   0.20602
     Eigenvalues ---    0.21654   0.21998   0.22569   0.22947   0.23114
     Eigenvalues ---    0.24598   0.24764   0.24971   0.26872   0.30271
     Eigenvalues ---    0.30757   0.30946   0.32356   0.32543   0.33543
     Eigenvalues ---    0.33621   0.33900   0.34177   0.34810   0.35238
     Eigenvalues ---    0.36454   0.36803   0.37602   0.37712   0.38516
     Eigenvalues ---    0.40111   0.41537   0.44424   0.45129   0.45642
     Eigenvalues ---    0.46803   0.46916   0.47501   0.47950   0.50993
     Eigenvalues ---    0.57241   0.59130   0.80354   0.89226
 RFO step:  Lambda=-5.14713448D-03 EMin= 2.70299046D-04
 Linear search not attempted -- first point.
 Iteration  1 RMS(Cart)=  0.13071213 RMS(Int)=  0.00369782
 Iteration  2 RMS(Cart)=  0.00664744 RMS(Int)=  0.00015824
 Iteration  3 RMS(Cart)=  0.00002326 RMS(Int)=  0.00015789
 Iteration  4 RMS(Cart)=  0.00000001 RMS(Int)=  0.00015789
 Variable       Old X    -DE/DX   Delta X   Delta X   Delta X     New X
                                 (Linear)    (Quad)   (Total)
    R1        2.31514   0.00123   0.00000  -0.00040  -0.00040   2.31474
    R2        2.55489   0.01259   0.00000   0.02410   0.02410   2.57899
    R3        2.87163   0.00258   0.00000   0.00152   0.00152   2.87315
    R4        2.74495   0.00640   0.00000  -0.00008  -0.00008   2.74487
    R5        1.90406   0.00211   0.00000   0.00417   0.00417   1.90823
    R6        2.85963   0.00546   0.00000   0.01199   0.01199   2.87162
    R7        2.92847   0.00922   0.00000   0.02934   0.02934   2.95781
    R8        2.07118  -0.00014   0.00000  -0.00008  -0.00008   2.07110
    R9        2.55477   0.00230   0.00000   0.00594   0.00594   2.56071
   R10        2.27247   0.00264   0.00000   0.00329   0.00329   2.27576
   R11        1.83202   0.00088   0.00000   0.00068   0.00068   1.83270
   R12        2.81812   0.00684   0.00000   0.00528   0.00528   2.82340
   R13        2.05649  -0.00024   0.00000   0.00094   0.00094   2.05743
   R14        2.06005   0.00416   0.00000   0.01183   0.01183   2.07188
   R15        2.58062   0.00782   0.00000   0.01585   0.01589   2.59650
   R16        2.59034   0.00946   0.00000   0.02156   0.02163   2.61197
   R17        2.61605  -0.00420   0.00000  -0.01728  -0.01733   2.59873
   R18        2.04207  -0.00129   0.00000  -0.00245  -0.00245   2.03962
   R19        2.47705   0.00102   0.00000   0.00260   0.00253   2.47958
   R20        2.57047   0.00593   0.00000   0.00961   0.00961   2.58009
   R21        2.03174   0.00325   0.00000   0.00831   0.00831   2.04005
   R22        1.90405   0.00034   0.00000   0.00075   0.00075   1.90480
   R23        2.88420   0.00546   0.00000   0.02074   0.02074   2.90494
   R24        2.06394   0.00134   0.00000   0.00264   0.00264   2.06658
   R25        2.06453   0.00035   0.00000   0.00312   0.00312   2.06765
   R26        2.76285   0.00265   0.00000   0.00113   0.00113   2.76398
   R27        2.06752   0.00038   0.00000   0.00099   0.00099   2.06851
   R28        2.08357   0.00112   0.00000   0.00335   0.00335   2.08691
   R29        1.91561   0.00248   0.00000   0.00511   0.00511   1.92072
   R30        1.91151   0.00340   0.00000   0.00611   0.00611   1.91762
    A1        2.12375  -0.00071   0.00000  -0.00469  -0.00469   2.11905
    A2        2.13707   0.00051   0.00000   0.00413   0.00413   2.14120
    A3        2.02236   0.00020   0.00000   0.00058   0.00058   2.02293
    A4        2.08237   0.00698   0.00000   0.03118   0.03084   2.11321
    A5        2.12047  -0.00408   0.00000  -0.01388  -0.01425   2.10622
    A6        2.03881  -0.00258   0.00000  -0.00491  -0.00522   2.03359
    A7        1.86507  -0.00440   0.00000  -0.00661  -0.00658   1.85850
    A8        1.93875   0.00355   0.00000   0.01980   0.01986   1.95861
    A9        1.87220   0.00209   0.00000   0.03312   0.03336   1.90556
   A10        1.97399   0.00159   0.00000  -0.00297  -0.00313   1.97086
   A11        1.89725   0.00069   0.00000  -0.00626  -0.00662   1.89064
   A12        1.91309  -0.00349   0.00000  -0.03456  -0.03490   1.87819
   A13        1.96583   0.00383   0.00000   0.00653   0.00653   1.97235
   A14        2.17518   0.00233   0.00000   0.00983   0.00983   2.18501
   A15        2.14217  -0.00616   0.00000  -0.01636  -0.01636   2.12581
   A16        1.85309   0.00306   0.00000   0.00681   0.00681   1.85991
   A17        1.97208   0.01355   0.00000   0.04780   0.04785   2.01993
   A18        1.88299  -0.00537   0.00000  -0.03418  -0.03424   1.84876
   A19        1.92136  -0.00385   0.00000  -0.01244  -0.01288   1.90848
   A20        1.86917  -0.00331   0.00000  -0.00407  -0.00355   1.86562
   A21        1.94802  -0.00390   0.00000  -0.00354  -0.00366   1.94437
   A22        1.86510   0.00223   0.00000   0.00300   0.00260   1.86771
   A23        2.29049  -0.00271   0.00000  -0.00851  -0.00882   2.28167
   A24        2.15881   0.00620   0.00000   0.01908   0.01875   2.17756
   A25        1.83346  -0.00346   0.00000  -0.00946  -0.00955   1.82392
   A26        1.93015   0.00312   0.00000   0.00959   0.00963   1.93978
   A27        2.23244  -0.00173   0.00000  -0.01165  -0.01168   2.22076
   A28        2.12060  -0.00139   0.00000   0.00206   0.00203   2.12263
   A29        1.83394   0.00109   0.00000   0.00192   0.00184   1.83578
   A30        1.94685   0.00155   0.00000   0.00382   0.00381   1.95066
   A31        2.21089  -0.00233   0.00000  -0.01317  -0.01316   2.19772
   A32        2.12545   0.00078   0.00000   0.00935   0.00935   2.13480
   A33        1.88022  -0.00227   0.00000  -0.00556  -0.00559   1.87463
   A34        2.16753   0.00245   0.00000   0.00857   0.00835   2.17588
   A35        2.23519  -0.00018   0.00000  -0.00366  -0.00384   2.23135
   A36        1.94118   0.00154   0.00000   0.00890   0.00884   1.95002
   A37        1.91221   0.00074   0.00000   0.02157   0.02153   1.93374
   A38        1.88250  -0.00001   0.00000  -0.00116  -0.00112   1.88138
   A39        1.93378  -0.00100   0.00000  -0.00507  -0.00532   1.92845
   A40        1.90125  -0.00157   0.00000  -0.02129  -0.02134   1.87992
   A41        1.89149   0.00028   0.00000  -0.00349  -0.00366   1.88783
   A42        1.92289   0.00077   0.00000   0.00049   0.00052   1.92340
   A43        1.89514  -0.00008   0.00000  -0.00729  -0.00732   1.88781
   A44        1.90849  -0.00176   0.00000  -0.01174  -0.01177   1.89672
   A45        1.88470  -0.00033   0.00000   0.00663   0.00662   1.89132
   A46        1.98312   0.00151   0.00000   0.01546   0.01545   1.99858
   A47        1.86678  -0.00018   0.00000  -0.00436  -0.00451   1.86227
   A48        1.90655   0.00034   0.00000  -0.00242  -0.00245   1.90410
   A49        1.91408   0.00102   0.00000   0.01041   0.01038   1.92446
   A50        1.86664   0.00060   0.00000   0.01496   0.01490   1.88154
    D1       -0.09357   0.00017   0.00000   0.00171   0.00163  -0.09194
    D2       -2.91979  -0.00060   0.00000  -0.04335  -0.04327  -2.96306
    D3        3.04272  -0.00003   0.00000   0.00530   0.00522   3.04794
    D4        0.21650  -0.00080   0.00000  -0.03976  -0.03968   0.17682
    D5        1.10064  -0.00121   0.00000  -0.12233  -0.12241   0.97823
    D6       -3.03870  -0.00093   0.00000  -0.10784  -0.10775   3.13674
    D7       -0.98318  -0.00019   0.00000  -0.10079  -0.10078  -1.08396
    D8       -2.03560  -0.00101   0.00000  -0.12592  -0.12602  -2.16162
    D9        0.10824  -0.00072   0.00000  -0.11144  -0.11136  -0.00311
   D10        2.16376   0.00001   0.00000  -0.10438  -0.10438   2.05938
   D11       -2.81149   0.00087   0.00000   0.01316   0.01311  -2.79837
   D12        1.31106  -0.00039   0.00000   0.00893   0.00902   1.32008
   D13       -0.77937   0.00051   0.00000   0.01896   0.01867  -0.76070
   D14        0.02924   0.00123   0.00000   0.05415   0.05426   0.08350
   D15       -2.13141  -0.00003   0.00000   0.04991   0.05017  -2.08124
   D16        2.06136   0.00087   0.00000   0.05995   0.05982   2.12117
   D17        3.13427  -0.00074   0.00000  -0.00607  -0.00603   3.12824
   D18       -0.01218  -0.00063   0.00000  -0.00806  -0.00803  -0.02020
   D19       -1.01016   0.00166   0.00000   0.01232   0.01235  -0.99781
   D20        2.12658   0.00177   0.00000   0.01033   0.01035   2.13693
   D21        1.11886  -0.00124   0.00000  -0.03817  -0.03823   1.08063
   D22       -2.02759  -0.00112   0.00000  -0.04017  -0.04023  -2.06781
   D23       -2.48849  -0.00084   0.00000  -0.04879  -0.04851  -2.53700
   D24       -0.42557  -0.00042   0.00000  -0.04782  -0.04798  -0.47354
   D25        1.60369  -0.00288   0.00000  -0.07034  -0.07007   1.53362
   D26        1.69753   0.00118   0.00000  -0.05240  -0.05213   1.64540
   D27       -2.52274   0.00160   0.00000  -0.05143  -0.05160  -2.57433
   D28       -0.49347  -0.00086   0.00000  -0.07396  -0.07370  -0.56717
   D29       -0.42259   0.00171   0.00000  -0.01755  -0.01765  -0.44024
   D30        1.64033   0.00214   0.00000  -0.01658  -0.01712   1.62321
   D31       -2.61359  -0.00032   0.00000  -0.03910  -0.03922  -2.65281
   D32       -3.12695  -0.00049   0.00000  -0.01825  -0.01824   3.13800
   D33        0.01939  -0.00063   0.00000  -0.01638  -0.01640   0.00299
   D34        2.10632  -0.00128   0.00000  -0.04530  -0.04527   2.06105
   D35       -0.99914  -0.00222   0.00000  -0.09253  -0.09261  -1.09175
   D36        0.03535  -0.00039   0.00000  -0.02836  -0.02840   0.00695
   D37       -3.07011  -0.00133   0.00000  -0.07559  -0.07574   3.13734
   D38       -2.00030   0.00102   0.00000  -0.02762  -0.02745  -2.02775
   D39        1.17742   0.00007   0.00000  -0.07485  -0.07479   1.10264
   D40       -3.12602  -0.00029   0.00000  -0.02870  -0.02816   3.12900
   D41        0.01454  -0.00064   0.00000  -0.03298  -0.03263  -0.01809
   D42       -0.01556   0.00068   0.00000   0.01247   0.01248  -0.00308
   D43        3.12500   0.00033   0.00000   0.00818   0.00801   3.13301
   D44        3.13017  -0.00032   0.00000   0.01934   0.01971  -3.13330
   D45        0.01045   0.00016   0.00000   0.04906   0.04944   0.05990
   D46        0.01671  -0.00102   0.00000  -0.01729  -0.01720  -0.00048
   D47       -3.10301  -0.00053   0.00000   0.01243   0.01254  -3.09047
   D48        0.00822  -0.00010   0.00000  -0.00269  -0.00272   0.00551
   D49       -3.13242   0.00022   0.00000   0.00128   0.00148  -3.13094
   D50        0.00278  -0.00050   0.00000  -0.00851  -0.00860  -0.00581
   D51       -3.13665  -0.00015   0.00000  -0.01207  -0.01197   3.13457
   D52       -0.01260   0.00095   0.00000   0.01664   0.01669   0.00409
   D53        3.10601   0.00048   0.00000  -0.01439  -0.01409   3.09193
   D54        3.12695   0.00061   0.00000   0.01996   0.01988  -3.13635
   D55       -0.03762   0.00014   0.00000  -0.01107  -0.01089  -0.04851
   D56       -1.26158  -0.00028   0.00000  -0.01594  -0.01595  -1.27752
   D57        2.96087  -0.00027   0.00000  -0.01992  -0.01989   2.94098
   D58        0.92979   0.00094   0.00000  -0.00419  -0.00424   0.92555
   D59        2.89022  -0.00159   0.00000  -0.04611  -0.04604   2.84418
   D60        0.82948  -0.00159   0.00000  -0.05008  -0.04998   0.77950
   D61       -1.20160  -0.00037   0.00000  -0.03436  -0.03433  -1.23593
   D62        0.81103  -0.00035   0.00000  -0.02543  -0.02549   0.78554
   D63       -1.24971  -0.00034   0.00000  -0.02941  -0.02943  -1.27914
   D64        3.00239   0.00088   0.00000  -0.01368  -0.01378   2.98862
   D65        1.03568  -0.00134   0.00000  -0.03183  -0.03185   1.00383
   D66        3.07621   0.00016   0.00000  -0.00921  -0.00919   3.06702
   D67        3.10283  -0.00119   0.00000  -0.03642  -0.03647   3.06636
   D68       -1.13983   0.00031   0.00000  -0.01380  -0.01381  -1.15363
   D69       -1.11265  -0.00072   0.00000  -0.02802  -0.02802  -1.14067
   D70        0.92788   0.00078   0.00000  -0.00540  -0.00536   0.92252
         Item               Value     Threshold  Converged?
 Maximum Force            0.013550     0.000450     NO 
 RMS     Force            0.002946     0.000300     NO 
 Maximum Displacement     0.493844     0.001800     NO 
 RMS     Displacement     0.131276     0.001200     NO 
 Predicted change in Energy=-3.016260D-03
 GradGradGradGradGradGradGradGradGradGradGradGradGradGradGradGradGradGrad

                          Input orientation:                          
 ---------------------------------------------------------------------
 Center     Atomic      Atomic             Coordinates (Angstroms)
 Number     Number       Type             X           Y           Z
 ---------------------------------------------------------------------
      1          8           0        1.119331    0.348440   -1.272566
      2          6           0        1.612820   -0.355058   -0.399667
      3          7           0        0.894698   -0.737963    0.695871
      4          6           0       -0.447780   -0.233481    0.926255
      5          6           0       -0.739854   -0.443472    2.402659
      6          8           0       -1.966563    0.001131    2.768343
      7          8           0        0.011737   -0.954000    3.193078
      8          6           0       -1.504099   -0.914054   -0.006951
      9          6           0       -2.628009   -0.040138   -0.460133
     10          6           0       -3.001860    0.358013   -1.720933
     11          7           0       -4.119037    1.158732   -1.677326
     12          6           0       -4.422530    1.256149   -0.404493
     13          7           0       -3.556170    0.548323    0.378138
     14          6           0        3.048169   -0.852790   -0.460232
     15          6           0        4.047210    0.307013   -0.601074
     16          7           0        3.990047    0.861533   -1.953313
     17          1           0        1.348901   -1.185018    1.479150
     18          1           0       -0.468205    0.842841    0.720626
     19          1           0       -2.054940   -0.180220    3.716954
     20          1           0       -0.961117   -1.219603   -0.899801
     21          1           0       -1.875680   -1.828127    0.471031
     22          1           0       -2.518824    0.110981   -2.653981
     23          1           0       -5.246464    1.817963    0.008933
     24          1           0       -3.539916    0.487629    1.384157
     25          1           0        3.286386   -1.458716    0.418427
     26          1           0        3.145505   -1.485568   -1.347526
     27          1           0        5.054180   -0.087633   -0.432452
     28          1           0        3.854585    1.039229    0.202877
     29          1           0        3.040218    1.166663   -2.147716
     30          1           0        4.597279    1.671206   -2.027096
 ---------------------------------------------------------------------
                    Distance matrix (angstroms):
                    1          2          3          4          5
     1  O    0.000000
     2  C    1.224905   0.000000
     3  N    2.259530   1.364741   0.000000
     4  C    2.762116   2.453349   1.452523   0.000000
     5  C    4.194160   3.660044   2.381514   1.519596   0.000000
     6  O    5.096304   4.793239   3.609461   2.398965   1.355069
     7  O    4.781745   3.978694   2.657505   2.422558   1.204280
     8  C    3.174595   3.190906   2.505832   1.565204   2.571330
     9  C    3.854037   4.252936   3.772634   2.590917   3.453026
    10  C    4.145520   4.852781   4.714368   3.725693   4.771065
    11  N    5.316099   6.064500   5.862342   4.711159   5.534638
    12  C    5.682404   6.246716   5.784478   4.448429   4.932638
    13  N    4.962367   5.304671   4.643889   3.251728   3.607489
    14  C    2.413142   1.520406   2.446876   3.811502   4.765795
    15  C    3.004179   2.530842   3.565442   4.778055   5.701020
    16  N    2.994611   3.089518   4.376957   5.402340   6.561211
    17  H    3.158502   2.070855   1.009794   2.106936   2.401179
    18  H    2.595673   2.649657   2.087357   1.095980   2.134861
    19  H    5.937237   5.516302   4.258917   3.220838   1.877797
    20  H    2.631725   2.760928   2.494433   2.137857   3.399644
    21  H    4.092391   3.885573   2.985632   2.188383   2.634114
    22  H    3.898829   4.729651   4.857401   4.150417   5.389041
    23  H    6.657709   7.206854   6.687190   5.298799   5.581537
    24  H    5.365271   5.517502   4.652054   3.207955   3.121641
    25  H    3.289589   2.165216   2.513291   3.962711   4.602010
    26  H    2.733969   2.127349   3.130578   4.432776   5.499624
    27  H    4.047096   3.451891   4.358594   5.669120   6.460287
    28  H    3.183668   2.707879   3.487462   4.544603   5.305310
    29  H    2.263887   2.721907   4.039412   4.855495   6.130856
    30  H    3.796729   3.957432   5.189196   6.148393   7.251178
                    6          7          8          9         10
     6  O    0.000000
     7  O    2.237487   0.000000
     8  C    2.958664   3.541121   0.000000
     9  C    3.295796   4.598843   1.494080   0.000000
    10  C    4.620909   5.911907   2.607522   1.374010   0.000000
    11  N    5.073180   6.726646   3.731554   2.267601   1.375187
    12  C    4.204014   6.122908   3.658560   2.214444   2.134939
    13  N    2.922216   4.786525   2.549085   1.382197   2.179352
    14  C    6.024983   4.751509   4.575190   5.734057   6.297481
    15  C    6.900145   5.680738   5.714982   6.685726   7.137652
    16  N    7.649545   6.753403   6.093166   6.844068   7.013865
    17  H    3.749836   2.186076   3.228239   4.570272   5.616992
    18  H    2.673331   3.093865   2.165439   2.615071   3.551855
    19  H    0.969825   2.268113   3.835284   4.218540   5.545896
    20  H    3.994546   4.215288   1.088747   2.088774   2.706983
    21  H    2.938041   3.425781   1.096390   2.151737   3.294267
    22  H    5.451482   6.459568   3.014486   2.201756   1.079318
    23  H    4.655424   6.743236   4.633515   3.244822   3.187811
    24  H    2.151300   4.238482   2.836273   2.124033   3.154027
    25  H    5.936895   4.321660   4.840077   6.145266   6.886174
    26  H    6.729331   5.542576   4.872637   6.017492   6.428711
    27  H    7.716463   6.270669   6.623824   7.682386   8.170591
    28  H    6.445544   5.261344   5.707437   6.605199   7.153736
    29  H    7.112943   6.495613   5.437194   6.035985   6.110873
    30  H    8.298760   7.427591   6.927580   7.588733   7.717845
                   11         12         13         14         15
    11  N    0.000000
    12  C    1.312136   0.000000
    13  N    2.216834   1.365324   0.000000
    14  C    7.542970   7.762865   6.803181   0.000000
    15  C    8.280782   8.525022   7.669972   1.537226   0.000000
    16  N    8.119221   8.563061   7.904376   2.460758   1.462638
    17  H    6.734601   6.543457   5.317558   2.599825   3.719457
    18  H    4.379331   4.131997   3.120828   4.078539   4.735291
    19  H    5.928873   4.965376   3.732580   6.628948   7.491261
    20  H    4.029079   4.284397   3.390131   4.049957   5.244344
    21  H    4.309225   4.094600   2.912077   5.105176   6.386616
    22  H    2.147632   3.161598   3.234363   6.060759   6.882271
    23  H    2.132873   1.079548   2.146018   8.726625   9.435437
    24  H    3.187230   2.137498   1.007979   6.971467   7.844632
    25  H    8.129176   8.214321   7.130946   1.093588   2.176244
    26  H    7.737873   8.104411   7.212980   1.094153   2.140936
    27  H    9.340827   9.571550   8.671772   2.147165   1.094608
    28  H    8.193174   8.302204   7.429064   2.160963   1.104347
    29  H    7.174697   7.664166   7.090460   2.631703   2.035960
    30  H    8.738372   9.173989   8.574657   3.350427   2.048691
                   16         17         18         19         20
    16  N    0.000000
    17  H    4.790180   0.000000
    18  H    5.198684   2.826561   0.000000
    19  H    8.353385   4.195655   3.541519   0.000000
    20  H    5.473120   3.316141   2.668787   4.857076   0.000000
    21  H    6.893364   3.439159   3.029415   3.644687   1.756675
    22  H    6.589360   5.807037   4.016047   6.394435   2.697045
    23  H    9.490960   7.394476   4.928400   5.284693   5.330741
    24  H    8.244929   5.167911   3.162571   2.844840   3.844647
    25  H    3.391732   2.225733   4.414232   6.406605   4.453783
    26  H    2.566926   3.362768   4.770497   7.375467   4.139510
    27  H    2.084781   4.311330   5.717701   8.231994   6.138695
    28  H    2.167737   3.585331   4.358113   6.982713   5.432239
    29  H    1.016402   4.641672   4.543268   7.884737   4.823095
    30  H    1.014763   5.568100   5.821967   8.981865   6.365795
                   21         22         23         24         25
    21  H    0.000000
    22  H    3.733561   0.000000
    23  H    4.986953   4.176712   0.000000
    24  H    2.994363   4.182231   2.563852   0.000000
    25  H    5.175534   6.753080   9.149527   7.163748   0.000000
    26  H    5.351336   6.028301   9.120222   7.486685   1.771767
    27  H    7.201983   7.894620  10.484722   8.802811   2.393525
    28  H    6.413235   7.045824   9.136364   7.508551   2.570806
    29  H    6.323975   5.680996   8.587458   7.498892   3.679444
    30  H    7.770789   7.312059  10.053170   8.902328   4.182755
                   26         27         28         29         30
    26  H    0.000000
    27  H    2.536656   0.000000
    28  H    3.046497   1.764225   0.000000
    29  H    2.772313   2.927701   2.490928   0.000000
    30  H    3.540435   2.417677   2.433879   1.641204   0.000000
 Symmetry turned off by external request.
 Stoichiometry    C9H14N4O3
 Framework group  C1[X(C9H14N4O3)]
 Deg. of freedom    84
[...]
 040227,0.00029350,0.00062512,-0.00014639,-0.00025280,0.00003669,0.0004
 7852,-0.00075947,0.00000620,0.00053384,0.00168143,0.00039567,-0.000197
 73,-0.00095451,-0.00081636,-0.00265246,0.07154734,-0.00012951,0.000162
 28,-0.00028754,-0.00002057,-0.00031652,0.00035623,-0.00006053,0.000230
 07,-0.00075647,0.00014348,0.00016103,0.00018032,-0.00603241,0.00104185
 ,0.00365494,0.00311405,0.00050977,-0.00592421,0.00255328,-0.00113485,-
 0.00002971,0.00035335,-0.00046432,0.00062260,-0.00350107,0.00247637,-0
 .00854738,0.00161479,0.00001466,-0.00020033,-0.00044449,0.00164284,0.0
 0260533,0.00088512,-0.00161187,-0.00576824,0.05162146,0.13564594,-0.40
 637467,0.00002290,0.00006300,-0.00000497,0.00000593,-0.00001109,0.0000
 5303,-0.00000916,-0.00001437,-0.00005128,-0.00019954,-0.00004410,0.000
 25221,0.00006911,-0.00010548,0.00003752,-0.00030063,0.00028287,-0.0009
 8077,-0.00035038,0.00005153,-0.00018371,0.00020167,-0.00015755,0.00000
 504,0.00009263,0.00066633,0.00036095,-0.00020615,-0.00024365,0.0000411
 5,-0.04941882,-0.13885988,0.42094103,-0.00429473,0.00395695,0.00232721
 ,-0.00803070,-0.00396707,-0.03308016,0.00003790,0.00037690,0.00257751,
 0.00020514,0.00036873,0.00056414,-0.00023823,0.00033477,-0.00036361,0.
 00003213,-0.00008917,0.00010266,0.00016419,-0.00011383,0.00025975,0.00
 016154,-0.00005744,0.00005714,0.00002565,-0.00000247,0.00000784,0.0000
 0521,-0.00001790,0.00000332,-0.00002322,0.00000204,0.00000233,-0.00002
 322,0.00001517,0.00000356,-0.00000314,-0.00000033,-0.00000353,-0.07945
 023,-0.00999376,-0.08467813,0.00791481,0.00390507,0.01758174,-0.002596
 63,-0.00217954,0.00320317,-0.00120361,-0.00062121,0.00004372,-0.000044
 21,-0.00008767,-0.00001110,-0.00003025,-0.00001210,-0.00000542,0.00007
 237,0.00005337,0.00005032,-0.00002596,-0.00001626,-0.00000747,0.000008
 50,0.00000538,0.00001979,-0.00000279,0.00000173,0.00000111,0.00000047,
 0.00000387,-0.00001537,0.08615132,0.00258569,-0.00218267,-0.00090910,0
 .00517327,-0.00032657,0.01236078,-0.00136938,0.00016960,0.00002975,0.0
 0007739,-0.00040150,-0.00021078,-0.00008614,0.00014199,-0.00010815,0.0
 0006954,-0.00004426,0.00001607,0.00007569,-0.00010236,0.00006776,-0.00
 011429,0.00001244,0.00001132,-0.00000323,-0.00002003,-0.00000528,-0.00
 000065,-0.00000057,0.00000484,-0.00001060,0.00000538,0.00000447,-0.000
 00608,0.00000577,-0.00000621,-0.00000016,0.00000311,-0.00000008,-0.008
 68405,-0.04553627,-0.01734029,0.00753864,0.00196403,0.01535266,-0.0023
 5741,-0.00105500,0.00111736,-0.00052906,0.00027856,0.00003211,0.000044
 54,0.00003136,0.00003430,-0.00000615,0.00001158,0.00000382,-0.00000034
 ,-0.00001687,0.00001946,-0.00000924,-0.00000918,-0.00001497,-0.0000009
 7,-0.00000305,-0.00000097,-0.00000040,0.00000128,-0.00000007,-0.000001
 76,0.00000446,-0.00000714,0.00832760,0.04693148,-0.00102816,-0.0009030
 0,0.00082085,0.00044114,0.00188798,-0.00151602,0.00108380,0.00035588,0
 .00039861,-0.00048712,0.00028167,0.00054689,-0.00017088,0.00004435,-0.
 00011130,0.00008466,-0.00001473,0.00001436,0.00009440,-0.00005545,0.00
 007379,0.00015804,-0.00008301,-0.00006794,0.00004391,0.00004627,0.0000
 2557,0.00001892,0.00000746,-0.00003173,0.00001166,-0.00002138,0.000011
 99,0.00000192,-0.00000473,0.00000704,-0.00002018,-0.00000519,0.0000359
 8,-0.08197656,-0.01739070,-0.26561667,-0.00868734,-0.00507117,-0.01633
 033,0.00439890,0.00228246,-0.00291687,-0.00014622,-0.00065408,0.000033
 36,0.00001171,-0.00003048,-0.00004694,-0.00001288,-0.00000153,0.000001
 50,0.00001240,-0.00000079,-0.00001044,0.00000569,0.00000425,0.00000681
 ,0.00000556,0.00000057,0.00000984,-0.00000155,-0.00000146,0.00000095,-
 0.00001185,0.00000414,-0.00001192,0.08916296,0.01911955,0.29186942,-0.
 00519417,-0.00083039,-0.00298971,0.00223058,0.03336830,0.00970921,-0.0
 0119838,-0.00263269,-0.00048070,0.00024015,-0.00051197,-0.00070825,0.0
 0010908,0.00000985,-0.00018503,-0.00000754,0.00000584,0.00002835,-0.00
 001389,-0.00007286,0.00010877,-0.00018909,0.00003825,0.00010950,-0.000
 00834,-0.00005899,-0.00005751,-0.00000226,-0.00001313,0.00000270,-0.00
 002403,0.00000934,-0.00000368,-0.00001083,0.00001275,0.00000021,0.0000
 0272,-0.00000326,-0.00000799,-0.04617568,0.00873141,0.00402097,-0.0005
 6240,-0.02233943,-0.00478704,0.00057230,0.00174494,-0.00134710,-0.0003
 2499,0.00031381,0.00058522,0.00005099,0.00009709,-0.00010080,0.0000102
 9,0.00000790,-0.00000682,0.00000403,0.00016152,0.00007845,-0.00006775,
 -0.00005379,0.00002312,0.00001095,0.00000974,0.00002115,-0.00000087,0.
 00000275,0.00000214,0.00000710,0.00000416,-0.00000411,-0.00008036,-0.0
 1172594,-0.00260531,0.05249634,0.00234119,0.00069954,-0.00011859,-0.00
 006802,-0.01197332,-0.00096812,-0.00099858,0.00128426,0.00087580,0.000
 64700,0.00050489,0.00019403,0.00009986,-0.00001808,-0.00000339,-0.0000
 7627,0.00001303,0.00002587,-0.00006660,0.00004575,-0.00000286,0.000052
 74,-0.00002107,0.00000205,0.00000163,-0.00000759,0.00001582,-0.0000013
 0,0.00000399,0.00001786,-0.00001071,0.00002170,-0.00000549,-0.00000272
 ,-0.00000239,-0.00000040,0.00001168,0.00001220,-0.00001835,0.00579222,
 -0.28429428,-0.06523035,-0.00129200,-0.01941396,-0.00439662,0.00152199
 ,0.00230481,-0.00106706,0.00012643,-0.00033948,-0.00066454,-0.00027019
 ,0.00003164,0.00009165,0.00000480,-0.00001077,-0.00001022,0.00002333,-
 0.00007092,-0.00003994,0.00002165,0.00001700,-0.00002645,-0.00000582,-
 0.00001040,-0.00001088,-0.00000195,-0.00000143,-0.00000171,0.00000916,
 -0.00000675,0.00000394,-0.00026161,-0.00075071,-0.00071556,-0.00487886
 ,0.31153411,-0.00142231,0.00037652,-0.00113670,-0.00108968,0.00225291,
 -0.00004086,0.00136373,0.00072731,0.00027958,-0.00006697,0.00005460,-0
 .00010930,0.00012972,-0.00019238,0.00012943,-0.00008748,0.00005030,-0.
 00002024,-0.00008631,0.00014075,-0.00007365,0.00001795,-0.00001738,0.0
 0003509,-0.00000430,0.00001161,-0.00000570,-0.00000720,-0.00000382,0.0
 0000980,0.00000201,0.00000326,-0.00000994,0.00000685,-0.00000340,0.000
 00046,0.00001103,-0.00000063,-0.00001261,0.00225506,-0.06615251,-0.060
 57145,0.00011670,0.02128744,0.00477653,-0.00066937,-0.00022438,0.00212
 318,0.00051682,-0.00040763,-0.00046631,0.00000191,0.00001673,-0.000055
 48,0.00001208,-0.00000908,-0.00000380,-0.00001337,0.00001070,-0.000020
 65,0.00001180,0.00001495,0.00000215,0.00000064,0.00000438,-0.00000042,
 0.00000101,-0.00000080,-0.00000028,0.00000658,-0.00000587,0.00001082,0
 .00123568,-0.02921118,-0.00728338,-0.00370805,0.06986399,0.06431618,0.
 00024846,-0.00031034,0.00028997,0.00040883,-0.00238459,0.00213092,-0.0
 0170465,0.00024281,0.00016692,0.00018721,-0.00031408,0.00020923,0.0000
 5354,0.00011695,-0.00031953,-0.00015819,-0.00001802,0.00015976,-0.0000
 5535,-0.00006406,0.00017827,-0.00000853,0.00004486,0.00003268,0.000001
 56,-0.00004783,-0.00002505,0.00000736,-0.00002135,0.00000609,-0.000051
 98,0.00003025,-0.00000538,-0.00001711,0.00001246,0.00000173,0.00000052
 ,0.00000552,-0.00002039,-0.01841580,0.00621497,-0.00107462,-0.27287021
 ,0.07527940,-0.02888191,-0.00815846,0.00155914,-0.00434448,-0.00002254
 ,0.00013264,-0.00011920,-0.00000565,0.00002181,-0.00001491,0.00000427,
 0.00000270,-0.00001379,0.00003009,0.00002665,0.00002877,-0.00001985,-0
 .00001197,-0.00000109,0.00001011,0.00000111,0.00001510,-0.00000465,0.0
 0000265,0.00000200,0.00002705,0.00000156,-0.00000047,0.00075013,0.0003
 2920,0.00038627,0.00036518,-0.00021063,-0.00061271,0.29797996,0.000777
 14,0.00139522,-0.00090952,-0.00059909,-0.00364402,0.00378035,-0.001272
 06,0.00060834,-0.00020020,-0.00014025,-0.00021573,0.00023529,-0.000078
 91,0.00007085,-0.00006207,-0.00002804,-0.00001542,0.00005005,0.0000107
 1,-0.00001684,0.00001447,-0.00000436,0.00002416,0.00001642,-0.00000796
 ,-0.00000967,0.00000097,-0.00000348,0.00000143,0.00000745,-0.00000082,
 0.00000854,-0.00000204,-0.00000074,0.00000005,-0.00000186,0.00000624,0
 .00000303,-0.00000926,-0.01909018,0.00484081,-0.00112219,0.07940831,-0
 .07758063,0.00838622,-0.00778369,0.00280897,-0.00092936,-0.00001050,0.
 00005572,-0.00004693,0.00000050,0.00000472,0.00000075,-0.00001288,0.00
 000065,0.00000851,-0.00000860,-0.00001306,-0.00000566,0.00000053,-0.00
 000159,-0.00000316,-0.00000202,-0.00000329,-0.00000521,-0.00000013,-0.
 00000027,-0.00000100,0.00000308,-0.00000228,0.00000366,0.00075539,0.00
 067989,-0.00062482,0.00010806,0.00077659,-0.00069101,-0.08185208,0.078
 84780,0.00000652,-0.00021080,0.00051983,0.00144484,0.00365501,-0.00253
 552,0.00158893,-0.00057524,0.00005546,-0.00003699,0.00026273,-0.000318
 62,0.00001500,-0.00009409,0.00021083,0.00012362,0.00001772,-0.00012425
 ,0.00003633,0.00003051,-0.00010329,-0.00000725,-0.00002089,-0.00005680
 ,0.00000770,0.00003792,0.00000957,0.00001690,0.00001542,-0.00003505,0.
 00002477,-0.00002633,0.00001810,0.00000522,-0.00000543,0.00000180,-0.0
 0001799,-0.00000870,0.00003921,0.02048835,-0.00708644,0.00169739,-0.02
 345532,0.00734332,-0.05114051,-0.03693558,0.00967532,-0.01095587,0.000
 03466,-0.00006959,0.00007472,0.00000258,-0.00001075,0.00000259,0.00000
 687,-0.00000146,0.00000009,-0.00001704,-0.00001450,-0.00002318,0.00001
 356,0.00000481,0.00000902,0.00000204,-0.00000171,-0.00000132,0.0000010
 3,-0.00000154,0.00000109,-0.00002138,0.00000268,-0.00000859,-0.0000232
 8,-0.00067711,0.00056289,-0.00068014,-0.00008161,0.00054061,0.03328074
 ,-0.01016556,0.06551563,-0.00001319,0.00143796,-0.00047092,0.00091005,
 -0.00235853,0.00035599,0.00018223,0.00059773,-0.00039669,-0.00008933,0
 .00013531,0.00000262,-0.00001491,-0.00003366,0.00012027,0.00003039,0.0
 0000979,-0.00004178,0.00000623,0.00004247,-0.00008067,0.00000045,-0.00
 001568,-0.00001853,0.00000070,0.00001806,0.00002248,-0.00000123,0.0000
 1147,0.00000118,0.00001633,-0.00000265,0.00000271,0.00000515,-0.000005
 92,-0.00000201,0.00000215,0.00000270,0.00000198,0.00024112,-0.02098166
 ,-0.00208706,-0.05351153,0.01542821,0.00369829,0.00275837,-0.00991291,
 -0.00609330,0.00019828,-0.00011435,-0.00017888,-0.00005731,-0.00000479
 ,0.00003342,-0.00000386,-0.00000425,0.00000493,-0.00001523,-0.00003916
 ,-0.00002105,0.00001838,0.00001115,-0.00000954,-0.00000695,-0.00000677
 ,-0.00001205,0.00000095,-0.00000156,-0.00000154,-0.00000789,-0.0000041
 2,0.00000156,0.00046982,0.00040294,-0.00010381,-0.00214341,-0.00249596
 ,0.00220871,-0.00090175,0.03004932,0.00585064,0.05154817,0.00022739,0.
 00228773,-0.00076111,0.00236934,-0.00183638,0.00104806,-0.00038594,0.0
 0038078,-0.00006561,0.00007372,-0.00005005,0.00002616,0.00006198,-0.00
 002209,-0.00005089,-0.00007042,0.00002180,0.00005028,-0.00004142,0.000
 04122,0.00003319,-0.00001336,0.00001520,-0.00000976,0.00000749,-0.0000
 1256,0.00000960,0.00001594,0.00000563,-0.00000337,-0.00001878,0.000023
 96,0.00000519,-0.00001212,0.00000260,0.00000387,-0.00000267,0.00001451
 ,-0.00000338,-0.00051969,-0.01850119,-0.00139013,0.01228499,-0.2734021
 8,-0.04420471,-0.00254778,-0.00026465,-0.00978743,0.00008905,-0.000071
 10,-0.00028340,-0.00005771,0.00003092,-0.00001520,-0.00000124,-0.00001
 551,-0.00000986,0.00000443,-0.00002516,0.00000720,0.00001086,0.0000083
 4,-0.00000859,0.00000112,-0.00001352,-0.00000021,-0.00000469,-0.000002
 16,-0.00000074,0.00000408,-0.00001058,-0.00000497,-0.00008576,-0.00020
 475,0.00070680,-0.00180801,-0.00063064,0.00240595,0.00168632,-0.009662
 42,-0.00115096,-0.01147043,0.29987935,0.00050889,-0.00013932,0.0006384
 4,-0.00114136,0.00033631,0.00015306,0.00025333,-0.00005578,-0.00020879
 ,-0.00016692,-0.00006097,-0.00001415,-0.00008814,0.00002740,0.00003633
 ,0.00008070,-0.00000650,-0.00003030,0.00006311,-0.00002261,-0.00001851
 ,0.00000798,-0.00000500,-0.00002403,0.00000951,0.00001939,0.00000560,0
 .00001959,0.00001481,-0.00002554,0.00001253,-0.00000682,0.00001721,-0.
 00000180,-0.00000282,0.00000232,-0.00001295,-0.00000197,0.00002747,0.0
 0044251,0.02135414,0.00455458,0.00284033,-0.04608822,-0.05745889,-0.00
 397891,-0.03471308,-0.02305123,-0.00010469,0.00005126,0.00014484,0.000
 04626,-0.00001701,0.00000465,-0.00000713,-0.00000084,0.00000332,0.0000
 0314,-0.00001289,-0.00002163,0.00000406,0.00000256,0.00000216,-0.00000
 023,-0.00001162,-0.00000332,-0.00000113,-0.00000219,0.00000023,-0.0000
 1461,-0.00000071,-0.00000921,-0.00084812,-0.00052528,0.00062649,0.0032
 7712,0.00247967,-0.00249997,0.00064119,0.00294028,0.00173055,-0.003528
 31,0.05454561,0.07310322,-0.00317382,0.00126012,-0.00079277,0.00127120
 ,-0.00255063,0.00280197,0.00029662,0.00099741,-0.00080608,-0.00033651,
 0.00010019,0.00002390,-0.00015168,-0.00006118,0.00026839,0.00013364,-0
 .00000079,-0.00012071,0.00006169,0.00005477,-0.00018014,-0.00002668,-0
 .00003054,0.00004807,-0.00003361,0.00004152,0.00001752,-0.00004446,0.0
 0001650,0.00004746,0.00007058,-0.00003370,-0.00000635,0.00003537,-0.00
 001171,-0.00002396,0.00002943,-0.00001379,-0.00000083,0.00037015,0.000
 01482,-0.00022569,-0.00953941,0.00637257,-0.00532293,-0.32046138,0.138
 73963,-0.05171784,0.00016329,0.00003216,0.00006383,0.00001439,-0.00004
 074,0.00002947,-0.00001630,0.00000433,0.00002331,-0.00008020,-0.000076
 30,-0.00000638,0.00002661,0.00001207,-0.00002244,-0.00003852,0.0000112
 4,-0.00004056,0.00000865,-0.00000163,-0.00000538,-0.00002102,-0.000001
 20,0.00001183,-0.00026669,-0.00000430,0.00003392,-0.00002193,-0.000063
 69,-0.00015488,0.00165795,-0.00060463,-0.00165240,0.00058407,0.0002119
 9,0.00205736,0.35238067,0.00021390,-0.00197197,-0.00106241,-0.00071938
 ,0.00091349,0.00113679,0.00003927,-0.00036420,0.00021110,0.00005831,0.
 00010173,0.00001258,-0.00003000,-0.00004449,0.00008955,0.00002120,-0.0
 0000812,-0.00004210,-0.00001395,0.00001981,-0.00005375,-0.00004390,-0.
 00000428,0.00010633,-0.00003944,0.00001372,-0.00005200,-0.00004057,-0.
 00001978,0.00001894,0.00003021,-0.00004101,-0.00001199,0.00002837,0.00
 000042,-0.00001848,0.00002324,-0.00002985,0.00000522,0.00128895,0.0002
 1760,0.00085651,-0.01075778,-0.00057788,-0.00784889,0.19023084,-0.1114
 5900,0.04785697,-0.00000758,0.00000034,0.00009638,0.00000050,-0.000012
 02,-0.00000630,-0.00000222,0.00001108,0.00001317,-0.00007001,0.0000389
 0,0.00001888,-0.00000518,-0.00001422,0.00000299,0.00000047,0.00005045,
 -0.00000177,0.00000790,0.00000276,0.00000042,-0.00000094,0.00001032,0.
 00001478,-0.00028248,-0.00003144,0.00000423,0.00021728,-0.00028071,0.0
 0006112,-0.00068155,0.00063553,-0.00151325,-0.00130757,0.00147562,0.00
 052770,-0.15928174,0.10782567,-0.00030062,-0.00208472,0.00375408,-0.00
 036761,0.00530285,-0.00542102,-0.00084393,-0.00181532,0.00141871,0.000
 70539,-0.00018280,-0.00002281,0.00033600,-0.00002420,-0.00038628,-0.00
 029773,0.00001278,0.00018107,-0.00018657,-0.00002328,0.00025113,-0.000
 00132,0.00005280,0.00006638,0.00000215,-0.00010652,-0.00001676,-0.0000
 4853,-0.00005120,0.00009263,-0.00007873,0.00006719,-0.00006188,-0.0000
 2410,0.00001755,0.00000971,0.00003687,0.00003265,-0.00011712,-0.000064
 54,0.00045183,0.00064591,-0.03749745,0.01821724,-0.01003481,-0.0448306
 9,0.03308831,-0.06919264,-0.00021144,-0.00000635,-0.00002359,0.0000338
 4,0.00006632,-0.00009175,0.00002843,0.00000296,-0.00002347,0.00007768,
 0.00007987,0.00010446,-0.00004387,-0.00001470,0.00000172,0.00000662,0.
 00001052,0.00003122,-0.00000302,0.00000604,-0.00000143,0.00005729,-0.0
 0000445,0.00001921,0.00040177,-0.00022051,0.00007448,0.00008194,-0.000
 05831,-0.00011153,-0.00172260,-0.00138094,-0.00710072,0.00019477,-0.00
 043694,0.00147243,0.06114660,-0.03761566,0.07942787,-0.00038447,-0.000
 04897,0.00170605,-0.00044453,0.00125597,-0.00128749,-0.00002609,-0.000
 37719,0.00019971,0.00010340,-0.00003475,-0.00001126,0.00004604,-0.0000
 0709,-0.00004991,-0.00003346,0.00000447,0.00002047,-0.00001797,-0.0000
 0103,0.00003677,0.00001353,0.00000179,-0.00001320,0.00001096,-0.000017
 26,0.00001299,-0.00000455,-0.00000410,0.00001489,-0.00001332,0.0000179
 7,-0.00001318,-0.00000929,0.00000084,0.00000874,0.00000402,0.00001417,
 -0.00002698,0.00052016,-0.00014447,-0.00260387,0.00866133,0.00344818,-
 0.01032260,-0.23127023,-0.08882332,0.15226803,-0.00005415,-0.00003908,
 0.00002490,0.00001152,0.00001103,-0.00001529,0.00000318,-0.00000198,-0
 .00000362,0.00002267,0.00000675,0.00001470,-0.00000776,0.00000148,0.00
 000259,0.00000289,-0.00000806,0.00000780,-0.00000116,0.00000017,-0.000
 00082,0.00000699,-0.00000376,0.00000205,0.00031479,0.00028562,-0.00070
 404,-0.00007378,0.00005123,0.00002434,0.00066250,0.00038113,-0.0001029
 3,-0.00020623,-0.00000868,-0.00037333,-0.02289211,-0.01887614,0.023413
 39,0.24505514,0.00026768,0.00005372,-0.00078179,0.00105118,-0.00050581
 ,-0.00011656,-0.00036771,-0.00000150,0.00005198,0.00014561,-0.00005694
 ,0.00001596,0.00011952,0.00002043,-0.00011799,-0.00011749,0.00000011,0
 .00006857,-0.00007517,-0.00001740,0.00006315,0.00000406,0.00002453,0.0
 0000018,-0.00000402,-0.00003316,-0.00000816,-0.00000230,-0.00002130,0.
 00000705,-0.00003678,0.00001203,-0.00001227,-0.00000779,0.00000709,0.0
 0000252,-0.00000193,0.00000328,-0.00002063,0.00004654,-0.00023738,0.00
 171812,0.00449307,-0.00311429,-0.01207666,-0.12401637,-0.07928845,0.12
 304218,0.00004010,0.00008068,-0.00007673,-0.00001484,0.00001295,0.0000
 0094,0.00001492,0.00000558,-0.00000952,0.00003356,0.00000996,0.0000222
 2,-0.00001155,-0.00000753,0.00000192,0.00001009,0.00001065,0.00001474,
 -0.00000142,0.00000386,0.00000209,0.00002239,0.00000492,0.00000486,-0.
 00031835,0.00044430,0.00083246,0.00008634,0.00058299,-0.00036245,0.000
 20549,0.00040293,0.00067053,0.00061285,0.00053728,-0.00062550,0.014907
 27,0.00354151,-0.01338301,0.10291506,0.07752498,0.00018877,-0.00040726
 ,0.00081331,-0.00098072,0.00066064,-0.00058607,0.00018143,-0.00012935,
 0.00017100,-0.00000166,0.00003728,0.00003281,-0.00002658,0.00001770,-0
 .00001982,0.00001855,-0.00000829,-0.00000312,0.00002161,-0.00001471,0.
 00001629,0.00002627,-0.00000987,-0.00002267,0.00000786,0.00000326,0.00
 000710,0.00000133,-0.00000386,-0.00000597,-0.00000293,-0.00000522,-0.0
 0000280,-0.00000210,-0.00000007,0.00000445,-0.00000555,0.00000064,0.00
 000013,-0.00354274,-0.00257517,-0.00639600,0.02671852,0.01703778,-0.02
 321653,0.14397048,0.08621569,-0.18635932,-0.00010628,-0.00007038,0.000
 02682,0.00001137,0.00000002,-0.00000490,-0.00000019,0.00000191,0.00000
 057,0.00001626,0.00000464,0.00000038,-0.00000289,-0.00000109,0.0000053
 8,0.00000546,0.00000286,0.00000841,0.00000025,0.00000094,0.00000080,-0
 .00000023,0.00000285,-0.00000139,0.00143046,0.00106285,-0.00117730,-0.
 00037660,-0.00015024,0.00019843,-0.00037351,0.00071637,0.00141433,0.00
 054657,-0.00065464,0.00084267,-0.00549428,-0.00280705,0.00505480,-0.16
 222892,-0.09892821,0.20919822\\-0.00000057,-0.00000048,-0.00000050,-0.
 00000032,0.00000057,0.00000137,-0.00000051,-0.00000123,-0.00000076,0.0
 0000079,0.00000060,0.00000025,0.00000050,-0.00000045,0.00000079,0.0000
 0037,0.00000070,-0.00000020,-0.00000029,0.00000057,0.,0.00000029,0.000
 00039,0.00000081,-0.00000018,-0.00000028,0.00000034,-0.00000045,0.0000
 0001,-0.00000038,-0.00000014,-0.00000034,0.00000027,0.00000017,0.00000
 017,-0.00000044,0.00000022,0.00000043,-0.00000006,0.00000025,0.0000004
 9,-0.00000009,0.00000028,-0.00000008,0.00000009,0.00000029,0.00000039,
 0.00000042,-0.00000012,0.00000060,0.00000006,-0.00000010,0.00000044,-0
 .00000034,-0.00000021,0.00000054,0.00000009,0.00000042,-0.00000021,0.0
 0000001,0.00000007,-0.00000008,0.00000006,0.00000004,-0.00000036,-0.00
 000027,0.00000018,-0.00000005,-0.00000022,-0.00000063,-0.00000005,-0.0
 0000003,0.00000008,0.00000016,-0.00000033,0.00000018,-0.00000016,0.000
 00019,0.00000002,-0.00000050,-0.00000004,-0.00000007,-0.00000049,-0.00
 000020,-0.00000039,-0.00000098,-0.00000083,-0.00000016,-0.00000032,-0.
 00000008\\\@


 The earth never tires,
 The earth is rude, silent, incomprehensible at first,
 Nature is rude and incomprehensible at first,
 Be not discouraged, keep on,
 There are divine things well envelop'd,
 I swear to you there are divine things more beautiful than words can tell.
                                 -- Walt Whitman
 Job cpu time:       0 days  2 hours  1 minutes 54.3 seconds.
 File lengths (MBytes):  RWF=    415 Int=      0 D2E=      0 Chk=     13 Scr=      1
 Normal termination of Gaussian 09 at Wed Jul 28 23:28:21 2021.
