 Entering Gaussian System, Link 0=g09
 Input=opt_freq-conf-640.com
 Output=opt_freq-conf-640.log
 Initial command:
 /aerosol/software/g09/l1.exe "/scratch/nicole/10623/Gau-83764.inp" -scrdir="/scratch/nicole/10623/"
 Entering Link 1 = /aerosol/software/g09/l1.exe PID=     83769.
  
 Copyright (c) 1988,1990,1992,1993,1995,1998,2003,2009,2013,
            Gaussian, Inc.  All Rights Reserved.
  
 This is part of the Gaussian(R) 09 program.  It is based on
 the Gaussian(R) 03 system (copyright 2003, Gaussian, Inc.),
 the Gaussian(R) 98 system (copyright 1998, Gaussian, Inc.),
 the Gaussian(R) 94 system (copyright 1995, Gaussian, Inc.),
 the Gaussian 92(TM) system (copyright 1992, Gaussian, Inc.),
 the Gaussian 90(TM) system (copyright 1990, Gaussian, Inc.),
 the Gaussian 88(TM) system (copyright 1988, Gaussian, Inc.),
 the Gaussian 86(TM) system (copyright 1986, Carnegie Mellon
 University), and the Gaussian 82(TM) system (copyright 1983,
 Carnegie Mellon University). Gaussian is a federally registered
 trademark of Gaussian, Inc.
  
 This software contains proprietary and confidential information,
 including trade secrets, belonging to Gaussian, Inc.
  
 This software is provided under written license and may be
 used, copied, transmitted, or stored only in accord with that
 written license.
  
 The following legend is applicable only to US Government
 contracts under FAR:
  
                    RESTRICTED RIGHTS LEGEND
  
 Use, reproduction and disclosure by the US Government is
 subject to restrictions as set forth in subparagraphs (a)
 and (c) of the Commercial Computer Software - Restricted
 Rights clause in FAR 52.227-19.
  
 Gaussian, Inc.
 340 Quinnipiac St., Bldg. 40, Wallingford CT 06492
  
  
 ---------------------------------------------------------------
 Warning -- This program may not be used in any manner that
 competes with the business of Gaussian, Inc. or will provide
 assistance to any competitor of Gaussian, Inc.  The licensee
 of this program is prohibited from giving any competitor of
 Gaussian, Inc. access to this program.  By using this program,
 the user acknowledges that Gaussian, Inc. is engaged in the
 business of creating and licensing software in the field of
 computational chemistry and represents and warrants to the
 licensee that it is not a competitor of Gaussian, Inc. and that
 it will not use this program in any manner prohibited above.
 ---------------------------------------------------------------
  

 Cite this work as:
 Gaussian 09, Revision D.01,
 M. J. Frisch, G. W. Trucks, H. B. Schlegel, G. E. Scuseria, 
 M. A. Robb, J. R. Cheeseman, G. Scalmani, V. Barone, B. Mennucci, 
 G. A. Petersson, H. Nakatsuji, M. Caricato, X. Li, H. P. Hratchian, 
 A. F. Izmaylov, J. Bloino, G. Zheng, J. L. Sonnenberg, M. Hada, 
 M. Ehara, K. Toyota, R. Fukuda, J. Hasegawa, M. Ishida, T. Nakajima, 
 Y. Honda, O. Kitao, H. Nakai, T. Vreven, J. A. Montgomery, Jr., 
 J. E. Peralta, F. Ogliaro, M. Bearpark, J. J. Heyd, E. Brothers, 
 K. N. Kudin, V. N. Staroverov, T. Keith, R. Kobayashi, J. Normand, 
 K. Raghavachari, A. Rendell, J. C. Burant, S. S. Iyengar, J. Tomasi, 
 M. Cossi, N. Rega, J. M. Millam, M. Klene, J. E. Knox, J. B. Cross, 
 V. Bakken, C. Adamo, J. Jaramillo, R. Gomperts, R. E. Stratmann, 
 O. Yazyev, A. J. Austin, R. Cammi, C. Pomelli, J. W. Ochterski, 
 R. L. Martin, K. Morokuma, V. G. Zakrzewski, G. A. Voth, 
 P. Salvador, J. J. Dannenberg, S. Dapprich, A. D. Daniels, 
 O. Farkas, J. B. Foresman, J. V. Ortiz, J. Cioslowski, 
 and D. J. Fox, Gaussian, Inc., Wallingford CT, 2013.
 
 ******************************************
 Gaussian 09:  ES64L-G09RevD.01 24-Apr-2013
                28-Jul-2021 
 ******************************************
 %mem=2gb
 %nproc=4
 Will use up to    4 processors via shared memory.
 %chk=conf-640.chk
 ----------------------------------------------------------------------
 # B3LYP/6-311G(d,p) opt=calcfc freq=noraman nosymm integral(ultrafineg
 rid)
 ----------------------------------------------------------------------
 1/10=4,14=-1,18=20,19=15,26=4,38=1/1,3;
 2/9=110,12=2,15=1,17=6,18=5,40=1/2;
 3/5=4,6=6,7=101,11=2,16=1,25=1,30=1,71=2,74=-5,75=-5,140=1/1,2,3;
 4//1;
 5/5=2,38=5/2;
 8/6=4,10=90,11=11/1;
 11/6=1,8=1,9=11,15=111,16=1,31=1/1,2,10;
 10/6=1,13=1,31=1/2;
 6/7=2,8=2,9=2,10=2,28=1/1;
 7/10=1,18=20,25=1,30=1/1,2,3,16;
 1/10=4,14=-1,18=20,19=15,26=4/3(2);
 2/9=110,15=1/2;
 99//99;
 2/9=110,15=1/2;
 3/5=4,6=6,7=101,11=2,16=1,25=1,30=1,71=1,74=-5,75=-5/1,2,3;
 4/5=5,16=3,69=1/1;
 5/5=2,38=5/2;
 7/30=1/1,2,3,16;
 1/14=-1,18=20,19=15,26=4/3(-5);
 2/9=110,15=1/2;
 6/7=2,8=2,9=2,10=2,19=2,28=1/1;
 99/9=1/99;
 ------------------------------------------------------------
 Candidate Structure: Conf:640 OPT and FREQ calc in gas phase
 ------------------------------------------------------------
 Symbolic Z-matrix:
 Charge =  0 Multiplicity = 1
 O                     0.92904  -1.24196  -0.873 
 C                     1.14845  -0.10723  -0.44526 
 N                     0.2273    0.87891  -0.54866 
 C                    -0.97462   0.70331  -1.33263 
 C                    -1.08429   1.83216  -2.33354 
 O                    -1.97773   1.54387  -3.30167 
 O                    -0.49299   2.87836  -2.27439 
 C                    -2.26049   0.68855  -0.4937 
 C                    -2.33041  -0.37329   0.56466 
 C                    -3.14952  -0.49021   1.64953 
 N                    -2.89099  -1.66012   2.3362 
 C                    -1.92679  -2.23652   1.662 
 N                    -1.55644  -1.50578   0.58175 
 C                     2.45641   0.27932   0.21253 
 C                     3.08644  -0.86428   1.00797 
 N                     4.40372  -0.56311   1.56443 
 H                     0.49677   1.83106  -0.35097 
 H                    -0.88867  -0.23908  -1.87118 
 H                    -2.00681   2.31839  -3.87722 
 H                    -3.09639   0.5662   -1.18687 
 H                    -2.4066    1.65964  -0.01709 
 H                    -3.91554   0.19426   1.98446 
 H                    -1.45505  -3.17397   1.89963 
 H                    -0.77922  -1.70241  -0.03841 
 H                     2.29431   1.15407   0.84898 
 H                     3.14994   0.58266  -0.5804 
 H                     2.43604  -1.14432   1.83845 
 H                     3.16991  -1.73687   0.3616 
 H                     4.3486    0.23292   2.18976 
 H                     5.04569  -0.30467   0.82302 
 

 GradGradGradGradGradGradGradGradGradGradGradGradGradGradGradGradGradGrad
 Berny optimization.
 Initialization pass.
                           ----------------------------
                           !    Initial Parameters    !
                           ! (Angstroms and Degrees)  !
 --------------------------                            --------------------------
 ! Name  Definition              Value          Derivative Info.                !
 --------------------------------------------------------------------------------
 ! R1    R(1,2)                  1.2324         calculate D2E/DX2 analytically  !
 ! R2    R(2,3)                  1.3534         calculate D2E/DX2 analytically  !
 ! R3    R(2,14)                 1.5142         calculate D2E/DX2 analytically  !
 ! R4    R(3,4)                  1.4457         calculate D2E/DX2 analytically  !
 ! R5    R(3,17)                 1.0091         calculate D2E/DX2 analytically  !
 ! R6    R(4,5)                  1.5127         calculate D2E/DX2 analytically  !
 ! R7    R(4,8)                  1.5354         calculate D2E/DX2 analytically  !
 ! R8    R(4,18)                 1.0888         calculate D2E/DX2 analytically  !
 ! R9    R(5,6)                  1.3486         calculate D2E/DX2 analytically  !
 ! R10   R(5,7)                  1.2032         calculate D2E/DX2 analytically  !
 ! R11   R(6,19)                 0.9654         calculate D2E/DX2 analytically  !
 ! R12   R(8,9)                  1.5008         calculate D2E/DX2 analytically  !
 ! R13   R(8,20)                 1.0928         calculate D2E/DX2 analytically  !
 ! R14   R(8,21)                 1.0916         calculate D2E/DX2 analytically  !
 ! R15   R(9,10)                 1.3644         calculate D2E/DX2 analytically  !
 ! R16   R(9,13)                 1.3718         calculate D2E/DX2 analytically  !
 ! R17   R(10,11)                1.381          calculate D2E/DX2 analytically  !
 ! R18   R(10,22)                1.0805         calculate D2E/DX2 analytically  !
 ! R19   R(11,12)                1.3101         calculate D2E/DX2 analytically  !
 ! R20   R(12,13)                1.3558         calculate D2E/DX2 analytically  !
 ! R21   R(12,23)                1.076          calculate D2E/DX2 analytically  !
 ! R22   R(13,24)                1.0136         calculate D2E/DX2 analytically  !
 ! R23   R(14,15)                1.5289         calculate D2E/DX2 analytically  !
 ! R24   R(14,25)                1.0939         calculate D2E/DX2 analytically  !
 ! R25   R(14,26)                1.0962         calculate D2E/DX2 analytically  !
 ! R26   R(15,16)                1.4614         calculate D2E/DX2 analytically  !
 ! R27   R(15,27)                1.0914         calculate D2E/DX2 analytically  !
 ! R28   R(15,28)                1.0891         calculate D2E/DX2 analytically  !
 ! R29   R(16,29)                1.0138         calculate D2E/DX2 analytically  !
 ! R30   R(16,30)                1.0142         calculate D2E/DX2 analytically  !
 ! A1    A(1,2,3)              121.5484         calculate D2E/DX2 analytically  !
 ! A2    A(1,2,14)             122.6579         calculate D2E/DX2 analytically  !
 ! A3    A(3,2,14)             115.7913         calculate D2E/DX2 analytically  !
 ! A4    A(2,3,4)              121.2506         calculate D2E/DX2 analytically  !
 ! A5    A(2,3,17)             119.3924         calculate D2E/DX2 analytically  !
 ! A6    A(4,3,17)             116.2863         calculate D2E/DX2 analytically  !
 ! A7    A(3,4,5)              109.175          calculate D2E/DX2 analytically  !
 ! A8    A(3,4,8)              113.6491         calculate D2E/DX2 analytically  !
 ! A9    A(3,4,18)             107.922          calculate D2E/DX2 analytically  !
 ! A10   A(5,4,8)              107.9384         calculate D2E/DX2 analytically  !
 ! A11   A(5,4,18)             108.9258         calculate D2E/DX2 analytically  !
 ! A12   A(8,4,18)             109.1496         calculate D2E/DX2 analytically  !
 ! A13   A(4,5,6)              111.317          calculate D2E/DX2 analytically  !
 ! A14   A(4,5,7)              125.5017         calculate D2E/DX2 analytically  !
 ! A15   A(6,5,7)              123.1454         calculate D2E/DX2 analytically  !
 ! A16   A(5,6,19)             106.0485         calculate D2E/DX2 analytically  !
 ! A17   A(4,8,9)              115.5387         calculate D2E/DX2 analytically  !
 ! A18   A(4,8,20)             107.1636         calculate D2E/DX2 analytically  !
 ! A19   A(4,8,21)             110.0055         calculate D2E/DX2 analytically  !
 ! A20   A(9,8,20)             109.4183         calculate D2E/DX2 analytically  !
 ! A21   A(9,8,21)             108.3769         calculate D2E/DX2 analytically  !
 ! A22   A(20,8,21)            105.9131         calculate D2E/DX2 analytically  !
 ! A23   A(8,9,10)             130.4895         calculate D2E/DX2 analytically  !
 ! A24   A(8,9,13)             124.5113         calculate D2E/DX2 analytically  !
 ! A25   A(10,9,13)            104.9555         calculate D2E/DX2 analytically  !
 ! A26   A(9,10,11)            110.8288         calculate D2E/DX2 analytically  !
 ! A27   A(9,10,22)            128.1563         calculate D2E/DX2 analytically  !
 ! A28   A(11,10,22)           121.0148         calculate D2E/DX2 analytically  !
 ! A29   A(10,11,12)           104.7504         calculate D2E/DX2 analytically  !
 ! A30   A(11,12,13)           111.9587         calculate D2E/DX2 analytically  !
 ! A31   A(11,12,23)           126.3198         calculate D2E/DX2 analytically  !
 ! A32   A(13,12,23)           121.7214         calculate D2E/DX2 analytically  !
 ! A33   A(9,13,12)            107.5037         calculate D2E/DX2 analytically  !
 ! A34   A(9,13,24)            125.8148         calculate D2E/DX2 analytically  !
 ! A35   A(12,13,24)           126.3288         calculate D2E/DX2 analytically  !
 ! A36   A(2,14,15)            113.0179         calculate D2E/DX2 analytically  !
 ! A37   A(2,14,25)            109.2018         calculate D2E/DX2 analytically  !
 ! A38   A(2,14,26)            107.6311         calculate D2E/DX2 analytically  !
 ! A39   A(15,14,25)           110.8868         calculate D2E/DX2 analytically  !
 ! A40   A(15,14,26)           108.8199         calculate D2E/DX2 analytically  !
 ! A41   A(25,14,26)           107.0571         calculate D2E/DX2 analytically  !
 ! A42   A(14,15,16)           114.5457         calculate D2E/DX2 analytically  !
 ! A43   A(14,15,27)           110.0138         calculate D2E/DX2 analytically  !
 ! A44   A(14,15,28)           108.7903         calculate D2E/DX2 analytically  !
 ! A45   A(16,15,27)           107.476          calculate D2E/DX2 analytically  !
 ! A46   A(16,15,28)           108.7849         calculate D2E/DX2 analytically  !
 ! A47   A(27,15,28)           106.9591         calculate D2E/DX2 analytically  !
 ! A48   A(15,16,29)           110.346          calculate D2E/DX2 analytically  !
 ! A49   A(15,16,30)           110.1652         calculate D2E/DX2 analytically  !
 ! A50   A(29,16,30)           106.5732         calculate D2E/DX2 analytically  !
 ! D1    D(1,2,3,4)             -9.0351         calculate D2E/DX2 analytically  !
 ! D2    D(1,2,3,17)          -168.4865         calculate D2E/DX2 analytically  !
 ! D3    D(14,2,3,4)           170.4087         calculate D2E/DX2 analytically  !
 ! D4    D(14,2,3,17)           10.9574         calculate D2E/DX2 analytically  !
 ! D5    D(1,2,14,15)          -33.549          calculate D2E/DX2 analytically  !
 ! D6    D(1,2,14,25)         -157.4765         calculate D2E/DX2 analytically  !
 ! D7    D(1,2,14,26)           86.6363         calculate D2E/DX2 analytically  !
 ! D8    D(3,2,14,15)          147.014          calculate D2E/DX2 analytically  !
 ! D9    D(3,2,14,25)           23.0865         calculate D2E/DX2 analytically  !
 ! D10   D(3,2,14,26)          -92.8008         calculate D2E/DX2 analytically  !
 ! D11   D(2,3,4,5)           -125.8807         calculate D2E/DX2 analytically  !
 ! D12   D(2,3,4,8)            113.5711         calculate D2E/DX2 analytically  !
 ! D13   D(2,3,4,18)            -7.6271         calculate D2E/DX2 analytically  !
 ! D14   D(17,3,4,5)            34.1759         calculate D2E/DX2 analytically  !
 ! D15   D(17,3,4,8)           -86.3724         calculate D2E/DX2 analytically  !
 ! D16   D(17,3,4,18)          152.4295         calculate D2E/DX2 analytically  !
 ! D17   D(3,4,5,6)            164.2008         calculate D2E/DX2 analytically  !
 ! D18   D(3,4,5,7)            -17.9287         calculate D2E/DX2 analytically  !
 ! D19   D(8,4,5,6)            -71.8144         calculate D2E/DX2 analytically  !
 ! D20   D(8,4,5,7)            106.0562         calculate D2E/DX2 analytically  !
 ! D21   D(18,4,5,6)            46.5777         calculate D2E/DX2 analytically  !
 ! D22   D(18,4,5,7)          -135.5517         calculate D2E/DX2 analytically  !
 ! D23   D(3,4,8,9)            -58.5958         calculate D2E/DX2 analytically  !
 ! D24   D(3,4,8,20)           179.1816         calculate D2E/DX2 analytically  !
 ! D25   D(3,4,8,21)            64.4837         calculate D2E/DX2 analytically  !
 ! D26   D(5,4,8,9)           -179.8379         calculate D2E/DX2 analytically  !
 ! D27   D(5,4,8,20)            57.9396         calculate D2E/DX2 analytically  !
 ! D28   D(5,4,8,21)           -56.7584         calculate D2E/DX2 analytically  !
 ! D29   D(18,4,8,9)            61.9133         calculate D2E/DX2 analytically  !
 ! D30   D(18,4,8,20)          -60.3092         calculate D2E/DX2 analytically  !
 ! D31   D(18,4,8,21)         -175.0072         calculate D2E/DX2 analytically  !
 ! D32   D(4,5,6,19)           178.314          calculate D2E/DX2 analytically  !
 ! D33   D(7,5,6,19)             0.3845         calculate D2E/DX2 analytically  !
 ! D34   D(4,8,9,10)           163.5485         calculate D2E/DX2 analytically  !
 ! D35   D(4,8,9,13)           -19.2303         calculate D2E/DX2 analytically  !
 ! D36   D(20,8,9,10)          -75.4396         calculate D2E/DX2 analytically  !
 ! D37   D(20,8,9,13)          101.7816         calculate D2E/DX2 analytically  !
 ! D38   D(21,8,9,10)           39.6128         calculate D2E/DX2 analytically  !
 ! D39   D(21,8,9,13)         -143.166          calculate D2E/DX2 analytically  !
 ! D40   D(8,9,10,11)          178.0604         calculate D2E/DX2 analytically  !
 ! D41   D(8,9,10,22)           -1.8368         calculate D2E/DX2 analytically  !
 ! D42   D(13,9,10,11)           0.4303         calculate D2E/DX2 analytically  !
 ! D43   D(13,9,10,22)        -179.4669         calculate D2E/DX2 analytically  !
 ! D44   D(8,9,13,12)         -178.3463         calculate D2E/DX2 analytically  !
 ! D45   D(8,9,13,24)            8.1382         calculate D2E/DX2 analytically  !
 ! D46   D(10,9,13,12)          -0.5334         calculate D2E/DX2 analytically  !
 ! D47   D(10,9,13,24)        -174.049          calculate D2E/DX2 analytically  !
 ! D48   D(9,10,11,12)          -0.1528         calculate D2E/DX2 analytically  !
 ! D49   D(22,10,11,12)        179.7528         calculate D2E/DX2 analytically  !
 ! D50   D(10,11,12,13)         -0.201          calculate D2E/DX2 analytically  !
 ! D51   D(10,11,12,23)        179.7219         calculate D2E/DX2 analytically  !
 ! D52   D(11,12,13,9)           0.4761         calculate D2E/DX2 analytically  !
 ! D53   D(11,12,13,24)        173.949          calculate D2E/DX2 analytically  !
 ! D54   D(23,12,13,9)        -179.4508         calculate D2E/DX2 analytically  !
 ! D55   D(23,12,13,24)         -5.978          calculate D2E/DX2 analytically  !
 ! D56   D(2,14,15,16)         175.1479         calculate D2E/DX2 analytically  !
 ! D57   D(2,14,15,27)         -63.6736         calculate D2E/DX2 analytically  !
 ! D58   D(2,14,15,28)          53.1883         calculate D2E/DX2 analytically  !
 ! D59   D(25,14,15,16)        -61.8547         calculate D2E/DX2 analytically  !
 ! D60   D(25,14,15,27)         59.3238         calculate D2E/DX2 analytically  !
 ! D61   D(25,14,15,28)        176.1857         calculate D2E/DX2 analytically  !
 ! D62   D(26,14,15,16)         55.645          calculate D2E/DX2 analytically  !
 ! D63   D(26,14,15,27)        176.8234         calculate D2E/DX2 analytically  !
 ! D64   D(26,14,15,28)        -66.3147         calculate D2E/DX2 analytically  !
 ! D65   D(14,15,16,29)         59.4691         calculate D2E/DX2 analytically  !
 ! D66   D(14,15,16,30)        -57.9352         calculate D2E/DX2 analytically  !
 ! D67   D(27,15,16,29)        -63.0946         calculate D2E/DX2 analytically  !
 ! D68   D(27,15,16,30)        179.5011         calculate D2E/DX2 analytically  !
 ! D69   D(28,15,16,29)       -178.5683         calculate D2E/DX2 analytically  !
 ! D70   D(28,15,16,30)         64.0274         calculate D2E/DX2 analytically  !
 --------------------------------------------------------------------------------
 Trust Radius=3.00D-01 FncErr=1.00D-07 GrdErr=1.00D-06
 Number of steps in this run=    160 maximum allowed number of steps=    180.
 GradGradGradGradGradGradGradGradGradGradGradGradGradGradGradGradGradGrad

                          Input orientation:                          
 ---------------------------------------------------------------------
 Center     Atomic      Atomic             Coordinates (Angstroms)
 Number     Number       Type             X           Y           Z
 ---------------------------------------------------------------------
      1          8           0        0.929043   -1.241963   -0.873004
      2          6           0        1.148453   -0.107229   -0.445265
      3          7           0        0.227295    0.878910   -0.548664
      4          6           0       -0.974618    0.703315   -1.332629
      5          6           0       -1.084293    1.832158   -2.333541
      6          8           0       -1.977728    1.543869   -3.301668
      7          8           0       -0.492986    2.878356   -2.274390
      8          6           0       -2.260494    0.688548   -0.493701
      9          6           0       -2.330413   -0.373288    0.564662
     10          6           0       -3.149524   -0.490207    1.649530
     11          7           0       -2.890995   -1.660122    2.336198
     12          6           0       -1.926786   -2.236516    1.661995
     13          7           0       -1.556443   -1.505777    0.581748
     14          6           0        2.456413    0.279321    0.212533
     15          6           0        3.086444   -0.864276    1.007965
     16          7           0        4.403718   -0.563113    1.564429
     17          1           0        0.496774    1.831061   -0.350975
     18          1           0       -0.888672   -0.239080   -1.871181
     19          1           0       -2.006809    2.318387   -3.877224
     20          1           0       -3.096390    0.566200   -1.186873
     21          1           0       -2.406602    1.659641   -0.017086
     22          1           0       -3.915536    0.194263    1.984460
     23          1           0       -1.455054   -3.173967    1.899627
     24          1           0       -0.779216   -1.702408   -0.038411
     25          1           0        2.294314    1.154066    0.848976
     26          1           0        3.149944    0.582658   -0.580398
     27          1           0        2.436040   -1.144321    1.838451
     28          1           0        3.169914   -1.736868    0.361604
     29          1           0        4.348596    0.232922    2.189758
     30          1           0        5.045691   -0.304669    0.823024
 ---------------------------------------------------------------------
                    Distance matrix (angstroms):
                    1          2          3          4          5
     1  O    0.000000
     2  C    1.232365   0.000000
     3  N    2.257377   1.353401   0.000000
     4  C    2.760306   2.439637   1.445694   0.000000
     5  C    3.954354   3.508841   2.411375   1.512660   0.000000
     6  O    4.701977   4.545126   3.589335   2.364291   1.348557
     7  O    4.578546   3.867007   2.737648   2.418612   1.203193
     8  C    3.747518   3.500932   2.495667   1.535413   2.465016
     9  C    3.666815   3.632251   3.057673   2.568456   3.849206
    10  C    4.854176   4.796607   4.255520   3.879173   5.052070
    11  N    5.006648   5.144429   4.949025   4.766406   6.104642
    12  C    3.946025   4.293192   4.385540   4.303139   5.764391
    13  N    2.891979   3.213588   3.185324   2.980511   4.456865
    14  C    2.413619   1.514225   2.430616   3.786723   4.629298
    15  C    2.887053   2.537875   3.692767   4.942464   5.985940
    16  N    4.298288   3.852720   4.897663   6.238853   7.144912
    17  H    3.146880   2.047082   1.009104   2.097726   2.535812
    18  H    2.303523   2.490080   2.060178   1.088821   2.131213
    19  H    5.506419   5.255248   4.259416   3.185724   1.862904
    20  H    4.424034   4.361442   3.398820   2.131187   2.639323
    21  H    4.503158   3.992941   2.798130   2.166978   2.672869
    22  H    5.804979   5.624805   4.903928   4.462198   5.416989
    23  H    4.135703   4.656355   5.024962   5.070662   6.566465
    24  H    1.956197   2.534963   2.817203   2.738739   4.225382
    25  H    3.251175   2.139842   2.510314   3.955818   4.690758
    26  H    2.889163   2.121361   2.937796   4.194332   4.750108
    27  H    3.103637   2.819361   3.830188   5.010200   6.217531
    28  H    2.605895   2.719019   4.041025   5.099222   6.172522
    29  H    4.821737   4.159323   4.990128   6.400398   7.248040
    30  H    4.549926   4.103170   5.147749   6.473561   7.218493
                    6          7          8          9         10
     6  O    0.000000
     7  O    2.245131   0.000000
     8  C    2.948933   3.330194   0.000000
     9  C    4.329940   4.691432   1.500838   0.000000
    10  C    5.479500   5.813911   2.602552   1.364387   0.000000
    11  N    6.548675   6.899692   3.731235   2.260207   1.380960
    12  C    6.239539   6.611567   3.648888   2.199698   2.131862
    13  N    4.955677   5.339390   2.543097   1.371806   2.170126
    14  C    5.797439   4.651745   4.787007   4.843923   5.838121
    15  C    7.072336   6.131352   5.766802   5.457099   6.280034
    16  N    8.297055   7.110412   7.086203   6.810586   7.554073
    17  H    3.861636   2.403327   2.988015   3.700072   4.762961
    18  H    2.532043   3.168209   2.154028   2.833718   4.191649
    19  H    0.965395   2.274709   3.764167   5.203862   6.303888
    20  H    2.584491   3.647803   1.092785   2.130078   3.027210
    21  H    3.314486   3.200408   1.091573   2.115901   2.819821
    22  H    5.789618   6.087364   3.020722   2.202397   1.080487
    23  H    7.041635   7.414756   4.614734   3.223692   3.183762
    24  H    4.756426   5.105383   2.849236   2.129899   3.152290
    25  H    5.969098   4.527432   4.771348   4.878703   5.742811
    26  H    5.884068   4.627178   5.412168   5.679727   6.768080
    27  H    7.288932   6.455741   5.554797   4.993606   5.626906
    28  H    7.119060   6.454889   6.008620   5.670465   6.568730
    29  H    8.479193   7.097032   7.147630   6.900550   7.552256
    30  H    8.352161   7.099476   7.490032   7.380946   8.238876
                   11         12         13         14         15
    11  N    0.000000
    12  C    1.310143   0.000000
    13  N    2.209738   1.355753   0.000000
    14  C    6.071751   5.257642   4.407482   0.000000
    15  C    6.174735   5.238633   4.706334   1.528877   0.000000
    16  N    7.417000   6.548670   6.113738   2.515813   1.461356
    17  H    5.557539   5.144986   4.027426   2.562347   3.977179
    18  H    4.871416   4.189363   2.840299   3.974946   4.947919
    19  H    7.430809   7.171923   5.891476   6.387821   7.741812
    20  H    4.172617   4.164041   3.129305   5.733607   6.714984
    21  H    4.097976   4.269610   3.331853   5.060328   6.131431
    22  H    2.147591   3.157181   3.228475   6.614278   7.148550
    23  H    2.131724   1.076018   2.128366   5.483707   5.172517
    24  H    3.178075   2.119804   1.013579   3.802567   4.091540
    25  H    6.084316   5.474918   4.687696   1.093853   2.174041
    26  H    7.073156   6.224890   5.278467   1.096239   2.149546
    27  H    5.375044   4.500919   4.201175   2.161199   1.091402
    28  H    6.374914   5.283656   4.737121   2.143903   1.089113
    29  H    7.484433   6.764398   6.362252   2.737139   2.047805
    30  H    8.192553   7.283635   6.714837   2.723620   2.045974
                   16         17         18         19         20
    16  N    0.000000
    17  H    4.966392   0.000000
    18  H    6.318054   2.918214   0.000000
    19  H    8.888728   4.351994   3.437306   0.000000
    20  H    8.068248   3.899926   2.447605   3.390476   0.000000
    21  H    7.336367   2.927535   3.057273   3.936299   1.743509
    22  H    8.364211   5.253745   4.920940   6.520312   3.296466
    23  H    6.422937   5.824530   4.811792   7.990143   5.119504
    24  H    5.543455   3.769782   2.347841   5.693001   3.440181
    25  H    2.812501   2.264808   4.412653   6.495558   5.792232
    26  H    2.735877   2.941166   4.318772   6.361912   6.275728
    27  H    2.069939   4.172198   5.063056   8.024848   6.533471
    28  H    2.084889   4.514816   4.868348   7.823759   6.853354
    29  H    1.013779   4.883227   6.644019   9.030427   8.181719
    30  H    1.014201   5.160645   6.517646   8.871894   8.431582
                   21         22         23         24         25
    21  H    0.000000
    22  H    2.903515   0.000000
    23  H    5.286114   4.172067   0.000000
    24  H    3.735267   4.186390   2.525516   0.000000
    25  H    4.806691   6.385356   5.821811   4.288763   0.000000
    26  H    5.687918   7.526642   6.439624   4.577508   1.761170
    27  H    5.895456   6.492737   4.389056   3.764564   2.506338
    28  H    6.540429   7.521072   5.081446   3.969487   3.059690
    29  H    7.248337   8.266772   6.735980   5.916477   2.620358
    30  H    7.752481   9.049942   7.186906   6.051883   3.114266
                   26         27         28         29         30
    26  H    0.000000
    27  H    3.056623   0.000000
    28  H    2.503591   1.752359   0.000000
    29  H    3.038559   2.382874   2.934538   0.000000
    30  H    2.520079   2.923421   2.404713   1.625701   0.000000
 Symmetry turned off by external request.
 Stoichiometry    C9H14N4O3
 Framework group  C1[X(C9H14N4O3)]
 Deg. of freedom    84
 Full point group                 C1      NOp   1
 Rotational constants (GHZ):      0.5050640      0.4053310      0.2477507
 Standard basis: 6-311G(d,p) (5D, 7F)
   372 basis functions,   624 primitive gaussians,   388 cartesian basis functions
    60 alpha electrons       60 beta electrons
       nuclear repulsion energy      1124.8072977319 Hartrees.
 NAtoms=   30 NActive=   30 NUniq=   30 SFac= 1.00D+00 NAtFMM=   60 NAOKFM=F Big=F
 Integral buffers will be    131072 words long.
 Raffenetti 2 integral format.
 Two-electron integral symmetry is turned off.
 One-electron integrals computed using PRISM.
 NBasis=   372 RedAO= T EigKep=  4.68D-04  NBF=   372
 NBsUse=   372 1.00D-06 EigRej= -1.00D+00 NBFU=   372
 ExpMin= 1.03D-01 ExpMax= 8.59D+03 ExpMxC= 1.30D+03 IAcc=3 IRadAn=         5 AccDes= 0.00D+00
 Harris functional with IExCor=  402 and IRadAn=       5 diagonalized for initial guess.
 HarFok:  IExCor=  402 AccDes= 0.00D+00 IRadAn=         5 IDoV= 1 UseB2=F ITyADJ=14
 ICtDFT=  3500011 ScaDFX=  1.000000  1.000000  1.000000  1.000000
 FoFCou: FMM=F IPFlag=           0 FMFlag=      100000 FMFlg1=           0
         NFxFlg=           0 DoJE=T BraDBF=F KetDBF=T FulRan=T
         wScrn=  0.000000 ICntrl=     500 IOpCl=  0 I1Cent=   200000004 NGrid=           0
         NMat0=    1 NMatS0=      1 NMatT0=    0 NMatD0=    1 NMtDS0=    0 NMtDT0=    0
 Symmetry not used in FoFCou.
 Requested convergence on RMS density matrix=1.00D-08 within 128 cycles.
 Requested convergence on MAX density matrix=1.00D-06.
 Requested convergence on             energy=1.00D-06.
 No special actions if energy rises.
 Integral accuracy reduced to 1.0D-05 until final iterations.
 Initial convergence to 1.0D-05 achieved.  Increase integral accuracy.
 SCF Done:  E(RB3LYP) =  -796.313947348     A.U. after   14 cycles
            NFock= 14  Conv=0.55D-08     -V/T= 2.0032
 DoSCS=F DFT=T ScalE2(SS,OS)=  1.000000  1.000000
 Range of M.O.s used for correlation:     1   372
 NBasis=   372 NAE=    60 NBE=    60 NFC=     0 NFV=     0
 NROrb=    372 NOA=    60 NOB=    60 NVA=   312 NVB=   312
 Symmetrizing basis deriv contribution to polar:
 IMax=3 JMax=2 DiffMx= 0.00D+00
 G2DrvN: will do    31 centers at a time, making    1 passes.
 Calling FoFCou, ICntrl=  3107 FMM=F I1Cent=   0 AccDes= 0.00D+00.
 End of G2Drv F.D. properties file   721 does not exist.
 End of G2Drv F.D. properties file   722 does not exist.
 End of G2Drv F.D. properties file   788 does not exist.
          IDoAtm=111111111111111111111111111111
          Differentiating once with respect to nuclear coordinates.
          There are    93 degrees of freedom in the 1st order CPHF.  IDoFFX=6 NUNeed=     0.
     87 vectors produced by pass  0 Test12= 2.01D-14 1.08D-09 XBig12= 1.50D-01 8.33D-02.
 AX will form    87 AO Fock derivatives at one time.
     87 vectors produced by pass  1 Test12= 2.01D-14 1.08D-09 XBig12= 2.88D-02 4.75D-02.
     87 vectors produced by pass  2 Test12= 2.01D-14 1.08D-09 XBig12= 1.97D-04 2.21D-03.
     87 vectors produced by pass  3 Test12= 2.01D-14 1.08D-09 XBig12= 1.01D-06 1.14D-04.
     87 vectors produced by pass  4 Test12= 2.01D-14 1.08D-09 XBig12= 2.27D-09 4.67D-06.
     80 vectors produced by pass  5 Test12= 2.01D-14 1.08D-09 XBig12= 2.53D-12 2.11D-07.
     25 vectors produced by pass  6 Test12= 2.01D-14 1.08D-09 XBig12= 2.31D-15 5.35D-09.
 InvSVY:  IOpt=1 It=  1 EMax= 6.38D-16
 Solved reduced A of dimension   540 with    93 vectors.
 End of Minotr F.D. properties file   721 does not exist.
 End of Minotr F.D. properties file   722 does not exist.
 End of Minotr F.D. properties file   788 does not exist.

 **********************************************************************

            Population analysis using the SCF density.

 **********************************************************************

 Alpha  occ. eigenvalues --  -19.19614 -19.14272 -19.11037 -14.36365 -14.35065
 Alpha  occ. eigenvalues --  -14.29551 -14.27588 -10.33411 -10.29706 -10.25165
 Alpha  occ. eigenvalues --  -10.20745 -10.20459 -10.20263 -10.19850 -10.19569
 Alpha  occ. eigenvalues --  -10.16843  -1.14530  -1.06789  -1.05583  -1.00979
 Alpha  occ. eigenvalues --   -0.95969  -0.89517  -0.86288  -0.82514  -0.77585
 Alpha  occ. eigenvalues --   -0.74975  -0.68661  -0.66395  -0.62540  -0.61968
 Alpha  occ. eigenvalues --   -0.60138  -0.58538  -0.55403  -0.52891  -0.52565
 Alpha  occ. eigenvalues --   -0.51806  -0.50702  -0.49738  -0.48759  -0.47037
 Alpha  occ. eigenvalues --   -0.45404  -0.44915  -0.43940  -0.42918  -0.42777
 Alpha  occ. eigenvalues --   -0.41995  -0.40731  -0.40102  -0.39813  -0.39242
 Alpha  occ. eigenvalues --   -0.38102  -0.35812  -0.35663  -0.31835  -0.29497
 Alpha  occ. eigenvalues --   -0.28755  -0.27358  -0.25901  -0.24849  -0.22062
 Alpha virt. eigenvalues --   -0.02520  -0.01077   0.01626   0.02500   0.03392
 Alpha virt. eigenvalues --    0.04195   0.05506   0.06227   0.06519   0.07084
 Alpha virt. eigenvalues --    0.08122   0.09709   0.10355   0.11586   0.11834
 Alpha virt. eigenvalues --    0.13324   0.13835   0.14802   0.16375   0.16516
 Alpha virt. eigenvalues --    0.18088   0.20228   0.20902   0.22427   0.23170
 Alpha virt. eigenvalues --    0.24275   0.25377   0.26441   0.28274   0.28921
 Alpha virt. eigenvalues --    0.30088   0.30766   0.31844   0.33375   0.33794
 Alpha virt. eigenvalues --    0.34592   0.35823   0.36357   0.36989   0.38286
 Alpha virt. eigenvalues --    0.38727   0.38947   0.40321   0.40816   0.41622
 Alpha virt. eigenvalues --    0.42171   0.43995   0.46136   0.46381   0.47723
 Alpha virt. eigenvalues --    0.49414   0.50044   0.50286   0.51433   0.52869
 Alpha virt. eigenvalues --    0.53542   0.53916   0.54756   0.55381   0.56185
 Alpha virt. eigenvalues --    0.56877   0.57462   0.57577   0.58479   0.59361
 Alpha virt. eigenvalues --    0.60030   0.60723   0.61127   0.61947   0.63070
 Alpha virt. eigenvalues --    0.63334   0.64330   0.65008   0.65782   0.67470
 Alpha virt. eigenvalues --    0.68805   0.70234   0.71192   0.71512   0.72546
 Alpha virt. eigenvalues --    0.73316   0.74326   0.75535   0.76517   0.77972
 Alpha virt. eigenvalues --    0.79829   0.80359   0.81419   0.82685   0.85058
 Alpha virt. eigenvalues --    0.85355   0.87527   0.88952   0.90285   0.91362
 Alpha virt. eigenvalues --    0.94135   0.94961   0.98115   0.98754   0.99729
 Alpha virt. eigenvalues --    1.01424   1.03000   1.05117   1.05887   1.07231
 Alpha virt. eigenvalues --    1.08728   1.12763   1.13297   1.14881   1.16091
 Alpha virt. eigenvalues --    1.19631   1.20266   1.22497   1.23624   1.24758
 Alpha virt. eigenvalues --    1.24982   1.27330   1.29517   1.30486   1.31828
 Alpha virt. eigenvalues --    1.32342   1.34991   1.38171   1.38731   1.38916
 Alpha virt. eigenvalues --    1.40808   1.42821   1.43198   1.44478   1.45836
 Alpha virt. eigenvalues --    1.47798   1.49603   1.50654   1.51777   1.53412
 Alpha virt. eigenvalues --    1.54205   1.54979   1.55581   1.56596   1.56823
 Alpha virt. eigenvalues --    1.57746   1.60062   1.61119   1.62208   1.62800
 Alpha virt. eigenvalues --    1.63931   1.64834   1.67244   1.67706   1.68639
 Alpha virt. eigenvalues --    1.69731   1.70327   1.71090   1.72269   1.73723
 Alpha virt. eigenvalues --    1.75028   1.75302   1.75776   1.77714   1.78620
 Alpha virt. eigenvalues --    1.81896   1.82705   1.84332   1.86303   1.87441
 Alpha virt. eigenvalues --    1.88380   1.90761   1.91948   1.93630   1.95188
 Alpha virt. eigenvalues --    1.97607   1.98233   1.99274   2.01870   2.03672
 Alpha virt. eigenvalues --    2.05975   2.07381   2.08611   2.09359   2.11888
 Alpha virt. eigenvalues --    2.13188   2.15652   2.17379   2.18392   2.21170
 Alpha virt. eigenvalues --    2.24126   2.25315   2.26692   2.27425   2.28346
 Alpha virt. eigenvalues --    2.33902   2.36341   2.36873   2.38863   2.41746
 Alpha virt. eigenvalues --    2.42823   2.43792   2.44165   2.45657   2.46715
 Alpha virt. eigenvalues --    2.47223   2.48101   2.51392   2.53908   2.55060
 Alpha virt. eigenvalues --    2.57084   2.57930   2.58977   2.59914   2.60651
 Alpha virt. eigenvalues --    2.61182   2.62750   2.63899   2.64638   2.65203
 Alpha virt. eigenvalues --    2.67225   2.68324   2.70063   2.71827   2.73600
 Alpha virt. eigenvalues --    2.74127   2.75816   2.76369   2.79694   2.79829
 Alpha virt. eigenvalues --    2.81900   2.82814   2.84102   2.84925   2.85364
 Alpha virt. eigenvalues --    2.86091   2.87670   2.88808   2.90214   2.91978
 Alpha virt. eigenvalues --    2.93246   2.96213   2.97858   3.01711   3.02163
 Alpha virt. eigenvalues --    3.04512   3.05317   3.07622   3.10233   3.11996
 Alpha virt. eigenvalues --    3.13168   3.15082   3.22418   3.26648   3.29626
 Alpha virt. eigenvalues --    3.32521   3.33375   3.35193   3.40723   3.46262
 Alpha virt. eigenvalues --    3.48202   3.50529   3.53559   3.57452   3.58491
 Alpha virt. eigenvalues --    3.64877   3.66183   3.68433   3.69760   3.77232
 Alpha virt. eigenvalues --    3.78633   3.79626   3.82255   3.83379   3.84392
 Alpha virt. eigenvalues --    3.86625   3.89970   3.93325   3.99920   4.04877
 Alpha virt. eigenvalues --    4.06084   4.13691   4.21885   4.34982   4.43149
 Alpha virt. eigenvalues --    4.71906   4.77260   4.79062   4.81600   4.84904
 Alpha virt. eigenvalues --    4.90085   4.93437   4.95688   4.98402   5.03546
 Alpha virt. eigenvalues --    5.12608   5.24604   5.26390   5.54372   5.68168
 Alpha virt. eigenvalues --    5.70970  23.70897  23.75749  23.77884  23.79309
 Alpha virt. eigenvalues --   23.82951  23.86849  23.88002  23.93943  24.16119
 Alpha virt. eigenvalues --   35.53297  35.56991  35.59123  35.70745  49.82855
 Alpha virt. eigenvalues --   49.96793  49.99443
          Condensed to atoms (all electrons):
               1          2          3          4          5          6
     1  O    7.963867   0.568398  -0.105645   0.000061   0.000172   0.000000
     2  C    0.568398   4.645000   0.349312  -0.066585   0.005884  -0.000114
     3  N   -0.105645   0.349312   6.730556   0.225705  -0.035974   0.002207
     4  C    0.000061  -0.066585   0.225705   5.361337   0.272127  -0.109216
     5  C    0.000172   0.005884  -0.035974   0.272127   4.494714   0.354314
     6  O    0.000000  -0.000114   0.002207  -0.109216   0.354314   7.817552
     7  O   -0.000005   0.000361  -0.004222  -0.096217   0.657308  -0.077512
     8  C   -0.002048  -0.000116  -0.053249   0.309151  -0.058149   0.004140
     9  C   -0.001485   0.001407  -0.001104  -0.046848   0.000240  -0.000195
    10  C    0.000057  -0.000229  -0.001153   0.002300  -0.000165  -0.000005
    11  N   -0.000009  -0.000043   0.000006  -0.000175   0.000006   0.000000
    12  C   -0.000213   0.000460   0.000177  -0.000010   0.000015   0.000000
    13  N   -0.019230   0.003360   0.001544  -0.005665   0.000098   0.000002
    14  C   -0.085556   0.248819  -0.063351   0.009858  -0.000343  -0.000001
    15  C    0.007185  -0.043627   0.001641  -0.000431  -0.000003   0.000000
    16  N    0.000143   0.008479  -0.000072   0.000004   0.000000   0.000000
    17  H    0.002920  -0.024240   0.359967  -0.048651  -0.004736   0.001157
    18  H    0.027409  -0.014372  -0.044352   0.387135  -0.017433   0.006805
    19  H    0.000003   0.000022  -0.000542   0.018342  -0.030427   0.303168
    20  H   -0.000136   0.000213   0.006270  -0.044994  -0.003339   0.010943
    21  H   -0.000063  -0.000921  -0.000496  -0.032100  -0.000799  -0.000986
    22  H    0.000003   0.000003  -0.000047   0.000053  -0.000015   0.000000
    23  H    0.000012   0.000058   0.000005  -0.000002  -0.000001   0.000000
    24  H    0.049887  -0.009930  -0.005901   0.003613  -0.000093  -0.000015
    25  H    0.003220  -0.040284   0.004917   0.000812  -0.000134  -0.000002
    26  H    0.000926  -0.017056  -0.002443  -0.000781   0.000188  -0.000001
    27  H    0.000624   0.000350   0.000181  -0.000067   0.000002   0.000000
    28  H    0.015241  -0.006043   0.001252   0.000016  -0.000002   0.000000
    29  H    0.000013  -0.000223   0.000004   0.000001   0.000000   0.000000
    30  H   -0.000005   0.000161  -0.000019  -0.000001   0.000000   0.000000
               7          8          9         10         11         12
     1  O   -0.000005  -0.002048  -0.001485   0.000057  -0.000009  -0.000213
     2  C    0.000361  -0.000116   0.001407  -0.000229  -0.000043   0.000460
     3  N   -0.004222  -0.053249  -0.001104  -0.001153   0.000006   0.000177
     4  C   -0.096217   0.309151  -0.046848   0.002300  -0.000175  -0.000010
     5  C    0.657308  -0.058149   0.000240  -0.000165   0.000006   0.000015
     6  O   -0.077512   0.004140  -0.000195  -0.000005   0.000000   0.000000
     7  O    7.812015  -0.001683  -0.000319  -0.000003   0.000000   0.000000
     8  C   -0.001683   4.922703   0.309956  -0.037559   0.007501   0.007557
     9  C   -0.000319   0.309956   5.079157   0.572373  -0.088972  -0.123507
    10  C   -0.000003  -0.037559   0.572373   4.857577   0.506692  -0.184751
    11  N    0.000000   0.007501  -0.088972   0.506692   6.429339   0.584292
    12  C    0.000000   0.007557  -0.123507  -0.184751   0.584292   4.743057
    13  N    0.000001  -0.051056   0.394289  -0.064332  -0.093179   0.430205
    14  C   -0.000192  -0.000882  -0.000032  -0.000007  -0.000001  -0.000035
    15  C    0.000000   0.000052  -0.000010   0.000004   0.000000  -0.000035
    16  N    0.000000   0.000000   0.000000   0.000000   0.000000   0.000000
    17  H    0.026155   0.001520  -0.000635  -0.000002  -0.000005   0.000008
    18  H    0.002390  -0.034876  -0.012419  -0.000635  -0.000012  -0.000004
    19  H    0.010153  -0.001259   0.000092   0.000000   0.000000   0.000000
    20  H    0.000131   0.399812  -0.030971  -0.005161   0.000100   0.000321
    21  H    0.003214   0.402613  -0.049887  -0.004500   0.000253  -0.000061
    22  H   -0.000001  -0.000126  -0.055532   0.425481  -0.025594   0.008435
    23  H    0.000000  -0.000428   0.004849   0.006526  -0.024171   0.415489
    24  H   -0.000007  -0.001938  -0.033984   0.007797   0.004876  -0.023660
    25  H   -0.000194  -0.000025   0.000068  -0.000005   0.000001  -0.000008
    26  H    0.000057  -0.000016   0.000002   0.000000   0.000000   0.000000
    27  H    0.000000   0.000000  -0.000044  -0.000030  -0.000005   0.000395
    28  H    0.000000   0.000005   0.000005   0.000000   0.000000  -0.000012
    29  H    0.000000   0.000000   0.000000   0.000000   0.000000   0.000000
    30  H    0.000000   0.000000   0.000000   0.000000   0.000000   0.000000
              13         14         15         16         17         18
     1  O   -0.019230  -0.085556   0.007185   0.000143   0.002920   0.027409
     2  C    0.003360   0.248819  -0.043627   0.008479  -0.024240  -0.014372
     3  N    0.001544  -0.063351   0.001641  -0.000072   0.359967  -0.044352
     4  C   -0.005665   0.009858  -0.000431   0.000004  -0.048651   0.387135
     5  C    0.000098  -0.000343  -0.000003   0.000000  -0.004736  -0.017433
     6  O    0.000002  -0.000001   0.000000   0.000000   0.001157   0.006805
     7  O    0.000001  -0.000192   0.000000   0.000000   0.026155   0.002390
     8  C   -0.051056  -0.000882   0.000052   0.000000   0.001520  -0.034876
     9  C    0.394289  -0.000032  -0.000010   0.000000  -0.000635  -0.012419
    10  C   -0.064332  -0.000007   0.000004   0.000000  -0.000002  -0.000635
    11  N   -0.093179  -0.000001   0.000000   0.000000  -0.000005  -0.000012
    12  C    0.430205  -0.000035  -0.000035   0.000000   0.000008  -0.000004
    13  N    6.460130  -0.000442  -0.000040   0.000000   0.000154   0.003022
    14  C   -0.000442   5.202269   0.343698  -0.059782  -0.001225   0.003424
    15  C   -0.000040   0.343698   4.840725   0.339369   0.000174  -0.000236
    16  N    0.000000  -0.059782   0.339369   6.445598  -0.000082   0.000000
    17  H    0.000154  -0.001225   0.000174  -0.000082   0.442566   0.006425
    18  H    0.003022   0.003424  -0.000236   0.000000   0.006425   0.508782
    19  H    0.000000   0.000001   0.000000   0.000000  -0.000296  -0.000993
    20  H    0.000382   0.000009  -0.000001   0.000000  -0.000297  -0.005486
    21  H    0.003017  -0.000004  -0.000007   0.000000   0.002713   0.009143
    22  H    0.004617   0.000000   0.000000   0.000000  -0.000002  -0.000010
    23  H   -0.037699  -0.000017   0.000018   0.000000   0.000001   0.000003
    24  H    0.338426   0.000388   0.000575   0.000011  -0.000334  -0.000780
    25  H    0.000084   0.384566  -0.040138   0.004827  -0.000543  -0.000159
    26  H   -0.000005   0.378930  -0.033950   0.001317   0.000258  -0.000159
    27  H    0.000493  -0.048708   0.402451  -0.028442  -0.000007  -0.000020
    28  H    0.000037  -0.048257   0.401534  -0.026322  -0.000092  -0.000091
    29  H    0.000000  -0.000654  -0.057080   0.376019  -0.000003   0.000000
    30  H    0.000000  -0.001749  -0.059592   0.378024  -0.000002   0.000000
              19         20         21         22         23         24
     1  O    0.000003  -0.000136  -0.000063   0.000003   0.000012   0.049887
     2  C    0.000022   0.000213  -0.000921   0.000003   0.000058  -0.009930
     3  N   -0.000542   0.006270  -0.000496  -0.000047   0.000005  -0.005901
     4  C    0.018342  -0.044994  -0.032100   0.000053  -0.000002   0.003613
     5  C   -0.030427  -0.003339  -0.000799  -0.000015  -0.000001  -0.000093
     6  O    0.303168   0.010943  -0.000986   0.000000   0.000000  -0.000015
     7  O    0.010153   0.000131   0.003214  -0.000001   0.000000  -0.000007
     8  C   -0.001259   0.399812   0.402613  -0.000126  -0.000428  -0.001938
     9  C    0.000092  -0.030971  -0.049887  -0.055532   0.004849  -0.033984
    10  C    0.000000  -0.005161  -0.004500   0.425481   0.006526   0.007797
    11  N    0.000000   0.000100   0.000253  -0.025594  -0.024171   0.004876
    12  C    0.000000   0.000321  -0.000061   0.008435   0.415489  -0.023660
    13  N    0.000000   0.000382   0.003017   0.004617  -0.037699   0.338426
    14  C    0.000001   0.000009  -0.000004   0.000000  -0.000017   0.000388
    15  C    0.000000  -0.000001  -0.000007   0.000000   0.000018   0.000575
    16  N    0.000000   0.000000   0.000000   0.000000   0.000000   0.000011
    17  H   -0.000296  -0.000297   0.002713  -0.000002   0.000001  -0.000334
    18  H   -0.000993  -0.005486   0.009143  -0.000010   0.000003  -0.000780
    19  H    0.441613  -0.000036  -0.000276   0.000000   0.000000  -0.000003
    20  H   -0.000036   0.550315  -0.029008   0.000181   0.000014  -0.000200
    21  H   -0.000276  -0.029008   0.572061   0.000740   0.000017  -0.000338
    22  H    0.000000   0.000181   0.000740   0.554522  -0.000397  -0.000232
    23  H    0.000000   0.000014   0.000017  -0.000397   0.535151  -0.003240
    24  H   -0.000003  -0.000200  -0.000338  -0.000232  -0.003240   0.428884
    25  H    0.000001   0.000009   0.000014  -0.000001   0.000001  -0.000387
    26  H    0.000001   0.000001   0.000005   0.000000   0.000000   0.000031
    27  H    0.000000   0.000000   0.000002   0.000000   0.000052  -0.000043
    28  H    0.000000   0.000000   0.000000   0.000000   0.000004   0.000026
    29  H    0.000000   0.000000   0.000000   0.000000   0.000000   0.000002
    30  H    0.000000   0.000000   0.000000   0.000000   0.000000   0.000001
              25         26         27         28         29         30
     1  O    0.003220   0.000926   0.000624   0.015241   0.000013  -0.000005
     2  C   -0.040284  -0.017056   0.000350  -0.006043  -0.000223   0.000161
     3  N    0.004917  -0.002443   0.000181   0.001252   0.000004  -0.000019
     4  C    0.000812  -0.000781  -0.000067   0.000016   0.000001  -0.000001
     5  C   -0.000134   0.000188   0.000002  -0.000002   0.000000   0.000000
     6  O   -0.000002  -0.000001   0.000000   0.000000   0.000000   0.000000
     7  O   -0.000194   0.000057   0.000000   0.000000   0.000000   0.000000
     8  C   -0.000025  -0.000016   0.000000   0.000005   0.000000   0.000000
     9  C    0.000068   0.000002  -0.000044   0.000005   0.000000   0.000000
    10  C   -0.000005   0.000000  -0.000030   0.000000   0.000000   0.000000
    11  N    0.000001   0.000000  -0.000005   0.000000   0.000000   0.000000
    12  C   -0.000008   0.000000   0.000395  -0.000012   0.000000   0.000000
    13  N    0.000084  -0.000005   0.000493   0.000037   0.000000   0.000000
    14  C    0.384566   0.378930  -0.048708  -0.048257  -0.000654  -0.001749
    15  C   -0.040138  -0.033950   0.402451   0.401534  -0.057080  -0.059592
    16  N    0.004827   0.001317  -0.028442  -0.026322   0.376019   0.378024
    17  H   -0.000543   0.000258  -0.000007  -0.000092  -0.000003  -0.000002
    18  H   -0.000159  -0.000159  -0.000020  -0.000091   0.000000   0.000000
    19  H    0.000001   0.000001   0.000000   0.000000   0.000000   0.000000
    20  H    0.000009   0.000001   0.000000   0.000000   0.000000   0.000000
    21  H    0.000014   0.000005   0.000002   0.000000   0.000000   0.000000
    22  H   -0.000001   0.000000   0.000000   0.000000   0.000000   0.000000
    23  H    0.000001   0.000000   0.000052   0.000004   0.000000   0.000000
    24  H   -0.000387   0.000031  -0.000043   0.000026   0.000002   0.000001
    25  H    0.590624  -0.026668  -0.006265   0.009069   0.006802  -0.000664
    26  H   -0.026668   0.554569   0.008518  -0.005290  -0.000993   0.007958
    27  H   -0.006265   0.008518   0.575507  -0.028904  -0.010907   0.010229
    28  H    0.009069  -0.005290  -0.028904   0.549651   0.009374  -0.009600
    29  H    0.006802  -0.000993  -0.010907   0.009374   0.538529  -0.043447
    30  H   -0.000664   0.007958   0.010229  -0.009600  -0.043447   0.536258
 Mulliken charges:
               1
     1  O   -0.425747
     2  C    0.391497
     3  N   -0.365174
     4  C   -0.138771
     5  C    0.366546
     6  O   -0.312241
     7  O   -0.331431
     8  C   -0.121599
     9  C    0.083508
    10  C   -0.080271
    11  N   -0.300899
    12  C    0.141883
    13  N   -0.368210
    14  C   -0.260723
    15  C   -0.102276
    16  N   -0.439089
    17  H    0.237134
    18  H    0.177497
    19  H    0.260435
    20  H    0.150927
    21  H    0.125652
    22  H    0.087922
    23  H    0.103756
    24  H    0.246569
    25  H    0.110461
    26  H    0.134599
    27  H    0.124637
    28  H    0.138397
    29  H    0.182562
    30  H    0.182448
 Sum of Mulliken charges =   0.00000
 Mulliken charges with hydrogens summed into heavy atoms:
               1
     1  O   -0.425747
     2  C    0.391497
     3  N   -0.128040
     4  C    0.038727
     5  C    0.366546
     6  O   -0.051806
     7  O   -0.331431
     8  C    0.154981
     9  C    0.083508
    10  C    0.007652
    11  N   -0.300899
    12  C    0.245638
    13  N   -0.121642
    14  C   -0.015663
    15  C    0.160759
    16  N   -0.074079
 APT charges:
               1
     1  O   -0.242137
     2  C    0.092144
     3  N   -0.497234
     4  C   -0.382394
     5  C   -0.527232
     6  O   -0.712553
     7  O    0.237050
     8  C   -0.918164
     9  C   -0.209284
    10  C   -0.633992
    11  N    0.557530
    12  C   -0.659582
    13  N   -0.501592
    14  C   -0.695075
    15  C   -0.610885
    16  N   -0.840276
    17  H    0.528947
    18  H    0.311342
    19  H    1.080867
    20  H    0.584313
    21  H    0.386267
    22  H    0.708493
    23  H    0.549472
    24  H    0.147048
    25  H    0.231257
    26  H    0.505238
    27  H    0.175632
    28  H    0.362080
    29  H    0.391471
    30  H    0.581250
 Sum of APT charges =   0.00000
 APT charges with hydrogens summed into heavy atoms:
               1
     1  O   -0.242137
     2  C    0.092144
     3  N    0.031713
     4  C   -0.071052
     5  C   -0.527232
     6  O    0.368314
     7  O    0.237050
     8  C    0.052416
     9  C   -0.209284
    10  C    0.074501
    11  N    0.557530
    12  C   -0.110111
    13  N   -0.354544
    14  C    0.041421
    15  C   -0.073173
    16  N    0.132445
 Electronic spatial extent (au):  <R**2>=           4428.6539
 Charge=              0.0000 electrons
 Dipole moment (field-independent basis, Debye):
    X=              1.7975    Y=              4.1275    Z=             -3.5488  Tot=              5.7325
 Quadrupole moment (field-independent basis, Debye-Ang):
   XX=            -98.5523   YY=            -97.9997   ZZ=            -97.7165
   XY=             -3.1649   XZ=             11.2587   YZ=              3.4130
 Traceless Quadrupole moment (field-independent basis, Debye-Ang):
   XX=             -0.4628   YY=              0.0898   ZZ=              0.3730
   XY=             -3.1649   XZ=             11.2587   YZ=              3.4130
 Octapole moment (field-independent basis, Debye-Ang**2):
  XXX=            118.1646  YYY=            -12.0185  ZZZ=            -42.9319  XYY=             20.5904
  XXY=             73.5096  XXZ=            -49.1775  XZZ=             32.0038  YZZ=             45.8988
  YYZ=              4.9503  XYZ=              8.7306
 Hexadecapole moment (field-independent basis, Debye-Ang**3):
 XXXX=          -3131.4537 YYYY=          -1166.9277 ZZZZ=          -1412.0439 XXXY=             30.8763
 XXXZ=           -122.3463 YYYX=             -5.8573 YYYZ=            482.7983 ZZZX=             61.5404
 ZZZY=            414.7820 XXYY=           -751.0533 XXZZ=           -853.4404 YYZZ=           -419.6123
 XXYZ=            265.8171 YYXZ=             31.3354 ZZXY=            -87.1753
 N-N= 1.124807297732D+03 E-N=-4.110840094415D+03  KE= 7.937398565668D+02
  Exact polarizability:   0.000   0.000   0.000   0.000   0.000   0.000
 Approx polarizability: 183.420  -9.077 206.466  -7.527 -10.579 178.103
 Calling FoFJK, ICntrl=    100147 FMM=F ISym2X=0 I1Cent= 0 IOpClX= 0 NMat=1 NMatS=1 NMatT=0.
 -------------------------------------------------------------------
 Center     Atomic                   Forces (Hartrees/Bohr)
 Number     Number              X              Y              Z
 -------------------------------------------------------------------
      1        8           0.001927342    0.000843284    0.004456031
      2        6           0.003721577   -0.005877215   -0.005623679
      3        7          -0.001372013    0.003251880   -0.000860304
      4        6          -0.001533000    0.002166018    0.001112019
      5        6          -0.002329504   -0.000236349   -0.005735268
      6        8           0.002214791   -0.001191101    0.002496237
      7        8           0.002859792    0.001830069    0.001503511
      8        6          -0.009122335   -0.004354985    0.003723380
      9        6           0.002787406    0.006633750   -0.006202138
     10        6          -0.005204884   -0.002888089    0.010724297
     11        7          -0.004125514    0.003012482    0.000468291
     12        6          -0.000678482   -0.003066818    0.003630656
     13        7           0.004189637   -0.002291310   -0.006246960
     14        6          -0.002809753    0.002212922   -0.001313088
     15        6           0.004213874   -0.000960530    0.003244895
     16        7           0.000357265   -0.001189697   -0.000006115
     17        1           0.000204288    0.001257634    0.000943495
     18        1           0.001232932   -0.000822818   -0.001182359
     19        1          -0.001913002    0.002798745   -0.003535831
     20        1          -0.000792557   -0.000008719   -0.001886478
     21        1           0.001464101    0.002573211    0.000581758
     22        1           0.000541910    0.000037479   -0.000377644
     23        1           0.000723708   -0.002210292    0.001462814
     24        1           0.002520593   -0.001494465   -0.001924258
     25        1           0.001655450    0.000850003    0.001038848
     26        1          -0.000235658    0.000462163   -0.001037343
     27        1          -0.002130326   -0.000972986    0.000123284
     28        1          -0.000474189   -0.001405184   -0.000346260
     29        1           0.000378771    0.001134314    0.001453783
     30        1           0.001727779   -0.000093394   -0.000685575
 -------------------------------------------------------------------
 Cartesian Forces:  Max     0.010724297 RMS     0.002959105
 FormGI is forming the generalized inverse of G from B-inverse, IUseBI=4.
 GSVD:  received Info=                   1 from GESDD.

 GradGradGradGradGradGradGradGradGradGradGradGradGradGradGradGradGradGrad
 Berny optimization.
 Internal  Forces:  Max     0.010381424 RMS     0.002475989
 Search for a local minimum.
 Step number   1 out of a maximum of  160
 All quantities printed in internal units (Hartrees-Bohrs-Radians)
 Mixed Optimization -- RFO/linear search
 Second derivative matrix not updated -- analytic derivatives used.
 ITU=  0
     Eigenvalues ---    0.00041   0.00055   0.00252   0.00272   0.00320
     Eigenvalues ---    0.00548   0.00575   0.00907   0.01047   0.01643
     Eigenvalues ---    0.01987   0.02074   0.02326   0.02955   0.02996
     Eigenvalues ---    0.03621   0.03874   0.04168   0.04267   0.04412
     Eigenvalues ---    0.04442   0.04693   0.04891   0.05368   0.05432
     Eigenvalues ---    0.05834   0.06170   0.06274   0.07715   0.08369
     Eigenvalues ---    0.08523   0.10651   0.10795   0.11441   0.11676
     Eigenvalues ---    0.11939   0.12969   0.13618   0.14616   0.15525
     Eigenvalues ---    0.16340   0.17726   0.18437   0.18482   0.18968
     Eigenvalues ---    0.21046   0.21602   0.22562   0.22988   0.23530
     Eigenvalues ---    0.24588   0.24728   0.25580   0.27689   0.28453
     Eigenvalues ---    0.30608   0.32598   0.32984   0.33223   0.33462
     Eigenvalues ---    0.33769   0.34073   0.34233   0.34405   0.34639
     Eigenvalues ---    0.36038   0.36850   0.37152   0.37490   0.37891
     Eigenvalues ---    0.41313   0.41884   0.43445   0.44834   0.44951
     Eigenvalues ---    0.45651   0.46650   0.47637   0.48296   0.52633
     Eigenvalues ---    0.58750   0.68488   0.78206   0.88805
 RFO step:  Lambda=-3.43033586D-03 EMin= 4.12528047D-04
 Linear search not attempted -- first point.
 Iteration  1 RMS(Cart)=  0.07573880 RMS(Int)=  0.00284024
 Iteration  2 RMS(Cart)=  0.00400485 RMS(Int)=  0.00010813
 Iteration  3 RMS(Cart)=  0.00001124 RMS(Int)=  0.00010804
 Iteration  4 RMS(Cart)=  0.00000000 RMS(Int)=  0.00010804
 Variable       Old X    -DE/DX   Delta X   Delta X   Delta X     New X
                                 (Linear)    (Quad)   (Total)
    R1        2.32883  -0.00267   0.00000  -0.00581  -0.00581   2.32302
    R2        2.55756   0.00941   0.00000   0.01561   0.01561   2.57317
    R3        2.86147   0.00340   0.00000   0.00963   0.00963   2.87110
    R4        2.73197   0.00665   0.00000   0.01232   0.01232   2.74429
    R5        1.90693   0.00143   0.00000   0.00300   0.00300   1.90993
    R6        2.85851   0.00582   0.00000   0.02109   0.02109   2.87961
    R7        2.90151   0.00864   0.00000   0.02765   0.02765   2.92916
    R8        2.05757   0.00139   0.00000   0.00614   0.00614   2.06371
    R9        2.54840   0.00020   0.00000  -0.00663  -0.00663   2.54178
   R10        2.27370   0.00307   0.00000   0.00366   0.00366   2.27736
   R11        1.82433   0.00441   0.00000   0.00782   0.00782   1.83215
   R12        2.83617   0.00265   0.00000  -0.00005  -0.00005   2.83612
   R13        2.06506   0.00180   0.00000   0.00485   0.00485   2.06991
   R14        2.06277   0.00235   0.00000   0.00639   0.00639   2.06917
   R15        2.57832   0.01038   0.00000   0.02019   0.02016   2.59848
   R16        2.59234   0.00818   0.00000   0.01634   0.01646   2.60880
   R17        2.60964  -0.00222   0.00000  -0.01202  -0.01216   2.59748
   R18        2.04182  -0.00048   0.00000  -0.00085  -0.00085   2.04098
   R19        2.47581   0.00414   0.00000   0.00618   0.00612   2.48194
   R20        2.56200   0.00861   0.00000   0.01681   0.01690   2.57890
   R21        2.03338   0.00257   0.00000   0.00629   0.00629   2.03967
   R22        1.91539   0.00340   0.00000   0.00845   0.00845   1.92384
   R23        2.88916   0.00626   0.00000   0.02442   0.02442   2.91358
   R24        2.06708   0.00104   0.00000   0.00258   0.00258   2.06966
   R25        2.07159   0.00073   0.00000   0.00209   0.00209   2.07368
   R26        2.76156   0.00248   0.00000  -0.00182  -0.00182   2.75974
   R27        2.06245   0.00161   0.00000   0.00499   0.00499   2.06744
   R28        2.05813   0.00129   0.00000   0.00367   0.00367   2.06180
   R29        1.91576   0.00177   0.00000   0.00302   0.00302   1.91878
   R30        1.91656   0.00157   0.00000   0.00237   0.00237   1.91894
    A1        2.12142   0.00318   0.00000   0.00974   0.00971   2.13113
    A2        2.14078  -0.00345   0.00000  -0.01179  -0.01182   2.12896
    A3        2.02094   0.00028   0.00000   0.00218   0.00215   2.02309
    A4        2.11622   0.00673   0.00000   0.01897   0.01895   2.13517
    A5        2.08379  -0.00290   0.00000  -0.00767  -0.00769   2.07610
    A6        2.02958  -0.00350   0.00000  -0.00843  -0.00844   2.02114
    A7        1.90546  -0.00384   0.00000  -0.01914  -0.01936   1.88611
    A8        1.98355   0.00199   0.00000   0.01653   0.01661   2.00016
    A9        1.88359   0.00042   0.00000  -0.00660  -0.00676   1.87683
   A10        1.88388   0.00249   0.00000   0.01633   0.01641   1.90029
   A11        1.90111  -0.00018   0.00000  -0.00700  -0.00715   1.89396
   A12        1.90502  -0.00096   0.00000  -0.00108  -0.00103   1.90399
   A13        1.94285   0.00226   0.00000   0.00756   0.00755   1.95040
   A14        2.19042  -0.00340   0.00000  -0.01523  -0.01524   2.17518
   A15        2.14929   0.00115   0.00000   0.00788   0.00787   2.15716
   A16        1.85090   0.00377   0.00000   0.02165   0.02165   1.87255
   A17        2.01653   0.00259   0.00000   0.00443   0.00442   2.02095
   A18        1.87036  -0.00034   0.00000  -0.00910  -0.00916   1.86120
   A19        1.91996  -0.00310   0.00000  -0.02215  -0.02219   1.89777
   A20        1.90971  -0.00084   0.00000   0.01426   0.01426   1.92397
   A21        1.89153   0.00071   0.00000   0.00268   0.00263   1.89416
   A22        1.84853   0.00085   0.00000   0.01077   0.01059   1.85912
   A23        2.27747  -0.00139   0.00000  -0.00647  -0.00669   2.27078
   A24        2.17313   0.00265   0.00000   0.00872   0.00848   2.18161
   A25        1.83182  -0.00128   0.00000  -0.00328  -0.00317   1.82865
   A26        1.93433   0.00125   0.00000   0.00383   0.00382   1.93815
   A27        2.23675  -0.00106   0.00000  -0.00995  -0.00996   2.22679
   A28        2.11211  -0.00019   0.00000   0.00611   0.00610   2.11821
   A29        1.82824   0.00173   0.00000   0.00434   0.00426   1.83250
   A30        1.95405   0.00081   0.00000   0.00186   0.00200   1.95605
   A31        2.20470  -0.00137   0.00000  -0.00750  -0.00758   2.19712
   A32        2.12444   0.00056   0.00000   0.00563   0.00555   2.12999
   A33        1.87629  -0.00252   0.00000  -0.00680  -0.00701   1.86928
   A34        2.19588   0.00196   0.00000   0.00044  -0.00027   2.19561
   A35        2.20485   0.00057   0.00000   0.00009  -0.00060   2.20425
   A36        1.97253   0.00001   0.00000  -0.00551  -0.00551   1.96703
   A37        1.90593   0.00155   0.00000   0.02156   0.02158   1.92751
   A38        1.87852  -0.00099   0.00000  -0.00848  -0.00847   1.87004
   A39        1.93534  -0.00129   0.00000  -0.00996  -0.00995   1.92539
   A40        1.89926   0.00094   0.00000   0.00560   0.00557   1.90483
   A41        1.86850  -0.00023   0.00000  -0.00324  -0.00322   1.86528
   A42        1.99920   0.00277   0.00000   0.01496   0.01495   2.01415
   A43        1.92010  -0.00167   0.00000  -0.01441  -0.01452   1.90558
   A44        1.89875  -0.00049   0.00000  -0.00394  -0.00403   1.89472
   A45        1.87581   0.00022   0.00000   0.01060   0.01067   1.88648
   A46        1.89866  -0.00086   0.00000   0.00119   0.00119   1.89984
   A47        1.86679  -0.00014   0.00000  -0.00985  -0.00995   1.85683
   A48        1.92590   0.00085   0.00000   0.01085   0.01075   1.93665
   A49        1.92274   0.00130   0.00000   0.01093   0.01083   1.93357
   A50        1.86005  -0.00041   0.00000   0.00662   0.00643   1.86649
    D1       -0.15769  -0.00195   0.00000  -0.03975  -0.03981  -0.19750
    D2       -2.94064  -0.00226   0.00000  -0.04718  -0.04724  -2.98788
    D3        2.97419  -0.00055   0.00000  -0.02460  -0.02454   2.94966
    D4        0.19124  -0.00086   0.00000  -0.03203  -0.03197   0.15928
    D5       -0.58554   0.00024   0.00000  -0.03714  -0.03720  -0.62274
    D6       -2.74848   0.00076   0.00000  -0.03643  -0.03648  -2.78497
    D7        1.51209   0.00075   0.00000  -0.03927  -0.03929   1.47280
    D8        2.56588  -0.00122   0.00000  -0.05260  -0.05258   2.51330
    D9        0.40293  -0.00071   0.00000  -0.05190  -0.05187   0.35107
   D10       -1.61968  -0.00071   0.00000  -0.05474  -0.05467  -1.67435
   D11       -2.19703   0.00061   0.00000  -0.03532  -0.03542  -2.23246
   D12        1.98219  -0.00115   0.00000  -0.05345  -0.05341   1.92878
   D13       -0.13312  -0.00150   0.00000  -0.05804  -0.05798  -0.19110
   D14        0.59648   0.00094   0.00000  -0.02819  -0.02829   0.56819
   D15       -1.50748  -0.00081   0.00000  -0.04632  -0.04627  -1.55376
   D16        2.66040  -0.00117   0.00000  -0.05091  -0.05085   2.60955
   D17        2.86584  -0.00113   0.00000   0.00726   0.00738   2.87322
   D18       -0.31291  -0.00092   0.00000   0.01346   0.01356  -0.29936
   D19       -1.25340   0.00051   0.00000   0.02604   0.02600  -1.22739
   D20        1.85103   0.00071   0.00000   0.03223   0.03218   1.88321
   D21        0.81293   0.00066   0.00000   0.03009   0.03005   0.84298
   D22       -2.36582   0.00087   0.00000   0.03629   0.03622  -2.32960
   D23       -1.02269  -0.00161   0.00000   0.00364   0.00369  -1.01900
   D24        3.12731  -0.00199   0.00000  -0.01084  -0.01073   3.11658
   D25        1.12545  -0.00123   0.00000  -0.00736  -0.00731   1.11814
   D26       -3.13876   0.00021   0.00000   0.00568   0.00559  -3.13318
   D27        1.01124  -0.00017   0.00000  -0.00880  -0.00883   1.00241
   D28       -0.99062   0.00060   0.00000  -0.00532  -0.00541  -0.99603
   D29        1.08059  -0.00044   0.00000   0.00537   0.00535   1.08594
   D30       -1.05259  -0.00082   0.00000  -0.00911  -0.00906  -1.06166
   D31       -3.05445  -0.00006   0.00000  -0.00563  -0.00565  -3.06010
   D32        3.11217  -0.00040   0.00000  -0.01318  -0.01314   3.09903
   D33        0.00671  -0.00049   0.00000  -0.01862  -0.01866  -0.01195
   D34        2.85446  -0.00140   0.00000  -0.03531  -0.03533   2.81913
   D35       -0.33563  -0.00201   0.00000  -0.06817  -0.06821  -0.40384
   D36       -1.31667  -0.00069   0.00000  -0.03316  -0.03317  -1.34984
   D37        1.77642  -0.00130   0.00000  -0.06602  -0.06604   1.71038
   D38        0.69137   0.00026   0.00000  -0.01135  -0.01130   0.68007
   D39       -2.49872  -0.00035   0.00000  -0.04421  -0.04418  -2.54289
   D40        3.10774  -0.00060   0.00000  -0.02960  -0.02944   3.07830
   D41       -0.03206  -0.00033   0.00000  -0.02211  -0.02202  -0.05407
   D42        0.00751  -0.00016   0.00000  -0.00187  -0.00188   0.00563
   D43       -3.13229   0.00011   0.00000   0.00562   0.00554  -3.12675
   D44       -3.11273   0.00050   0.00000   0.02220   0.02236  -3.09037
   D45        0.14204   0.00040   0.00000   0.07971   0.07978   0.22182
   D46       -0.00931  -0.00002   0.00000  -0.00383  -0.00381  -0.01312
   D47       -3.03773  -0.00012   0.00000   0.05368   0.05361  -2.98411
   D48       -0.00267   0.00031   0.00000   0.00701   0.00704   0.00437
   D49        3.13728   0.00006   0.00000   0.00012   0.00013   3.13741
   D50       -0.00351  -0.00034   0.00000  -0.00962  -0.00966  -0.01317
   D51        3.13674  -0.00012   0.00000  -0.01601  -0.01599   3.12075
   D52        0.00831   0.00024   0.00000   0.00879   0.00876   0.01707
   D53        3.03598   0.00046   0.00000  -0.04907  -0.04900   2.98698
   D54       -3.13201   0.00003   0.00000   0.01486   0.01482  -3.11718
   D55       -0.10434   0.00025   0.00000  -0.04300  -0.04294  -0.14728
   D56        3.05691  -0.00069   0.00000  -0.00159  -0.00157   3.05534
   D57       -1.11131   0.00028   0.00000   0.01188   0.01180  -1.09951
   D58        0.92831  -0.00111   0.00000  -0.01044  -0.01040   0.91791
   D59       -1.07957   0.00037   0.00000   0.01510   0.01512  -1.06444
   D60        1.03539   0.00134   0.00000   0.02857   0.02850   1.06389
   D61        3.07502  -0.00005   0.00000   0.00625   0.00629   3.08131
   D62        0.97119  -0.00009   0.00000   0.00874   0.00877   0.97996
   D63        3.08615   0.00089   0.00000   0.02221   0.02214   3.10830
   D64       -1.15741  -0.00051   0.00000  -0.00010  -0.00006  -1.15747
   D65        1.03793   0.00007   0.00000  -0.00329  -0.00321   1.03472
   D66       -1.01116  -0.00073   0.00000  -0.02463  -0.02465  -1.03581
   D67       -1.10121   0.00020   0.00000  -0.00261  -0.00262  -1.10383
   D68        3.13288  -0.00060   0.00000  -0.02395  -0.02406   3.10883
   D69       -3.11660   0.00069   0.00000   0.00276   0.00283  -3.11377
   D70        1.11749  -0.00011   0.00000  -0.01858  -0.01861   1.09888
         Item               Value     Threshold  Converged?
 Maximum Force            0.010381     0.000450     NO 
 RMS     Force            0.002476     0.000300     NO 
 Maximum Displacement     0.322427     0.001800     NO 
 RMS     Displacement     0.077255     0.001200     NO 
 Predicted change in Energy=-1.850181D-03
 GradGradGradGradGradGradGradGradGradGradGradGradGradGradGradGradGradGrad

                          Input orientation:                          
 ---------------------------------------------------------------------
 Center     Atomic      Atomic             Coordinates (Angstroms)
 Number     Number       Type             X           Y           Z
 ---------------------------------------------------------------------
      1          8           0        0.922694   -1.273127   -0.775950
      2          6           0        1.158759   -0.115439   -0.436556
      3          7           0        0.239328    0.879897   -0.571010
      4          6           0       -0.983845    0.709459   -1.335031
      5          6           0       -1.082679    1.858257   -2.331288
      6          8           0       -1.991791    1.609089   -3.290762
      7          8           0       -0.453272    2.883422   -2.259063
      8          6           0       -2.277578    0.672587   -0.482077
      9          6           0       -2.339522   -0.401579    0.564231
     10          6           0       -3.141216   -0.509935    1.676135
     11          7           0       -2.924998   -1.701460    2.326401
     12          6           0       -1.998275   -2.309714    1.621995
     13          7           0       -1.615142   -1.576459    0.536665
     14          6           0        2.493168    0.290251    0.166031
     15          6           0        3.094616   -0.803640    1.070915
     16          7           0        4.429755   -0.522028    1.591339
     17          1           0        0.524469    1.835111   -0.404413
     18          1           0       -0.896347   -0.225914   -1.891840
     19          1           0       -2.029676    2.391553   -3.861997
     20          1           0       -3.112557    0.567180   -1.183141
     21          1           0       -2.403362    1.643531    0.008200
     22          1           0       -3.867165    0.203718    2.036943
     23          1           0       -1.561805   -3.270980    1.846616
     24          1           0       -0.831436   -1.778506   -0.080918
     25          1           0        2.392760    1.229513    0.720294
     26          1           0        3.179150    0.484455   -0.668159
     27          1           0        2.427523   -0.973700    1.921209
     28          1           0        3.124600   -1.739673    0.511138
     29          1           0        4.432679    0.331499    2.141312
     30          1           0        5.091242   -0.387497    0.832728
 ---------------------------------------------------------------------
                    Distance matrix (angstroms):
                    1          2          3          4          5
     1  O    0.000000
     2  C    1.229291   0.000000
     3  N    2.268149   1.361663   0.000000
     4  C    2.806797   2.465454   1.452215   0.000000
     5  C    4.030653   3.536881   2.409039   1.523821   0.000000
     6  O    4.808916   4.587641   3.592584   2.377009   1.345050
     7  O    4.622748   3.861779   2.709858   2.421044   1.205128
     8  C    3.756848   3.525829   2.526995   1.550044   2.500635
     9  C    3.632869   3.649852   3.095387   2.584466   3.882080
    10  C    4.807343   4.807169   4.290614   3.899781   5.089729
    11  N    4.961127   5.179427   5.007130   4.794444   6.144899
    12  C    3.918764   4.361116   4.470990   4.346087   5.817107
    13  N    2.873253   3.282723   3.271038   3.021127   4.506212
    14  C    2.407875   1.519323   2.443503   3.810320   4.634860
    15  C    2.889389   2.548260   3.699038   4.971104   6.009198
    16  N    4.297404   3.870025   4.919434   6.275928   7.172147
    17  H    3.155592   2.051341   1.010689   2.099559   2.509244
    18  H    2.377136   2.520618   2.063290   1.092070   2.138131
    19  H    5.627616   5.308934   4.273649   3.210726   1.877306
    20  H    4.453738   4.389476   3.421641   2.138862   2.665618
    21  H    4.492709   3.997561   2.811127   2.166054   2.695090
    22  H    5.747711   5.610701   4.911407   4.465369   5.438042
    23  H    4.128197   4.750977   5.130183   5.128432   6.632760
    24  H    1.953318   2.617851   2.907547   2.790340   4.284079
    25  H    3.265432   2.161008   2.535147   3.987014   4.667564
    26  H    2.862220   2.120257   2.967889   4.222069   4.776664
    27  H    3.103036   2.811660   3.799365   5.007350   6.198809
    28  H    2.592807   2.720439   4.044501   5.126978   6.222996
    29  H    4.837895   4.190908   5.024104   6.447212   7.263216
    30  H    4.555104   4.141198   5.207479   6.542871   7.291893
                    6          7          8          9         10
     6  O    0.000000
     7  O    2.248415   0.000000
     8  C    2.974461   3.372472   0.000000
     9  C    4.361728   4.724422   1.500810   0.000000
    10  C    5.521005   5.850273   2.608085   1.375058   0.000000
    11  N    6.586587   6.939528   3.734006   2.266652   1.374528
    12  C    6.284284   6.664705   3.660498   2.208233   2.132710
    13  N    4.993874   5.390415   2.556338   1.380518   2.182834
    14  C    5.814087   4.613797   4.829725   4.898171   5.887868
    15  C    7.121588   6.104972   5.783727   5.472498   6.272013
    16  N    8.343430   7.089897   7.121410   6.847815   7.571456
    17  H    3.835838   2.344068   3.034627   3.760784   4.823397
    18  H    2.554255   3.162141   2.168533   2.854102   4.224991
    19  H    0.969534   2.301387   3.800021   5.243004   6.350201
    20  H    2.604564   3.687055   1.095350   2.142286   3.055562
    21  H    3.324714   3.237385   1.094955   2.120312   2.822030
    22  H    5.820355   6.106647   3.015309   2.206571   1.080039
    23  H    7.098775   7.480782   4.635392   3.237717   3.185431
    24  H    4.808879   5.159544   2.874041   2.141604   3.167268
    25  H    5.954573   4.439806   4.854681   5.007925   5.879133
    26  H    5.906054   4.634707   5.463140   5.723599   6.814070
    27  H    7.305188   6.375817   5.533898   4.989332   5.593389
    28  H    7.200424   6.469017   5.999083   5.625828   6.490757
    29  H    8.509611   7.053235   7.212909   6.991945   7.634676
    30  H    8.435572   7.141408   7.559894   7.435627   8.276454
                   11         12         13         14         15
    11  N    0.000000
    12  C    1.313384   0.000000
    13  N    2.221373   1.364695   0.000000
    14  C    6.163654   5.390056   4.527713   0.000000
    15  C    6.214344   5.339427   4.802550   1.541801   0.000000
    16  N    7.484902   6.672056   6.226150   2.538045   1.460392
    17  H    5.644776   5.258340   4.135501   2.566666   3.968029
    18  H    4.907771   4.231253   2.870240   3.998758   5.003945
    19  H    7.473328   7.223369   5.938450   6.410663   7.797515
    20  H    4.183156   4.169764   3.129725   5.772443   6.744546
    21  H    4.103063   4.289123   3.356919   5.082547   6.111119
    22  H    2.145033   3.159474   3.239054   6.630357   7.100307
    23  H    2.133513   1.079348   2.142479   5.652392   5.326512
    24  H    3.191257   2.131573   1.018051   3.923484   4.206062
    25  H    6.280823   5.711426   4.895966   1.095218   2.179277
    26  H    7.141865   6.313312   5.355764   1.097342   2.165805
    27  H    5.416945   4.632726   4.315486   2.163915   1.094044
    28  H    6.316191   5.272835   4.742620   2.153693   1.091057
    29  H    7.635613   6.971575   6.541509   2.768599   2.055409
    30  H    8.259398   7.387767   6.817395   2.766553   2.053393
                   16         17         18         19         20
    16  N    0.000000
    17  H    4.978996   0.000000
    18  H    6.370839   2.911868   0.000000
    19  H    8.941593   4.334532   3.466568   0.000000
    20  H    8.109907   3.929633   2.458219   3.417197   0.000000
    21  H    7.340809   2.962962   3.062037   3.959495   1.755216
    22  H    8.340513   5.282812   4.944257   6.554424   3.327234
    23  H    6.597022   5.957502   4.867372   8.054281   5.129886
    24  H    5.661741   3.873158   2.386251   5.755148   3.452630
    25  H    2.824175   2.263234   4.445193   6.473459   5.862616
    26  H    2.771706   2.990179   4.314127   6.400742   6.313289
    27  H    2.078883   4.113339   5.113378   8.039715   6.534814
    28  H    2.086366   4.514199   4.922782   7.921989   6.862527
    29  H    1.015376   4.900579   6.706380   9.057901   8.248522
    30  H    1.015458   5.227420   6.580319   8.970565   8.501615
                   21         22         23         24         25
    21  H    0.000000
    22  H    2.886448   0.000000
    23  H    5.314171   4.174258   0.000000
    24  H    3.766860   4.198832   2.544858   0.000000
    25  H    4.866342   6.478617   6.096034   4.481692   0.000000
    26  H    5.741547   7.552943   6.550117   4.642267   1.761057
    27  H    5.817814   6.404905   4.604107   3.908585   2.509492
    28  H    6.500568   7.415499   5.107915   4.000282   3.065192
    29  H    7.280320   8.301483   6.999896   6.091086   2.643291
    30  H    7.808586   9.058296   7.321576   6.152054   3.147883
                   26         27         28         29         30
    26  H    0.000000
    27  H    3.065287   0.000000
    28  H    2.518027   1.749551   0.000000
    29  H    3.080237   2.402632   2.942497   0.000000
    30  H    2.582452   2.936634   2.408211   1.631886   0.000000
 Symmetry turned off by external request.
 Stoichiometry    C9H14N4O3
 Framework group  C1[X(C9H14N4O3)]
[...]
 ,0.06967048,-0.07900439,-0.02772872,0.00006799,-0.00006268,0.00049968,
 -0.00015448,0.00041912,-0.00021102,0.00025915,-0.00021728,0.00025580,0
 .00001457,-0.00007802,-0.00021405,0.00000544,-0.00026861,0.00103239,0.
 00003864,-0.00000119,0.00003897,-0.00016027,0.00020694,-0.00002768,-0.
 00016548,0.00007595,0.00003207,0.00076708,0.00065851,-0.00097835,-0.00
 000057,-0.00065331,-0.00043868,-0.07258470,0.07598770,-0.00217627,-0.0
 0567136,-0.00339159,-0.00172763,0.00713591,0.00202595,0.00193098,-0.00
 249836,-0.00054993,-0.00065474,0.00060258,0.00085344,-0.00002073,0.000
 14951,-0.00066406,0.00023674,-0.00013862,0.00016589,0.00001141,-0.0002
 5684,0.00028852,-0.00132356,-0.00092420,0.00020266,-0.00431412,-0.0061
 9322,0.00213068,-0.00078736,0.00201183,0.00366131,0.00196624,0.0061738
 9,-0.00156125,0.01203400,-0.01195204,-0.01200492,0.18575039,-0.0303226
 5,-0.19688164,-0.00021052,-0.00096182,-0.00065480,-0.00011777,-0.00039
 942,0.00062413,-0.00010092,0.00022071,-0.00040430,0.00002015,-0.000066
 35,0.00022615,-0.00006713,0.00120884,-0.00115931,-0.00004662,0.0000267
 7,0.00000614,0.00001757,0.00047800,-0.00036064,0.00017421,0.00004980,-
 0.00016723,0.00071771,0.00046111,0.00109157,-0.00118073,-0.00016597,-0
 .00028956,-0.18993444,0.04129205,0.20709238,-0.00741513,-0.00358944,-0
 .00359926,0.00514475,-0.02875738,-0.00844043,-0.00019155,0.00081985,0.
 00076995,0.00034157,0.00011799,0.00028086,-0.00004846,-0.00010858,-0.0
 0002725,0.00008497,0.00001815,0.00008227,0.00003890,0.00011425,0.00002
 569,0.00004419,-0.00002237,0.00001782,0.00009075,-0.00014545,-0.000003
 15,-0.00003018,0.00000658,0.00007480,-0.00007117,0.00006784,0.00010130
 ,0.00001770,0.00011714,-0.00016663,-0.00021994,-0.00005408,0.00023713,
 -0.05012769,0.00524823,0.00140101,-0.00057468,0.00871814,0.00261830,0.
 00081367,-0.00022795,0.00118235,-0.00130672,0.00040676,-0.00123911,0.0
 0025730,-0.00022179,0.00010493,-0.00000590,-0.00000355,-0.00000480,0.0
 0002208,0.00000375,-0.00001766,-0.00002012,0.00001702,-0.00000009,-0.0
 0001405,0.00000070,0.00000840,-0.00000427,-0.00000442,-0.00000431,0.00
 044238,0.00010785,-0.00037087,0.05248329,-0.00259467,0.00128563,-0.001
 25591,0.00419143,-0.00968440,-0.00061567,0.00105651,0.00083013,0.00139
 777,-0.00057781,0.00059801,-0.00006961,-0.00018429,-0.00020807,-0.0000
 1625,0.00006930,0.00004780,0.00004848,0.00012290,0.00014747,0.00002746
 ,-0.00000394,-0.00003155,-0.00003664,0.00008397,-0.00010154,-0.0000018
 2,-0.00001151,0.00001185,0.00005832,-0.00006290,0.00006336,0.00006513,
 0.00002483,0.00004948,-0.00013906,-0.00014054,-0.00003823,0.00012796,0
 .00069298,-0.26933826,-0.08567778,-0.00075714,-0.02098585,-0.00784269,
 -0.00025920,0.00261985,-0.00013571,-0.00016569,0.00112086,-0.00052971,
 0.00020730,0.00007811,0.00017504,-0.00000738,-0.00000720,-0.00001321,-
 0.00000105,0.00000297,-0.00000972,-0.00002381,0.00002175,-0.00000360,-
 0.00001779,0.00000439,0.00000548,0.00001519,0.00001817,-0.00000599,0.0
 0027440,0.00004122,-0.00013934,-0.00374359,0.29534047,-0.00483195,-0.0
 0156559,0.00066575,0.00607680,-0.01201065,-0.00583930,-0.00015035,0.00
 093320,0.00026647,0.00012448,0.00029488,0.00005472,-0.00023988,-0.0004
 2069,0.00000549,0.00010005,0.00011120,0.00006313,0.00022989,0.00025983
 ,-0.00000948,0.00001637,0.00000689,0.00000517,0.00008366,-0.00015966,-
 0.00000827,-0.00002603,-0.00000811,0.00004859,-0.00007740,0.00005286,0
 .00010357,0.00000910,0.00013011,-0.00017068,-0.00026065,-0.00004042,0.
 00020861,-0.00139789,-0.08344934,-0.07918103,-0.00079255,0.02494138,0.
 00827566,0.00206651,-0.00067498,0.00164215,-0.00139085,0.00032718,-0.0
 0000836,0.00016544,-0.00005834,0.00007858,-0.00001921,-0.00000303,-0.0
 0001096,-0.00000495,-0.00000527,-0.00001364,-0.00001490,0.00000727,0.0
 0001038,-0.00000382,0.00000298,0.00001115,-0.00000407,-0.00000570,-0.0
 0000027,0.00044061,0.00012877,-0.00027418,0.00249381,0.09068433,0.0845
 1153,0.00247041,0.00028998,-0.00339381,-0.02286581,0.00304559,0.024254
 66,-0.00271294,-0.00098327,-0.00295137,0.00048564,0.00103015,-0.001061
 51,-0.00046098,-0.00072056,0.00013748,-0.00008680,0.00025677,-0.000276
 90,0.00016144,0.00024997,-0.00016959,0.00018433,0.00004158,0.00005666,
 -0.00001511,0.00000223,-0.00001937,0.00002025,-0.00001031,-0.00004277,
 -0.00000093,-0.00004626,0.00003407,0.00001400,-0.00000066,-0.00000484,
 0.00003510,0.00004740,-0.00005527,-0.16515730,0.00879949,0.12908285,0.
 00500878,-0.00048249,-0.00693655,0.00238373,-0.00032321,-0.00033364,-0
 .00038053,-0.00027633,0.00065021,-0.00009324,0.00000803,-0.00003951,-0
 .00005004,0.00000735,-0.00001726,-0.00001837,-0.00000882,0.00001015,-0
 .00000924,-0.00000359,0.00002847,0.00000188,0.00000248,-0.00000174,0.0
 0000086,-0.00000213,0.00000289,-0.00007413,0.00002393,0.00008734,0.000
 45550,0.00027970,-0.00065168,0.18030542,-0.00008575,-0.00059673,-0.001
 92051,-0.00389850,-0.00032043,0.00668709,0.00026934,0.00005825,0.00043
 205,-0.00012422,0.00023880,0.00024891,0.00008728,0.00012006,-0.0000372
 7,-0.00002339,-0.00003434,-0.00000373,-0.00009077,-0.00006140,0.000066
 51,-0.00001252,-0.00003033,-0.00000908,0.00003017,-0.00004052,0.000003
 01,0.,-0.00000246,0.00002438,-0.00001901,0.00001777,0.00001995,-0.0000
 0034,0.00003035,-0.00005851,-0.00004392,-0.00002198,0.00000997,0.00874
 023,-0.04590742,-0.01512249,-0.01455510,-0.00061541,0.01957636,-0.0014
 0820,0.00054303,-0.00225531,-0.00002892,0.00023121,-0.00075422,0.00014
 326,-0.00002056,0.00008801,0.00001360,-0.00000601,0.00000101,0.0000069
 2,0.00000674,-0.00000407,-0.00001392,0.00001061,-0.00000788,-0.0000064
 9,0.00000094,0.00000192,0.00000396,0.00000747,0.00000458,0.00008989,0.
 00003481,0.00002073,0.02114727,-0.00151881,-0.02132357,-0.01204733,0.0
 4871209,0.00043154,0.00045935,-0.00083449,-0.00993290,-0.00016622,0.01
 111928,-0.00086103,0.00021077,-0.00101953,0.00019931,0.00056759,-0.000
 78464,-0.00023077,-0.00023076,-0.00003065,-0.00002870,0.00009678,-0.00
 009159,0.00005342,0.00006284,-0.00001274,0.00014211,0.00001161,0.00006
 018,0.00000341,-0.00001702,-0.00001764,0.00000139,0.00000261,0.0000088
 3,0.00000672,0.00000390,0.00004743,0.00001001,0.00000019,-0.00002368,0
 .00000109,0.00001583,0.00001389,0.12671583,-0.01548983,-0.17790070,0.0
 1728676,0.00088337,-0.02174206,0.00071441,-0.00137790,0.00328761,-0.00
 027634,0.00011636,0.00001946,0.00003348,-0.00001289,0.00001370,-0.0000
 1814,0.00000562,-0.00002550,0.00001734,0.00000043,-0.00000038,-0.00001
 396,0.00000349,0.00000754,-0.00000628,-0.00000284,-0.00000235,-0.00001
 236,-0.00001634,-0.00000623,0.00004102,0.00002551,-0.00001823,0.007114
 17,-0.00064300,-0.00800045,-0.13764029,0.01162274,0.19751037,0.0000853
 9,0.00003082,0.00020948,0.00090001,-0.00025937,-0.00014957,0.00023567,
 -0.00007010,0.00028418,-0.00002467,-0.00002011,-0.00005228,0.00000961,
 0.00004336,-0.00002219,0.00001088,-0.00001552,0.00001791,-0.00000093,-
 0.00002385,0.00001387,0.00000367,-0.00000484,0.00003113,-0.00005116,0.
 00003836,0.00000588,-0.00000767,-0.00001134,-0.00001242,-0.00000958,0.
 00001709,-0.00004706,-0.00003499,-0.00007420,0.00008698,0.00003959,0.0
 0001524,-0.00006595,0.00638580,-0.00033159,-0.00628940,-0.15494383,0.0
 0977860,0.12286180,-0.03107883,0.00474579,0.02006841,0.00001905,0.0000
 3260,0.00003365,0.00000471,-0.00000210,0.00000012,0.00000024,0.0000006
 9,0.00000180,0.00001412,0.00000242,-0.00001200,0.00000249,-0.00000139,
 -0.00000159,0.00000556,0.00000116,0.00000246,0.00000654,0.00001428,0.0
 0000334,-0.00003762,-0.00002331,0.00002292,0.00016258,-0.00038424,0.00
 036938,0.00012528,0.00150709,-0.00213868,0.18125042,-0.00017454,0.0003
 1318,0.00011822,-0.00156832,0.00027754,-0.00032103,0.00031052,-0.00015
 980,-0.00043454,-0.00002234,-0.00006181,0.00002981,-0.00001409,0.00003
 633,-0.00001157,0.00000826,-0.00000947,0.00001487,0.00001175,-0.000032
 35,-0.00000831,0.00002147,0.00003286,-0.00000554,-0.00003831,-0.000023
 97,-0.00001703,-0.00003332,-0.00004860,-0.00001576,0.00002757,0.000026
 11,0.00001672,0.00001623,-0.00000992,0.00010679,0.00008598,0.00009669,
 -0.00004383,-0.01210277,-0.00009373,0.01975742,0.01218485,-0.05251418,
 -0.01575570,-0.00531945,0.00186828,0.00349341,-0.00001091,-0.00001694,
 0.00016096,-0.00001400,0.00000045,-0.00000989,-0.00000441,0.00000351,-
 0.00000195,-0.00000199,-0.00000902,0.00001313,0.00000776,-0.00001614,0
 .00000656,0.00001617,-0.00000919,0.00000027,-0.00005091,-0.00006275,-0
 .00002290,-0.00004022,0.00001213,-0.00009642,-0.00077924,0.00086129,-0
 .00076798,0.00116414,-0.00197629,0.00376498,-0.01238853,0.05157677,-0.
 00112754,-0.00095536,0.00005958,0.00300917,0.00106593,0.00008729,-0.00
 108297,0.00017142,0.00023615,0.00005884,0.00005912,-0.00004286,0.00005
 071,0.00008544,-0.00001744,-0.00004178,-0.00001043,-0.00001310,-0.0000
 7492,-0.00006436,0.00002009,0.00000870,0.00004265,-0.00008631,-0.00006
 947,0.00013326,-0.00005399,-0.00000719,-0.00002252,0.00002184,0.000051
 57,0.00000362,0.00002462,-0.00005243,-0.00010140,0.00014722,0.00017316
 ,0.00006881,0.00005754,0.01269231,-0.00072499,-0.02000429,0.12917380,-
 0.01478748,-0.19420103,-0.01248227,0.00212014,0.01247950,0.00015492,-0
 .00001146,-0.00015906,0.00001153,0.00000873,-0.00001034,0.00001143,-0.
 00000442,-0.00000887,-0.00001525,-0.00001575,0.00003825,-0.00001362,-0
 .00000577,0.00000715,-0.00000113,-0.00001041,-0.00000731,-0.00003819,-
 0.00005449,-0.00001229,-0.00000893,-0.00002784,-0.00026323,-0.00014505
 ,0.00021751,0.00119097,-0.00184361,0.00329565,-0.00236764,-0.13258166,
 0.01094498,0.20989849,-0.00054115,-0.00153933,-0.00002542,0.00049688,0
 .00292694,0.00096077,0.00024149,-0.00075242,-0.00033251,-0.00007046,-0
 .00009044,-0.00002207,0.00001925,0.00011701,-0.00007494,0.00000447,-0.
 00003109,0.00002897,-0.00002973,-0.00008598,0.00003767,0.00000079,0.00
 001581,0.00000886,-0.00005034,0.00007450,0.00000405,0.00001016,-0.0000
 3322,-0.00002974,0.00006020,-0.00003106,-0.00005554,-0.00005409,-0.000
 02032,0.00013854,0.00014042,0.00002031,-0.00006663,0.00058560,0.006848
 37,0.00277296,-0.04913256,-0.00056602,0.00366674,-0.00627895,-0.032102
 95,-0.01894524,0.00021379,-0.00006052,0.00007339,-0.00006986,0.0000415
 0,-0.00004393,0.00000074,0.00000149,-0.00000486,0.00000562,-0.00000226
 ,0.00000519,0.00000585,-0.00001157,0.00000075,0.00001054,-0.00000749,-
 0.00000361,-0.00003545,-0.00003844,0.00000810,-0.00024032,0.00000852,-
 0.00004263,-0.00018257,0.00086031,-0.00189051,0.00038092,-0.00059078,-
 0.00030276,0.00125548,0.02048236,0.00743593,0.05836593,-0.00103377,0.0
 0298068,-0.00063571,-0.00155332,-0.00396800,-0.00148950,0.00018214,0.0
 0055334,0.00024514,0.00000248,0.00007293,-0.00012595,-0.00007965,-0.00
 009707,0.00000033,0.00004089,0.00002502,0.00003509,0.00007104,0.000084
 82,-0.00000099,0.00002295,-0.00001408,0.00003274,0.00004582,-0.0000559
 3,0.00000465,-0.00000552,0.00001253,0.00002285,-0.00003625,0.00002861,
 0.00002460,0.00002051,0.00002159,-0.00007712,-0.00007299,-0.00001554,0
 .00004878,0.00291906,-0.02235795,-0.00451197,-0.00524721,-0.27667213,-
 0.08864081,-0.00316291,-0.00174087,-0.00315866,-0.00020161,0.00020487,
 -0.00001886,0.00006858,0.00000210,0.00004745,-0.00000406,-0.00000276,-
 0.00000459,0.00001458,0.00000501,-0.00001531,-0.00000898,0.00000811,0.
 00000047,-0.00000815,0.00000349,0.00000288,0.00001213,0.00002057,-0.00
 000283,0.00013376,0.00001049,-0.00000806,0.00079426,-0.00132885,0.0033
 8855,-0.00047582,0.00095984,-0.00012436,0.00089758,-0.00054873,-0.0007
 1817,0.00766933,0.30039534,0.00017070,-0.00099417,-0.00089272,0.000322
 87,0.00187935,0.00135631,-0.00010337,-0.00058253,-0.00001669,-0.000048
 14,-0.00010880,0.00002199,0.00005566,0.00005679,0.00000973,-0.00002070
 ,-0.00001587,-0.00002126,-0.00003932,-0.00003816,0.00000186,-0.0000379
 1,-0.00002323,-0.00001634,-0.00001236,0.00004593,0.00000837,0.00001252
 ,0.00002934,-0.00001059,-0.00000353,0.00000410,-0.00002909,0.00001116,
 -0.00008404,0.00001308,0.00002507,0.00000501,-0.00003704,-0.00111094,0
 .02523638,0.00642615,0.00079579,-0.08924099,-0.08295841,-0.00342129,-0
 .01284632,-0.00705506,0.00036647,-0.00011215,0.00006923,-0.00007264,0.
 00001495,-0.00003550,0.00000222,0.00000089,0.00000519,-0.00000882,0.00
 000398,-0.00000112,0.00000435,0.00000543,-0.00000854,-0.00000540,0.000
 00609,-0.00000224,0.00003664,0.00003807,0.00000565,-0.00010148,-0.0000
 7087,0.00013128,-0.00199484,0.00370994,-0.00328008,0.00064684,-0.00046
 307,0.00142165,-0.00054558,-0.02193398,-0.00828184,0.00769403,0.094889
 36,0.09193596,0.00006482,0.00088599,-0.00011495,-0.00057439,-0.0008890
 6,-0.00005634,0.00008865,0.00014507,0.00013906,-0.00004880,-0.00001025
 ,-0.00005321,-0.00004329,0.00001098,-0.00006354,0.00003915,-0.00000584
 ,0.00005009,0.00002384,-0.00000137,0.00003522,0.00000559,-0.00000865,0
 .00001134,0.00001434,-0.00000181,0.00000147,0.00000106,0.00001633,0.00
 001328,0.00000511,0.00001686,0.00000319,0.00001125,-0.00001877,-0.0000
 1245,0.00000645,0.00000482,0.00000243,0.00123815,-0.00114951,0.0005602
 0,-0.00301137,-0.03647591,-0.01643758,-0.06165745,-0.01833871,0.002192
 81,-0.00003629,0.00005330,-0.00008177,0.00001402,0.00000797,0.00001061
 ,-0.00000460,0.00000123,-0.00000917,0.00001126,0.00000513,-0.00000330,
 -0.00000731,0.00000504,-0.00000463,-0.00000900,-0.00000102,-0.00000191
 ,0.00000345,0.00000605,-0.00000502,-0.00000427,-0.00003125,0.00001779,
 -0.00015232,0.00097750,-0.00028632,-0.00003320,0.00020782,0.00002902,0
 .00073692,-0.00000061,0.00076204,-0.00622884,-0.00064275,-0.00261688,0
 .06694650,-0.00008072,0.00012934,-0.00007115,0.00050748,-0.00040092,0.
 00030559,-0.00021060,0.00014460,0.00001979,0.00009541,0.00000841,0.000
 04484,0.00005353,-0.00001844,0.00007365,-0.00005029,0.00001201,-0.0000
 5643,-0.00003750,0.00001271,-0.00003697,0.00000153,0.00000253,-0.00002
 786,0.00001127,-0.00003159,-0.00001777,-0.00000137,0.00000775,-0.00000
 023,-0.00001830,0.00000035,0.00005070,0.00002472,0.00000690,-0.0000514
 0,-0.00005945,0.00001227,0.00004992,0.00084995,0.00274632,0.00054205,0
 .00331107,-0.00784507,0.00372250,-0.02640454,-0.35966803,-0.16953032,0
 .00005210,-0.00004010,-0.00000276,-0.00000037,-0.00000738,-0.00000193,
 0.00000894,-0.00000361,0.00000690,-0.00001497,-0.00000469,0.00000901,0
 .00000170,0.00000158,0.00000354,-0.00000343,0.00000323,-0.00000121,0.0
 0000653,0.00000453,-0.00000638,0.00007923,0.00000881,-0.00002061,-0.00
 018936,0.00023151,-0.00074534,-0.00002650,-0.00005438,-0.00006048,-0.0
 0044066,-0.00003737,0.00011241,-0.00254431,0.00158764,0.00010373,0.026
 63688,0.36863153,0.00070679,0.00095642,0.00025882,-0.00171410,-0.00056
 579,-0.00012654,0.00085517,-0.00017853,0.00002872,-0.00021123,-0.00008
 825,-0.00017474,-0.00013644,0.00004570,-0.00019274,0.00013351,-0.00003
 146,0.00015133,0.00010797,-0.00002731,0.00008732,0.00000002,-0.0000135
 5,0.00010319,-0.00001815,0.00006742,0.00005519,0.00000055,-0.00000108,
 0.00000061,0.00002974,0.00001393,-0.00012910,-0.00003535,-0.00004238,0
 .00010147,0.00014149,-0.00002456,-0.00013047,0.00241751,-0.00174116,0.
 00112976,-0.00560143,-0.01352375,-0.00914775,0.00214815,-0.12060185,-0
 .07502502,-0.00013248,0.00012239,0.00002999,-0.00000627,0.00003053,0.0
 0000686,-0.00002356,0.00000849,-0.00001400,0.00004933,0.00001666,-0.00
 003496,-0.00000321,-0.00000147,-0.00001064,0.00000688,-0.00000391,0.00
 000343,0.00000230,0.00000766,0.00000836,-0.00019996,-0.00007618,0.0001
 1352,-0.00061872,0.00063243,-0.00027610,-0.00001288,0.00004266,-0.0003
 4619,0.00045315,0.00088505,0.00057331,-0.00173490,0.00067797,0.0008156
 8,0.00542252,0.16056305,0.09553549,0.00036825,0.00040568,0.00002001,-0
 .00028377,-0.00079389,-0.00021474,0.00063693,-0.00000871,0.00014486,-0
 .00010816,-0.00011298,-0.00003114,-0.00005053,0.00003899,-0.00009741,0
 .00007120,-0.00002364,0.00008555,0.00005393,-0.00001554,0.00004697,-0.
 00000714,-0.00001856,0.00005375,0.00000215,0.00001078,0.00003342,0.000
 00461,0.00000537,-0.00000344,0.00000516,0.00000571,-0.00005790,-0.0000
 0916,-0.00000425,0.00002423,0.00003317,-0.00002139,-0.00006009,0.00200
 212,0.00050207,0.00135354,-0.02830858,0.00185269,0.02759963,-0.2258542
 9,0.01837498,0.17382086,-0.00005262,0.00005290,0.00001609,-0.00000753,
 0.00001018,0.00000502,-0.00001104,0.00000473,-0.00000597,0.00002484,0.
 00001082,-0.00002093,0.00000060,0.00000178,-0.00000780,-0.00000020,0.0
 0000008,0.00000111,0.00000830,0.00001446,0.00000459,-0.00008236,-0.000
 03347,0.00008858,-0.00003491,0.00007923,-0.00013308,-0.00007493,0.0007
 0232,-0.00133883,-0.00506471,-0.00177312,-0.00400811,0.00111619,-0.000
 36211,-0.00000108,0.00260057,-0.00155799,-0.00202642,0.25302187,-0.000
 28171,-0.00056454,-0.00027061,0.00068774,0.00066982,0.00057529,-0.0005
 1960,-0.00006256,-0.00013593,0.00013841,0.00009486,0.00007755,0.000105
 84,-0.00003304,0.00015377,-0.00010537,0.00002110,-0.00013140,-0.000083
 73,0.00001159,-0.00007053,0.00000492,0.00000839,-0.00004448,0.00000547
 ,-0.00004727,-0.00002140,0.00000424,-0.00001091,-0.00001192,-0.0000276
 9,-0.00003390,0.00005193,0.00000334,0.00006013,-0.00006112,-0.00009997
 ,-0.00000889,0.00004756,-0.00010089,-0.00006218,-0.00175474,-0.0009129
 3,-0.00012404,0.00892995,-0.00691844,-0.03780189,-0.02747628,0.0000704
 4,-0.00008286,-0.00000140,0.00000159,-0.00001189,-0.00000287,0.0000156
 8,-0.00000286,0.00001568,-0.00003071,-0.00000791,0.00001445,0.00000496
 ,-0.00000171,0.00000870,0.00000360,0.00000397,0.00000167,0.00000486,0.
 00000703,0.00000619,0.00011486,0.00007738,-0.00001645,0.00014140,-0.00
 013155,-0.00003074,0.00015849,0.00023510,0.00028767,-0.00307392,0.0005
 2511,-0.00081478,-0.00055826,-0.00017508,0.00048482,0.02859452,-0.0054
 4043,-0.02714912,-0.01734713,0.04288904,0.00027704,0.00021422,0.000053
 65,-0.00064924,-0.00019359,-0.00045590,0.00035065,-0.00006648,0.000069
 97,-0.00011511,-0.00006312,-0.00001735,-0.00005803,0.00004874,-0.00010
 044,0.00006630,-0.00002296,0.00008262,0.00004642,-0.00002837,0.0000499
 9,-0.00000653,-0.00000970,0.00002420,-0.00000328,0.00002510,0.00001575
 ,0.00000007,0.00000833,0.00000529,0.00002173,0.00001392,-0.00003395,-0
 .00000418,-0.00002574,0.00003587,0.00005373,-0.00000178,-0.00003826,-0
 .00136456,-0.00049248,0.00227901,-0.01707634,0.00497306,0.00788935,0.2
 0459858,-0.05681262,-0.23228952,-0.00003101,0.00005060,-0.00000561,-0.
 00000462,0.00000694,0.00000265,-0.00001098,0.00000461,-0.00000967,0.00
 001796,0.00000605,-0.00000801,-0.00000202,0.00000059,-0.00000751,-0.00
 000298,-0.00000302,-0.00000174,-0.00000369,-0.00000277,-0.00000166,-0.
 00007620,-0.00003657,0.00003126,0.00011938,-0.00001417,-0.00006911,0.0
 0046096,-0.00018584,-0.00028525,-0.00254807,0.00013328,0.00068762,0.00
 073933,0.00011205,0.00042439,0.01049598,0.00502316,-0.01339477,-0.1952
 9127,0.04733855,0.23506714\\0.00000813,0.00000278,-0.00000840,-0.00000
 766,0.00000389,0.00000984,0.00000363,-0.00000396,-0.00000185,-0.000000
 39,-0.00000169,0.00000148,-0.00000100,0.00000049,-0.00000189,0.0000004
 8,0.00000067,0.00000041,-0.00000070,-0.00000043,0.00000097,0.00000428,
 0.00000228,-0.00000167,0.00000120,0.00000060,0.00000168,0.00000063,0.0
 0000065,-0.00000245,0.00000031,-0.00000198,-0.00000042,-0.00000037,-0.
 00000145,-0.00000028,-0.00000723,-0.00000112,0.00000369,-0.00000246,0.
 00000077,0.00000582,0.00000413,-0.00000280,-0.00000637,-0.00000003,0.0
 0000039,0.00000246,-0.00000098,-0.00000074,0.00000138,-0.00000217,0.00
 000120,-0.00000115,0.00000062,0.00000037,0.00000037,0.00000026,0.00000
 031,-0.00000259,-0.00000139,-0.00000076,-0.00000049,-0.00000021,-0.000
 00040,-0.00000022,-0.00000001,-0.00000038,-0.00000090,0.00000084,0.000
 00093,0.00000045,0.00000141,-0.00000167,-0.00000080,0.00000174,-0.0000
 0199,-0.00000112,-0.00000073,0.00000156,0.00000205,-0.00000204,0.00000
 261,-0.00000140,0.00000025,-0.00000025,0.00000061,-0.00000053,0.000000
 13,0.00000079\\\@


 THOSE WITH THE GOLD MAKE THE RULES.

             -- PETER'S GOLDEN RULE
 Job cpu time:       0 days  2 hours  7 minutes 59.3 seconds.
 File lengths (MBytes):  RWF=    415 Int=      0 D2E=      0 Chk=     13 Scr=      1
 Normal termination of Gaussian 09 at Wed Jul 28 23:17:33 2021.
