 Entering Gaussian System, Link 0=g09
 Input=opt_freq-conf-273.com
 Output=opt_freq-conf-273.log
 Initial command:
 /aerosol/software/g09/l1.exe "/scratch/nicole/10625/Gau-83767.inp" -scrdir="/scratch/nicole/10625/"
 Entering Link 1 = /aerosol/software/g09/l1.exe PID=     83770.
  
 Copyright (c) 1988,1990,1992,1993,1995,1998,2003,2009,2013,
            Gaussian, Inc.  All Rights Reserved.
  
 This is part of the Gaussian(R) 09 program.  It is based on
 the Gaussian(R) 03 system (copyright 2003, Gaussian, Inc.),
 the Gaussian(R) 98 system (copyright 1998, Gaussian, Inc.),
 the Gaussian(R) 94 system (copyright 1995, Gaussian, Inc.),
 the Gaussian 92(TM) system (copyright 1992, Gaussian, Inc.),
 the Gaussian 90(TM) system (copyright 1990, Gaussian, Inc.),
 the Gaussian 88(TM) system (copyright 1988, Gaussian, Inc.),
 the Gaussian 86(TM) system (copyright 1986, Carnegie Mellon
 University), and the Gaussian 82(TM) system (copyright 1983,
 Carnegie Mellon University). Gaussian is a federally registered
 trademark of Gaussian, Inc.
  
 This software contains proprietary and confidential information,
 including trade secrets, belonging to Gaussian, Inc.
  
 This software is provided under written license and may be
 used, copied, transmitted, or stored only in accord with that
 written license.
  
 The following legend is applicable only to US Government
 contracts under FAR:
  
                    RESTRICTED RIGHTS LEGEND
  
 Use, reproduction and disclosure by the US Government is
 subject to restrictions as set forth in subparagraphs (a)
 and (c) of the Commercial Computer Software - Restricted
 Rights clause in FAR 52.227-19.
  
 Gaussian, Inc.
 340 Quinnipiac St., Bldg. 40, Wallingford CT 06492
  
  
 ---------------------------------------------------------------
 Warning -- This program may not be used in any manner that
 competes with the business of Gaussian, Inc. or will provide
 assistance to any competitor of Gaussian, Inc.  The licensee
 of this program is prohibited from giving any competitor of
 Gaussian, Inc. access to this program.  By using this program,
 the user acknowledges that Gaussian, Inc. is engaged in the
 business of creating and licensing software in the field of
 computational chemistry and represents and warrants to the
 licensee that it is not a competitor of Gaussian, Inc. and that
 it will not use this program in any manner prohibited above.
 ---------------------------------------------------------------
  

 Cite this work as:
 Gaussian 09, Revision D.01,
 M. J. Frisch, G. W. Trucks, H. B. Schlegel, G. E. Scuseria, 
 M. A. Robb, J. R. Cheeseman, G. Scalmani, V. Barone, B. Mennucci, 
 G. A. Petersson, H. Nakatsuji, M. Caricato, X. Li, H. P. Hratchian, 
 A. F. Izmaylov, J. Bloino, G. Zheng, J. L. Sonnenberg, M. Hada, 
 M. Ehara, K. Toyota, R. Fukuda, J. Hasegawa, M. Ishida, T. Nakajima, 
 Y. Honda, O. Kitao, H. Nakai, T. Vreven, J. A. Montgomery, Jr., 
 J. E. Peralta, F. Ogliaro, M. Bearpark, J. J. Heyd, E. Brothers, 
 K. N. Kudin, V. N. Staroverov, T. Keith, R. Kobayashi, J. Normand, 
 K. Raghavachari, A. Rendell, J. C. Burant, S. S. Iyengar, J. Tomasi, 
 M. Cossi, N. Rega, J. M. Millam, M. Klene, J. E. Knox, J. B. Cross, 
 V. Bakken, C. Adamo, J. Jaramillo, R. Gomperts, R. E. Stratmann, 
 O. Yazyev, A. J. Austin, R. Cammi, C. Pomelli, J. W. Ochterski, 
 R. L. Martin, K. Morokuma, V. G. Zakrzewski, G. A. Voth, 
 P. Salvador, J. J. Dannenberg, S. Dapprich, A. D. Daniels, 
 O. Farkas, J. B. Foresman, J. V. Ortiz, J. Cioslowski, 
 and D. J. Fox, Gaussian, Inc., Wallingford CT, 2013.
 
 ******************************************
 Gaussian 09:  ES64L-G09RevD.01 24-Apr-2013
                28-Jul-2021 
 ******************************************
 %mem=2gb
 %nproc=4
 Will use up to    4 processors via shared memory.
 %chk=conf-273.chk
 ----------------------------------------------------------------------
 # B3LYP/6-311G(d,p) opt=calcfc freq=noraman nosymm integral(ultrafineg
 rid)
 ----------------------------------------------------------------------
 1/10=4,14=-1,18=20,19=15,26=4,38=1/1,3;
 2/9=110,12=2,15=1,17=6,18=5,40=1/2;
 3/5=4,6=6,7=101,11=2,16=1,25=1,30=1,71=2,74=-5,75=-5,140=1/1,2,3;
 4//1;
 5/5=2,38=5/2;
 8/6=4,10=90,11=11/1;
 11/6=1,8=1,9=11,15=111,16=1,31=1/1,2,10;
 10/6=1,13=1,31=1/2;
 6/7=2,8=2,9=2,10=2,28=1/1;
 7/10=1,18=20,25=1,30=1/1,2,3,16;
 1/10=4,14=-1,18=20,19=15,26=4/3(2);
 2/9=110,15=1/2;
 99//99;
 2/9=110,15=1/2;
 3/5=4,6=6,7=101,11=2,16=1,25=1,30=1,71=1,74=-5,75=-5/1,2,3;
 4/5=5,16=3,69=1/1;
 5/5=2,38=5/2;
 7/30=1/1,2,3,16;
 1/14=-1,18=20,19=15,26=4/3(-5);
 2/9=110,15=1/2;
 6/7=2,8=2,9=2,10=2,19=2,28=1/1;
 99/9=1/99;
 ------------------------------------------------------------
 Candidate Structure: Conf:273 OPT and FREQ calc in gas phase
 ------------------------------------------------------------
 Symbolic Z-matrix:
 Charge =  0 Multiplicity = 1
 O                     0.4812   -1.43972   1.72308 
 C                     0.87057  -0.53629   0.98255 
 N                     0.37138  -0.40017  -0.26514 
 C                    -0.75721  -1.20762  -0.73001 
 C                    -0.28914  -2.59703  -1.19228 
 O                     0.31533  -3.3194   -0.24345 
 O                    -0.45011  -3.01646  -2.30615 
 C                    -1.5072   -0.49074  -1.84649 
 C                    -2.27544   0.70244  -1.37059 
 C                    -2.84205   1.05063  -0.17757 
 N                    -3.45652   2.28666  -0.27192 
 C                    -3.26679   2.67362  -1.51053 
 N                    -2.55969   1.75405  -2.21919 
 C                     1.89393   0.48386   1.40872 
 C                     2.97956  -0.12216   2.28608 
 N                     3.8968    0.93726   2.718 
 H                     0.69071   0.34962  -0.85265 
 H                    -1.42108  -1.35943   0.12342 
 H                     0.33923  -2.81473   0.59778 
 H                    -2.17872  -1.20279  -2.32839 
 H                    -0.79593  -0.19651  -2.61834 
 H                    -2.8511    0.49833   0.75013 
 H                    -3.61409   3.59393  -1.94694 
 H                    -2.28316   1.82072  -3.18404 
 H                     2.33103   0.96023   0.52862 
 H                     1.38125   1.26432   1.97735 
 H                     2.50784  -0.56404   3.1651 
 H                     3.4804   -0.9333    1.74249 
 H                     4.56161   0.56728   3.38681 
 H                     4.44738   1.25773   1.92958 
 

 GradGradGradGradGradGradGradGradGradGradGradGradGradGradGradGradGradGrad
 Berny optimization.
 Initialization pass.
                           ----------------------------
                           !    Initial Parameters    !
                           ! (Angstroms and Degrees)  !
 --------------------------                            --------------------------
 ! Name  Definition              Value          Derivative Info.                !
 --------------------------------------------------------------------------------
 ! R1    R(1,2)                  1.2313         calculate D2E/DX2 analytically  !
 ! R2    R(2,3)                  1.3507         calculate D2E/DX2 analytically  !
 ! R3    R(2,14)                 1.5065         calculate D2E/DX2 analytically  !
 ! R4    R(3,4)                  1.4635         calculate D2E/DX2 analytically  !
 ! R5    R(3,17)                 1.0047         calculate D2E/DX2 analytically  !
 ! R6    R(4,5)                  1.5373         calculate D2E/DX2 analytically  !
 ! R7    R(4,8)                  1.5241         calculate D2E/DX2 analytically  !
 ! R8    R(4,18)                 1.0918         calculate D2E/DX2 analytically  !
 ! R9    R(5,6)                  1.337          calculate D2E/DX2 analytically  !
 ! R10   R(5,7)                  1.2011         calculate D2E/DX2 analytically  !
 ! R11   R(6,19)                 0.9813         calculate D2E/DX2 analytically  !
 ! R12   R(8,9)                  1.4968         calculate D2E/DX2 analytically  !
 ! R13   R(8,20)                 1.091          calculate D2E/DX2 analytically  !
 ! R14   R(8,21)                 1.0901         calculate D2E/DX2 analytically  !
 ! R15   R(9,10)                 1.3659         calculate D2E/DX2 analytically  !
 ! R16   R(9,13)                 1.3809         calculate D2E/DX2 analytically  !
 ! R17   R(10,11)                1.3836         calculate D2E/DX2 analytically  !
 ! R18   R(10,22)                1.0797         calculate D2E/DX2 analytically  !
 ! R19   R(11,12)                1.3114         calculate D2E/DX2 analytically  !
 ! R20   R(12,13)                1.3593         calculate D2E/DX2 analytically  !
 ! R21   R(12,23)                1.0761         calculate D2E/DX2 analytically  !
 ! R22   R(13,24)                1.0059         calculate D2E/DX2 analytically  !
 ! R23   R(14,15)                1.5217         calculate D2E/DX2 analytically  !
 ! R24   R(14,25)                1.092          calculate D2E/DX2 analytically  !
 ! R25   R(14,26)                1.0933         calculate D2E/DX2 analytically  !
 ! R26   R(15,16)                1.4664         calculate D2E/DX2 analytically  !
 ! R27   R(15,27)                1.0911         calculate D2E/DX2 analytically  !
 ! R28   R(15,28)                1.0974         calculate D2E/DX2 analytically  !
 ! R29   R(16,29)                1.013          calculate D2E/DX2 analytically  !
 ! R30   R(16,30)                1.0136         calculate D2E/DX2 analytically  !
 ! A1    A(1,2,3)              120.8376         calculate D2E/DX2 analytically  !
 ! A2    A(1,2,14)             122.7858         calculate D2E/DX2 analytically  !
 ! A3    A(3,2,14)             116.3669         calculate D2E/DX2 analytically  !
 ! A4    A(2,3,4)              121.5214         calculate D2E/DX2 analytically  !
 ! A5    A(2,3,17)             119.8628         calculate D2E/DX2 analytically  !
 ! A6    A(4,3,17)             118.1074         calculate D2E/DX2 analytically  !
 ! A7    A(3,4,5)              111.0619         calculate D2E/DX2 analytically  !
 ! A8    A(3,4,8)              110.6495         calculate D2E/DX2 analytically  !
 ! A9    A(3,4,18)             107.2961         calculate D2E/DX2 analytically  !
 ! A10   A(5,4,8)              110.7731         calculate D2E/DX2 analytically  !
 ! A11   A(5,4,18)             107.1284         calculate D2E/DX2 analytically  !
 ! A12   A(8,4,18)             109.8029         calculate D2E/DX2 analytically  !
 ! A13   A(4,5,6)              114.3675         calculate D2E/DX2 analytically  !
 ! A14   A(4,5,7)              123.6204         calculate D2E/DX2 analytically  !
 ! A15   A(6,5,7)              122.0113         calculate D2E/DX2 analytically  !
 ! A16   A(5,6,19)             109.9703         calculate D2E/DX2 analytically  !
 ! A17   A(4,8,9)              113.2417         calculate D2E/DX2 analytically  !
 ! A18   A(4,8,20)             108.631          calculate D2E/DX2 analytically  !
 ! A19   A(4,8,21)             108.9394         calculate D2E/DX2 analytically  !
 ! A20   A(9,8,20)             110.1707         calculate D2E/DX2 analytically  !
 ! A21   A(9,8,21)             110.1741         calculate D2E/DX2 analytically  !
 ! A22   A(20,8,21)            105.3689         calculate D2E/DX2 analytically  !
 ! A23   A(8,9,10)             133.9358         calculate D2E/DX2 analytically  !
 ! A24   A(8,9,13)             121.1542         calculate D2E/DX2 analytically  !
 ! A25   A(10,9,13)            104.9065         calculate D2E/DX2 analytically  !
 ! A26   A(9,10,11)            110.6353         calculate D2E/DX2 analytically  !
 ! A27   A(9,10,22)            128.5771         calculate D2E/DX2 analytically  !
 ! A28   A(11,10,22)           120.7875         calculate D2E/DX2 analytically  !
 ! A29   A(10,11,12)           105.2927         calculate D2E/DX2 analytically  !
 ! A30   A(11,12,13)           111.594          calculate D2E/DX2 analytically  !
 ! A31   A(11,12,23)           126.0626         calculate D2E/DX2 analytically  !
 ! A32   A(13,12,23)           122.3432         calculate D2E/DX2 analytically  !
 ! A33   A(9,13,12)            107.5703         calculate D2E/DX2 analytically  !
 ! A34   A(9,13,24)            125.686          calculate D2E/DX2 analytically  !
 ! A35   A(12,13,24)           126.7424         calculate D2E/DX2 analytically  !
 ! A36   A(2,14,15)            112.2127         calculate D2E/DX2 analytically  !
 ! A37   A(2,14,25)            109.8338         calculate D2E/DX2 analytically  !
 ! A38   A(2,14,26)            108.1789         calculate D2E/DX2 analytically  !
 ! A39   A(15,14,25)           110.6605         calculate D2E/DX2 analytically  !
 ! A40   A(15,14,26)           108.6005         calculate D2E/DX2 analytically  !
 ! A41   A(25,14,26)           107.1854         calculate D2E/DX2 analytically  !
 ! A42   A(14,15,16)           109.169          calculate D2E/DX2 analytically  !
 ! A43   A(14,15,27)           108.5023         calculate D2E/DX2 analytically  !
 ! A44   A(14,15,28)           109.5343         calculate D2E/DX2 analytically  !
 ! A45   A(16,15,27)           109.0103         calculate D2E/DX2 analytically  !
 ! A46   A(16,15,28)           113.2315         calculate D2E/DX2 analytically  !
 ! A47   A(27,15,28)           107.2794         calculate D2E/DX2 analytically  !
 ! A48   A(15,16,29)           109.9443         calculate D2E/DX2 analytically  !
 ! A49   A(15,16,30)           109.8204         calculate D2E/DX2 analytically  !
 ! A50   A(29,16,30)           105.8152         calculate D2E/DX2 analytically  !
 ! D1    D(1,2,3,4)              7.5256         calculate D2E/DX2 analytically  !
 ! D2    D(1,2,3,17)           179.1912         calculate D2E/DX2 analytically  !
 ! D3    D(14,2,3,4)          -171.3709         calculate D2E/DX2 analytically  !
 ! D4    D(14,2,3,17)            0.2946         calculate D2E/DX2 analytically  !
 ! D5    D(1,2,14,15)           37.429          calculate D2E/DX2 analytically  !
 ! D6    D(1,2,14,25)          160.9631         calculate D2E/DX2 analytically  !
 ! D7    D(1,2,14,26)          -82.3549         calculate D2E/DX2 analytically  !
 ! D8    D(3,2,14,15)         -143.698          calculate D2E/DX2 analytically  !
 ! D9    D(3,2,14,25)          -20.1639         calculate D2E/DX2 analytically  !
 ! D10   D(3,2,14,26)           96.5181         calculate D2E/DX2 analytically  !
 ! D11   D(2,3,4,5)            -81.7802         calculate D2E/DX2 analytically  !
 ! D12   D(2,3,4,8)            154.7647         calculate D2E/DX2 analytically  !
 ! D13   D(2,3,4,18)            34.9931         calculate D2E/DX2 analytically  !
 ! D14   D(17,3,4,5)           106.413          calculate D2E/DX2 analytically  !
 ! D15   D(17,3,4,8)           -17.0421         calculate D2E/DX2 analytically  !
 ! D16   D(17,3,4,18)         -136.8136         calculate D2E/DX2 analytically  !
 ! D17   D(3,4,5,6)             60.0601         calculate D2E/DX2 analytically  !
 ! D18   D(3,4,5,7)           -120.2636         calculate D2E/DX2 analytically  !
 ! D19   D(8,4,5,6)           -176.5556         calculate D2E/DX2 analytically  !
 ! D20   D(8,4,5,7)              3.1206         calculate D2E/DX2 analytically  !
 ! D21   D(18,4,5,6)           -56.816          calculate D2E/DX2 analytically  !
 ! D22   D(18,4,5,7)           122.8603         calculate D2E/DX2 analytically  !
 ! D23   D(3,4,8,9)            -70.7009         calculate D2E/DX2 analytically  !
 ! D24   D(3,4,8,20)           166.5599         calculate D2E/DX2 analytically  !
 ! D25   D(3,4,8,21)            52.268          calculate D2E/DX2 analytically  !
 ! D26   D(5,4,8,9)            165.6775         calculate D2E/DX2 analytically  !
 ! D27   D(5,4,8,20)            42.9384         calculate D2E/DX2 analytically  !
 ! D28   D(5,4,8,21)           -71.3536         calculate D2E/DX2 analytically  !
 ! D29   D(18,4,8,9)            47.5538         calculate D2E/DX2 analytically  !
 ! D30   D(18,4,8,20)          -75.1853         calculate D2E/DX2 analytically  !
 ! D31   D(18,4,8,21)          170.5227         calculate D2E/DX2 analytically  !
 ! D32   D(4,5,6,19)             0.5789         calculate D2E/DX2 analytically  !
 ! D33   D(7,5,6,19)          -179.1032         calculate D2E/DX2 analytically  !
 ! D34   D(4,8,9,10)           -26.9919         calculate D2E/DX2 analytically  !
 ! D35   D(4,8,9,13)           153.7973         calculate D2E/DX2 analytically  !
 ! D36   D(20,8,9,10)           94.8898         calculate D2E/DX2 analytically  !
 ! D37   D(20,8,9,13)          -84.3209         calculate D2E/DX2 analytically  !
 ! D38   D(21,8,9,10)         -149.2757         calculate D2E/DX2 analytically  !
 ! D39   D(21,8,9,13)           31.5136         calculate D2E/DX2 analytically  !
 ! D40   D(8,9,10,11)         -179.6436         calculate D2E/DX2 analytically  !
 ! D41   D(8,9,10,22)            0.4783         calculate D2E/DX2 analytically  !
 ! D42   D(13,9,10,11)          -0.3425         calculate D2E/DX2 analytically  !
 ! D43   D(13,9,10,22)         179.7794         calculate D2E/DX2 analytically  !
 ! D44   D(8,9,13,12)          179.6556         calculate D2E/DX2 analytically  !
 ! D45   D(8,9,13,24)           -0.7376         calculate D2E/DX2 analytically  !
 ! D46   D(10,9,13,12)           0.2438         calculate D2E/DX2 analytically  !
 ! D47   D(10,9,13,24)         179.8506         calculate D2E/DX2 analytically  !
 ! D48   D(9,10,11,12)           0.3093         calculate D2E/DX2 analytically  !
 ! D49   D(22,10,11,12)       -179.8017         calculate D2E/DX2 analytically  !
 ! D50   D(10,11,12,13)         -0.1475         calculate D2E/DX2 analytically  !
 ! D51   D(10,11,12,23)        179.6907         calculate D2E/DX2 analytically  !
 ! D52   D(11,12,13,9)          -0.0609         calculate D2E/DX2 analytically  !
 ! D53   D(11,12,13,24)       -179.6624         calculate D2E/DX2 analytically  !
 ! D54   D(23,12,13,9)        -179.9061         calculate D2E/DX2 analytically  !
 ! D55   D(23,12,13,24)          0.4924         calculate D2E/DX2 analytically  !
 ! D56   D(2,14,15,16)        -177.0867         calculate D2E/DX2 analytically  !
 ! D57   D(2,14,15,27)         -58.4021         calculate D2E/DX2 analytically  !
 ! D58   D(2,14,15,28)          58.4108         calculate D2E/DX2 analytically  !
 ! D59   D(25,14,15,16)         59.8434         calculate D2E/DX2 analytically  !
 ! D60   D(25,14,15,27)        178.5279         calculate D2E/DX2 analytically  !
 ! D61   D(25,14,15,28)        -64.6592         calculate D2E/DX2 analytically  !
 ! D62   D(26,14,15,16)        -57.549          calculate D2E/DX2 analytically  !
 ! D63   D(26,14,15,27)         61.1356         calculate D2E/DX2 analytically  !
 ! D64   D(26,14,15,28)        177.9485         calculate D2E/DX2 analytically  !
 ! D65   D(14,15,16,29)        173.5694         calculate D2E/DX2 analytically  !
 ! D66   D(14,15,16,30)        -70.3925         calculate D2E/DX2 analytically  !
 ! D67   D(27,15,16,29)         55.2023         calculate D2E/DX2 analytically  !
 ! D68   D(27,15,16,30)        171.2403         calculate D2E/DX2 analytically  !
 ! D69   D(28,15,16,29)        -64.1236         calculate D2E/DX2 analytically  !
 ! D70   D(28,15,16,30)         51.9144         calculate D2E/DX2 analytically  !
 --------------------------------------------------------------------------------
 Trust Radius=3.00D-01 FncErr=1.00D-07 GrdErr=1.00D-06
 Number of steps in this run=    160 maximum allowed number of steps=    180.
 GradGradGradGradGradGradGradGradGradGradGradGradGradGradGradGradGradGrad

                          Input orientation:                          
 ---------------------------------------------------------------------
 Center     Atomic      Atomic             Coordinates (Angstroms)
 Number     Number       Type             X           Y           Z
 ---------------------------------------------------------------------
      1          8           0        0.481202   -1.439721    1.723084
      2          6           0        0.870569   -0.536285    0.982547
      3          7           0        0.371376   -0.400166   -0.265140
      4          6           0       -0.757209   -1.207622   -0.730012
      5          6           0       -0.289136   -2.597034   -1.192279
      6          8           0        0.315334   -3.319401   -0.243452
      7          8           0       -0.450114   -3.016463   -2.306155
      8          6           0       -1.507203   -0.490736   -1.846491
      9          6           0       -2.275445    0.702441   -1.370589
     10          6           0       -2.842052    1.050633   -0.177570
     11          7           0       -3.456524    2.286661   -0.271915
     12          6           0       -3.266792    2.673623   -1.510526
     13          7           0       -2.559690    1.754054   -2.219192
     14          6           0        1.893930    0.483862    1.408723
     15          6           0        2.979560   -0.122160    2.286081
     16          7           0        3.896800    0.937264    2.718000
     17          1           0        0.690707    0.349622   -0.852654
     18          1           0       -1.421075   -1.359428    0.123420
     19          1           0        0.339230   -2.814735    0.597781
     20          1           0       -2.178716   -1.202789   -2.328392
     21          1           0       -0.795931   -0.196509   -2.618341
     22          1           0       -2.851101    0.498330    0.750134
     23          1           0       -3.614090    3.593930   -1.946937
     24          1           0       -2.283164    1.820720   -3.184039
     25          1           0        2.331031    0.960230    0.528621
     26          1           0        1.381250    1.264319    1.977355
     27          1           0        2.507837   -0.564041    3.165097
     28          1           0        3.480396   -0.933305    1.742493
     29          1           0        4.561608    0.567281    3.386808
     30          1           0        4.447377    1.257728    1.929579
 ---------------------------------------------------------------------
                    Distance matrix (angstroms):
                    1          2          3          4          5
     1  O    0.000000
     2  C    1.231340   0.000000
     3  N    2.246280   1.350721   0.000000
     4  C    2.757755   2.456260   1.463488   0.000000
     5  C    3.229882   3.212705   2.474287   1.537286   0.000000
     6  O    2.725431   3.091455   2.919854   2.417995   1.336963
     7  O    4.425860   4.325627   3.418421   2.418768   1.201064
     8  C    4.194782   3.695854   2.457221   1.524120   2.519559
     9  C    4.664631   4.119357   3.073015   2.522642   3.855354
    10  C    4.567096   4.200921   3.526840   3.122736   4.566453
    11  N    5.776819   5.316619   4.676741   4.439163   5.893208
    12  C    6.436093   5.799714   4.922949   4.687352   6.061975
    13  N    5.915131   5.221443   4.129180   3.773344   5.014174
    14  C    2.407239   1.506518   2.429299   3.803137   4.585075
    15  C    2.880056   2.513671   3.659049   4.923260   5.376650
    16  N    4.278577   3.786980   4.807958   6.176497   6.730795
    17  H    3.143258   2.045763   1.004653   2.129909   3.123815
    18  H    2.486772   2.582111   2.069793   1.091838   2.131671
    19  H    1.782449   2.371012   2.564334   2.355424   1.909595
    20  H    4.852398   4.550240   3.377008   2.139047   2.608675
    21  H    4.693040   3.982345   2.634699   2.142344   2.837784
    22  H    3.975792   3.869790   3.496060   3.079852   4.462949
    23  H    7.455074   6.764076   5.887714   5.718180   7.067735
    24  H    6.507846   5.732535   4.527570   4.185887   5.240211
    25  H    3.257049   2.139756   2.514156   3.977558   4.741403
    26  H    2.861218   2.119578   2.969703   4.244212   5.267525
    27  H    2.636942   2.728541   4.044483   5.123143   5.562629
    28  H    3.041710   2.747060   3.739096   4.913841   5.058681
    29  H    4.842080   4.541156   5.641872   6.956170   7.383132
    30  H    4.800980   4.112044   4.917234   6.343429   6.858553
                    6          7          8          9         10
     6  O    0.000000
     7  O    2.220906   0.000000
     8  C    3.727294   2.776333   0.000000
     9  C    4.915057   4.247042   1.496780   0.000000
    10  C    5.391718   5.176245   2.634945   1.365861   0.000000
    11  N    6.756897   6.426489   3.740732   2.260926   1.383561
    12  C    7.096015   6.398732   3.636233   2.210861   2.142725
    13  N    6.157049   5.216868   2.507133   1.380874   2.177785
    14  C    4.436943   5.616685   4.807699   5.015580   5.026637
    15  C    4.870215   6.420926   6.111059   6.454942   6.429322
    16  N    6.302087   7.731090   7.216440   7.407314   7.335482
    17  H    3.738150   3.839879   2.554354   3.031633   3.664361
    18  H    2.644089   3.096993   2.154668   2.685762   2.813923
    19  H    0.981292   3.016058   3.845094   4.804324   5.065845
    20  H    3.879085   2.505588   1.090953   2.134630   3.184959
    21  H    4.077678   2.858180   1.090059   2.134000   3.420429
    22  H    5.058517   5.240173   3.086547   2.206923   1.079701
    23  H    8.132428   7.337376   4.597125   3.238033   3.192971
    24  H    6.466846   5.246818   2.781003   2.130542   3.153450
    25  H    4.793159   5.620037   4.741150   4.989296   5.221845
    26  H    5.203715   6.326725   5.103447   4.989574   4.746118
    27  H    4.900744   6.685690   6.421988   6.712392   6.511674
    28  H    4.433402   6.014983   6.160586   6.745121   6.898986
    29  H    6.805581   8.388707   8.083148   8.330449   8.231196
    30  H    6.538039   7.758581   7.264493   7.509713   7.590701
                   11         12         13         14         15
    11  N    0.000000
    12  C    1.311447   0.000000
    13  N    2.209042   1.359341   0.000000
    14  C    5.890839   6.320611   5.883017   0.000000
    15  C    7.332730   7.826080   7.382476   1.521713   0.000000
    16  N    8.051822   8.497789   8.168798   2.435419   1.466377
    17  H    4.613990   4.636332   3.795384   2.565072   3.913194
    18  H    4.194438   4.726727   4.059316   4.004871   5.057027
    19  H    6.417815   6.897131   6.100238   3.735701   4.131786
    20  H    4.247135   4.108453   2.983285   5.779037   7.004922
    21  H    4.330197   3.945892   2.659861   4.890349   6.189767
    22  H    2.146916   3.164693   3.237076   4.790540   6.061415
    23  H    2.130605   1.076121   2.137996   7.160395   8.672023
    24  H    3.174010   2.120286   1.005903   6.350494   7.835385
    25  H    5.991333   6.199150   5.665667   1.092045   2.163521
    26  H    5.432168   5.979610   5.777703   1.093296   2.138277
    27  H    7.450715   8.104952   7.748804   2.135376   1.091078
    28  H    7.908659   8.313640   7.707106   2.153286   1.097397
    29  H    8.979586   9.471241   9.140490   3.322090   2.046901
    30  H    8.269034   8.564314   8.158286   2.718501   2.045892
                   16         17         18         19         20
    16  N    0.000000
    17  H    4.834659   0.000000
    18  H    6.347160   2.886728   0.000000
    19  H    5.588302   3.498636   2.332726   0.000000
    20  H    8.182774   3.580694   2.570980   4.183409   0.000000
    21  H    7.196090   2.371920   3.043097   4.299667   1.734578
    22  H    7.042679   3.890431   2.426728   4.601936   3.580954
    23  H    9.232171   5.500388   5.799263   7.948290   5.021387
    24  H    8.591072   4.055046   4.668600   6.531964   3.143986
    25  H    2.691754   2.229669   4.429820   4.268772   5.760121
    26  H    2.642634   3.053272   4.263115   4.430317   6.107326
    27  H    2.093569   4.503228   5.031977   4.044699   7.249151
    28  H    2.150356   4.020330   5.179518   3.836284   6.976409
    29  H    1.012996   5.744936   7.081978   6.086475   9.012692
    30  H    1.013627   4.762147   6.674612   5.935951   8.251640
                   21         22         23         24         25
    21  H    0.000000
    22  H    4.006638   0.000000
    23  H    4.770769   4.176013   0.000000
    24  H    2.569259   4.189151   2.538909   0.000000
    25  H    4.584682   5.207390   6.957674   5.984571   0.000000
    26  H    5.290989   4.472763   6.766134   6.354329   1.758802
    27  H    6.670691   5.973181   8.994420   8.303752   3.050519
    28  H    6.151969   6.566751   9.189096   8.066846   2.525866
    29  H    8.083837   7.867977  10.220150   9.570687   3.646795
    30  H    7.091591   7.432063   9.245132   8.471495   2.555408
                   26         27         28         29         30
    26  H    0.000000
    27  H    2.454145   0.000000
    28  H    3.048135   1.762393   0.000000
    29  H    3.547830   2.355211   2.474782   0.000000
    30  H    3.066506   2.933797   2.402223   1.616565   0.000000
 Symmetry turned off by external request.
 Stoichiometry    C9H14N4O3
 Framework group  C1[X(C9H14N4O3)]
 Deg. of freedom    84
 Full point group                 C1      NOp   1
 Rotational constants (GHZ):      0.6081288      0.3132744      0.2274180
 Standard basis: 6-311G(d,p) (5D, 7F)
   372 basis functions,   624 primitive gaussians,   388 cartesian basis functions
    60 alpha electrons       60 beta electrons
       nuclear repulsion energy      1109.6886056220 Hartrees.
 NAtoms=   30 NActive=   30 NUniq=   30 SFac= 1.00D+00 NAtFMM=   60 NAOKFM=F Big=F
 Integral buffers will be    131072 words long.
 Raffenetti 2 integral format.
 Two-electron integral symmetry is turned off.
 One-electron integrals computed using PRISM.
 NBasis=   372 RedAO= T EigKep=  4.92D-04  NBF=   372
 NBsUse=   372 1.00D-06 EigRej= -1.00D+00 NBFU=   372
 ExpMin= 1.03D-01 ExpMax= 8.59D+03 ExpMxC= 1.30D+03 IAcc=3 IRadAn=         5 AccDes= 0.00D+00
 Harris functional with IExCor=  402 and IRadAn=       5 diagonalized for initial guess.
 HarFok:  IExCor=  402 AccDes= 0.00D+00 IRadAn=         5 IDoV= 1 UseB2=F ITyADJ=14
 ICtDFT=  3500011 ScaDFX=  1.000000  1.000000  1.000000  1.000000
 FoFCou: FMM=F IPFlag=           0 FMFlag=      100000 FMFlg1=           0
         NFxFlg=           0 DoJE=T BraDBF=F KetDBF=T FulRan=T
         wScrn=  0.000000 ICntrl=     500 IOpCl=  0 I1Cent=   200000004 NGrid=           0
         NMat0=    1 NMatS0=      1 NMatT0=    0 NMatD0=    1 NMtDS0=    0 NMtDT0=    0
 Symmetry not used in FoFCou.
 Requested convergence on RMS density matrix=1.00D-08 within 128 cycles.
 Requested convergence on MAX density matrix=1.00D-06.
 Requested convergence on             energy=1.00D-06.
 No special actions if energy rises.
 Integral accuracy reduced to 1.0D-05 until final iterations.
 Initial convergence to 1.0D-05 achieved.  Increase integral accuracy.
 SCF Done:  E(RB3LYP) =  -796.308398757     A.U. after   14 cycles
            NFock= 14  Conv=0.59D-08     -V/T= 2.0033
 DoSCS=F DFT=T ScalE2(SS,OS)=  1.000000  1.000000
 Range of M.O.s used for correlation:     1   372
 NBasis=   372 NAE=    60 NBE=    60 NFC=     0 NFV=     0
 NROrb=    372 NOA=    60 NOB=    60 NVA=   312 NVB=   312
 Symmetrizing basis deriv contribution to polar:
 IMax=3 JMax=2 DiffMx= 0.00D+00
 G2DrvN: will do    31 centers at a time, making    1 passes.
 Calling FoFCou, ICntrl=  3107 FMM=F I1Cent=   0 AccDes= 0.00D+00.
 End of G2Drv F.D. properties file   721 does not exist.
 End of G2Drv F.D. properties file   722 does not exist.
 End of G2Drv F.D. properties file   788 does not exist.
          IDoAtm=111111111111111111111111111111
          Differentiating once with respect to nuclear coordinates.
          There are    93 degrees of freedom in the 1st order CPHF.  IDoFFX=6 NUNeed=     0.
     87 vectors produced by pass  0 Test12= 2.01D-14 1.08D-09 XBig12= 1.93D-01 8.21D-02.
 AX will form    87 AO Fock derivatives at one time.
     87 vectors produced by pass  1 Test12= 2.01D-14 1.08D-09 XBig12= 8.50D-03 2.21D-02.
     87 vectors produced by pass  2 Test12= 2.01D-14 1.08D-09 XBig12= 1.08D-04 1.89D-03.
     87 vectors produced by pass  3 Test12= 2.01D-14 1.08D-09 XBig12= 7.21D-07 9.20D-05.
     87 vectors produced by pass  4 Test12= 2.01D-14 1.08D-09 XBig12= 1.66D-09 3.99D-06.
     76 vectors produced by pass  5 Test12= 2.01D-14 1.08D-09 XBig12= 1.80D-12 1.14D-07.
     28 vectors produced by pass  6 Test12= 2.01D-14 1.08D-09 XBig12= 1.68D-15 4.08D-09.
 InvSVY:  IOpt=1 It=  1 EMax= 5.55D-16
 Solved reduced A of dimension   539 with    93 vectors.
 End of Minotr F.D. properties file   721 does not exist.
 End of Minotr F.D. properties file   722 does not exist.
 End of Minotr F.D. properties file   788 does not exist.

 **********************************************************************

            Population analysis using the SCF density.

 **********************************************************************

 Alpha  occ. eigenvalues --  -19.15178 -19.11715 -19.10635 -14.37736 -14.37152
 Alpha  occ. eigenvalues --  -14.29881 -14.29445 -10.30316 -10.30076 -10.24840
 Alpha  occ. eigenvalues --  -10.22890 -10.21611 -10.20807 -10.20699 -10.19706
 Alpha  occ. eigenvalues --  -10.18729  -1.10542  -1.07326  -1.02864  -1.02322
 Alpha  occ. eigenvalues --   -0.96236  -0.89796  -0.88186  -0.82690  -0.78251
 Alpha  occ. eigenvalues --   -0.74865  -0.68906  -0.65227  -0.62817  -0.61689
 Alpha  occ. eigenvalues --   -0.61296  -0.59979  -0.56937  -0.54104  -0.53367
 Alpha  occ. eigenvalues --   -0.52020  -0.50524  -0.47806  -0.46695  -0.46437
 Alpha  occ. eigenvalues --   -0.45188  -0.44631  -0.44057  -0.43470  -0.43011
 Alpha  occ. eigenvalues --   -0.42112  -0.41882  -0.40618  -0.39817  -0.37972
 Alpha  occ. eigenvalues --   -0.37705  -0.36770  -0.31964  -0.31205  -0.29326
 Alpha  occ. eigenvalues --   -0.29142  -0.27643  -0.27095  -0.25422  -0.23887
 Alpha virt. eigenvalues --   -0.01667   0.00094   0.01182   0.01251   0.02454
 Alpha virt. eigenvalues --    0.03210   0.04652   0.05341   0.06177   0.07740
 Alpha virt. eigenvalues --    0.08222   0.08339   0.09782   0.10568   0.12098
 Alpha virt. eigenvalues --    0.13052   0.13619   0.14554   0.17656   0.17921
 Alpha virt. eigenvalues --    0.18666   0.19591   0.19981   0.21211   0.22570
 Alpha virt. eigenvalues --    0.22805   0.24035   0.25221   0.27366   0.29666
 Alpha virt. eigenvalues --    0.30310   0.32129   0.33201   0.33879   0.34257
 Alpha virt. eigenvalues --    0.34984   0.36170   0.36755   0.37110   0.37423
 Alpha virt. eigenvalues --    0.38317   0.39176   0.40360   0.41465   0.41643
 Alpha virt. eigenvalues --    0.42170   0.43476   0.44651   0.46053   0.47943
 Alpha virt. eigenvalues --    0.48953   0.49959   0.50290   0.51235   0.51950
 Alpha virt. eigenvalues --    0.53070   0.53156   0.54462   0.54704   0.56447
 Alpha virt. eigenvalues --    0.56532   0.57202   0.57754   0.58108   0.58962
 Alpha virt. eigenvalues --    0.59591   0.60157   0.61227   0.61463   0.61887
 Alpha virt. eigenvalues --    0.63252   0.63926   0.64943   0.66497   0.66771
 Alpha virt. eigenvalues --    0.68171   0.68495   0.69083   0.70440   0.70971
 Alpha virt. eigenvalues --    0.72835   0.74125   0.75385   0.75589   0.76140
 Alpha virt. eigenvalues --    0.79437   0.79677   0.81616   0.81958   0.82799
 Alpha virt. eigenvalues --    0.86691   0.88502   0.90196   0.91515   0.94665
 Alpha virt. eigenvalues --    0.95539   0.95866   0.97118   0.98835   0.99467
 Alpha virt. eigenvalues --    1.01033   1.01650   1.05669   1.07035   1.07514
 Alpha virt. eigenvalues --    1.10525   1.10958   1.12662   1.13642   1.15339
 Alpha virt. eigenvalues --    1.17971   1.18486   1.20327   1.23413   1.23872
 Alpha virt. eigenvalues --    1.25426   1.26863   1.28244   1.29154   1.30793
 Alpha virt. eigenvalues --    1.33205   1.34326   1.36431   1.36715   1.39216
 Alpha virt. eigenvalues --    1.41661   1.42836   1.43202   1.44250   1.45441
 Alpha virt. eigenvalues --    1.46942   1.48400   1.48979   1.51008   1.52120
 Alpha virt. eigenvalues --    1.53733   1.53963   1.55536   1.56525   1.57064
 Alpha virt. eigenvalues --    1.58024   1.59571   1.61103   1.62850   1.63430
 Alpha virt. eigenvalues --    1.63980   1.64961   1.66421   1.67466   1.67716
 Alpha virt. eigenvalues --    1.68275   1.69168   1.70480   1.72284   1.72472
 Alpha virt. eigenvalues --    1.73166   1.75636   1.77014   1.77623   1.79743
 Alpha virt. eigenvalues --    1.80902   1.81424   1.82741   1.83984   1.87619
 Alpha virt. eigenvalues --    1.89292   1.89835   1.92228   1.93490   1.95149
 Alpha virt. eigenvalues --    1.95585   1.97462   1.99651   2.01951   2.03927
 Alpha virt. eigenvalues --    2.05071   2.06488   2.08978   2.10626   2.11853
 Alpha virt. eigenvalues --    2.12593   2.16089   2.17183   2.18192   2.21502
 Alpha virt. eigenvalues --    2.23001   2.23630   2.25201   2.25981   2.28863
 Alpha virt. eigenvalues --    2.33029   2.34268   2.36990   2.39167   2.41359
 Alpha virt. eigenvalues --    2.42461   2.43804   2.44425   2.46402   2.47267
 Alpha virt. eigenvalues --    2.47374   2.49911   2.52189   2.52744   2.53252
 Alpha virt. eigenvalues --    2.54418   2.55659   2.56721   2.57263   2.58133
 Alpha virt. eigenvalues --    2.60206   2.61395   2.62039   2.62639   2.64607
 Alpha virt. eigenvalues --    2.66058   2.68642   2.69873   2.70091   2.72225
 Alpha virt. eigenvalues --    2.73620   2.76082   2.77188   2.77727   2.78173
 Alpha virt. eigenvalues --    2.80592   2.82177   2.83506   2.84235   2.85781
 Alpha virt. eigenvalues --    2.88575   2.89690   2.90972   2.91409   2.92603
 Alpha virt. eigenvalues --    2.94268   2.96427   2.97884   2.99136   3.02860
 Alpha virt. eigenvalues --    3.04240   3.07780   3.10323   3.11633   3.12513
 Alpha virt. eigenvalues --    3.15147   3.20332   3.22024   3.24684   3.31815
 Alpha virt. eigenvalues --    3.32988   3.35157   3.37279   3.38516   3.45980
 Alpha virt. eigenvalues --    3.46205   3.51997   3.53151   3.55645   3.58233
 Alpha virt. eigenvalues --    3.63372   3.63863   3.65738   3.74928   3.76979
 Alpha virt. eigenvalues --    3.77754   3.78525   3.80713   3.80940   3.82033
 Alpha virt. eigenvalues --    3.84710   3.87266   3.91913   3.99299   4.02281
 Alpha virt. eigenvalues --    4.08338   4.19738   4.25415   4.32821   4.41725
 Alpha virt. eigenvalues --    4.71286   4.75017   4.80349   4.82681   4.84834
 Alpha virt. eigenvalues --    4.91710   4.92412   4.94468   4.96719   5.03802
 Alpha virt. eigenvalues --    5.10940   5.23714   5.29447   5.52988   5.66298
 Alpha virt. eigenvalues --    5.85967  23.69873  23.76558  23.78041  23.79031
 Alpha virt. eigenvalues --   23.83223  23.86738  23.88553  23.91815  24.14197
 Alpha virt. eigenvalues --   35.50853  35.56468  35.58785  35.67581  49.86476
 Alpha virt. eigenvalues --   49.99651  50.01208
          Condensed to atoms (all electrons):
               1          2          3          4          5          6
     1  O    7.983984   0.535550  -0.106724   0.021586  -0.010929  -0.021179
     2  C    0.535550   4.657474   0.359590  -0.076085   0.003200   0.007968
     3  N   -0.106724   0.359590   6.739579   0.198750  -0.024117   0.003346
     4  C    0.021586  -0.076085   0.198750   5.603398   0.186044  -0.114592
     5  C   -0.010929   0.003200  -0.024117   0.186044   4.441193   0.394950
     6  O   -0.021179   0.007968   0.003346  -0.114592   0.394950   7.784236
     7  O   -0.000010  -0.000181   0.001637  -0.129542   0.688939  -0.071613
     8  C    0.001576   0.006175  -0.038865   0.268696  -0.040652   0.006470
     9  C   -0.000098   0.000029  -0.004102  -0.057842   0.007956  -0.000117
    10  C   -0.000187   0.000885   0.003173  -0.004426   0.000362  -0.000014
    11  N    0.000000   0.000001   0.000014  -0.000223   0.000000   0.000000
    12  C    0.000000  -0.000010   0.000073  -0.000407   0.000006   0.000000
    13  N    0.000000  -0.000024  -0.000451   0.002413  -0.000082   0.000000
    14  C   -0.073881   0.244670  -0.063432   0.007267  -0.000735   0.000099
    15  C    0.005751  -0.033976   0.001561  -0.000395   0.000050  -0.000011
    16  N    0.000136   0.005239  -0.000013   0.000001   0.000000   0.000000
    17  H    0.003550  -0.021971   0.365444  -0.037992   0.001360  -0.000248
    18  H    0.015821  -0.012381  -0.044010   0.389241  -0.038129   0.004727
    19  H    0.061563  -0.010269  -0.007072   0.019275  -0.037610   0.311007
    20  H    0.000011   0.000083   0.004806  -0.037227   0.000495   0.000410
    21  H    0.000000  -0.000537  -0.005922  -0.033331  -0.006550   0.000220
    22  H    0.000024   0.000430   0.000088   0.000920   0.000157  -0.000021
    23  H    0.000000   0.000000   0.000001   0.000012   0.000000   0.000000
    24  H    0.000000   0.000000   0.000004   0.000012  -0.000016   0.000000
    25  H    0.003317  -0.055188   0.004266   0.000339   0.000083   0.000060
    26  H    0.000216  -0.007633  -0.002753  -0.000515   0.000016  -0.000003
    27  H    0.013580  -0.011290   0.001249  -0.000026   0.000012   0.000029
    28  H    0.000521   0.011350   0.000024  -0.000102   0.000025   0.000084
    29  H    0.000017  -0.000820   0.000008  -0.000001   0.000000   0.000000
    30  H    0.000011  -0.000797   0.000017   0.000001   0.000000   0.000000
               7          8          9         10         11         12
     1  O   -0.000010   0.001576  -0.000098  -0.000187   0.000000   0.000000
     2  C   -0.000181   0.006175   0.000029   0.000885   0.000001  -0.000010
     3  N    0.001637  -0.038865  -0.004102   0.003173   0.000014   0.000073
     4  C   -0.129542   0.268696  -0.057842  -0.004426  -0.000223  -0.000407
     5  C    0.688939  -0.040652   0.007956   0.000362   0.000000   0.000006
     6  O   -0.071613   0.006470  -0.000117  -0.000014   0.000000   0.000000
     7  O    7.784657   0.023360   0.001847   0.000017   0.000000   0.000000
     8  C    0.023360   5.016872   0.222335  -0.049273   0.009081   0.006046
     9  C    0.001847   0.222335   5.198366   0.562082  -0.092076  -0.124852
    10  C    0.000017  -0.049273   0.562082   4.851839   0.500254  -0.177815
    11  N    0.000000   0.009081  -0.092076   0.500254   6.422244   0.585858
    12  C    0.000000   0.006046  -0.124852  -0.177815   0.585858   4.746288
    13  N    0.000000  -0.037628   0.381378  -0.071075  -0.088251   0.414553
    14  C    0.000000   0.000090  -0.000143   0.000026   0.000000   0.000001
    15  C    0.000000  -0.000008   0.000002   0.000002   0.000000   0.000000
    16  N    0.000000   0.000000   0.000000   0.000000   0.000000   0.000000
    17  H   -0.000227  -0.006533   0.002932   0.000829  -0.000070  -0.000102
    18  H    0.002229  -0.020277  -0.008007  -0.001194  -0.000193  -0.000047
    19  H    0.002375  -0.001209   0.000037   0.000014   0.000000   0.000000
    20  H    0.011046   0.404221  -0.029065  -0.000479  -0.000048   0.000189
    21  H    0.006020   0.407574  -0.055517   0.002770  -0.000256   0.000188
    22  H    0.000006  -0.001359  -0.051845   0.425539  -0.023210   0.008133
    23  H    0.000000  -0.000384   0.004349   0.006456  -0.022651   0.414252
    24  H   -0.000011   0.004197  -0.037906   0.007127   0.007029  -0.023059
    25  H    0.000001  -0.000070  -0.000030  -0.000008   0.000001  -0.000001
    26  H    0.000000  -0.000020   0.000112   0.000190   0.000003  -0.000007
    27  H    0.000000  -0.000003   0.000000  -0.000001   0.000000   0.000000
    28  H    0.000000  -0.000001   0.000000   0.000000   0.000000   0.000000
    29  H    0.000000   0.000000   0.000000   0.000000   0.000000   0.000000
    30  H    0.000000   0.000000   0.000000   0.000000   0.000000   0.000000
              13         14         15         16         17         18
     1  O    0.000000  -0.073881   0.005751   0.000136   0.003550   0.015821
     2  C   -0.000024   0.244670  -0.033976   0.005239  -0.021971  -0.012381
     3  N   -0.000451  -0.063432   0.001561  -0.000013   0.365444  -0.044010
     4  C    0.002413   0.007267  -0.000395   0.000001  -0.037992   0.389241
     5  C   -0.000082  -0.000735   0.000050   0.000000   0.001360  -0.038129
     6  O    0.000000   0.000099  -0.000011   0.000000  -0.000248   0.004727
     7  O    0.000000   0.000000   0.000000   0.000000  -0.000227   0.002229
     8  C   -0.037628   0.000090  -0.000008   0.000000  -0.006533  -0.020277
     9  C    0.381378  -0.000143   0.000002   0.000000   0.002932  -0.008007
    10  C   -0.071075   0.000026   0.000002   0.000000   0.000829  -0.001194
    11  N   -0.088251   0.000000   0.000000   0.000000  -0.000070  -0.000193
    12  C    0.414553   0.000001   0.000000   0.000000  -0.000102  -0.000047
    13  N    6.451514  -0.000002   0.000000   0.000000   0.000165   0.000444
    14  C   -0.000002   5.189893   0.304948  -0.058073  -0.000835   0.001389
    15  C    0.000000   0.304948   4.835373   0.334461   0.000105  -0.000261
    16  N    0.000000  -0.058073   0.334461   6.505299  -0.000041   0.000000
    17  H    0.000165  -0.000835   0.000105  -0.000041   0.444014   0.004246
    18  H    0.000444   0.001389  -0.000261   0.000000   0.004246   0.521667
    19  H   -0.000002   0.000949   0.000404   0.000003  -0.000150  -0.000873
    20  H   -0.001467   0.000026   0.000000   0.000000   0.000375  -0.004673
    21  H   -0.001590  -0.000074  -0.000005   0.000000   0.003802   0.008574
    22  H    0.003797   0.000014   0.000001   0.000000  -0.000009   0.001872
    23  H   -0.037441   0.000000   0.000000   0.000000  -0.000001  -0.000001
    24  H    0.351707   0.000000   0.000000   0.000000   0.000000   0.000001
    25  H   -0.000001   0.405394  -0.041443  -0.002433   0.001631  -0.000047
    26  H   -0.000002   0.364125  -0.026594   0.012401   0.000273   0.000092
    27  H    0.000000  -0.022622   0.395983  -0.028854  -0.000105  -0.000034
    28  H    0.000000  -0.069070   0.415311  -0.043427   0.000044   0.000000
    29  H    0.000000   0.010085  -0.041720   0.369269   0.000004   0.000000
    30  H    0.000000  -0.005980  -0.045064   0.363312  -0.000004   0.000000
              19         20         21         22         23         24
     1  O    0.061563   0.000011   0.000000   0.000024   0.000000   0.000000
     2  C   -0.010269   0.000083  -0.000537   0.000430   0.000000   0.000000
     3  N   -0.007072   0.004806  -0.005922   0.000088   0.000001   0.000004
     4  C    0.019275  -0.037227  -0.033331   0.000920   0.000012   0.000012
     5  C   -0.037610   0.000495  -0.006550   0.000157   0.000000  -0.000016
     6  O    0.311007   0.000410   0.000220  -0.000021   0.000000   0.000000
     7  O    0.002375   0.011046   0.006020   0.000006   0.000000  -0.000011
     8  C   -0.001209   0.404221   0.407574  -0.001359  -0.000384   0.004197
     9  C    0.000037  -0.029065  -0.055517  -0.051845   0.004349  -0.037906
    10  C    0.000014  -0.000479   0.002770   0.425539   0.006456   0.007127
    11  N    0.000000  -0.000048  -0.000256  -0.023210  -0.022651   0.007029
    12  C    0.000000   0.000189   0.000188   0.008133   0.414252  -0.023059
    13  N   -0.000002  -0.001467  -0.001590   0.003797  -0.037441   0.351707
    14  C    0.000949   0.000026  -0.000074   0.000014   0.000000   0.000000
    15  C    0.000404   0.000000  -0.000005   0.000001   0.000000   0.000000
    16  N    0.000003   0.000000   0.000000   0.000000   0.000000   0.000000
    17  H   -0.000150   0.000375   0.003802  -0.000009  -0.000001   0.000000
    18  H   -0.000873  -0.004673   0.008574   0.001872  -0.000001   0.000001
    19  H    0.400942  -0.000124  -0.000139  -0.000035   0.000000   0.000000
    20  H   -0.000124   0.511958  -0.026088   0.000167   0.000010   0.000256
    21  H   -0.000139  -0.026088   0.579267  -0.000125  -0.000018   0.002376
    22  H   -0.000035   0.000167  -0.000125   0.533725  -0.000348  -0.000319
    23  H    0.000000   0.000010  -0.000018  -0.000348   0.527219  -0.002110
    24  H    0.000000   0.000256   0.002376  -0.000319  -0.002110   0.463766
    25  H   -0.000435  -0.000001   0.000002   0.000000   0.000000   0.000000
    26  H    0.000024  -0.000001   0.000006   0.000022   0.000000   0.000000
    27  H   -0.000114   0.000000   0.000000   0.000000   0.000000   0.000000
    28  H    0.000137   0.000000   0.000001   0.000000   0.000000   0.000000
    29  H   -0.000002   0.000000   0.000000   0.000000   0.000000   0.000000
    30  H    0.000000   0.000000   0.000000   0.000000   0.000000   0.000000
              25         26         27         28         29         30
     1  O    0.003317   0.000216   0.013580   0.000521   0.000017   0.000011
     2  C   -0.055188  -0.007633  -0.011290   0.011350  -0.000820  -0.000797
     3  N    0.004266  -0.002753   0.001249   0.000024   0.000008   0.000017
     4  C    0.000339  -0.000515  -0.000026  -0.000102  -0.000001   0.000001
     5  C    0.000083   0.000016   0.000012   0.000025   0.000000   0.000000
     6  O    0.000060  -0.000003   0.000029   0.000084   0.000000   0.000000
     7  O    0.000001   0.000000   0.000000   0.000000   0.000000   0.000000
     8  C   -0.000070  -0.000020  -0.000003  -0.000001   0.000000   0.000000
     9  C   -0.000030   0.000112   0.000000   0.000000   0.000000   0.000000
    10  C   -0.000008   0.000190  -0.000001   0.000000   0.000000   0.000000
    11  N    0.000001   0.000003   0.000000   0.000000   0.000000   0.000000
    12  C   -0.000001  -0.000007   0.000000   0.000000   0.000000   0.000000
    13  N   -0.000001  -0.000002   0.000000   0.000000   0.000000   0.000000
    14  C    0.405394   0.364125  -0.022622  -0.069070   0.010085  -0.005980
    15  C   -0.041443  -0.026594   0.395983   0.415311  -0.041720  -0.045064
    16  N   -0.002433   0.012401  -0.028854  -0.043427   0.369269   0.363312
    17  H    0.001631   0.000273  -0.000105   0.000044   0.000004  -0.000004
    18  H   -0.000047   0.000092  -0.000034   0.000000   0.000000   0.000000
    19  H   -0.000435   0.000024  -0.000114   0.000137  -0.000002   0.000000
    20  H   -0.000001  -0.000001   0.000000   0.000000   0.000000   0.000000
    21  H    0.000002   0.000006   0.000000   0.000001   0.000000   0.000000
    22  H    0.000000   0.000022   0.000000   0.000000   0.000000   0.000000
    23  H    0.000000   0.000000   0.000000   0.000000   0.000000   0.000000
    24  H    0.000000   0.000000   0.000000   0.000000   0.000000   0.000000
    25  H    0.601160  -0.027846   0.008988  -0.008466  -0.000433   0.006020
    26  H   -0.027846   0.527665  -0.009510   0.011211  -0.000127  -0.002347
    27  H    0.008988  -0.009510   0.554121  -0.039619  -0.008763   0.009414
    28  H   -0.008466   0.011211  -0.039619   0.631938  -0.002011  -0.009391
    29  H   -0.000433  -0.000127  -0.008763  -0.002011   0.519367  -0.039446
    30  H    0.006020  -0.002347   0.009414  -0.009391  -0.039446   0.541594
 Mulliken charges:
               1
     1  O   -0.434206
     2  C    0.398517
     3  N   -0.386171
     4  C   -0.205247
     5  C    0.433972
     6  O   -0.305808
     7  O   -0.320549
     8  C   -0.180414
     9  C    0.080172
    10  C   -0.057095
    11  N   -0.297509
    12  C    0.150711
    13  N   -0.367956
    14  C   -0.234131
    15  C   -0.104476
    16  N   -0.457278
    17  H    0.239515
    18  H    0.179826
    19  H    0.261302
    20  H    0.165119
    21  H    0.119353
    22  H    0.102376
    23  H    0.110656
    24  H    0.226944
    25  H    0.105141
    26  H    0.161000
    27  H    0.137563
    28  H    0.101439
    29  H    0.194574
    30  H    0.182660
 Sum of Mulliken charges =   0.00000
 Mulliken charges with hydrogens summed into heavy atoms:
               1
     1  O   -0.434206
     2  C    0.398517
     3  N   -0.146656
     4  C   -0.025421
     5  C    0.433972
     6  O   -0.044506
     7  O   -0.320549
     8  C    0.104057
     9  C    0.080172
    10  C    0.045280
    11  N   -0.297509
    12  C    0.261367
    13  N   -0.141011
    14  C    0.032010
    15  C    0.134526
    16  N   -0.080043
 APT charges:
               1
     1  O   -0.108626
     2  C   -0.000324
     3  N   -0.369592
     4  C   -0.419215
     5  C   -0.872954
     6  O    0.151699
     7  O    0.667054
     8  C   -0.968762
     9  C   -0.098337
    10  C   -0.444320
    11  N    0.052826
    12  C   -0.652322
    13  N   -0.682717
    14  C   -0.473087
    15  C   -0.634571
    16  N   -1.548167
    17  H    0.393513
    18  H    0.333531
    19  H    0.104877
    20  H    0.642922
    21  H    0.285066
    22  H    0.158216
    23  H    1.012995
    24  H    0.709064
    25  H    0.234409
    26  H    0.329726
    27  H    0.387471
    28  H    0.330790
    29  H    1.055164
    30  H    0.423672
 Sum of APT charges =   0.00000
 APT charges with hydrogens summed into heavy atoms:
               1
     1  O   -0.108626
     2  C   -0.000324
     3  N    0.023920
     4  C   -0.085683
     5  C   -0.872954
     6  O    0.256576
     7  O    0.667054
     8  C   -0.040774
     9  C   -0.098337
    10  C   -0.286103
    11  N    0.052826
    12  C    0.360672
    13  N    0.026346
    14  C    0.091048
    15  C    0.083689
    16  N   -0.069331
 Electronic spatial extent (au):  <R**2>=           4810.3568
 Charge=              0.0000 electrons
 Dipole moment (field-independent basis, Debye):
    X=              3.0743    Y=              3.8106    Z=             -2.5949  Tot=              5.5412
 Quadrupole moment (field-independent basis, Debye-Ang):
   XX=            -89.8268   YY=           -113.7965   ZZ=            -91.2564
   XY=              4.2127   XZ=             10.0599   YZ=            -19.0743
 Traceless Quadrupole moment (field-independent basis, Debye-Ang):
   XX=              8.4664   YY=            -15.5033   ZZ=              7.0368
   XY=              4.2127   XZ=             10.0599   YZ=            -19.0743
 Octapole moment (field-independent basis, Debye-Ang**2):
  XXX=            197.5659  YYY=            110.2930  ZZZ=             15.0043  XYY=             24.3756
  XXY=             -8.2410  XXZ=             14.0664  XZZ=             14.2832  YZZ=             57.4169
  YYZ=             12.8017  XYZ=             16.1337
 Hexadecapole moment (field-independent basis, Debye-Ang**3):
 XXXX=          -2757.8625 YYYY=          -2017.1328 ZZZZ=          -1469.5782 XXXY=            444.3648
 XXXZ=           -572.7517 YYYX=            317.8063 YYYZ=           -233.5292 ZZZX=           -668.3249
 ZZZY=           -204.3198 XXYY=           -809.7341 XXZZ=           -601.7174 YYZZ=           -614.8523
 XXYZ=           -114.0578 YYXZ=           -216.7363 ZZXY=              4.3072
 N-N= 1.109688605622D+03 E-N=-4.080508557082D+03  KE= 7.936963368766D+02
  Exact polarizability:   0.000   0.000   0.000   0.000   0.000   0.000
 Approx polarizability: 155.233 -11.874 188.995   1.354  -7.481 221.828
 Calling FoFJK, ICntrl=    100147 FMM=F ISym2X=0 I1Cent= 0 IOpClX= 0 NMat=1 NMatS=1 NMatT=0.
 -------------------------------------------------------------------
 Center     Atomic                   Forces (Hartrees/Bohr)
 Number     Number              X              Y              Z
 -------------------------------------------------------------------
      1        8           0.001803140   -0.004098426    0.002203626
      2        6          -0.001595873    0.003079284    0.000696492
      3        7          -0.003472828   -0.003203584   -0.000545894
      4        6          -0.003100793    0.001934781   -0.004887038
      5        6           0.003236836   -0.005253387    0.001281809
      6        8           0.000153091   -0.001362408   -0.000889358
      7        8          -0.000779364    0.000388149   -0.002477507
      8        6          -0.005402195    0.001633385    0.001780332
      9        6           0.006072088   -0.002939437   -0.005248392
     10        6          -0.003822286    0.006830458    0.003920593
     11        7          -0.000110071   -0.001538449   -0.000203711
     12        6          -0.003606148    0.001913680    0.005835944
     13        7           0.002702668   -0.002214509   -0.001136429
     14        6          -0.001097041   -0.000066052    0.000679390
     15        6           0.004154248    0.001784570    0.002190135
     16        7          -0.001292192    0.000128888    0.001635932
     17        1           0.000998453    0.002424473   -0.001497066
     18        1          -0.000414476   -0.000554534    0.001957203
     19        1          -0.000214601    0.000249648    0.003361101
     20        1           0.000839951   -0.002794787   -0.000127169
     21        1           0.002767712    0.000175957   -0.003545955
     22        1           0.000447854    0.000317496   -0.000536083
     23        1          -0.000904446    0.002251671   -0.000538178
     24        1           0.000002296    0.000161427   -0.001943288
     25        1           0.001384851    0.001816319   -0.001256179
     26        1          -0.000480825    0.001320064    0.000275910
     27        1           0.000325186   -0.000305955   -0.000075829
     28        1          -0.000376076   -0.002766164   -0.001059959
     29        1           0.000635023   -0.000524532    0.001995121
     30        1           0.001145818    0.001211976   -0.001845552
 -------------------------------------------------------------------
 Cartesian Forces:  Max     0.006830458 RMS     0.002408796
 FormGI is forming the generalized inverse of G from B-inverse, IUseBI=4.
 GSVD:  received Info=                   1 from GESDD.

 GradGradGradGradGradGradGradGradGradGradGradGradGradGradGradGradGradGrad
 Berny optimization.
 Internal  Forces:  Max     0.007541166 RMS     0.001924464
 Search for a local minimum.
 Step number   1 out of a maximum of  160
 All quantities printed in internal units (Hartrees-Bohrs-Radians)
 Mixed Optimization -- RFO/linear search
 Second derivative matrix not updated -- analytic derivatives used.
 ITU=  0
     Eigenvalues ---    0.00002   0.00073   0.00207   0.00232   0.00271
     Eigenvalues ---    0.00296   0.00466   0.00518   0.00920   0.01105
     Eigenvalues ---    0.01999   0.02087   0.02510   0.03209   0.03338
     Eigenvalues ---    0.03715   0.03922   0.04061   0.04293   0.04324
     Eigenvalues ---    0.04580   0.04887   0.05144   0.05189   0.05307
     Eigenvalues ---    0.06172   0.06505   0.07114   0.07583   0.08227
     Eigenvalues ---    0.08231   0.10223   0.10752   0.10808   0.11604
     Eigenvalues ---    0.11916   0.12037   0.13507   0.15049   0.15945
     Eigenvalues ---    0.16775   0.17644   0.18697   0.19249   0.19843
     Eigenvalues ---    0.20914   0.21190   0.22234   0.23060   0.23140
     Eigenvalues ---    0.24052   0.24476   0.26750   0.28901   0.29976
     Eigenvalues ---    0.30995   0.31406   0.32323   0.33170   0.33394
     Eigenvalues ---    0.33540   0.33821   0.33929   0.34105   0.34201
     Eigenvalues ---    0.34784   0.36308   0.36890   0.37465   0.37872
     Eigenvalues ---    0.40782   0.41112   0.44543   0.44898   0.45298
     Eigenvalues ---    0.45924   0.47568   0.48092   0.48146   0.49800
     Eigenvalues ---    0.57732   0.62158   0.79427   0.89548
 RFO step:  Lambda=-3.51690106D-03 EMin= 1.59150924D-05
 Linear search not attempted -- first point.
 Iteration  1 RMS(Cart)=  0.13304803 RMS(Int)=  0.00667047
 Iteration  2 RMS(Cart)=  0.01108498 RMS(Int)=  0.00008453
 Iteration  3 RMS(Cart)=  0.00007966 RMS(Int)=  0.00007714
 Iteration  4 RMS(Cart)=  0.00000001 RMS(Int)=  0.00007714
 Variable       Old X    -DE/DX   Delta X   Delta X   Delta X     New X
                                 (Linear)    (Quad)   (Total)
    R1        2.32689   0.00376   0.00000   0.00641   0.00641   2.33331
    R2        2.55249   0.00657   0.00000   0.00726   0.00726   2.55976
    R3        2.84691   0.00547   0.00000   0.01448   0.01448   2.86138
    R4        2.76559   0.00317   0.00000   0.00990   0.00990   2.77549
    R5        1.89852   0.00300   0.00000   0.00699   0.00699   1.90551
    R6        2.90505   0.00575   0.00000   0.02457   0.02457   2.92962
    R7        2.88017   0.00356   0.00000   0.00725   0.00725   2.88742
    R8        2.06327   0.00186   0.00000   0.00825   0.00825   2.07153
    R9        2.52649   0.00233   0.00000  -0.00667  -0.00667   2.51982
   R10        2.26968   0.00227   0.00000   0.00348   0.00348   2.27316
   R11        1.85437   0.00300   0.00000   0.01330   0.01330   1.86767
   R12        2.82850   0.00346   0.00000   0.00291   0.00291   2.83141
   R13        2.06160   0.00136   0.00000   0.00464   0.00464   2.06625
   R14        2.05991   0.00436   0.00000   0.01261   0.01261   2.07252
   R15        2.58110   0.00692   0.00000   0.01575   0.01575   2.59685
   R16        2.60947   0.00218   0.00000   0.00479   0.00484   2.61431
   R17        2.61455  -0.00206   0.00000  -0.01144  -0.01148   2.60307
   R18        2.04034  -0.00063   0.00000  -0.00105  -0.00105   2.03929
   R19        2.47828  -0.00178   0.00000  -0.00311  -0.00314   2.47514
   R20        2.56878   0.00754   0.00000   0.01560   0.01563   2.58441
   R21        2.03357   0.00244   0.00000   0.00620   0.00620   2.03978
   R22        1.90088   0.00187   0.00000   0.00414   0.00414   1.90502
   R23        2.87562   0.00510   0.00000   0.01658   0.01658   2.89220
   R24        2.06367   0.00236   0.00000   0.00683   0.00683   2.07050
   R25        2.06603   0.00131   0.00000   0.00412   0.00412   2.07015
   R26        2.77105   0.00142   0.00000  -0.00189  -0.00189   2.76917
   R27        2.06184  -0.00008   0.00000   0.00011   0.00011   2.06195
   R28        2.07378   0.00240   0.00000   0.00759   0.00759   2.08137
   R29        1.91429   0.00193   0.00000   0.00325   0.00325   1.91754
   R30        1.91548   0.00244   0.00000   0.00457   0.00457   1.92005
    A1        2.10901   0.00048   0.00000   0.00470   0.00470   2.11371
    A2        2.14302  -0.00270   0.00000  -0.01348  -0.01349   2.12953
    A3        2.03098   0.00224   0.00000   0.00887   0.00886   2.03985
    A4        2.12095   0.00439   0.00000   0.01993   0.01954   2.14049
    A5        2.09200  -0.00217   0.00000  -0.01552  -0.01591   2.07609
    A6        2.06136  -0.00220   0.00000  -0.01108  -0.01148   2.04988
    A7        1.93840   0.00035   0.00000   0.00765   0.00766   1.94605
    A8        1.93120  -0.00119   0.00000  -0.00153  -0.00153   1.92966
    A9        1.87267  -0.00029   0.00000  -0.00525  -0.00524   1.86743
   A10        1.93336   0.00161   0.00000  -0.00175  -0.00175   1.93160
   A11        1.86974  -0.00098   0.00000  -0.00426  -0.00425   1.86550
   A12        1.91642   0.00046   0.00000   0.00501   0.00500   1.92142
   A13        1.99609   0.00116   0.00000   0.00803   0.00802   2.00411
   A14        2.15758  -0.00207   0.00000  -0.01772  -0.01773   2.13985
   A15        2.12950   0.00091   0.00000   0.00964   0.00963   2.13913
   A16        1.91934   0.00222   0.00000   0.00793   0.00793   1.92727
   A17        1.97644   0.00078   0.00000   0.00676   0.00680   1.98324
   A18        1.89597  -0.00276   0.00000  -0.02476  -0.02484   1.87113
   A19        1.90135   0.00033   0.00000  -0.00501  -0.00510   1.89625
   A20        1.92284   0.00242   0.00000   0.02160   0.02165   1.94450
   A21        1.92290  -0.00075   0.00000   0.00600   0.00599   1.92889
   A22        1.83903  -0.00012   0.00000  -0.00613  -0.00640   1.83263
   A23        2.33762   0.00026   0.00000  -0.00202  -0.00209   2.33553
   A24        2.11454   0.00336   0.00000   0.01223   0.01216   2.12670
   A25        1.83096  -0.00362   0.00000  -0.01036  -0.01032   1.82065
   A26        1.93095   0.00305   0.00000   0.00912   0.00912   1.94007
   A27        2.24409  -0.00176   0.00000  -0.01102  -0.01102   2.23307
   A28        2.10814  -0.00129   0.00000   0.00190   0.00190   2.11004
   A29        1.83770   0.00023   0.00000   0.00100   0.00096   1.83866
   A30        1.94768   0.00030   0.00000  -0.00059  -0.00057   1.94712
   A31        2.20021  -0.00065   0.00000   0.00008   0.00006   2.20027
   A32        2.13529   0.00034   0.00000   0.00052   0.00051   2.13580
   A33        1.87746   0.00003   0.00000   0.00087   0.00080   1.87826
   A34        2.19363   0.00024   0.00000   0.00361   0.00340   2.19703
   A35        2.21207  -0.00027   0.00000  -0.00427  -0.00447   2.20760
   A36        1.95848   0.00089   0.00000   0.00440   0.00437   1.96285
   A37        1.91696   0.00064   0.00000   0.01076   0.01073   1.92769
   A38        1.88808  -0.00056   0.00000  -0.00570  -0.00569   1.88239
   A39        1.93139  -0.00072   0.00000   0.00001  -0.00006   1.93133
   A40        1.89544  -0.00008   0.00000  -0.00221  -0.00221   1.89323
   A41        1.87074  -0.00024   0.00000  -0.00819  -0.00817   1.86256
   A42        1.90536   0.00149   0.00000   0.00796   0.00791   1.91327
   A43        1.89372  -0.00032   0.00000  -0.00678  -0.00680   1.88693
   A44        1.91173  -0.00103   0.00000  -0.00494  -0.00510   1.90663
   A45        1.90259  -0.00102   0.00000  -0.00614  -0.00610   1.89649
   A46        1.97626   0.00102   0.00000   0.01767   0.01766   1.99392
   A47        1.87238  -0.00023   0.00000  -0.00904  -0.00906   1.86331
   A48        1.91889   0.00003   0.00000   0.00188   0.00184   1.92073
   A49        1.91673   0.00058   0.00000   0.00981   0.00978   1.92650
   A50        1.84682   0.00027   0.00000   0.00889   0.00881   1.85564
    D1        0.13135   0.00208   0.00000   0.05649   0.05645   0.18780
    D2        3.12748   0.00208   0.00000   0.00117   0.00125   3.12872
    D3       -2.99099   0.00107   0.00000   0.05178   0.05170  -2.93929
    D4        0.00514   0.00107   0.00000  -0.00354  -0.00350   0.00164
    D5        0.65326  -0.00063   0.00000  -0.01758  -0.01760   0.63566
    D6        2.80934  -0.00045   0.00000  -0.00664  -0.00660   2.80274
    D7       -1.43736  -0.00071   0.00000  -0.01377  -0.01377  -1.45113
    D8       -2.50800   0.00045   0.00000  -0.01254  -0.01258  -2.52058
    D9       -0.35193   0.00062   0.00000  -0.00160  -0.00158  -0.35350
   D10        1.68456   0.00037   0.00000  -0.00873  -0.00875   1.67581
   D11       -1.42733   0.00195   0.00000   0.05756   0.05755  -1.36978
   D12        2.70115   0.00049   0.00000   0.05549   0.05548   2.75663
   D13        0.61075   0.00079   0.00000   0.05351   0.05349   0.66424
   D14        1.85726   0.00196   0.00000   0.11236   0.11238   1.96964
   D15       -0.29744   0.00050   0.00000   0.11029   0.11031  -0.18713
   D16       -2.38785   0.00080   0.00000   0.10831   0.10832  -2.27952
   D17        1.04825   0.00073   0.00000   0.01100   0.01098   1.05923
   D18       -2.09900   0.00024   0.00000   0.00175   0.00177  -2.09723
   D19       -3.08148   0.00060   0.00000   0.01321   0.01319  -3.06829
   D20        0.05447   0.00011   0.00000   0.00396   0.00398   0.05844
   D21       -0.99163   0.00148   0.00000   0.01567   0.01566  -0.97597
   D22        2.14432   0.00098   0.00000   0.00642   0.00644   2.15076
   D23       -1.23396   0.00180   0.00000   0.11297   0.11295  -1.12101
   D24        2.90702   0.00019   0.00000   0.09872   0.09881   3.00583
   D25        0.91225   0.00161   0.00000   0.12166   0.12160   1.03384
   D26        2.89162   0.00106   0.00000   0.10548   0.10546   2.99708
   D27        0.74942  -0.00055   0.00000   0.09123   0.09132   0.84073
   D28       -1.24535   0.00087   0.00000   0.11418   0.11411  -1.13125
   D29        0.82997   0.00100   0.00000   0.10868   0.10866   0.93863
   D30       -1.31223  -0.00061   0.00000   0.09442   0.09451  -1.21772
   D31        2.97618   0.00081   0.00000   0.11737   0.11730   3.09348
   D32        0.01010   0.00060   0.00000  -0.04013  -0.04019  -0.03009
   D33       -3.12594   0.00109   0.00000  -0.03095  -0.03088   3.12636
   D34       -0.47110   0.00091   0.00000   0.10057   0.10052  -0.37058
   D35        2.68427   0.00111   0.00000   0.11790   0.11793   2.80220
   D36        1.65614  -0.00034   0.00000   0.08913   0.08909   1.74523
   D37       -1.47168  -0.00014   0.00000   0.10646   0.10650  -1.36518
   D38       -2.60535   0.00049   0.00000   0.09785   0.09783  -2.50753
   D39        0.55002   0.00069   0.00000   0.11518   0.11524   0.66525
   D40       -3.13537   0.00069   0.00000   0.02411   0.02408  -3.11130
   D41        0.00835   0.00034   0.00000   0.02429   0.02423   0.03258
   D42       -0.00598   0.00055   0.00000   0.00888   0.00894   0.00296
   D43        3.13774   0.00020   0.00000   0.00906   0.00909  -3.13635
   D44        3.13558  -0.00065   0.00000  -0.02286  -0.02288   3.11270
   D45       -0.01287  -0.00005   0.00000   0.00866   0.00874  -0.00413
   D46        0.00425  -0.00052   0.00000  -0.00995  -0.00993  -0.00567
   D47        3.13898   0.00008   0.00000   0.02157   0.02170  -3.12250
   D48        0.00540  -0.00037   0.00000  -0.00432  -0.00438   0.00102
   D49       -3.13813  -0.00006   0.00000  -0.00451  -0.00454   3.14052
   D50       -0.00257   0.00004   0.00000  -0.00223  -0.00222  -0.00479
   D51        3.13619   0.00008   0.00000   0.00295   0.00302   3.13921
   D52       -0.00106   0.00029   0.00000   0.00782   0.00787   0.00680
   D53       -3.13570  -0.00032   0.00000  -0.02417  -0.02404   3.12344
   D54       -3.13995   0.00026   0.00000   0.00287   0.00286  -3.13710
   D55        0.00859  -0.00035   0.00000  -0.02913  -0.02905  -0.02046
   D56       -3.09075   0.00126   0.00000   0.04226   0.04226  -3.04849
   D57       -1.01931   0.00070   0.00000   0.03549   0.03547  -0.98384
   D58        1.01946  -0.00033   0.00000   0.01809   0.01812   1.03758
   D59        1.04446   0.00031   0.00000   0.02517   0.02517   1.06963
   D60        3.11590  -0.00025   0.00000   0.01840   0.01838   3.13428
   D61       -1.12852  -0.00128   0.00000   0.00099   0.00103  -1.12749
   D62       -1.00442   0.00106   0.00000   0.03642   0.03641  -0.96801
   D63        1.06702   0.00050   0.00000   0.02965   0.02963   1.09664
   D64        3.10579  -0.00053   0.00000   0.01225   0.01228   3.11806
   D65        3.02936  -0.00070   0.00000  -0.04334  -0.04343   2.98593
   D66       -1.22858  -0.00002   0.00000  -0.02580  -0.02584  -1.25442
   D67        0.96346  -0.00058   0.00000  -0.03620  -0.03623   0.92723
   D68        2.98871   0.00010   0.00000  -0.01865  -0.01865   2.97006
   D69       -1.11917  -0.00024   0.00000  -0.03183  -0.03178  -1.15095
   D70        0.90608   0.00044   0.00000  -0.01429  -0.01419   0.89188
         Item               Value     Threshold  Converged?
 Maximum Force            0.007541     0.000450     NO 
 RMS     Force            0.001924     0.000300     NO 
 Maximum Displacement     0.676211     0.001800     NO 
 RMS     Displacement     0.136285     0.001200     NO 
 Predicted change in Energy=-2.196965D-03
 GradGradGradGradGradGradGradGradGradGradGradGradGradGradGradGradGradGrad

                          Input orientation:                          
 ---------------------------------------------------------------------
 Center     Atomic      Atomic             Coordinates (Angstroms)
 Number     Number       Type             X           Y           Z
 ---------------------------------------------------------------------
      1          8           0        0.617220   -1.600984    1.656994
      2          6           0        0.888678   -0.612839    0.968196
      3          7           0        0.328210   -0.435037   -0.252094
      4          6           0       -0.789579   -1.254837   -0.737506
      5          6           0       -0.304092   -2.641099   -1.233465
      6          8           0        0.296277   -3.388540   -0.306680
      7          8           0       -0.470262   -3.020058   -2.362960
      8          6           0       -1.551626   -0.523470   -1.841604
      9          6           0       -2.219080    0.735392   -1.378211
     10          6           0       -2.615895    1.204991   -0.149219
     11          7           0       -3.231238    2.432321   -0.260933
     12          6           0       -3.214523    2.713348   -1.540108
     13          7           0       -2.609080    1.723689   -2.264243
     14          6           0        1.841008    0.462475    1.447266
     15          6           0        3.004301   -0.107454    2.262323
     16          7           0        3.812894    0.990115    2.799777
     17          1           0        0.564475    0.389493   -0.782283
     18          1           0       -1.449438   -1.436236    0.118849
     19          1           0        0.349552   -2.898719    0.550075
     20          1           0       -2.275745   -1.229520   -2.257167
     21          1           0       -0.858380   -0.310565   -2.664343
     22          1           0       -2.493266    0.732138    0.813036
     23          1           0       -3.615488    3.603529   -2.000454
     24          1           0       -2.487323    1.701858   -3.264720
     25          1           0        2.213432    1.049081    0.600116
     26          1           0        1.276065    1.152065    2.083956
     27          1           0        2.588272   -0.675320    3.096003
     28          1           0        3.567225   -0.821734    1.641011
     29          1           0        4.495484    0.629291    3.458206
     30          1           0        4.341884    1.436926    2.056217
 ---------------------------------------------------------------------
                    Distance matrix (angstroms):
                    1          2          3          4          5
     1  O    0.000000
     2  C    1.234732   0.000000
     3  N    2.255565   1.354565   0.000000
     4  C    2.798666   2.477525   1.468724   0.000000
     5  C    3.207087   3.222398   2.495917   1.550289   0.000000
     6  O    2.674766   3.111393   2.954179   2.432567   1.333432
     7  O    4.399592   4.328744   3.431566   2.420758   1.202905
     8  C    4.255011   3.722640   2.463362   1.527955   2.531902
     9  C    4.766101   4.120863   3.021048   2.532783   3.884433
    10  C    4.646389   4.103067   3.371651   3.119658   4.616539
    11  N    5.895475   5.268535   4.570721   4.447916   5.937474
    12  C    6.596755   5.847339   4.911443   4.719218   6.102028
    13  N    6.069478   5.304936   4.163715   3.809610   5.042504
    14  C    2.408217   1.514180   2.445794   3.826536   4.628169
    15  C    2.880141   2.531015   3.686606   4.970814   5.439242
    16  N    4.269904   3.804627   4.846441   6.223740   6.811926
    17  H    3.148786   2.043026   1.008351   2.130561   3.184724
    18  H    2.581493   2.620336   2.073652   1.096204   2.142958
    19  H    1.726566   2.385525   2.591072   2.378619   1.916933
    20  H    4.881381   4.560355   3.381140   2.125723   2.632097
    21  H    4.745158   4.042143   2.691177   2.146878   2.790347
    22  H    3.978799   3.642881   3.233810   3.042170   4.512136
    23  H    7.640661   6.846762   5.909276   5.760601   7.109782
    24  H    6.691055   5.888360   4.644294   4.243959   5.268184
    25  H    3.269210   2.156950   2.546159   4.014392   4.828807
    26  H    2.862805   2.123646   2.979001   4.245081   5.281124
    27  H    2.610105   2.723983   4.046649   5.142131   5.565460
    28  H    3.051233   2.769645   3.771551   4.982636   5.153620
    29  H    4.822803   4.555446   5.680255   7.006128   7.466134
    30  H    4.823007   4.160523   4.994208   6.432914   7.002670
                    6          7          8          9         10
     6  O    0.000000
     7  O    2.225230   0.000000
     8  C    3.738899   2.770219   0.000000
     9  C    4.947930   4.258109   1.498319   0.000000
    10  C    5.441145   5.230241   2.642804   1.374193   0.000000
    11  N    6.806458   6.462967   3.749175   2.269877   1.377486
    12  C    7.147034   6.409368   3.651454   2.220232   2.137305
    13  N    6.197422   5.204558   2.519237   1.383432   2.177711
    14  C    4.504757   5.655778   4.826875   4.954000   4.792085
    15  C    4.969778   6.476812   6.145874   6.422429   6.254970
    16  N    6.417888   7.815418   7.253374   7.342015   7.076163
    17  H    3.817285   3.897981   2.536444   2.867570   3.343735
    18  H    2.653316   3.102685   2.164939   2.747636   2.899751
    19  H    0.988328   3.028629   3.869937   4.850043   5.111098
    20  H    3.883434   2.544992   1.093410   2.153289   3.238208
    21  H    4.045458   2.753691   1.096730   2.144683   3.422224
    22  H    5.100519   5.315869   3.083885   2.208336   1.079148
    23  H    8.189005   7.341373   4.617021   3.250131   3.190493
    24  H    6.512340   5.213271   2.802297   2.136569   3.157492
    25  H    4.918358   5.704377   4.755058   4.864086   4.889602
    26  H    5.224195   6.342817   5.119890   4.937232   4.487452
    27  H    4.918644   6.682267   6.445291   6.717093   6.414857
    28  H    4.591415   6.096369   6.198404   6.709819   6.748594
    29  H    6.924643   8.477167   8.123078   8.275721   7.994790
    30  H    6.725722   7.908892   7.332777   7.438662   7.302632
                   11         12         13         14         15
    11  N    0.000000
    12  C    1.309788   0.000000
    13  N    2.214157   1.367610   0.000000
    14  C    5.703149   6.288817   5.930366   0.000000
    15  C    7.190217   7.815957   7.439956   1.530487   0.000000
    16  N    7.814582   8.437341   8.211223   2.448678   1.465380
    17  H    4.341934   4.500603   3.748031   2.570165   3.933107
    18  H    4.276070   4.804863   4.124200   4.024528   5.118196
    19  H    6.473004   6.968988   6.167702   3.785105   4.215524
    20  H    4.278668   4.116028   2.971970   5.790797   7.040150
    21  H    4.350891   3.994917   2.713525   4.978917   6.263673
    22  H    2.142110   3.159540   3.235156   4.388723   5.747051
    23  H    2.131973   1.079404   2.148544   7.178185   8.704268
    24  H    3.179579   2.127491   1.008095   6.517156   7.998734
    25  H    5.683237   6.067375   5.649449   1.095660   2.173932
    26  H    5.239593   5.978029   5.859006   1.095476   2.145927
    27  H    7.402240   8.163886   7.842191   2.138063   1.091135
    28  H    7.773376   8.283021   7.738019   2.160222   1.101412
    29  H    8.762713   9.421818   9.187980   3.334359   2.048550
    30  H    7.981990   8.465347   8.189293   2.752228   2.053464
                   16         17         18         19         20
    16  N    0.000000
    17  H    4.872794   0.000000
    18  H    6.384880   2.863769   0.000000
    19  H    5.672647   3.554393   2.358215   0.000000
    20  H    8.220157   3.586549   2.524078   4.190348   0.000000
    21  H    7.305421   2.461046   3.059843   4.300014   1.737582
    22  H    6.616747   3.465866   2.504659   4.618861   3.649871
    23  H    9.222419   5.411659   5.880684   8.031561   5.021870
    24  H    8.773678   4.147079   4.730050   6.615574   3.106912
    25  H    2.720343   2.250586   4.452531   4.365968   5.788678
    26  H    2.640857   3.050115   4.241381   4.429454   6.093656
    27  H    2.088330   4.502297   5.074006   4.054271   7.254118
    28  H    2.164692   4.044247   5.278400   3.982139   7.035793
    29  H    1.014718   5.787234   7.124592   6.171939   9.053740
    30  H    1.016047   4.839733   6.748916   6.083173   8.337159
                   21         22         23         24         25
    21  H    0.000000
    22  H    3.981487   0.000000
    23  H    4.833480   4.173727   0.000000
    24  H    2.657772   4.191477   2.547053   0.000000
    25  H    4.684160   4.722159   6.874916   6.120471   0.000000
    26  H    5.407540   3.999929   6.827838   6.563055   1.758137
    27  H    6.722651   5.745860   9.097750   8.477702   3.056717
    28  H    6.195430   6.311071   9.188830   8.190987   2.533016
    29  H    8.187356   7.473295  10.219145   9.752319   3.681395
    30  H    7.237414   6.982943   9.190784   8.661444   2.607866
                   26         27         28         29         30
    26  H    0.000000
    27  H    2.466873   0.000000
    28  H    3.056387   1.759769   0.000000
    29  H    3.539282   2.338944   2.503865   0.000000
    30  H    3.079149   2.935625   2.423641   1.625251   0.000000
 Symmetry turned off by external request.
 Stoichiometry    C9H14N4O3
 Framework group  C1[X(C9H14N4O3)]
[...]
 02639409,-0.06561373,-0.05449379,-0.00000725,0.00000532,-0.00004931,0.
 00001706,-0.00001404,0.00001392,-0.00001234,-0.00001996,-0.00001956,-0
 .00005777,0.00008540,0.00003047,-0.00007276,0.00007939,-0.00011358,0.0
 0004715,0.00005895,0.00011653,-0.00007460,-0.00084880,0.00010332,0.000
 54325,-0.00000359,-0.00008569,0.00046467,0.00125326,0.00069274,-0.0002
 1298,-0.00060990,0.00070053,-0.01616369,0.05457555,0.00004290,-0.00010
 128,0.00012521,-0.00011936,0.00009615,-0.00028976,0.00019996,-0.000104
 05,0.00020985,-0.00003636,-0.00011587,-0.00028885,-0.00005944,0.000296
 92,0.00022432,0.00009007,-0.00018171,0.00000411,0.00005842,-0.00015936
 ,-0.00014196,0.00008342,-0.00004415,0.00075384,0.00317232,-0.00627912,
 -0.00876378,-0.00099763,0.00101260,-0.00131865,0.00022444,-0.00194718,
 0.00019441,-0.00197389,0.00375927,-0.00667049,-0.03020495,-0.05304142,
 -0.44665913,0.00001687,-0.00000264,0.00004109,-0.00004873,0.00001140,-
 0.00002354,0.00003192,0.00001266,0.00002871,-0.00010161,0.00003345,-0.
 00000397,0.00001923,0.00001375,0.00001566,-0.00002829,0.00004154,-0.00
 002362,-0.00010946,0.00026884,0.00014155,-0.00004410,0.00029579,0.0001
 2059,-0.00006692,-0.00041176,-0.00005524,0.00024777,-0.00004112,0.0001
 6886,0.02959622,0.05659710,0.46222514,-0.00130210,-0.00547731,-0.00278
 078,-0.00501802,-0.00649313,0.01981955,0.00035178,0.00029625,-0.001460
 21,0.00011594,0.00021300,0.00017063,0.00044890,-0.00038491,0.00058005,
 -0.00036086,-0.00010775,-0.00094090,-0.00014627,0.00007053,-0.00033121
 ,0.00004962,0.00000731,0.00000798,0.00003809,-0.00002056,-0.00008261,0
 .00010071,0.00001998,0.00007592,0.00001030,0.00006914,-0.00001960,-0.0
 0002898,0.00001798,-0.00000974,0.00000959,0.00001690,0.00001992,-0.076
 34288,-0.04784676,0.05895713,0.00887127,0.01595126,-0.02191552,0.00180
 417,0.00054903,0.00129386,-0.00113361,-0.00066593,-0.00116471,0.000058
 22,0.00002475,0.00005753,0.00019200,0.00075823,0.00098336,0.00001661,-
 0.00000133,0.00001230,-0.00001725,-0.00001314,-0.00002692,-0.00002130,
 -0.00004710,0.00002212,-0.00000827,-0.00000104,0.00000058,-0.00001411,
 -0.00001524,-0.00000605,0.08121541,-0.00416863,-0.00474574,-0.00294522
 ,-0.00482776,-0.01407698,0.02234897,0.00195293,0.00094846,-0.00064920,
 0.00007109,-0.00004014,-0.00042412,0.00031989,-0.00047786,0.00050433,-
 0.00021615,-0.00005241,-0.00086809,-0.00010216,0.00010058,-0.00027450,
 0.00001897,0.00004714,0.00001003,0.00000039,0.00002693,0.00000512,-0.0
 0000638,0.00001744,0.00001202,0.00000258,-0.00002195,-0.00001434,-0.00
 000087,-0.00000452,0.00001796,0.00000178,0.00000460,-0.00002623,-0.047
 91847,-0.12652764,0.10664701,-0.00413013,-0.00752735,0.00956859,0.0001
 2252,0.00074652,-0.00100455,-0.00137260,0.00065916,-0.00050910,0.00020
 997,0.00011689,0.00010541,0.00001484,0.00065088,0.00092835,0.00002562,
 -0.00002175,0.00001404,-0.00001736,-0.00001193,-0.00003166,-0.00000706
 ,-0.00000352,0.00000188,0.00000024,-0.00000039,0.00000099,-0.00001025,
 0.00000081,-0.00000152,0.05217914,0.13851790,-0.00118237,-0.00351336,0
 .00043338,-0.00470481,-0.00638063,0.00775726,-0.00056176,-0.00070132,-
 0.00034162,0.00024618,0.00007142,0.00070149,-0.00001100,0.00001897,-0.
 00009322,0.00005279,-0.00004643,-0.00006541,0.00000668,-0.00000179,0.0
 0005732,0.00006523,0.00009446,0.00001213,-0.00001682,0.00001379,0.0000
 3894,-0.00007434,0.00000419,-0.00004909,-0.00001378,-0.00005057,0.0000
 1691,0.00001466,-0.00001096,0.00000701,-0.00001424,-0.00000505,-0.0000
 0854,0.06194797,0.11013583,-0.19305129,0.00563719,0.01002841,-0.013739
 97,0.00055333,-0.00058534,0.00114879,-0.00016437,-0.00045720,0.0002811
 7,-0.00010030,-0.00011277,0.00000192,-0.00005417,0.00006843,0.00015176
 ,0.00001274,-0.00002421,0.00002461,0.00000704,0.00000097,0.00001433,0.
 00001463,0.00002033,-0.00002281,0.00000758,0.00000167,0.00000055,0.000
 01135,0.00001039,0.00000265,-0.06350448,-0.12038208,0.21126487,-0.0019
 5250,0.00022196,0.00141946,0.01361212,-0.01222068,-0.01407139,-0.00172
 854,-0.00029375,-0.00049269,-0.00074120,0.00072255,0.00039310,0.000032
 82,0.00037210,0.00025787,0.00003038,-0.00007938,0.00005337,-0.00000383
 ,-0.00009496,-0.00015012,-0.00017080,-0.00021903,0.00001968,0.00006198
 ,-0.00012382,-0.00011366,0.00002866,0.00009999,-0.00010826,0.00000113,
 0.00005298,0.00004170,-0.00001704,0.00002834,0.00003121,0.00002005,-0.
 00003617,0.00014061,-0.11381530,0.07459420,0.08372308,-0.01756302,0.01
 798437,0.01567015,0.00257736,-0.00084516,0.00129135,-0.00000584,-0.000
 24479,-0.00037552,-0.00016133,-0.00009951,-0.00013135,-0.00004873,0.00
 009365,-0.00001067,-0.00004254,0.00007856,-0.00007941,0.00001359,0.000
 02303,-0.00000025,-0.00008500,-0.00006874,-0.00000247,-0.00000271,0.00
 000074,0.00001103,0.00000604,-0.00001947,0.00000201,-0.00574445,0.0060
 1558,0.00677338,0.12733638,-0.00329495,0.00084572,0.00174109,0.0134642
 9,-0.01580866,-0.01580942,-0.00107113,-0.00014755,0.00087974,-0.000509
 23,0.00022006,-0.00013627,0.00004465,0.00017308,0.00009365,0.00002586,
 0.00004031,0.00012420,-0.00001759,-0.00002328,-0.00002167,-0.00011538,
 -0.00011382,0.00001576,0.00001687,-0.00005926,-0.00002844,-0.00004836,
 0.00007891,-0.00013706,-0.00000066,-0.00002640,0.00004560,0.00000524,-
 0.00000744,0.00002067,0.00000904,0.00000393,0.00006362,0.07879830,-0.1
 3261228,-0.09379344,0.01023450,-0.00961503,-0.00745208,-0.00192744,0.0
 0118665,-0.00001976,-0.00009456,-0.00006853,-0.00015855,-0.00000709,-0
 .00001523,-0.00012997,-0.00007860,-0.00007199,-0.00008891,-0.00002206,
 0.00003957,-0.00003953,-0.00000071,0.00000945,-0.00000748,-0.00005877,
 0.00000612,-0.00001129,0.00000246,0.00000125,0.00000865,0.00000567,-0.
 00000738,-0.00000006,-0.00966566,0.01157387,0.01193349,-0.08697023,0.1
 4471600,0.00001325,0.00132369,0.00018813,0.00471315,-0.00685993,-0.008
 88883,-0.00187602,-0.00074386,0.00032668,-0.00060244,0.00029102,0.0003
 0521,0.00000749,0.00029922,0.00000718,0.00007030,-0.00000605,0.0001641
 1,-0.00001040,-0.00003912,0.00000081,-0.00006273,-0.00015647,-0.000006
 45,0.00004574,-0.00010184,-0.00018988,0.00008616,0.00013211,-0.0001015
 2,0.00002519,0.00009659,0.00004756,-0.00002220,0.00001740,0.00001749,0
 .00002949,-0.00003891,0.00018783,0.08764137,-0.09339357,-0.14294272,-0
 .01085265,0.01066879,0.01029320,0.00112914,0.00053380,0.00060688,0.000
 71582,-0.00050700,-0.00055242,-0.00018176,-0.00012545,-0.00015487,-0.0
 0010634,-0.00013359,-0.00016316,-0.00003696,0.00006338,-0.00003150,-0.
 00000465,0.00002256,0.00001531,-0.00015627,-0.00010641,0.00005734,-0.0
 0000434,-0.00000250,0.00001368,0.00000345,-0.00002290,-0.00001108,0.01
 225003,-0.01381811,-0.01517463,-0.09028659,0.10166423,0.15593127,-0.00
 114462,-0.00068837,0.00065239,0.00097894,0.00092959,-0.00164951,0.0000
 9483,-0.00044162,0.00077406,-0.00007039,-0.00012689,0.00000544,-0.0000
 8391,0.00003131,-0.00016259,0.00005612,0.00010545,0.00023615,0.0000257
 3,0.00001169,0.00009646,0.00000405,0.00002271,0.00000087,-0.00001100,0
 .00001138,0.00001231,-0.00002011,0.00000141,-0.00002343,0.00000233,-0.
 00002092,0.00001077,0.00000942,-0.00001038,0.00000322,0.00000063,-0.00
 000652,0.00000414,0.00852418,0.01664870,-0.02089975,-0.08128639,-0.051
 78536,0.07030909,-0.00883608,-0.01445441,0.01152290,0.00037197,0.00016
 379,0.00025706,-0.00002959,-0.00001730,-0.00001694,-0.00002420,-0.0003
 0961,-0.00023428,0.00000406,-0.00000499,0.00000492,0.00000402,-0.00000
 042,0.00000840,0.00000374,0.00001296,-0.00000286,0.00000221,-0.0000007
 8,0.00000088,0.00000285,0.00000498,-0.00000201,-0.00436433,0.00182491,
 -0.00358515,0.00147178,-0.00007854,0.00046907,0.09142732,-0.00082091,-
 0.00028099,-0.00139696,-0.00062007,-0.00052433,-0.00017710,0.00007165,
 -0.00010426,0.00043415,-0.00008915,-0.00001961,-0.00003079,0.00001163,
 -0.00000166,-0.00008018,0.00002373,-0.00001546,0.00006176,0.00000073,0
 .00001806,0.00006225,0.00000337,0.00000772,-0.00000827,0.00000020,0.00
 001457,0.00000218,0.00000984,-0.00000084,0.00001905,0.00000815,-0.0000
 0194,-0.00001305,0.00000092,-0.00000430,0.00000642,0.00000269,-0.00000
 130,-0.00001905,-0.00176491,-0.00755444,0.01117819,-0.05095895,-0.1342
 6610,0.10706520,-0.01141602,-0.01949877,0.01738440,-0.00000886,0.00009
 193,-0.00003797,0.00001266,0.00002270,-0.00001831,-0.00005316,-0.00000
 626,-0.00008035,0.00000606,-0.00000316,0.00000433,0.00000028,-0.000003
 55,-0.00000658,-0.00000449,0.00000143,0.00001303,-0.00000168,-0.000000
 94,-0.00000038,-0.00000451,0.00000052,-0.00000211,0.00155701,-0.000280
 58,0.00076695,-0.00048531,0.00011455,0.00001083,0.06085010,0.15269401,
 0.00089741,-0.00173204,0.00226885,0.00116146,0.00384856,-0.00225975,-0
 .00013780,-0.00057675,0.00080331,-0.00001070,-0.00011203,-0.00007498,-
 0.00015133,0.00013640,-0.00032305,0.00012091,0.00002103,0.00035862,0.0
 0004304,-0.00001251,0.00017101,-0.00002405,0.00000256,-0.00000191,-0.0
 0001230,0.00002025,0.00002139,-0.00002058,-0.00000584,-0.00000620,-0.0
 0000176,-0.00002460,0.00000060,0.00001118,-0.00001292,0.00000652,-0.00
 000254,-0.00000838,-0.00001295,0.00389814,0.00954975,-0.01457022,0.071
 12607,0.11348982,-0.19576160,-0.00721934,-0.01226849,0.01355737,0.0002
 0000,-0.00001896,0.00025459,-0.00004070,-0.00000542,-0.00001968,-0.000
 07090,-0.00029214,-0.00032949,-0.00000242,-0.00000249,-0.00000051,0.00
 001196,-0.00000468,0.00001522,0.00001316,0.00001954,0.00000159,0.00000
 331,-0.00000027,-0.00000037,0.00000573,0.00000789,-0.00000202,-0.00333
 467,0.00087797,-0.00040032,-0.00008447,-0.00035313,0.00111930,-0.07136
 477,-0.11947575,0.20806521,0.00017393,-0.00167749,-0.00001516,0.000720
 92,0.00327171,0.00093079,-0.00016011,-0.00065412,-0.00077714,0.0000255
 1,0.00006432,0.00003975,-0.00025860,0.00031417,-0.00012243,0.00025866,
 -0.00019828,0.00004416,0.00008691,-0.00010426,-0.00000204,-0.00004398,
 -0.00003301,0.00000718,-0.00000375,0.00001709,0.00005917,-0.00000954,-
 0.00005045,0.00005101,-0.00001760,-0.00001924,-0.00003349,0.00000338,0
 .00000513,0.00000181,-0.00001175,0.00000843,-0.00007394,-0.01763235,0.
 01351651,0.01475348,-0.13013007,0.07270689,0.08163395,0.01176793,-0.01
 620085,-0.01549759,-0.00006114,0.00007348,0.00020298,-0.00002872,-0.00
 000293,-0.00000080,-0.00021208,0.00012030,0.00011578,-0.00001441,0.000
 00431,-0.00001520,0.00000999,0.00000666,-0.00000512,0.00004246,0.00002
 975,-0.00001112,0.00000032,0.00000208,-0.00000578,0.,0.00000626,0.0000
 0963,0.00136273,-0.00025276,-0.00035517,-0.00358598,0.00175753,-0.0032
 8562,-0.00603852,0.00638565,0.00699494,0.14085776,0.00009725,0.0006075
 6,-0.00023597,-0.00026865,-0.00107205,-0.00004177,0.00008081,0.0003636
 9,0.00038285,0.00001140,0.00000977,0.00005149,0.00014766,-0.00012685,0
 .00000651,-0.00010707,0.00006063,-0.00000218,-0.00005611,0.00004984,0.
 00002904,0.00002344,0.00001203,-0.00001097,-0.00000132,-0.00001365,-0.
 00002940,0.00001142,0.00001529,-0.00002165,0.00000655,0.00002271,0.000
 02334,-0.00000207,-0.00000320,-0.00001397,0.00000088,-0.00000010,0.000
 04549,0.01030033,-0.00596443,-0.00605152,0.07411835,-0.11859553,-0.072
 25059,0.00395230,-0.02244018,-0.02119761,0.00011485,-0.00005743,-0.000
 11821,0.00000344,-0.00000557,0.00001459,0.00006360,-0.00002431,-0.0000
 4623,0.00000489,-0.00000064,0.00000806,-0.00000302,-0.00000269,0.00000
 953,-0.00001927,-0.00001767,0.00000282,-0.00000050,-0.00000128,0.00000
 129,0.00000441,-0.00000425,-0.00000430,-0.00055927,-0.00004054,-0.0004
 7559,0.00156396,-0.00025175,0.00090651,-0.00977165,0.01139579,0.010088
 75,-0.08030442,0.13474625,-0.00013167,0.00048924,0.00038962,0.00049208
 ,0.00006203,0.00102427,0.00032532,0.00005749,-0.00022578,0.00004691,0.
 00007030,0.00002628,0.00012419,-0.00012381,0.00014131,-0.00014582,0.00
 010592,-0.00006323,-0.00004495,0.00002673,-0.00006070,0.00000272,0.000
 00867,0.00001203,-0.00000205,-0.00000816,0.00000448,-0.00000072,-0.000
 02095,0.00001352,-0.00000765,0.00001417,0.00000426,-0.00000246,0.00000
 479,-0.00001692,-0.00000446,0.00001365,-0.00000156,-0.01197113,0.01037
 311,0.00959650,0.08406728,-0.07256401,-0.13600307,0.00043300,-0.015490
 18,-0.00846516,-0.00003183,-0.00001557,-0.00001007,-0.00000405,0.00000
 094,0.00001934,0.00013147,-0.00007118,-0.00001315,0.00000327,-0.000000
 88,-0.00000038,0.00000054,-0.00000414,0.00000156,0.00001768,0.00000590
 ,-0.00001314,-0.00000176,0.00000023,-0.00000241,0.00000069,-0.00000347
 ,0.00000223,0.00077143,-0.00034209,0.00113267,-0.00384499,0.00147290,-
 0.00100518,0.01524916,-0.01346127,-0.01429346,-0.08446700,0.08854970,0
 .14694278,-0.00005573,-0.00066237,0.00038083,-0.00026576,0.00203977,-0
 .00133009,-0.00066435,-0.00073993,-0.00039561,0.00014778,0.00007702,-0
 .00011444,-0.00008157,0.00015263,0.00012675,-0.00000657,-0.00010263,-0
 .00007515,0.00000989,-0.00008786,-0.00013297,-0.00003616,-0.00007451,0
 .00000379,0.00000334,-0.00003216,0.00000537,-0.00000653,-0.00002191,0.
 00000187,-0.00002377,0.00002392,0.00000764,-0.00000675,0.00001693,-0.0
 0002002,-0.00001130,0.00001427,0.00001106,-0.00302941,-0.00542919,-0.0
 0183172,-0.01379578,0.01336010,-0.00800422,-0.20870564,0.07446415,-0.1
 9194062,0.00000879,-0.00004476,0.00010655,-0.00001477,-0.00001432,0.00
 000785,0.00002725,0.00015427,0.00009047,-0.00002645,0.00002118,-0.0000
 2664,0.00000305,0.00001016,0.00000664,0.00002535,-0.00000093,-0.000023
 82,0.00000022,0.00000280,-0.00000275,0.00000782,-0.00000517,0.00000890
 ,0.00022330,0.00006130,0.00001639,0.00059027,-0.00033009,0.00011661,0.
 00020266,-0.00009064,0.00054163,0.00118880,0.00008467,0.00033356,0.212
 05030,0.00022693,-0.00005621,0.00012126,-0.00092311,0.00115909,-0.0005
 3702,-0.00012722,-0.00029764,-0.00009980,0.00003842,-0.00006051,-0.000
 10387,-0.00008065,0.00005916,-0.00005887,0.00005358,-0.00003474,0.0000
 4589,0.00002728,-0.00001756,0.00001337,-0.00000894,-0.00001341,-0.0000
 0104,0.00000446,0.00000246,-0.00000354,0.00000510,0.00000648,0.0000001
 9,0.00000742,-0.00000213,-0.00000227,-0.00000246,0.00000245,0.00000289
 ,0.00000432,-0.00000265,0.00000028,-0.00178170,-0.00372160,-0.00150104
 ,-0.02205589,0.00702006,-0.02504434,0.08321622,-0.09799856,0.12391614,
 -0.00005564,-0.00001396,0.00004560,0.00000509,0.00001038,0.00000183,-0
 .00002363,0.00000779,-0.00002074,-0.00000306,0.00000234,-0.00000330,0.
 00000017,-0.00000097,-0.00000216,-0.00000584,-0.00000266,0.00000325,-0
 .00000094,-0.00000036,0.00000111,-0.00000486,-0.00000025,-0.00000194,0
 .00008669,-0.00003216,-0.00031029,-0.00013417,-0.00008471,0.00029759,-
 0.00002793,0.00122491,0.00058197,-0.00016892,-0.00003541,-0.00056741,-
 0.07520955,0.10129736,0.00022764,-0.00010596,0.00002267,-0.00041875,0.
 00063138,0.00016764,0.00006448,0.00000219,0.00009388,-0.00001051,-0.00
 001079,-0.00001761,-0.00003056,0.00000096,-0.00006173,0.00005207,-0.00
 000036,0.00002473,0.00001986,0.00001005,0.00003632,-0.00000288,0.00000
 521,-0.00000257,0.00000287,0.00001227,-0.00000059,0.00000595,0.0000112
 5,0.00000012,0.00001189,-0.00001057,-0.00000859,0.00000065,-0.00000294
 ,0.00001240,0.00000667,-0.00000679,-0.00000925,0.00020294,-0.00271958,
 0.00025760,-0.01100147,0.00424337,-0.01112814,-0.15271786,0.09326810,-
 0.19084411,-0.00003509,0.00001520,-0.00001723,0.00000749,0.00000727,-0
 .00000101,-0.00004110,-0.00001984,-0.00000048,0.00000467,-0.00000343,0
 .00000390,0.00000021,-0.00000265,-0.00000447,-0.00001414,-0.00000124,0
 .00001023,-0.00000100,-0.00000099,0.00000160,-0.00000665,0.00000122,-0
 .00000257,0.00027076,-0.00013538,0.00022698,-0.00012389,0.00005184,0.0
 0012923,0.00055029,0.00044275,0.00135737,0.00035632,0.00056747,-0.0004
 4467,0.18281893,-0.10752286,0.22030635,0.00000113,0.00087755,-0.000471
 63,-0.00022687,-0.00102035,-0.00030441,0.00000301,0.00012441,-0.000036
 01,-0.00004388,-0.00000479,-0.00002951,0.00007468,-0.00010398,0.000031
 73,-0.00005708,0.00007077,-0.00002160,-0.00002357,0.00004396,0.0000043
 2,0.00000702,-0.00000160,0.00000101,0.00000776,-0.00000551,-0.00002395
 ,0.00002045,0.00000669,0.00000629,0.00001870,0.00002416,0.00001025,-0.
 00000722,0.00000318,-0.00001599,0.00000721,0.00000688,0.00002099,0.000
 10157,-0.00087013,0.00164095,-0.01087290,-0.00460122,0.01737283,-0.149
 79266,-0.12681681,0.13329065,-0.00007451,-0.00003700,-0.00005905,0.000
 01583,0.00001246,0.00000324,0.00002530,-0.00004796,-0.00002151,0.00000
 539,0.00000269,0.00000238,-0.00000458,-0.00000401,-0.00000627,-0.00001
 273,-0.00001525,0.00000600,-0.00000514,-0.00000237,0.00000059,-0.00000
 960,-0.00000701,-0.00000531,-0.00036622,0.00020884,-0.00102437,-0.0001
 1378,-0.00007337,0.00017271,-0.00127772,-0.00262602,-0.00255061,0.0017
 0928,0.00050317,-0.00133880,0.01224171,0.01693884,-0.02019979,0.148649
 45,-0.00012173,0.00011868,-0.00025059,-0.00023845,-0.00044149,0.000119
 65,0.00010846,0.00001849,-0.00004469,-0.00002924,-0.00000833,-0.000002
 00,-0.00006116,0.00005597,-0.00005148,0.00007354,-0.00003741,0.0000283
 7,0.00003097,-0.00001257,0.00002839,-0.00000653,0.00001024,-0.00000381
 ,-0.00000153,0.00001437,0.00001278,-0.00001060,0.00000750,-0.00000533,
 -0.00000488,-0.00003047,-0.00001081,0.00000567,-0.00000612,0.00002161,
 0.,-0.00001077,-0.00001863,0.00076332,0.00092835,-0.00020139,-0.017851
 41,-0.01977107,0.02119703,-0.09043730,-0.10910321,0.11220472,-0.000031
 97,0.00006793,0.00000984,0.00000530,0.00000418,0.00000085,-0.00004526,
 0.00001006,0.00001230,0.00000217,-0.00000544,0.00000180,0.00000058,0.0
 0000077,-0.00000380,-0.00000127,0.00000777,0.00000443,0.00000453,0.000
 00108,0.00000134,0.00000186,0.00000776,0.00000016,-0.00051805,0.000454
 29,-0.00011168,0.00008319,-0.00009615,-0.00027198,-0.00287330,-0.00301
 770,-0.00373807,0.00137646,0.00137396,0.00141733,-0.00763716,-0.008417
 01,0.01127282,0.11741379,0.13787634,-0.00017686,0.00019342,-0.00025229
 ,0.00000786,-0.00036026,0.00006299,0.00008861,0.00007584,-0.00003375,-
 0.00004636,-0.00001967,-0.00001605,0.00000116,-0.00003175,-0.00003093,
 0.00001686,0.00001207,0.00001133,0.00000745,0.00002283,0.00003139,-0.0
 0000083,0.00001128,-0.00000009,0.00000338,0.00000866,-0.00000277,0.000
 00029,0.00001136,-0.00000238,0.00000696,-0.00001332,-0.00000271,0.0000
 0053,-0.00000309,0.00000986,0.00000602,-0.00000428,-0.00000437,0.00047
 271,-0.00043826,0.00160172,-0.00990385,-0.01401043,0.01166895,0.119169
 81,0.14779057,-0.23773295,-0.00006802,0.00001375,-0.00002313,0.0000106
 8,0.00000927,0.00000164,-0.00001989,-0.00001584,-0.00001021,0.00000662
 ,-0.00000386,0.00000328,-0.00000179,-0.00000360,-0.00000629,-0.0000065
 0,0.,0.00000625,0.00000025,-0.00000063,0.00000169,-0.00000550,0.000001
 73,-0.00000354,0.00028426,0.00038351,-0.00032783,0.00004774,0.00007163
 ,-0.00018897,-0.00222629,-0.00264337,0.00005553,-0.00053335,-0.0001875
 1,0.00130803,0.01931319,0.01074915,-0.02010798,-0.12645514,-0.14161918
 ,0.24398360\\-0.00000074,-0.00000149,-0.00000261,0.00000012,-0.0000012
 4,0.00000049,0.00000195,-0.00000017,0.00000030,0.00000111,0.00000004,0
 .00000196,-0.00000005,0.00000095,-0.00000005,0.00000119,0.00000068,0.0
 0000326,-0.00000011,-0.00000120,0.00000052,-0.00000020,0.00000130,-0.0
 0000044,-0.00000231,-0.00000029,-0.00000031,-0.00000083,0.00000098,0.0
 0000104,0.00000017,0.00000024,-0.00000002,0.00000035,0.00000050,-0.000
 00015,-0.00000019,0.00000024,0.00000068,0.00000012,0.00000026,-0.00000
 052,0.,-0.00000038,-0.00000036,0.00000056,-0.00000008,-0.00000048,0.00
 000006,-0.00000089,-0.00000121,0.00000080,0.,-0.00000003,-0.00000123,-
 0.00000034,-0.00000130,-0.00000041,0.00000067,0.00000019,-0.00000079,0
 .00000014,0.00000036,-0.00000087,0.00000048,-0.00000014,0.00000002,0.0
 0000008,0.00000028,-0.00000022,-0.00000008,0.00000040,0.00000007,-0.00
 000015,-0.00000023,0.00000033,0.00000002,-0.00000011,0.00000025,-0.000
 00002,-0.00000029,0.00000013,0.00000001,-0.00000023,0.00000043,-0.0000
 0008,-0.00000058,0.00000027,-0.00000020,-0.00000043\\\@


 NATURE GIVES TO EVERY TIME AND SEASON SOME BEAUTY OF ITS OWN.

                                                    --DICKENS
 Job cpu time:       0 days  2 hours  4 minutes 54.2 seconds.
 File lengths (MBytes):  RWF=    415 Int=      0 D2E=      0 Chk=     13 Scr=      1
 Normal termination of Gaussian 09 at Wed Jul 28 23:23:05 2021.
