 Entering Gaussian System, Link 0=g09
 Input=opt_freq-conf-150.com
 Output=opt_freq-conf-150.log
 Initial command:
 /aerosol/software/g09/l1.exe "/scratch/nicole/10622/Gau-83765.inp" -scrdir="/scratch/nicole/10622/"
 Entering Link 1 = /aerosol/software/g09/l1.exe PID=     83771.
  
 Copyright (c) 1988,1990,1992,1993,1995,1998,2003,2009,2013,
            Gaussian, Inc.  All Rights Reserved.
  
 This is part of the Gaussian(R) 09 program.  It is based on
 the Gaussian(R) 03 system (copyright 2003, Gaussian, Inc.),
 the Gaussian(R) 98 system (copyright 1998, Gaussian, Inc.),
 the Gaussian(R) 94 system (copyright 1995, Gaussian, Inc.),
 the Gaussian 92(TM) system (copyright 1992, Gaussian, Inc.),
 the Gaussian 90(TM) system (copyright 1990, Gaussian, Inc.),
 the Gaussian 88(TM) system (copyright 1988, Gaussian, Inc.),
 the Gaussian 86(TM) system (copyright 1986, Carnegie Mellon
 University), and the Gaussian 82(TM) system (copyright 1983,
 Carnegie Mellon University). Gaussian is a federally registered
 trademark of Gaussian, Inc.
  
 This software contains proprietary and confidential information,
 including trade secrets, belonging to Gaussian, Inc.
  
 This software is provided under written license and may be
 used, copied, transmitted, or stored only in accord with that
 written license.
  
 The following legend is applicable only to US Government
 contracts under FAR:
  
                    RESTRICTED RIGHTS LEGEND
  
 Use, reproduction and disclosure by the US Government is
 subject to restrictions as set forth in subparagraphs (a)
 and (c) of the Commercial Computer Software - Restricted
 Rights clause in FAR 52.227-19.
  
 Gaussian, Inc.
 340 Quinnipiac St., Bldg. 40, Wallingford CT 06492
  
  
 ---------------------------------------------------------------
 Warning -- This program may not be used in any manner that
 competes with the business of Gaussian, Inc. or will provide
 assistance to any competitor of Gaussian, Inc.  The licensee
 of this program is prohibited from giving any competitor of
 Gaussian, Inc. access to this program.  By using this program,
 the user acknowledges that Gaussian, Inc. is engaged in the
 business of creating and licensing software in the field of
 computational chemistry and represents and warrants to the
 licensee that it is not a competitor of Gaussian, Inc. and that
 it will not use this program in any manner prohibited above.
 ---------------------------------------------------------------
  

 Cite this work as:
 Gaussian 09, Revision D.01,
 M. J. Frisch, G. W. Trucks, H. B. Schlegel, G. E. Scuseria, 
 M. A. Robb, J. R. Cheeseman, G. Scalmani, V. Barone, B. Mennucci, 
 G. A. Petersson, H. Nakatsuji, M. Caricato, X. Li, H. P. Hratchian, 
 A. F. Izmaylov, J. Bloino, G. Zheng, J. L. Sonnenberg, M. Hada, 
 M. Ehara, K. Toyota, R. Fukuda, J. Hasegawa, M. Ishida, T. Nakajima, 
 Y. Honda, O. Kitao, H. Nakai, T. Vreven, J. A. Montgomery, Jr., 
 J. E. Peralta, F. Ogliaro, M. Bearpark, J. J. Heyd, E. Brothers, 
 K. N. Kudin, V. N. Staroverov, T. Keith, R. Kobayashi, J. Normand, 
 K. Raghavachari, A. Rendell, J. C. Burant, S. S. Iyengar, J. Tomasi, 
 M. Cossi, N. Rega, J. M. Millam, M. Klene, J. E. Knox, J. B. Cross, 
 V. Bakken, C. Adamo, J. Jaramillo, R. Gomperts, R. E. Stratmann, 
 O. Yazyev, A. J. Austin, R. Cammi, C. Pomelli, J. W. Ochterski, 
 R. L. Martin, K. Morokuma, V. G. Zakrzewski, G. A. Voth, 
 P. Salvador, J. J. Dannenberg, S. Dapprich, A. D. Daniels, 
 O. Farkas, J. B. Foresman, J. V. Ortiz, J. Cioslowski, 
 and D. J. Fox, Gaussian, Inc., Wallingford CT, 2013.
 
 ******************************************
 Gaussian 09:  ES64L-G09RevD.01 24-Apr-2013
                28-Jul-2021 
 ******************************************
 %mem=2gb
 %nproc=4
 Will use up to    4 processors via shared memory.
 %chk=conf-150.chk
 ----------------------------------------------------------------------
 # B3LYP/6-311G(d,p) opt=calcfc freq=noraman nosymm integral(ultrafineg
 rid)
 ----------------------------------------------------------------------
 1/10=4,14=-1,18=20,19=15,26=4,38=1/1,3;
 2/9=110,12=2,15=1,17=6,18=5,40=1/2;
 3/5=4,6=6,7=101,11=2,16=1,25=1,30=1,71=2,74=-5,75=-5,140=1/1,2,3;
 4//1;
 5/5=2,38=5/2;
 8/6=4,10=90,11=11/1;
 11/6=1,8=1,9=11,15=111,16=1,31=1/1,2,10;
 10/6=1,13=1,31=1/2;
 6/7=2,8=2,9=2,10=2,28=1/1;
 7/10=1,18=20,25=1,30=1/1,2,3,16;
 1/10=4,14=-1,18=20,19=15,26=4/3(2);
 2/9=110,15=1/2;
 99//99;
 2/9=110,15=1/2;
 3/5=4,6=6,7=101,11=2,16=1,25=1,30=1,71=1,74=-5,75=-5/1,2,3;
 4/5=5,16=3,69=1/1;
 5/5=2,38=5/2;
 7/30=1/1,2,3,16;
 1/14=-1,18=20,19=15,26=4/3(-5);
 2/9=110,15=1/2;
 6/7=2,8=2,9=2,10=2,19=2,28=1/1;
 99/9=1/99;
 ------------------------------------------------------------
 Candidate Structure: Conf:150 OPT and FREQ calc in gas phase
 ------------------------------------------------------------
 Symbolic Z-matrix:
 Charge =  0 Multiplicity = 1
 O                    -1.06735  -1.81842  -0.60329 
 C                    -1.26017  -0.71113  -0.11548 
 N                    -0.37381  -0.15491   0.75102 
 C                     0.74849  -0.91195   1.26099 
 C                     1.24686  -0.18699   2.48905 
 O                     2.24552  -0.85447   3.09518 
 O                     0.81057   0.86267   2.89123 
 C                     1.87855  -1.12462   0.22713 
 C                     2.46418   0.14329  -0.29805 
 C                     3.69731   0.71644  -0.1525 
 N                     3.75634   1.9277   -0.81778 
 C                     2.56761   2.08131  -1.35632 
 N                     1.75201   1.03     -1.0682 
 C                    -2.47144   0.14825  -0.43245 
 C                    -3.42446  -0.50714  -1.41911 
 N                    -4.55073   0.39607  -1.66837 
 H                    -0.59336   0.68832   1.26101 
 H                     0.41775  -1.90971   1.56604 
 H                     2.49526  -0.33255   3.86831 
 H                     1.46214  -1.72179  -0.58553 
 H                     2.6673   -1.71113   0.6993 
 H                     4.54572   0.32738   0.3952 
 H                     2.23723   2.91305  -1.95358 
 H                     0.78257   0.92701  -1.32349 
 H                    -2.13351   1.11041  -0.83235 
 H                    -3.0062    0.37498   0.49757 
 H                    -2.89971  -0.67889  -2.36095 
 H                    -3.71838  -1.49025  -1.03227 
 H                    -5.14058   0.44323  -0.845 
 H                    -5.13542   0.02345  -2.40678 
 

 GradGradGradGradGradGradGradGradGradGradGradGradGradGradGradGradGradGrad
 Berny optimization.
 Initialization pass.
                           ----------------------------
                           !    Initial Parameters    !
                           ! (Angstroms and Degrees)  !
 --------------------------                            --------------------------
 ! Name  Definition              Value          Derivative Info.                !
 --------------------------------------------------------------------------------
 ! R1    R(1,2)                  1.2252         calculate D2E/DX2 analytically  !
 ! R2    R(2,3)                  1.3586         calculate D2E/DX2 analytically  !
 ! R3    R(2,14)                 1.5186         calculate D2E/DX2 analytically  !
 ! R4    R(3,4)                  1.4466         calculate D2E/DX2 analytically  !
 ! R5    R(3,17)                 1.0096         calculate D2E/DX2 analytically  !
 ! R6    R(4,5)                  1.5107         calculate D2E/DX2 analytically  !
 ! R7    R(4,8)                  1.5463         calculate D2E/DX2 analytically  !
 ! R8    R(4,18)                 1.0945         calculate D2E/DX2 analytically  !
 ! R9    R(5,6)                  1.3454         calculate D2E/DX2 analytically  !
 ! R10   R(5,7)                  1.2058         calculate D2E/DX2 analytically  !
 ! R11   R(6,19)                 0.9657         calculate D2E/DX2 analytically  !
 ! R12   R(8,9)                  1.4921         calculate D2E/DX2 analytically  !
 ! R13   R(8,20)                 1.0911         calculate D2E/DX2 analytically  !
 ! R14   R(8,21)                 1.0904         calculate D2E/DX2 analytically  !
 ! R15   R(9,10)                 1.3676         calculate D2E/DX2 analytically  !
 ! R16   R(9,13)                 1.3735         calculate D2E/DX2 analytically  !
 ! R17   R(10,11)                1.3832         calculate D2E/DX2 analytically  !
 ! R18   R(10,22)                1.0822         calculate D2E/DX2 analytically  !
 ! R19   R(11,12)                1.314          calculate D2E/DX2 analytically  !
 ! R20   R(12,13)                1.3614         calculate D2E/DX2 analytically  !
 ! R21   R(12,23)                1.0759         calculate D2E/DX2 analytically  !
 ! R22   R(13,24)                1.0078         calculate D2E/DX2 analytically  !
 ! R23   R(14,15)                1.5203         calculate D2E/DX2 analytically  !
 ! R24   R(14,25)                1.0954         calculate D2E/DX2 analytically  !
 ! R25   R(14,26)                1.0965         calculate D2E/DX2 analytically  !
 ! R26   R(15,16)                1.4651         calculate D2E/DX2 analytically  !
 ! R27   R(15,27)                1.0918         calculate D2E/DX2 analytically  !
 ! R28   R(15,28)                1.0966         calculate D2E/DX2 analytically  !
 ! R29   R(16,29)                1.0139         calculate D2E/DX2 analytically  !
 ! R30   R(16,30)                1.0129         calculate D2E/DX2 analytically  !
 ! A1    A(1,2,3)              121.4156         calculate D2E/DX2 analytically  !
 ! A2    A(1,2,14)             123.6309         calculate D2E/DX2 analytically  !
 ! A3    A(3,2,14)             114.9485         calculate D2E/DX2 analytically  !
 ! A4    A(2,3,4)              121.1124         calculate D2E/DX2 analytically  !
 ! A5    A(2,3,17)             121.4815         calculate D2E/DX2 analytically  !
 ! A6    A(4,3,17)             115.3222         calculate D2E/DX2 analytically  !
 ! A7    A(3,4,5)              106.9408         calculate D2E/DX2 analytically  !
 ! A8    A(3,4,8)              113.7809         calculate D2E/DX2 analytically  !
 ! A9    A(3,4,18)             109.9301         calculate D2E/DX2 analytically  !
 ! A10   A(5,4,8)              111.6184         calculate D2E/DX2 analytically  !
 ! A11   A(5,4,18)             108.0944         calculate D2E/DX2 analytically  !
 ! A12   A(8,4,18)             106.3679         calculate D2E/DX2 analytically  !
 ! A13   A(4,5,6)              111.9023         calculate D2E/DX2 analytically  !
 ! A14   A(4,5,7)              124.7182         calculate D2E/DX2 analytically  !
 ! A15   A(6,5,7)              123.3794         calculate D2E/DX2 analytically  !
 ! A16   A(5,6,19)             106.5298         calculate D2E/DX2 analytically  !
 ! A17   A(4,8,9)              113.9092         calculate D2E/DX2 analytically  !
 ! A18   A(4,8,20)             107.1182         calculate D2E/DX2 analytically  !
 ! A19   A(4,8,21)             108.2449         calculate D2E/DX2 analytically  !
 ! A20   A(9,8,20)             110.654          calculate D2E/DX2 analytically  !
 ! A21   A(9,8,21)             109.0            calculate D2E/DX2 analytically  !
 ! A22   A(20,8,21)            107.7091         calculate D2E/DX2 analytically  !
 ! A23   A(8,9,10)             132.265          calculate D2E/DX2 analytically  !
 ! A24   A(8,9,13)             122.849          calculate D2E/DX2 analytically  !
 ! A25   A(10,9,13)            104.8708         calculate D2E/DX2 analytically  !
 ! A26   A(9,10,11)            110.7501         calculate D2E/DX2 analytically  !
 ! A27   A(9,10,22)            127.5957         calculate D2E/DX2 analytically  !
 ! A28   A(11,10,22)           121.654          calculate D2E/DX2 analytically  !
 ! A29   A(10,11,12)           105.1223         calculate D2E/DX2 analytically  !
 ! A30   A(11,12,13)           111.404          calculate D2E/DX2 analytically  !
 ! A31   A(11,12,23)           126.5587         calculate D2E/DX2 analytically  !
 ! A32   A(13,12,23)           122.0373         calculate D2E/DX2 analytically  !
 ! A33   A(9,13,12)            107.8523         calculate D2E/DX2 analytically  !
 ! A34   A(9,13,24)            125.0893         calculate D2E/DX2 analytically  !
 ! A35   A(12,13,24)           126.9841         calculate D2E/DX2 analytically  !
 ! A36   A(2,14,15)            113.0481         calculate D2E/DX2 analytically  !
 ! A37   A(2,14,25)            109.0995         calculate D2E/DX2 analytically  !
 ! A38   A(2,14,26)            109.2064         calculate D2E/DX2 analytically  !
 ! A39   A(15,14,25)           109.58           calculate D2E/DX2 analytically  !
 ! A40   A(15,14,26)           109.5044         calculate D2E/DX2 analytically  !
 ! A41   A(25,14,26)           106.1692         calculate D2E/DX2 analytically  !
 ! A42   A(14,15,16)           109.06           calculate D2E/DX2 analytically  !
 ! A43   A(14,15,27)           109.0502         calculate D2E/DX2 analytically  !
 ! A44   A(14,15,28)           108.9996         calculate D2E/DX2 analytically  !
 ! A45   A(16,15,27)           108.6456         calculate D2E/DX2 analytically  !
 ! A46   A(16,15,28)           113.9951         calculate D2E/DX2 analytically  !
 ! A47   A(27,15,28)           106.9842         calculate D2E/DX2 analytically  !
 ! A48   A(15,16,29)           109.7385         calculate D2E/DX2 analytically  !
 ! A49   A(15,16,30)           109.9378         calculate D2E/DX2 analytically  !
 ! A50   A(29,16,30)           105.8604         calculate D2E/DX2 analytically  !
 ! D1    D(1,2,3,4)             -7.7326         calculate D2E/DX2 analytically  !
 ! D2    D(1,2,3,17)          -170.55           calculate D2E/DX2 analytically  !
 ! D3    D(14,2,3,4)           173.0511         calculate D2E/DX2 analytically  !
 ! D4    D(14,2,3,17)           10.2337         calculate D2E/DX2 analytically  !
 ! D5    D(1,2,14,15)            0.0395         calculate D2E/DX2 analytically  !
 ! D6    D(1,2,14,25)         -122.151          calculate D2E/DX2 analytically  !
 ! D7    D(1,2,14,26)          122.2102         calculate D2E/DX2 analytically  !
 ! D8    D(3,2,14,15)          179.2362         calculate D2E/DX2 analytically  !
 ! D9    D(3,2,14,25)           57.0457         calculate D2E/DX2 analytically  !
 ! D10   D(3,2,14,26)          -58.593          calculate D2E/DX2 analytically  !
 ! D11   D(2,3,4,5)           -162.1572         calculate D2E/DX2 analytically  !
 ! D12   D(2,3,4,8)             74.1256         calculate D2E/DX2 analytically  !
 ! D13   D(2,3,4,18)           -45.0406         calculate D2E/DX2 analytically  !
 ! D14   D(17,3,4,5)             1.6593         calculate D2E/DX2 analytically  !
 ! D15   D(17,3,4,8)          -122.0579         calculate D2E/DX2 analytically  !
 ! D16   D(17,3,4,18)          118.7759         calculate D2E/DX2 analytically  !
 ! D17   D(3,4,5,6)            176.1661         calculate D2E/DX2 analytically  !
 ! D18   D(3,4,5,7)             -3.71           calculate D2E/DX2 analytically  !
 ! D19   D(8,4,5,6)            -58.7944         calculate D2E/DX2 analytically  !
 ! D20   D(8,4,5,7)            121.3295         calculate D2E/DX2 analytically  !
 ! D21   D(18,4,5,6)            57.8457         calculate D2E/DX2 analytically  !
 ! D22   D(18,4,5,7)          -122.0304         calculate D2E/DX2 analytically  !
 ! D23   D(3,4,8,9)             59.2523         calculate D2E/DX2 analytically  !
 ! D24   D(3,4,8,20)           -63.4489         calculate D2E/DX2 analytically  !
 ! D25   D(3,4,8,21)          -179.34           calculate D2E/DX2 analytically  !
 ! D26   D(5,4,8,9)            -61.8885         calculate D2E/DX2 analytically  !
 ! D27   D(5,4,8,20)           175.4103         calculate D2E/DX2 analytically  !
 ! D28   D(5,4,8,21)            59.5192         calculate D2E/DX2 analytically  !
 ! D29   D(18,4,8,9)          -179.5724         calculate D2E/DX2 analytically  !
 ! D30   D(18,4,8,20)           57.7264         calculate D2E/DX2 analytically  !
 ! D31   D(18,4,8,21)          -58.1646         calculate D2E/DX2 analytically  !
 ! D32   D(4,5,6,19)          -179.3425         calculate D2E/DX2 analytically  !
 ! D33   D(7,5,6,19)             0.5355         calculate D2E/DX2 analytically  !
 ! D34   D(4,8,9,10)           112.3787         calculate D2E/DX2 analytically  !
 ! D35   D(4,8,9,13)           -65.9767         calculate D2E/DX2 analytically  !
 ! D36   D(20,8,9,10)         -126.8774         calculate D2E/DX2 analytically  !
 ! D37   D(20,8,9,13)           54.7673         calculate D2E/DX2 analytically  !
 ! D38   D(21,8,9,10)           -8.6089         calculate D2E/DX2 analytically  !
 ! D39   D(21,8,9,13)          173.0358         calculate D2E/DX2 analytically  !
 ! D40   D(8,9,10,11)         -178.7634         calculate D2E/DX2 analytically  !
 ! D41   D(8,9,10,22)            1.0879         calculate D2E/DX2 analytically  !
 ! D42   D(13,9,10,11)          -0.1929         calculate D2E/DX2 analytically  !
 ! D43   D(13,9,10,22)         179.6584         calculate D2E/DX2 analytically  !
 ! D44   D(8,9,13,12)          178.9476         calculate D2E/DX2 analytically  !
 ! D45   D(8,9,13,24)            1.9019         calculate D2E/DX2 analytically  !
 ! D46   D(10,9,13,12)           0.2068         calculate D2E/DX2 analytically  !
 ! D47   D(10,9,13,24)        -176.8389         calculate D2E/DX2 analytically  !
 ! D48   D(9,10,11,12)           0.1026         calculate D2E/DX2 analytically  !
 ! D49   D(22,10,11,12)       -179.759          calculate D2E/DX2 analytically  !
 ! D50   D(10,11,12,13)          0.0338         calculate D2E/DX2 analytically  !
 ! D51   D(10,11,12,23)        179.9779         calculate D2E/DX2 analytically  !
 ! D52   D(11,12,13,9)          -0.1556         calculate D2E/DX2 analytically  !
 ! D53   D(11,12,13,24)        176.8181         calculate D2E/DX2 analytically  !
 ! D54   D(23,12,13,9)         179.8974         calculate D2E/DX2 analytically  !
 ! D55   D(23,12,13,24)         -3.1289         calculate D2E/DX2 analytically  !
 ! D56   D(2,14,15,16)        -179.6173         calculate D2E/DX2 analytically  !
 ! D57   D(2,14,15,27)         -61.1172         calculate D2E/DX2 analytically  !
 ! D58   D(2,14,15,28)          55.3532         calculate D2E/DX2 analytically  !
 ! D59   D(25,14,15,16)        -57.6961         calculate D2E/DX2 analytically  !
 ! D60   D(25,14,15,27)         60.804          calculate D2E/DX2 analytically  !
 ! D61   D(25,14,15,28)        177.2744         calculate D2E/DX2 analytically  !
 ! D62   D(26,14,15,16)         58.3789         calculate D2E/DX2 analytically  !
 ! D63   D(26,14,15,27)        176.879          calculate D2E/DX2 analytically  !
 ! D64   D(26,14,15,28)        -66.6506         calculate D2E/DX2 analytically  !
 ! D65   D(14,15,16,29)        -70.7929         calculate D2E/DX2 analytically  !
 ! D66   D(14,15,16,30)        173.1656         calculate D2E/DX2 analytically  !
 ! D67   D(27,15,16,29)        170.4539         calculate D2E/DX2 analytically  !
 ! D68   D(27,15,16,30)         54.4125         calculate D2E/DX2 analytically  !
 ! D69   D(28,15,16,29)         51.2678         calculate D2E/DX2 analytically  !
 ! D70   D(28,15,16,30)        -64.7736         calculate D2E/DX2 analytically  !
 --------------------------------------------------------------------------------
 Trust Radius=3.00D-01 FncErr=1.00D-07 GrdErr=1.00D-06
 Number of steps in this run=    160 maximum allowed number of steps=    180.
 GradGradGradGradGradGradGradGradGradGradGradGradGradGradGradGradGradGrad

                          Input orientation:                          
 ---------------------------------------------------------------------
 Center     Atomic      Atomic             Coordinates (Angstroms)
 Number     Number       Type             X           Y           Z
 ---------------------------------------------------------------------
      1          8           0       -1.067352   -1.818420   -0.603290
      2          6           0       -1.260171   -0.711133   -0.115475
      3          7           0       -0.373807   -0.154908    0.751020
      4          6           0        0.748491   -0.911949    1.260987
      5          6           0        1.246864   -0.186995    2.489052
      6          8           0        2.245519   -0.854468    3.095176
      7          8           0        0.810575    0.862669    2.891227
      8          6           0        1.878554   -1.124616    0.227129
      9          6           0        2.464176    0.143289   -0.298052
     10          6           0        3.697311    0.716443   -0.152500
     11          7           0        3.756344    1.927702   -0.817782
     12          6           0        2.567610    2.081312   -1.356324
     13          7           0        1.752005    1.029997   -1.068196
     14          6           0       -2.471439    0.148251   -0.432449
     15          6           0       -3.424457   -0.507137   -1.419106
     16          7           0       -4.550733    0.396069   -1.668368
     17          1           0       -0.593358    0.688317    1.261006
     18          1           0        0.417752   -1.909712    1.566043
     19          1           0        2.495261   -0.332548    3.868311
     20          1           0        1.462143   -1.721790   -0.585530
     21          1           0        2.667299   -1.711131    0.699298
     22          1           0        4.545724    0.327378    0.395204
     23          1           0        2.237229    2.913050   -1.953578
     24          1           0        0.782573    0.927013   -1.323490
     25          1           0       -2.133510    1.110413   -0.832347
     26          1           0       -3.006197    0.374981    0.497574
     27          1           0       -2.899706   -0.678894   -2.360952
     28          1           0       -3.718382   -1.490250   -1.032268
     29          1           0       -5.140584    0.443227   -0.844998
     30          1           0       -5.135425    0.023449   -2.406784
 ---------------------------------------------------------------------
                    Distance matrix (angstroms):
                    1          2          3          4          5
     1  O    0.000000
     2  C    1.225245   0.000000
     3  N    2.254425   1.358618   0.000000
     4  C    2.755813   2.443297   1.446626   0.000000
     5  C    4.192818   3.652877   2.376627   1.510655   0.000000
     6  O    5.057961   4.755911   3.584036   2.368258   1.345444
     7  O    4.788162   3.975563   2.649285   2.410561   1.205772
     8  C    3.138364   3.184328   2.507573   1.546328   2.528727
     9  C    4.051316   3.825458   3.040332   2.547097   3.059230
    10  C    5.415788   5.159067   4.260235   3.653101   3.714659
    11  N    6.111258   5.711576   4.884316   4.629478   4.658818
    12  C    5.384043   4.897894   4.253647   4.372541   4.655803
    13  N    4.034649   3.607273   3.038523   3.194258   3.793448
    14  C    2.422486   1.518612   2.427460   3.789419   4.740604
    15  C    2.817971   2.534798   3.760316   4.975969   6.098969
    16  N    4.262898   3.803310   4.858367   6.194660   7.157949
    17  H    3.159747   2.073114   1.009612   2.088398   2.379219
    18  H    2.630566   2.660737   2.090493   1.094522   2.122999
    19  H    5.907219   5.487909   4.240354   3.191402   1.866021
    20  H    2.531403   2.941662   2.759021   2.138871   3.443109
    21  H    3.956750   4.133869   3.416552   2.153140   2.746607
    22  H    6.091639   5.920111   4.955905   4.087113   3.940972
    23  H    5.927085   5.361449   4.852291   5.213481   5.507092
    24  H    3.387966   2.883683   2.609859   3.172139   3.999007
    25  H    3.125256   2.143515   2.684147   4.096086   4.913439
    26  H    3.127623   2.145711   2.697127   4.041864   4.729728
    27  H    2.783058   2.780517   4.042165   5.146075   6.399886
    28  H    2.705490   2.736847   4.018637   5.054345   6.225097
    29  H    4.665264   4.113679   5.062333   6.399444   7.232743
    30  H    4.816045   4.561502   5.716340   6.996283   8.046559
                    6          7          8          9         10
     6  O    0.000000
     7  O    2.247047   0.000000
     8  C    2.904020   3.491031   0.000000
     9  C    3.543632   3.663796   1.492096   0.000000
    10  C    3.888812   4.197487   2.615624   1.367594   0.000000
    11  N    5.033319   4.854749   3.732904   2.263613   1.383197
    12  C    5.342134   4.755413   3.641441   2.210559   2.142028
    13  N    4.596567   4.073244   2.517188   1.373520   2.172793
    14  C    5.974886   4.725339   4.580139   4.937446   6.201184
    15  C    7.255894   6.196033   5.586886   6.029578   7.336281
    16  N    8.393107   7.053456   6.873218   7.151966   8.392302
    17  H    3.715317   2.158482   3.235116   3.475087   4.517591
    18  H    2.606246   3.097824   2.131434   3.446377   4.539338
    19  H    0.965665   2.285039   3.777023   4.193562   4.325763
    20  H    3.861803   4.380846   1.091069   2.136641   3.335937
    21  H    2.579148   3.856997   1.090441   2.115382   2.771209
    22  H    3.738657   4.524158   3.041435   2.201667   1.082199
    23  H    6.299538   5.450829   4.602920   3.234787   3.193870
    24  H    4.983824   4.215301   2.795492   2.119796   3.148215
    25  H    6.201781   4.753316   4.713226   4.728585   5.883526
    26  H    5.986618   4.531574   5.116906   5.532782   6.743605
    27  H    7.501566   6.612714   5.452394   5.805408   7.095411
    28  H    7.280668   6.437507   5.748519   6.436734   7.786912
    29  H    8.471334   7.039290   7.271581   7.630301   8.869194
    30  H    9.247737   8.008004   7.579674   7.887651   9.142170
                   11         12         13         14         15
    11  N    0.000000
    12  C    1.314044   0.000000
    13  N    2.210420   1.361430   0.000000
    14  C    6.488467   5.475608   4.361092   0.000000
    15  C    7.606177   6.527547   5.411255   1.520286   0.000000
    16  N    8.489813   7.321764   6.362907   2.431538   1.465063
    17  H    4.977684   4.333886   3.323049   2.585855   4.077650
    18  H    5.617344   5.393551   4.166693   4.071438   5.063685
    19  H    5.353365   5.755759   5.174751   6.587549   7.939163
    20  H    4.316954   4.034819   2.808793   4.358160   5.103831
    21  H    4.090067   4.314874   3.387562   5.580751   6.561001
    22  H    2.157659   3.171289   3.231111   7.068074   8.216564
    23  H    2.137441   1.075942   2.136641   5.668289   6.636115
    24  H    3.178118   2.125992   1.007760   3.462516   4.445788
    25  H    5.946305   4.828843   3.893497   1.095386   2.151116
    26  H    7.062086   6.116848   5.051848   1.096501   2.150984
    27  H    7.312914   6.206412   5.121517   2.141660   1.091760
    28  H    8.221917   7.237041   6.023128   2.144607   1.096607
    29  H    9.019963   7.896901   6.921121   2.716900   2.043987
    30  H    9.231178   8.042078   7.088135   3.318192   2.045591
                   16         17         18         19         20
    16  N    0.000000
    17  H    4.932288   0.000000
    18  H    6.361123   2.804486   0.000000
    19  H    8.990647   4.168905   3.479069   0.000000
    20  H    6.466262   3.666524   2.399028   4.778496   0.000000
    21  H    7.883281   4.087145   2.418914   3.460164   1.761618
    22  H    9.327839   5.223988   4.838966   4.086854   3.830065
    23  H    7.245203   4.826511   6.241575   6.670447   4.894289
    24  H    5.370754   2.937649   4.065650   5.610222   2.832413
    25  H    2.655596   2.632938   4.624107   6.753061   4.583777
    26  H    2.660327   2.550059   4.252631   6.490647   5.053279
    27  H    2.088327   4.506339   5.285994   8.247989   4.823430
    28  H    2.157691   4.446464   4.902528   7.997832   5.204904
    29  H    1.013946   5.017230   6.499580   9.006844   6.953462
    30  H    1.012901   5.875807   7.096354   9.885895   7.063337
                   21         22         23         24         25
    21  H    0.000000
    22  H    2.788632   0.000000
    23  H    5.348435   4.187079   0.000000
    24  H    3.821475   4.180285   2.541137   0.000000
    25  H    5.775363   6.836095   4.859014   2.962836   0.000000
    26  H    6.048232   7.552765   6.320083   4.239787   1.752465
    27  H    6.436007   8.002712   6.281410   4.149029   2.474936
    28  H    6.619972   8.581195   7.463723   5.117281   3.052088
    29  H    8.245554   9.766069   7.858823   5.962113   3.080227
    30  H    8.575489  10.083063   7.931659   6.083802   3.559753
                   26         27         28         29         30
    26  H    0.000000
    27  H    3.048469   0.000000
    28  H    2.515295   1.758957   0.000000
    29  H    2.522453   2.928960   2.407501   0.000000
    30  H    3.618353   2.343891   2.487687   1.617224   0.000000
 Symmetry turned off by external request.
 Stoichiometry    C9H14N4O3
 Framework group  C1[X(C9H14N4O3)]
 Deg. of freedom    84
 Full point group                 C1      NOp   1
 Rotational constants (GHZ):      0.7284732      0.3114858      0.2544644
 Standard basis: 6-311G(d,p) (5D, 7F)
   372 basis functions,   624 primitive gaussians,   388 cartesian basis functions
    60 alpha electrons       60 beta electrons
       nuclear repulsion energy      1129.0975961519 Hartrees.
 NAtoms=   30 NActive=   30 NUniq=   30 SFac= 1.00D+00 NAtFMM=   60 NAOKFM=F Big=F
 Integral buffers will be    131072 words long.
 Raffenetti 2 integral format.
 Two-electron integral symmetry is turned off.
 One-electron integrals computed using PRISM.
 NBasis=   372 RedAO= T EigKep=  5.74D-04  NBF=   372
 NBsUse=   372 1.00D-06 EigRej= -1.00D+00 NBFU=   372
 ExpMin= 1.03D-01 ExpMax= 8.59D+03 ExpMxC= 1.30D+03 IAcc=3 IRadAn=         5 AccDes= 0.00D+00
 Harris functional with IExCor=  402 and IRadAn=       5 diagonalized for initial guess.
 HarFok:  IExCor=  402 AccDes= 0.00D+00 IRadAn=         5 IDoV= 1 UseB2=F ITyADJ=14
 ICtDFT=  3500011 ScaDFX=  1.000000  1.000000  1.000000  1.000000
 FoFCou: FMM=F IPFlag=           0 FMFlag=      100000 FMFlg1=           0
         NFxFlg=           0 DoJE=T BraDBF=F KetDBF=T FulRan=T
         wScrn=  0.000000 ICntrl=     500 IOpCl=  0 I1Cent=   200000004 NGrid=           0
         NMat0=    1 NMatS0=      1 NMatT0=    0 NMatD0=    1 NMtDS0=    0 NMtDT0=    0
 Symmetry not used in FoFCou.
 Requested convergence on RMS density matrix=1.00D-08 within 128 cycles.
 Requested convergence on MAX density matrix=1.00D-06.
 Requested convergence on             energy=1.00D-06.
 No special actions if energy rises.
 Integral accuracy reduced to 1.0D-05 until final iterations.
 Initial convergence to 1.0D-05 achieved.  Increase integral accuracy.
 SCF Done:  E(RB3LYP) =  -796.311572559     A.U. after   14 cycles
            NFock= 14  Conv=0.60D-08     -V/T= 2.0033
 DoSCS=F DFT=T ScalE2(SS,OS)=  1.000000  1.000000
 Range of M.O.s used for correlation:     1   372
 NBasis=   372 NAE=    60 NBE=    60 NFC=     0 NFV=     0
 NROrb=    372 NOA=    60 NOB=    60 NVA=   312 NVB=   312
 Symmetrizing basis deriv contribution to polar:
 IMax=3 JMax=2 DiffMx= 0.00D+00
 G2DrvN: will do    31 centers at a time, making    1 passes.
 Calling FoFCou, ICntrl=  3107 FMM=F I1Cent=   0 AccDes= 0.00D+00.
 End of G2Drv F.D. properties file   721 does not exist.
 End of G2Drv F.D. properties file   722 does not exist.
 End of G2Drv F.D. properties file   788 does not exist.
          IDoAtm=111111111111111111111111111111
          Differentiating once with respect to nuclear coordinates.
          There are    93 degrees of freedom in the 1st order CPHF.  IDoFFX=6 NUNeed=     0.
     87 vectors produced by pass  0 Test12= 2.01D-14 1.08D-09 XBig12= 1.67D-01 8.17D-02.
 AX will form    87 AO Fock derivatives at one time.
     87 vectors produced by pass  1 Test12= 2.01D-14 1.08D-09 XBig12= 3.06D-02 5.13D-02.
     87 vectors produced by pass  2 Test12= 2.01D-14 1.08D-09 XBig12= 2.17D-04 2.44D-03.
     87 vectors produced by pass  3 Test12= 2.01D-14 1.08D-09 XBig12= 1.15D-06 1.21D-04.
     87 vectors produced by pass  4 Test12= 2.01D-14 1.08D-09 XBig12= 2.67D-09 3.66D-06.
     81 vectors produced by pass  5 Test12= 2.01D-14 1.08D-09 XBig12= 3.04D-12 1.61D-07.
     23 vectors produced by pass  6 Test12= 2.01D-14 1.08D-09 XBig12= 2.62D-15 5.33D-09.
 InvSVY:  IOpt=1 It=  1 EMax= 5.55D-16
 Solved reduced A of dimension   539 with    93 vectors.
 End of Minotr F.D. properties file   721 does not exist.
 End of Minotr F.D. properties file   722 does not exist.
 End of Minotr F.D. properties file   788 does not exist.

 **********************************************************************

            Population analysis using the SCF density.

 **********************************************************************

 Alpha  occ. eigenvalues --  -19.19120 -19.13702 -19.09771 -14.36368 -14.34954
 Alpha  occ. eigenvalues --  -14.29389 -14.28369 -10.32877 -10.28472 -10.24490
 Alpha  occ. eigenvalues --  -10.21797 -10.20181 -10.19961 -10.19497 -10.19005
 Alpha  occ. eigenvalues --  -10.17615  -1.13970  -1.05669  -1.04963  -1.01645
 Alpha  occ. eigenvalues --   -0.94737  -0.89283  -0.86921  -0.81839  -0.77237
 Alpha  occ. eigenvalues --   -0.74687  -0.68930  -0.65807  -0.61659  -0.61338
 Alpha  occ. eigenvalues --   -0.60302  -0.59190  -0.54205  -0.53882  -0.51611
 Alpha  occ. eigenvalues --   -0.50783  -0.50270  -0.49470  -0.47408  -0.46645
 Alpha  occ. eigenvalues --   -0.45624  -0.44574  -0.44411  -0.42801  -0.42096
 Alpha  occ. eigenvalues --   -0.40834  -0.40729  -0.40182  -0.39145  -0.38895
 Alpha  occ. eigenvalues --   -0.37548  -0.35788  -0.35098  -0.31099  -0.28477
 Alpha  occ. eigenvalues --   -0.27834  -0.27206  -0.26549  -0.24768  -0.22742
 Alpha virt. eigenvalues --   -0.02068   0.00284   0.01383   0.02134   0.02567
 Alpha virt. eigenvalues --    0.03652   0.05482   0.05865   0.07920   0.08042
 Alpha virt. eigenvalues --    0.08468   0.09279   0.09722   0.11182   0.11978
 Alpha virt. eigenvalues --    0.12478   0.13710   0.14883   0.16841   0.18332
 Alpha virt. eigenvalues --    0.19360   0.19680   0.20912   0.21874   0.22175
 Alpha virt. eigenvalues --    0.24157   0.24704   0.25496   0.26998   0.27703
 Alpha virt. eigenvalues --    0.31253   0.32470   0.33001   0.33353   0.35303
 Alpha virt. eigenvalues --    0.35644   0.36168   0.37376   0.37496   0.38082
 Alpha virt. eigenvalues --    0.38804   0.39289   0.40307   0.42148   0.42893
 Alpha virt. eigenvalues --    0.43607   0.44578   0.45301   0.46578   0.48027
 Alpha virt. eigenvalues --    0.48781   0.49476   0.51318   0.51516   0.52970
 Alpha virt. eigenvalues --    0.53296   0.54171   0.55198   0.55598   0.55898
 Alpha virt. eigenvalues --    0.56516   0.57380   0.58540   0.59216   0.59433
 Alpha virt. eigenvalues --    0.59748   0.60791   0.61536   0.62185   0.64022
 Alpha virt. eigenvalues --    0.64257   0.64746   0.65237   0.66368   0.67133
 Alpha virt. eigenvalues --    0.68692   0.69747   0.70856   0.72291   0.72416
 Alpha virt. eigenvalues --    0.73077   0.73280   0.74718   0.75941   0.77538
 Alpha virt. eigenvalues --    0.78167   0.80122   0.81224   0.81316   0.83799
 Alpha virt. eigenvalues --    0.85414   0.88222   0.88668   0.91936   0.92829
 Alpha virt. eigenvalues --    0.94354   0.94974   0.97788   0.98848   1.00153
 Alpha virt. eigenvalues --    1.00609   1.02490   1.04969   1.05794   1.08100
 Alpha virt. eigenvalues --    1.11014   1.12055   1.13242   1.15426   1.17379
 Alpha virt. eigenvalues --    1.18957   1.19026   1.21491   1.23424   1.23775
 Alpha virt. eigenvalues --    1.24124   1.27527   1.28413   1.29041   1.33638
 Alpha virt. eigenvalues --    1.35196   1.35846   1.37065   1.38865   1.41190
 Alpha virt. eigenvalues --    1.41810   1.42167   1.42565   1.44787   1.47173
 Alpha virt. eigenvalues --    1.48763   1.49799   1.51016   1.52643   1.52994
 Alpha virt. eigenvalues --    1.53604   1.54527   1.55446   1.55915   1.58500
 Alpha virt. eigenvalues --    1.59495   1.61077   1.62141   1.64381   1.64934
 Alpha virt. eigenvalues --    1.65636   1.66540   1.67273   1.67926   1.69274
 Alpha virt. eigenvalues --    1.69677   1.70360   1.71379   1.72282   1.72952
 Alpha virt. eigenvalues --    1.73582   1.75234   1.76430   1.77131   1.79630
 Alpha virt. eigenvalues --    1.80905   1.82926   1.83535   1.85227   1.86099
 Alpha virt. eigenvalues --    1.86726   1.89892   1.90678   1.92439   1.95552
 Alpha virt. eigenvalues --    1.98552   1.99004   1.99810   2.02084   2.04008
 Alpha virt. eigenvalues --    2.04331   2.05698   2.08026   2.09220   2.10011
 Alpha virt. eigenvalues --    2.15590   2.17721   2.18961   2.20408   2.22297
 Alpha virt. eigenvalues --    2.24508   2.25508   2.26505   2.28887   2.30183
 Alpha virt. eigenvalues --    2.32253   2.36136   2.36813   2.37869   2.39949
 Alpha virt. eigenvalues --    2.43216   2.43758   2.44445   2.45815   2.46024
 Alpha virt. eigenvalues --    2.47680   2.48539   2.49893   2.51378   2.52878
 Alpha virt. eigenvalues --    2.54555   2.55733   2.56583   2.57814   2.59210
 Alpha virt. eigenvalues --    2.61489   2.62923   2.63789   2.64234   2.65105
 Alpha virt. eigenvalues --    2.69171   2.70177   2.71611   2.72714   2.73658
 Alpha virt. eigenvalues --    2.75618   2.76715   2.78462   2.79139   2.80854
 Alpha virt. eigenvalues --    2.83181   2.83903   2.84938   2.85663   2.86974
 Alpha virt. eigenvalues --    2.87890   2.89968   2.90776   2.92295   2.93437
 Alpha virt. eigenvalues --    2.94784   2.95869   2.97441   2.98981   3.02273
 Alpha virt. eigenvalues --    3.03813   3.05068   3.06790   3.10611   3.13731
 Alpha virt. eigenvalues --    3.14759   3.15775   3.24445   3.25668   3.29162
 Alpha virt. eigenvalues --    3.32741   3.33654   3.35898   3.38642   3.47685
 Alpha virt. eigenvalues --    3.48281   3.53438   3.55408   3.58168   3.58708
 Alpha virt. eigenvalues --    3.64916   3.65652   3.71281   3.72002   3.75910
 Alpha virt. eigenvalues --    3.77919   3.79361   3.79533   3.80524   3.84358
 Alpha virt. eigenvalues --    3.85354   3.90245   3.90802   3.99676   4.01437
 Alpha virt. eigenvalues --    4.04804   4.18848   4.28025   4.31511   4.42005
 Alpha virt. eigenvalues --    4.71845   4.76513   4.80422   4.81705   4.84253
 Alpha virt. eigenvalues --    4.89764   4.93598   4.93717   4.94559   5.06163
 Alpha virt. eigenvalues --    5.14769   5.24789   5.26727   5.56067   5.64923
 Alpha virt. eigenvalues --    5.73390  23.71132  23.74251  23.79109  23.79999
 Alpha virt. eigenvalues --   23.83643  23.86821  23.90205  23.92628  24.15007
 Alpha virt. eigenvalues --   35.52159  35.57304  35.59671  35.68940  49.82977
 Alpha virt. eigenvalues --   49.97342  49.99746
          Condensed to atoms (all electrons):
               1          2          3          4          5          6
     1  O    7.878433   0.632221  -0.105229   0.013213   0.000791   0.000000
     2  C    0.632221   4.585706   0.356937  -0.059225   0.009049  -0.000101
     3  N   -0.105229   0.356937   6.797474   0.239525  -0.035618   0.001690
     4  C    0.013213  -0.059225   0.239525   5.271388   0.260948  -0.096041
     5  C    0.000791   0.009049  -0.035618   0.260948   4.504277   0.354254
     6  O    0.000000  -0.000101   0.001690  -0.096041   0.354254   7.807842
     7  O   -0.000007   0.000324  -0.007056  -0.098006   0.635886  -0.073981
     8  C   -0.009840  -0.008121  -0.058890   0.320795  -0.059546   0.004644
     9  C   -0.001288  -0.001673   0.004040  -0.088947  -0.001818  -0.003448
    10  C   -0.000014  -0.000078   0.000001  -0.004155   0.002671   0.001076
    11  N    0.000000   0.000005  -0.000015  -0.000336  -0.000056   0.000004
    12  C   -0.000001   0.000043   0.000292   0.000071   0.000052  -0.000003
    13  N    0.000194   0.001047  -0.004450   0.002479  -0.000605   0.000016
    14  C   -0.094109   0.249242  -0.095417   0.009398  -0.000120   0.000000
    15  C    0.015242  -0.044949   0.006067  -0.000360   0.000000   0.000000
    16  N    0.000237   0.005334  -0.000023   0.000001   0.000000   0.000000
    17  H    0.002925  -0.025005   0.359092  -0.051023  -0.012460   0.001758
    18  H    0.011247  -0.006229  -0.038801   0.407897  -0.023225   0.003133
    19  H    0.000001   0.000033  -0.000427   0.016936  -0.028998   0.304071
    20  H    0.019645  -0.000034  -0.008808  -0.041877   0.006054  -0.000005
    21  H   -0.000002   0.000509   0.005356  -0.030367  -0.006353   0.009872
    22  H    0.000000   0.000001   0.000000  -0.000184   0.000165   0.000792
    23  H    0.000000   0.000006   0.000004  -0.000005   0.000005   0.000000
    24  H   -0.000509   0.000447   0.008816  -0.001661   0.000064  -0.000006
    25  H    0.000877  -0.022011   0.000130   0.000347  -0.000011   0.000000
    26  H    0.001544  -0.030388   0.001349  -0.000653  -0.000060  -0.000001
    27  H    0.006898  -0.004930   0.000427  -0.000045  -0.000001   0.000000
    28  H    0.007001   0.004933   0.000472   0.000060   0.000000   0.000000
    29  H    0.000010  -0.000376  -0.000011  -0.000001   0.000000   0.000000
    30  H    0.000033  -0.000727   0.000012  -0.000001   0.000000   0.000000
               7          8          9         10         11         12
     1  O   -0.000007  -0.009840  -0.001288  -0.000014   0.000000  -0.000001
     2  C    0.000324  -0.008121  -0.001673  -0.000078   0.000005   0.000043
     3  N   -0.007056  -0.058890   0.004040   0.000001  -0.000015   0.000292
     4  C   -0.098006   0.320795  -0.088947  -0.004155  -0.000336   0.000071
     5  C    0.635886  -0.059546  -0.001818   0.002671  -0.000056   0.000052
     6  O   -0.073981   0.004644  -0.003448   0.001076   0.000004  -0.000003
     7  O    7.832070  -0.000941   0.002420  -0.000403  -0.000002   0.000066
     8  C   -0.000941   5.015905   0.271699  -0.027694   0.007698   0.004971
     9  C    0.002420   0.271699   5.172043   0.570765  -0.095148  -0.123843
    10  C   -0.000403  -0.027694   0.570765   4.835705   0.505328  -0.179417
    11  N   -0.000002   0.007698  -0.095148   0.505328   6.432006   0.580786
    12  C    0.000066   0.004971  -0.123843  -0.179417   0.580786   4.746490
    13  N   -0.000236  -0.049998   0.379619  -0.073126  -0.087739   0.421834
    14  C   -0.000259  -0.001359  -0.000192   0.000000   0.000000  -0.000003
    15  C    0.000000   0.000040   0.000003   0.000000   0.000000   0.000000
    16  N    0.000000   0.000000   0.000000   0.000000   0.000000   0.000000
    17  H    0.038245   0.005359   0.000563  -0.000334  -0.000016   0.000202
    18  H    0.001319  -0.047538   0.010741  -0.000087   0.000005   0.000031
    19  H    0.009173  -0.001177   0.000084   0.000284  -0.000004  -0.000007
    20  H   -0.000309   0.411611  -0.041402   0.000355  -0.000269   0.000084
    21  H    0.000226   0.400633  -0.037073  -0.003399   0.000239  -0.000183
    22  H   -0.000054   0.000235  -0.051124   0.422053  -0.025114   0.008307
    23  H    0.000003  -0.000367   0.004841   0.006094  -0.022905   0.414617
    24  H   -0.000066   0.002166  -0.033438   0.007193   0.006495  -0.023733
    25  H   -0.000046  -0.000067   0.000126  -0.000001   0.000000   0.000047
    26  H   -0.000074   0.000088  -0.000012   0.000000   0.000000  -0.000001
    27  H    0.000000   0.000025  -0.000004   0.000000   0.000000   0.000000
    28  H    0.000000   0.000000   0.000001   0.000000   0.000000   0.000000
    29  H    0.000000   0.000000   0.000000   0.000000   0.000000   0.000000
    30  H    0.000000   0.000000   0.000000   0.000000   0.000000   0.000000
              13         14         15         16         17         18
     1  O    0.000194  -0.094109   0.015242   0.000237   0.002925   0.011247
     2  C    0.001047   0.249242  -0.044949   0.005334  -0.025005  -0.006229
     3  N   -0.004450  -0.095417   0.006067  -0.000023   0.359092  -0.038801
     4  C    0.002479   0.009398  -0.000360   0.000001  -0.051023   0.407897
     5  C   -0.000605  -0.000120   0.000000   0.000000  -0.012460  -0.023225
     6  O    0.000016   0.000000   0.000000   0.000000   0.001758   0.003133
     7  O   -0.000236  -0.000259   0.000000   0.000000   0.038245   0.001319
     8  C   -0.049998  -0.001359   0.000040   0.000000   0.005359  -0.047538
     9  C    0.379619  -0.000192   0.000003   0.000000   0.000563   0.010741
    10  C   -0.073126   0.000000   0.000000   0.000000  -0.000334  -0.000087
    11  N   -0.087739   0.000000   0.000000   0.000000  -0.000016   0.000005
    12  C    0.421834  -0.000003   0.000000   0.000000   0.000202   0.000031
    13  N    6.443169  -0.000199  -0.000005   0.000000   0.001153  -0.000242
    14  C   -0.000199   5.265177   0.324471  -0.059471  -0.001640   0.001591
    15  C   -0.000005   0.324471   4.785545   0.327027  -0.000211  -0.000054
    16  N    0.000000  -0.059471   0.327027   6.518027  -0.000042   0.000000
    17  H    0.001153  -0.001640  -0.000211  -0.000042   0.432291   0.004412
    18  H   -0.000242   0.001591  -0.000054   0.000000   0.004412   0.514173
    19  H    0.000003   0.000001   0.000000   0.000000  -0.000482  -0.000695
    20  H   -0.000942   0.000992  -0.000022   0.000000  -0.000713  -0.007984
    21  H    0.004019   0.000019  -0.000001   0.000000  -0.000384  -0.000877
    22  H    0.004329   0.000000   0.000000   0.000000  -0.000006  -0.000006
    23  H   -0.038272   0.000000   0.000000   0.000000  -0.000001   0.000000
    24  H    0.349215   0.000599   0.000016  -0.000018  -0.000392   0.000121
    25  H    0.000271   0.369035  -0.029871   0.014444   0.000220  -0.000025
    26  H   -0.000001   0.391000  -0.031991  -0.003139   0.001277  -0.000226
    27  H    0.000003  -0.028371   0.401766  -0.031662  -0.000008  -0.000019
    28  H   -0.000001  -0.062660   0.421694  -0.042139  -0.000089  -0.000005
    29  H    0.000000  -0.006359  -0.045717   0.363849   0.000008   0.000000
    30  H    0.000000   0.010306  -0.042896   0.369008   0.000002   0.000000
              19         20         21         22         23         24
     1  O    0.000001   0.019645  -0.000002   0.000000   0.000000  -0.000509
     2  C    0.000033  -0.000034   0.000509   0.000001   0.000006   0.000447
     3  N   -0.000427  -0.008808   0.005356   0.000000   0.000004   0.008816
     4  C    0.016936  -0.041877  -0.030367  -0.000184  -0.000005  -0.001661
     5  C   -0.028998   0.006054  -0.006353   0.000165   0.000005   0.000064
     6  O    0.304071  -0.000005   0.009872   0.000792   0.000000  -0.000006
     7  O    0.009173  -0.000309   0.000226  -0.000054   0.000003  -0.000066
     8  C   -0.001177   0.411611   0.400633   0.000235  -0.000367   0.002166
     9  C    0.000084  -0.041402  -0.037073  -0.051124   0.004841  -0.033438
    10  C    0.000284   0.000355  -0.003399   0.422053   0.006094   0.007193
    11  N   -0.000004  -0.000269   0.000239  -0.025114  -0.022905   0.006495
    12  C   -0.000007   0.000084  -0.000183   0.008307   0.414617  -0.023733
    13  N    0.000003  -0.000942   0.004019   0.004329  -0.038272   0.349215
    14  C    0.000001   0.000992   0.000019   0.000000   0.000000   0.000599
    15  C    0.000000  -0.000022  -0.000001   0.000000   0.000000   0.000016
    16  N    0.000000   0.000000   0.000000   0.000000   0.000000  -0.000018
    17  H   -0.000482  -0.000713  -0.000384  -0.000006  -0.000001  -0.000392
    18  H   -0.000695  -0.007984  -0.000877  -0.000006   0.000000   0.000121
    19  H    0.439711   0.000114  -0.000375   0.000078   0.000000   0.000004
    20  H    0.000114   0.513152  -0.016450   0.000014  -0.000007   0.000819
    21  H   -0.000375  -0.016450   0.530858   0.001686   0.000018  -0.000006
    22  H    0.000078   0.000014   0.001686   0.546391  -0.000377  -0.000349
    23  H    0.000000  -0.000007   0.000018  -0.000377   0.532005  -0.002575
    24  H    0.000004   0.000819  -0.000006  -0.000349  -0.002575   0.454818
    25  H    0.000000  -0.000153  -0.000001   0.000000   0.000019   0.000468
    26  H    0.000000  -0.000021   0.000001   0.000000   0.000000   0.000028
    27  H    0.000000  -0.000006   0.000000   0.000000   0.000000   0.000093
    28  H    0.000000  -0.000008   0.000000   0.000000   0.000000  -0.000014
    29  H    0.000000   0.000000   0.000000   0.000000   0.000000   0.000002
    30  H    0.000000   0.000000   0.000000   0.000000   0.000000   0.000001
              25         26         27         28         29         30
     1  O    0.000877   0.001544   0.006898   0.007001   0.000010   0.000033
     2  C   -0.022011  -0.030388  -0.004930   0.004933  -0.000376  -0.000727
     3  N    0.000130   0.001349   0.000427   0.000472  -0.000011   0.000012
     4  C    0.000347  -0.000653  -0.000045   0.000060  -0.000001  -0.000001
     5  C   -0.000011  -0.000060  -0.000001   0.000000   0.000000   0.000000
     6  O    0.000000  -0.000001   0.000000   0.000000   0.000000   0.000000
     7  O   -0.000046  -0.000074   0.000000   0.000000   0.000000   0.000000
     8  C   -0.000067   0.000088   0.000025   0.000000   0.000000   0.000000
     9  C    0.000126  -0.000012  -0.000004   0.000001   0.000000   0.000000
    10  C   -0.000001   0.000000   0.000000   0.000000   0.000000   0.000000
    11  N    0.000000   0.000000   0.000000   0.000000   0.000000   0.000000
    12  C    0.000047  -0.000001   0.000000   0.000000   0.000000   0.000000
    13  N    0.000271  -0.000001   0.000003  -0.000001   0.000000   0.000000
    14  C    0.369035   0.391000  -0.028371  -0.062660  -0.006359   0.010306
    15  C   -0.029871  -0.031991   0.401766   0.421694  -0.045717  -0.042896
    16  N    0.014444  -0.003139  -0.031662  -0.042139   0.363849   0.369008
    17  H    0.000220   0.001277  -0.000008  -0.000089   0.000008   0.000002
    18  H   -0.000025  -0.000226  -0.000019  -0.000005   0.000000   0.000000
    19  H    0.000000   0.000000   0.000000   0.000000   0.000000   0.000000
    20  H   -0.000153  -0.000021  -0.000006  -0.000008   0.000000   0.000000
    21  H   -0.000001   0.000001   0.000000   0.000000   0.000000   0.000000
    22  H    0.000000   0.000000   0.000000   0.000000   0.000000   0.000000
    23  H    0.000019   0.000000   0.000000   0.000000   0.000000   0.000000
    24  H    0.000468   0.000028   0.000093  -0.000014   0.000002   0.000001
    25  H    0.567832  -0.031555  -0.011698   0.011957  -0.002322  -0.000241
    26  H   -0.031555   0.569589   0.009112  -0.009242   0.006285  -0.000355
    27  H   -0.011698   0.009112   0.580199  -0.040502   0.010183  -0.009604
    28  H    0.011957  -0.009242  -0.040502   0.609592  -0.008911  -0.001560
    29  H   -0.002322   0.006285   0.010183  -0.008911   0.540197  -0.039835
    30  H   -0.000241  -0.000355  -0.009604  -0.001560  -0.039835   0.523473
 Mulliken charges:
               1
     1  O   -0.379512
     2  C    0.358010
     3  N   -0.426937
     4  C   -0.070173
     5  C    0.394655
     6  O   -0.315565
     7  O   -0.338293
     8  C   -0.180332
     9  C    0.062465
    10  C   -0.062817
    11  N   -0.300962
    12  C    0.149300
    13  N   -0.351535
    14  C   -0.271672
    15  C   -0.085796
    16  N   -0.461434
    17  H    0.245301
    18  H    0.171345
    19  H    0.261670
    20  H    0.166169
    21  H    0.142035
    22  H    0.093164
    23  H    0.106897
    24  H    0.231398
    25  H    0.132227
    26  H    0.127445
    27  H    0.118147
    28  H    0.109420
    29  H    0.182997
    30  H    0.192384
 Sum of Mulliken charges =   0.00000
 Mulliken charges with hydrogens summed into heavy atoms:
               1
     1  O   -0.379512
     2  C    0.358010
     3  N   -0.181637
     4  C    0.101172
     5  C    0.394655
     6  O   -0.053896
     7  O   -0.338293
     8  C    0.127872
     9  C    0.062465
    10  C    0.030348
    11  N   -0.300962
    12  C    0.256196
    13  N   -0.120137
    14  C   -0.012000
    15  C    0.141771
    16  N   -0.086052
 APT charges:
               1
     1  O   -0.062491
     2  C   -0.064864
     3  N   -0.450680
     4  C   -0.550008
     5  C   -0.292961
     6  O   -0.562759
     7  O   -0.004490
     8  C   -0.844835
     9  C   -0.297246
    10  C   -0.583856
    11  N    0.657096
    12  C   -0.712734
    13  N   -0.471768
    14  C   -0.532939
    15  C   -0.533156
    16  N   -1.685104
    17  H    0.444681
    18  H    0.463039
    19  H    0.970743
    20  H    0.273709
    21  H    0.596971
    22  H    0.741715
    23  H    0.573473
    24  H    0.095173
    25  H    0.192239
    26  H    0.414020
    27  H    0.227241
    28  H    0.410554
    29  H    0.590416
    30  H    0.998822
 Sum of APT charges =   0.00000
 APT charges with hydrogens summed into heavy atoms:
               1
     1  O   -0.062491
     2  C   -0.064864
     3  N   -0.005999
     4  C   -0.086969
     5  C   -0.292961
     6  O    0.407984
     7  O   -0.004490
     8  C    0.025845
     9  C   -0.297246
    10  C    0.157859
    11  N    0.657096
    12  C   -0.139261
    13  N   -0.376596
    14  C    0.073319
    15  C    0.104639
    16  N   -0.095866
 Electronic spatial extent (au):  <R**2>=           4491.3567
 Charge=              0.0000 electrons
 Dipole moment (field-independent basis, Debye):
    X=             -3.4786    Y=             -1.2341    Z=              1.8296  Tot=              4.1196
 Quadrupole moment (field-independent basis, Debye-Ang):
   XX=            -96.2534   YY=           -104.4678   ZZ=            -86.5758
   XY=             -8.7009   XZ=              8.4860   YZ=             -4.3857
 Traceless Quadrupole moment (field-independent basis, Debye-Ang):
   XX=             -0.4877   YY=             -8.7021   ZZ=              9.1899
   XY=             -8.7009   XZ=              8.4860   YZ=             -4.3857
 Octapole moment (field-independent basis, Debye-Ang**2):
  XXX=           -240.3830  YYY=            -12.6479  ZZZ=             -9.9947  XYY=            -47.1397
  XXY=            -69.9552  XXZ=             23.2066  XZZ=            -19.5763  YZZ=            -14.7452
  YYZ=            -14.8157  XYZ=             -5.7040
 Hexadecapole moment (field-independent basis, Debye-Ang**3):
 XXXX=          -3532.6286 YYYY=           -783.0475 ZZZZ=          -1164.3722 XXXY=           -382.4199
 XXXZ=           -110.7904 YYYX=           -308.1850 YYYZ=             91.8838 ZZZX=           -187.7299
 ZZZY=             90.0305 XXYY=           -896.0824 XXZZ=           -739.9038 YYZZ=           -370.9123
 XXYZ=            130.7324 YYXZ=           -147.9893 ZZXY=            -58.2598
 N-N= 1.129097596152D+03 E-N=-4.119725525953D+03  KE= 7.936660769243D+02
  Exact polarizability:   0.000   0.000   0.000   0.000   0.000   0.000
 Approx polarizability: 197.989  -0.591 203.131  19.933  -3.177 166.010
 Calling FoFJK, ICntrl=    100147 FMM=F ISym2X=0 I1Cent= 0 IOpClX= 0 NMat=1 NMatS=1 NMatT=0.
 -------------------------------------------------------------------
 Center     Atomic                   Forces (Hartrees/Bohr)
 Number     Number              X              Y              Z
 -------------------------------------------------------------------
      1        8          -0.002577433    0.003044671   -0.000326444
      2        6          -0.002812899   -0.007617774   -0.001212207
      3        7           0.001801094    0.000410287    0.000670509
      4        6           0.000622949   -0.003082479    0.000852311
      5        6           0.002535629    0.000909576    0.003474223
      6        8          -0.002218046   -0.000800564   -0.001799244
      7        8          -0.000399981   -0.000044147    0.001366992
      8        6           0.003457475    0.001604664   -0.003614094
      9        6          -0.001299823   -0.006635182    0.005703178
     10        6           0.005155037    0.006875861   -0.001493328
     11        7          -0.000229833   -0.002060369    0.000293043
     12        6           0.005310159   -0.000508827    0.002851221
     13        7          -0.005999551    0.001697426   -0.004934517
     14        6           0.000916477    0.000767575   -0.000406449
     15        6          -0.001327321   -0.000200320   -0.000413206
     16        7          -0.000150920    0.001619716   -0.001883410
     17        1          -0.000838875    0.002314003    0.000102874
     18        1          -0.001536485   -0.000686597    0.000845242
     19        1           0.002267547    0.001728990    0.002544095
     20        1          -0.001266059   -0.001292449    0.000423310
     21        1           0.000177866   -0.000309034   -0.000186667
     22        1          -0.001207681    0.000800356   -0.001542725
     23        1           0.000329741    0.002476094   -0.001172386
     24        1           0.001304536    0.000059203   -0.000550883
     25        1          -0.001344843    0.000847517    0.000151566
     26        1           0.001077235    0.000334043    0.001162084
     27        1          -0.000316451   -0.000820365   -0.000456865
     28        1           0.000702186   -0.001627668   -0.000434038
     29        1          -0.001258627    0.000679019    0.001815190
     30        1          -0.000873101   -0.000483225   -0.001829376
 -------------------------------------------------------------------
 Cartesian Forces:  Max     0.007617774 RMS     0.002321491
 FormGI is forming the generalized inverse of G from B-inverse, IUseBI=4.

 GradGradGradGradGradGradGradGradGradGradGradGradGradGradGradGradGradGrad
 Berny optimization.
 Internal  Forces:  Max     0.009057092 RMS     0.002202103
 Search for a local minimum.
 Step number   1 out of a maximum of  160
 All quantities printed in internal units (Hartrees-Bohrs-Radians)
 Mixed Optimization -- RFO/linear search
 Second derivative matrix not updated -- analytic derivatives used.
 ITU=  0
     Eigenvalues ---   -0.00152  -0.00053   0.00199   0.00258   0.00320
     Eigenvalues ---    0.00396   0.00448   0.00585   0.00853   0.00999
     Eigenvalues ---    0.01779   0.01989   0.02026   0.02501   0.03236
     Eigenvalues ---    0.03404   0.04174   0.04197   0.04256   0.04321
     Eigenvalues ---    0.04541   0.04591   0.05115   0.05175   0.05254
     Eigenvalues ---    0.05488   0.05929   0.06191   0.07596   0.07980
     Eigenvalues ---    0.08270   0.10089   0.10657   0.10697   0.10813
     Eigenvalues ---    0.11549   0.11765   0.13402   0.15067   0.15299
     Eigenvalues ---    0.16155   0.16967   0.17724   0.19040   0.19569
     Eigenvalues ---    0.21205   0.21636   0.22293   0.22953   0.23396
     Eigenvalues ---    0.24387   0.24738   0.25030   0.25790   0.27897
     Eigenvalues ---    0.29976   0.31643   0.32399   0.32633   0.33016
     Eigenvalues ---    0.33452   0.33636   0.33786   0.34265   0.34783
     Eigenvalues ---    0.35414   0.36416   0.37270   0.37324   0.37498
     Eigenvalues ---    0.39058   0.41132   0.42091   0.44481   0.44803
     Eigenvalues ---    0.45281   0.45666   0.46617   0.47475   0.47812
     Eigenvalues ---    0.52591   0.57538   0.79840   0.87489
 RFO step:  Lambda=-3.42981608D-03 EMin=-1.51943953D-03
 Linear search not attempted -- first point.
 Iteration  1 RMS(Cart)=  0.32588289 RMS(Int)=  0.02973324
 Iteration  2 RMS(Cart)=  0.07366410 RMS(Int)=  0.00170671
 Iteration  3 RMS(Cart)=  0.00297545 RMS(Int)=  0.00102336
 Iteration  4 RMS(Cart)=  0.00000438 RMS(Int)=  0.00102336
 Iteration  5 RMS(Cart)=  0.00000000 RMS(Int)=  0.00102336
 Variable       Old X    -DE/DX   Delta X   Delta X   Delta X     New X
                                 (Linear)    (Quad)   (Total)
    R1        2.31538  -0.00303   0.00000  -0.01394  -0.01394   2.30144
    R2        2.56742   0.00906   0.00000   0.03571   0.03571   2.60312
    R3        2.86976   0.00316   0.00000   0.00801   0.00801   2.87777
    R4        2.73373   0.00612   0.00000   0.02132   0.02132   2.75505
    R5        1.90789   0.00217   0.00000   0.00572   0.00572   1.91361
    R6        2.85472   0.00612   0.00000   0.01511   0.01511   2.86983
    R7        2.92214   0.00664   0.00000   0.00548   0.00548   2.92761
    R8        2.06835   0.00133   0.00000   0.00148   0.00148   2.06983
    R9        2.54252  -0.00009   0.00000  -0.00511  -0.00511   2.53741
   R10        2.27858   0.00056   0.00000   0.00101   0.00101   2.27959
   R11        1.82484   0.00356   0.00000   0.00657   0.00657   1.83142
   R12        2.81965   0.00392   0.00000   0.00474   0.00474   2.82439
   R13        2.06182   0.00088   0.00000   0.00627   0.00627   2.06809
   R14        2.06063   0.00021   0.00000   0.00166   0.00166   2.06230
   R15        2.58438   0.00658   0.00000   0.01240   0.01235   2.59672
   R16        2.59558   0.00677   0.00000   0.01743   0.01764   2.61321
   R17        2.61386  -0.00388   0.00000  -0.01310  -0.01334   2.60053
   R18        2.04506  -0.00202   0.00000  -0.00490  -0.00490   2.04016
   R19        2.48318  -0.00241   0.00000  -0.00523  -0.00533   2.47786
   R20        2.57273   0.00492   0.00000   0.00986   0.01003   2.58276
   R21        2.03324   0.00246   0.00000   0.00668   0.00668   2.03992
   R22        1.90439  -0.00112   0.00000  -0.00090  -0.00090   1.90349
   R23        2.87292   0.00446   0.00000   0.01211   0.01211   2.88503
   R24        2.06998   0.00027   0.00000   0.00098   0.00098   2.07096
   R25        2.07209   0.00053   0.00000   0.00170   0.00170   2.07379
   R26        2.76857   0.00320   0.00000   0.00558   0.00558   2.77415
   R27        2.06313   0.00037   0.00000  -0.00068  -0.00068   2.06245
   R28        2.07229   0.00112   0.00000   0.00537   0.00537   2.07765
   R29        1.91608   0.00224   0.00000   0.00435   0.00435   1.92043
   R30        1.91411   0.00202   0.00000   0.00369   0.00369   1.91779
    A1        2.11910   0.00297   0.00000   0.00222   0.00219   2.12129
    A2        2.15777  -0.00306   0.00000  -0.00489  -0.00492   2.15285
    A3        2.00623   0.00009   0.00000   0.00250   0.00247   2.00870
    A4        2.11381   0.00342   0.00000  -0.02661  -0.03319   2.08062
    A5        2.12025  -0.00281   0.00000  -0.02647  -0.03308   2.08717
    A6        2.01275  -0.00067   0.00000  -0.00041  -0.00783   2.00492
    A7        1.86647   0.00141   0.00000   0.01856   0.01870   1.88517
    A8        1.98585   0.00237   0.00000  -0.02313  -0.02324   1.96261
    A9        1.91864  -0.00227   0.00000  -0.02436  -0.02439   1.89425
   A10        1.94811  -0.00245   0.00000   0.00798   0.00803   1.95614
   A11        1.88660  -0.00007   0.00000   0.00648   0.00645   1.89305
   A12        1.85647   0.00083   0.00000   0.01464   0.01425   1.87072
   A13        1.95306   0.00021   0.00000  -0.00351  -0.00351   1.94956
   A14        2.17674   0.00078   0.00000  -0.00103  -0.00104   2.17571
   A15        2.15338  -0.00099   0.00000   0.00454   0.00454   2.15792
   A16        1.85929   0.00183   0.00000   0.01113   0.01113   1.87042
   A17        1.98809   0.00719   0.00000   0.01317   0.01310   2.00119
   A18        1.86956  -0.00283   0.00000  -0.02102  -0.02125   1.84831
   A19        1.88923  -0.00226   0.00000   0.00797   0.00800   1.89723
   A20        1.93128   0.00013   0.00000   0.02972   0.02982   1.96110
   A21        1.90241  -0.00330   0.00000  -0.02110  -0.02104   1.88137
   A22        1.87988   0.00079   0.00000  -0.01010  -0.00999   1.86989
   A23        2.30846  -0.00209   0.00000  -0.01486  -0.01512   2.29334
   A24        2.14412   0.00600   0.00000   0.02395   0.02369   2.16781
   A25        1.83034  -0.00389   0.00000  -0.00861  -0.00831   1.82203
   A26        1.93295   0.00301   0.00000   0.00828   0.00823   1.94118
   A27        2.22697  -0.00110   0.00000  -0.00536  -0.00537   2.22159
   A28        2.12326  -0.00191   0.00000  -0.00289  -0.00290   2.12036
   A29        1.83473   0.00072   0.00000   0.00116   0.00104   1.83577
   A30        1.94437   0.00187   0.00000   0.00532   0.00561   1.94998
   A31        2.20887  -0.00219   0.00000  -0.01044  -0.01058   2.19828
   A32        2.12995   0.00033   0.00000   0.00512   0.00497   2.13493
   A33        1.88238  -0.00171   0.00000  -0.00611  -0.00665   1.87573
   A34        2.18322   0.00119   0.00000  -0.00862  -0.00993   2.17329
   A35        2.21629   0.00052   0.00000   0.01057   0.00909   2.22538
   A36        1.97306   0.00053   0.00000  -0.00218  -0.00223   1.97083
   A37        1.90415   0.00087   0.00000   0.00599   0.00591   1.91006
   A38        1.90601  -0.00128   0.00000   0.00152   0.00146   1.90747
   A39        1.91253  -0.00098   0.00000  -0.01803  -0.01800   1.89453
   A40        1.91121   0.00120   0.00000   0.01656   0.01657   1.92778
   A41        1.85300  -0.00039   0.00000  -0.00397  -0.00390   1.84911
   A42        1.90346   0.00144   0.00000   0.00727   0.00722   1.91068
   A43        1.90329   0.00005   0.00000  -0.00818  -0.00817   1.89512
   A44        1.90240  -0.00056   0.00000   0.00500   0.00492   1.90732
   A45        1.89622  -0.00105   0.00000  -0.00207  -0.00204   1.89418
   A46        1.98959   0.00051   0.00000   0.00694   0.00686   1.99645
   A47        1.86723  -0.00045   0.00000  -0.01005  -0.01003   1.85720
   A48        1.91530   0.00070   0.00000   0.00835   0.00834   1.92364
   A49        1.91878   0.00004   0.00000  -0.00025  -0.00027   1.91851
   A50        1.84761   0.00010   0.00000   0.00602   0.00599   1.85360
    D1       -0.13496  -0.00027   0.00000  -0.05766  -0.05621  -0.19117
    D2       -2.97666   0.00007   0.00000   0.15770   0.15621  -2.82045
    D3        3.02031  -0.00001   0.00000  -0.04405  -0.04257   2.97774
    D4        0.17861   0.00033   0.00000   0.17131   0.16986   0.34847
    D5        0.00069  -0.00031   0.00000   0.16917   0.16915   0.16984
    D6       -2.13194  -0.00004   0.00000   0.18941   0.18942  -1.94252
    D7        2.13297   0.00066   0.00000   0.19001   0.18999   2.32296
    D8        3.12826  -0.00053   0.00000   0.15529   0.15529  -2.99963
    D9        0.99564  -0.00025   0.00000   0.17553   0.17556   1.17120
   D10       -1.02264   0.00044   0.00000   0.17613   0.17613  -0.84651
   D11       -2.83018   0.00145   0.00000   0.22186   0.22185  -2.60833
   D12        1.29374   0.00198   0.00000   0.21334   0.21352   1.50726
   D13       -0.78611   0.00096   0.00000   0.22715   0.22685  -0.55926
   D14        0.02896   0.00072   0.00000   0.01509   0.01516   0.04412
   D15       -2.13031   0.00125   0.00000   0.00656   0.00683  -2.12348
   D16        2.07303   0.00022   0.00000   0.02038   0.02016   2.09319
   D17        3.07468  -0.00114   0.00000   0.02330   0.02330   3.09798
   D18       -0.06475  -0.00107   0.00000   0.02161   0.02160  -0.04315
   D19       -1.02616   0.00123   0.00000   0.01238   0.01244  -1.01372
   D20        2.11760   0.00129   0.00000   0.01068   0.01074   2.12834
   D21        1.00960   0.00081   0.00000   0.03860   0.03854   1.04814
   D22       -2.12983   0.00088   0.00000   0.03690   0.03684  -2.09299
   D23        1.03415   0.00294   0.00000   0.18556   0.18552   1.21967
   D24       -1.10739   0.00015   0.00000   0.15440   0.15451  -0.95288
   D25       -3.13007   0.00183   0.00000   0.17303   0.17307  -2.95701
   D26       -1.08016   0.00121   0.00000   0.17202   0.17203  -0.90813
   D27        3.06149  -0.00158   0.00000   0.14086   0.14101  -3.08068
   D28        1.03881   0.00009   0.00000   0.15949   0.15957   1.19838
   D29       -3.13413   0.00212   0.00000   0.15111   0.15093  -2.98320
   D30        1.00752  -0.00067   0.00000   0.11995   0.11991   1.12743
   D31       -1.01516   0.00100   0.00000   0.13858   0.13847  -0.87670
   D32       -3.13012  -0.00082   0.00000  -0.04864  -0.04865   3.10442
   D33        0.00935  -0.00088   0.00000  -0.04698  -0.04698  -0.03763
   D34        1.96138  -0.00075   0.00000   0.21033   0.21024   2.17162
   D35       -1.15151  -0.00164   0.00000   0.18452   0.18429  -0.96722
   D36       -2.21443   0.00071   0.00000   0.21424   0.21450  -1.99993
   D37        0.95587  -0.00018   0.00000   0.18843   0.18855   1.14442
   D38       -0.15025  -0.00027   0.00000   0.20661   0.20664   0.05639
   D39        3.02004  -0.00116   0.00000   0.18079   0.18069  -3.08245
   D40       -3.12001  -0.00062   0.00000  -0.01985  -0.01966  -3.13967
   D41        0.01899  -0.00021   0.00000  -0.00626  -0.00608   0.01291
   D42       -0.00337   0.00028   0.00000   0.00303   0.00293  -0.00043
   D43        3.13563   0.00069   0.00000   0.01662   0.01651  -3.13104
   D44        3.12322   0.00021   0.00000   0.00900   0.00946   3.13268
   D45        0.03319   0.00013   0.00000   0.09127   0.09097   0.12416
   D46        0.00361  -0.00045   0.00000  -0.01052  -0.01039  -0.00678
   D47       -3.08642  -0.00053   0.00000   0.07175   0.07112  -3.01530
   D48        0.00179   0.00000   0.00000   0.00580   0.00590   0.00769
   D49       -3.13739  -0.00038   0.00000  -0.00685  -0.00677   3.13903
   D50        0.00059  -0.00029   0.00000  -0.01266  -0.01277  -0.01218
   D51        3.14121   0.00012   0.00000  -0.01232  -0.01253   3.12867
   D52       -0.00272   0.00047   0.00000   0.01503   0.01504   0.01232
   D53        3.08606   0.00058   0.00000  -0.06999  -0.07039   3.01567
   D54        3.13980   0.00009   0.00000   0.01473   0.01482  -3.12856
   D55       -0.05461   0.00019   0.00000  -0.07029  -0.07060  -0.12521
   D56       -3.13491   0.00035   0.00000   0.06964   0.06965  -3.06526
   D57       -1.06670  -0.00005   0.00000   0.06662   0.06660  -1.00009
   D58        0.96610  -0.00087   0.00000   0.05284   0.05282   1.01892
   D59       -1.00699   0.00112   0.00000   0.06281   0.06288  -0.94411
   D60        1.06123   0.00072   0.00000   0.05979   0.05983   1.12106
   D61        3.09402  -0.00010   0.00000   0.04601   0.04605   3.14007
   D62        1.01890   0.00077   0.00000   0.05721   0.05719   1.07609
   D63        3.08712   0.00037   0.00000   0.05418   0.05414   3.14126
   D64       -1.16327  -0.00045   0.00000   0.04041   0.04036  -1.12292
   D65       -1.23557   0.00011   0.00000  -0.01906  -0.01908  -1.25465
   D66        3.02231  -0.00043   0.00000  -0.03104  -0.03107   2.99124
   D67        2.97498  -0.00017   0.00000  -0.01220  -0.01219   2.96279
   D68        0.94968  -0.00071   0.00000  -0.02417  -0.02419   0.92549
   D69        0.89479   0.00081   0.00000  -0.00245  -0.00241   0.89238
   D70       -1.13051   0.00027   0.00000  -0.01442  -0.01440  -1.14492
         Item               Value     Threshold  Converged?
 Maximum Force            0.009057     0.000450     NO 
 RMS     Force            0.002202     0.000300     NO 
 Maximum Displacement     1.228356     0.001800     NO 
 RMS     Displacement     0.380836     0.001200     NO 
 Predicted change in Energy=-2.835703D-03
 GradGradGradGradGradGradGradGradGradGradGradGradGradGradGradGradGradGrad

                          Input orientation:                          
 ---------------------------------------------------------------------
 Center     Atomic      Atomic             Coordinates (Angstroms)
 Number     Number       Type             X           Y           Z
 ---------------------------------------------------------------------
      1          8           0       -1.226474   -1.919161   -0.536217
      2          6           0       -1.365039   -0.749486   -0.226602
      3          7           0       -0.395566   -0.071044    0.478650
      4          6           0        0.707653   -0.818120    1.070501
      5          6           0        1.150770   -0.086198    2.325185
      6          8           0        2.133745   -0.742814    2.962027
      7          8           0        0.684041    0.956758    2.711950
      8          6           0        1.877311   -1.032108    0.077421
      9          6           0        2.642026    0.206486   -0.261609
     10          6           0        3.980490    0.502645   -0.166580
     11          7           0        4.238782    1.784310   -0.595969
     12          6           0        3.071843    2.272506   -0.941267
     13          7           0        2.070165    1.358726   -0.769153
     14          6           0       -2.582891    0.079802   -0.611556
     15          6           0       -3.707488   -0.759229   -1.213307
     16          7           0       -4.795871    0.123195   -1.651291
     17          1           0       -0.635726    0.786878    0.960032
     18          1           0        0.341916   -1.809661    1.358219
     19          1           0        2.387589   -0.205355    3.727494
     20          1           0        1.437694   -1.504999   -0.806206
     21          1           0        2.577569   -1.748337    0.510592
     22          1           0        4.770814   -0.145834    0.180431
     23          1           0        2.887247    3.267234   -1.317711
     24          1           0        1.078797    1.510582   -0.862672
     25          1           0       -2.288702    0.842960   -1.340971
     26          1           0       -2.941929    0.627126    0.269251
     27          1           0       -3.318320   -1.288724   -2.084707
     28          1           0       -4.011192   -1.530651   -0.491188
     29          1           0       -5.287711    0.500488   -0.845996
     30          1           0       -5.481232   -0.408367   -2.178213
 ---------------------------------------------------------------------
                    Distance matrix (angstroms):
                    1          2          3          4          5
     1  O    0.000000
     2  C    1.217868   0.000000
     3  N    2.266253   1.377513   0.000000
     4  C    2.744938   2.446066   1.457911   0.000000
     5  C    4.147128   3.644292   2.408543   1.518649   0.000000
     6  O    4.991250   4.733803   3.607748   2.370080   1.342740
     7  O    4.740419   3.968008   2.685062   2.417665   1.206308
     8  C    3.285863   3.268813   2.500121   1.549226   2.544612
     9  C    4.422565   4.119669   3.138785   2.562447   3.000168
    10  C    5.754498   5.490547   4.460415   3.739820   3.816142
    11  N    6.602144   6.161117   5.106303   4.692403   4.644111
    12  C    6.017447   5.415635   4.419425   4.380477   4.463599
    13  N    4.654743   4.066884   3.111444   3.159023   3.536668
    14  C    2.416898   1.522850   2.448610   3.803059   4.753129
    15  C    2.821227   2.541800   3.782214   4.971189   6.047857
    16  N    4.260892   3.816008   4.892551   6.211521   7.156727
    17  H    3.148078   2.073744   1.012637   2.095922   2.411944
    18  H    2.461854   2.559165   2.083341   1.095306   2.135321
    19  H    5.846180   5.478428   4.280067   3.202698   1.873603
    20  H    2.709652   2.960076   2.658557   2.127626   3.449773
    21  H    3.949144   4.133439   3.413776   2.162265   2.844505
    22  H    6.294897   6.178896   5.175520   4.213487   4.208116
    23  H    6.665743   5.950335   5.014766   5.210020   5.247051
    24  H    4.145357   3.388926   2.544490   3.049223   3.566135
    25  H    3.066801   2.151942   2.780357   4.189574   5.112143
    26  H    3.174136   2.151165   2.648632   4.006268   4.635287
    27  H    2.677890   2.749298   4.073823   5.136659   6.392651
    28  H    2.812049   2.771705   4.017933   5.021361   6.055101
    29  H    4.737543   4.163345   5.100433   6.430869   7.201016
    30  H    4.804333   4.568172   5.747756   7.001738   8.022957
                    6          7          8          9         10
     6  O    0.000000
     7  O    2.247827   0.000000
     8  C    2.910395   3.510018   0.000000
     9  C    3.398727   3.638497   1.494605   0.000000
    10  C    3.840549   4.399855   2.615026   1.374127   0.000000
    11  N    4.845294   4.925785   3.736605   2.269572   1.376139
    12  C    5.020745   4.558375   3.658566   2.217006   2.134991
    13  N    4.282781   3.768421   2.543613   1.382853   2.178373
    14  C    5.974432   4.742108   4.648057   5.238155   6.592022
    15  C    7.180089   6.134964   5.738504   6.492662   7.860850
    16  N    8.369722   7.054228   6.989601   7.567064   8.909144
    17  H    3.744050   2.199969   3.225379   3.545831   4.760198
    18  H    2.630782   3.098824   2.145336   3.461097   4.572853
    19  H    0.969144   2.298676   3.777160   4.018369   4.266428
    20  H    3.907044   4.359548   1.094388   2.162448   3.302357
    21  H    2.686557   3.968496   1.091321   2.102803   2.737456
    22  H    3.879148   4.932140   3.027945   2.202559   1.079608
    23  H    5.913071   5.141068   4.631491   3.247101   3.187983
    24  H    4.562787   3.638747   2.826070   2.122647   3.149651
    25  H    6.370911   5.027556   4.783658   5.087455   6.387313
    26  H    5.906796   4.384415   5.100483   5.624882   6.937241
    27  H    7.449332   6.638449   5.633404   6.409763   7.756342
    28  H    7.092646   6.204233   5.936862   6.880091   8.252674
    29  H    8.433555   6.966275   7.385059   7.956675   9.293070
    30  H    9.193573   7.986730   7.721729   8.368915   9.716006
                   11         12         13         14         15
    11  N    0.000000
    12  C    1.311226   0.000000
    13  N    2.216758   1.366739   0.000000
    14  C    7.031416   6.073934   4.828189   0.000000
    15  C    8.366236   7.431335   6.169625   1.526694   0.000000
    16  N    9.246511   8.186854   7.031867   2.445447   1.468019
    17  H    5.213141   4.423584   3.261738   2.600249   4.068116
    18  H    5.649871   5.422565   4.189418   4.000572   4.910583
    19  H    5.106664   5.329665   4.771472   6.604115   7.865638
    20  H    4.325488   4.118036   2.932969   4.326035   5.214863
    21  H    4.057549   4.303414   3.398388   5.588529   6.591821
    22  H    2.147396   3.161183   3.234024   7.399670   8.613963
    23  H    2.132281   1.079477   2.147311   6.370305   7.727472
    24  H    3.183012   2.135167   1.007282   3.939307   5.308814
    25  H    6.636959   5.562266   4.426366   1.095903   2.143889
    26  H    7.324636   6.351226   5.170552   1.097403   2.169340
    27  H    8.292749   7.404323   6.146173   2.141003   1.091400
    28  H    8.891683   8.052077   6.738595   2.155943   1.099447
    29  H    9.615862   8.545833   7.408159   2.747361   2.053999
    30  H   10.089103   9.048326   7.882364   3.330631   2.049467
                   16         17         18         19         20
    16  N    0.000000
    17  H    4.956439   0.000000
    18  H    6.260186   2.802918   0.000000
    19  H    8.980053   4.217085   3.517391   0.000000
    20  H    6.497885   3.559686   2.445053   4.811010   0.000000
    21  H    7.908475   4.117593   2.391731   3.572863   1.758547
    22  H    9.744179   5.541516   4.875514   4.273752   3.732354
    23  H    8.308222   4.873563   6.278070   6.145130   5.013686
    24  H    6.087567   2.604915   4.061940   5.072179   3.037387
    25  H    2.626833   2.833741   4.608923   6.975385   4.436768
    26  H    2.716528   2.412731   4.231716   6.407513   4.988352
    27  H    2.089144   4.557946   5.051974   8.216615   4.929605
    28  H    2.167202   4.344048   4.737900   7.778051   5.458044
    29  H    1.016246   4.998472   6.472098   8.962436   7.018165
    30  H    1.014853   5.895432   6.955503   9.840576   7.138385
                   21         22         23         24         25
    21  H    0.000000
    22  H    2.736301   0.000000
    23  H    5.347386   4.176276   0.000000
    24  H    3.840927   4.178847   2.561910   0.000000
    25  H    5.815815   7.288974   5.715601   3.466199   0.000000
    26  H    6.013811   7.751887   6.593019   4.269423   1.751029
    27  H    6.458199   8.477684   7.736543   5.353888   2.481397
    28  H    6.668037   8.915851   8.443417   5.940966   3.053380
    29  H    8.292176  10.131397   8.643341   6.446161   3.058814
    30  H    8.600550  10.523144   9.180520   6.960387   3.529736
                   26         27         28         29         30
    26  H    0.000000
    27  H    3.058311   0.000000
    28  H    2.525389   1.754395   0.000000
    29  H    2.600482   2.934993   2.425060   0.000000
    30  H    3.675647   2.337083   2.503316   1.624275   0.000000
 Symmetry turned off by external request.
 Stoichiometry    C9H14N4O3
 Framework group  C1[X(C9H14N4O3)]
[...]
 0128791,-0.01537642,0.01203282,-0.01646157,-0.01397221,-0.06341045,0.0
 2107857,-0.00001581,0.00002310,0.00009743,-0.00009237,-0.00009011,-0.0
 0002628,0.00009383,-0.00005134,0.00006686,0.00009951,0.00042100,-0.000
 03434,-0.00002151,0.00003427,0.00001711,0.00003963,0.00002713,-0.00002
 060,-0.00030666,-0.00090356,-0.00021003,-0.00003409,0.00004795,-0.0004
 0022,0.00062446,0.00115412,0.00083750,0.00070774,-0.00064943,-0.000028
 39,0.00964246,0.05067748,-0.00007312,-0.00159150,-0.00124783,0.0024551
 3,0.00222952,0.00281142,-0.00300289,-0.00285078,0.00081689,-0.00087850
 ,0.00143235,-0.00098731,-0.00063184,0.00066116,-0.00041866,0.00047745,
 -0.00021757,0.00029012,0.00021307,-0.00046349,0.00026841,0.00092171,-0
 .00006351,-0.00044518,-0.01029441,-0.00865349,-0.00743997,-0.00219096,
 0.00387371,-0.00045710,-0.00008831,0.00281098,0.00553438,0.00619589,-0
 .00550485,-0.00320931,-0.16135225,0.02137612,-0.08616550,-0.00012508,-
 0.00003413,0.00010571,0.00018111,0.00010578,-0.00001964,-0.00011286,0.
 00002780,-0.00013290,0.00102412,0.00045020,-0.00120608,0.00015836,-0.0
 0012410,-0.00006263,-0.00005379,0.00002328,-0.00004013,-0.00012459,-0.
 00017792,0.00003733,0.00002188,-0.00020882,-0.00005651,-0.00111728,0.0
 0020665,0.00133013,0.00028667,-0.00034672,-0.00099920,0.16821130,-0.01
 300558,0.09178723,-0.00176119,-0.00068281,0.00236737,0.00714730,0.0120
 8775,-0.02512794,-0.00244328,-0.00058301,0.00080214,-0.00061534,-0.000
 49503,0.00104147,0.00011189,0.00000093,0.00026620,-0.00005507,0.000020
 03,-0.00007531,-0.00004112,-0.00006640,-0.00012268,-0.00021219,0.00015
 638,-0.00032391,-0.00001649,0.00019666,-0.00009688,0.00007056,0.000016
 79,0.00003328,0.00010576,-0.00005902,0.00007035,-0.00013132,-0.0001818
 2,0.00002458,-0.00000094,0.00003185,0.00001904,-0.05411430,-0.02092504
 ,0.04610207,-0.00962187,-0.01533976,0.02567286,0.00267557,0.00098956,0
 .00046841,0.00010011,0.00056733,-0.00039909,0.00001200,0.00003873,0.00
 002651,0.00001412,0.00000302,0.00000528,0.00007022,0.00000574,-0.00005
 029,-0.00012647,0.00001568,0.00007477,0.00001469,0.00000205,0.00000709
 ,-0.00000781,-0.00001075,0.00000104,-0.00023453,-0.00002448,-0.0001446
 9,0.06347412,0.00266013,0.00017558,-0.00246867,-0.00520983,-0.00983538
 ,0.01684753,0.00022688,0.00005072,-0.00069824,0.00034551,0.00004859,-0
 .00013700,0.00004087,-0.00001809,-0.00008882,-0.00001321,0.00001092,0.
 00000189,-0.00003614,0.00003407,0.00003845,0.00004272,-0.00000475,0.00
 007953,0.00003771,-0.00003292,0.00003269,-0.00001183,-0.00000689,-0.00
 000704,-0.00002424,0.00000098,-0.00001386,0.00002546,0.00004811,-0.000
 01928,0.00001901,-0.00002712,-0.00005857,-0.02406471,-0.09591331,0.099
 57616,-0.00775298,-0.01112225,0.01783913,0.00215232,0.00135374,-0.0008
 0288,0.00014361,0.00014927,-0.00010492,-0.00005747,-0.00001844,-0.0000
 6705,-0.00000388,-0.00000274,0.00000475,-0.00004397,-0.00001588,0.0000
 5056,0.00001824,0.00000102,-0.00001169,-0.00000388,0.00000003,0.000003
 40,-0.00000765,-0.00000022,0.00000663,0.00004509,0.00011968,0.00010458
 ,0.02895408,0.10524080,-0.00019517,-0.00092602,0.00039736,0.00050251,0
 .00338144,-0.00766556,-0.00127188,0.00019421,0.00091358,-0.00051867,-0
 .00021956,0.00032071,0.00008237,-0.00002855,0.00001376,-0.00004995,0.0
 0001778,-0.00002356,-0.00008016,-0.00000300,0.00002394,-0.00008041,0.0
 0013362,-0.00017863,-0.00004066,0.00016791,-0.00009955,0.00005451,0.00
 001981,0.00003050,0.00011642,-0.00004092,0.00006503,-0.00014164,-0.000
 14900,0.00000282,0.00005255,-0.00004400,0.00003792,0.05160996,0.098678
 58,-0.23796935,-0.00075126,-0.00103806,0.00317600,-0.00010339,-0.00107
 330,0.00054864,0.00049557,0.00055473,-0.00040827,0.00007717,-0.0000351
 4,0.00002304,0.00001362,0.00000935,-0.00000890,-0.00000393,0.00000024,
 -0.00001472,-0.00006174,-0.00001369,0.00004546,0.00001516,-0.00000084,
 0.00000327,-0.00001435,-0.00001034,0.00000799,-0.00030913,0.00005700,-
 0.00005152,-0.05332145,-0.10898023,0.25778507,-0.00382416,0.00525259,-
 0.00336566,0.00007348,0.01572679,0.02226759,-0.00027286,-0.00112217,-0
 .00110557,0.00024556,-0.00028461,-0.00001385,-0.00011542,0.00032614,0.
 00015990,0.00007646,-0.00010979,-0.00000174,0.00009371,-0.00022177,-0.
 00012201,0.00006530,-0.00003512,0.00006272,0.,0.00004662,-0.00004257,0
 .00001649,-0.00000256,0.00000620,0.00001098,-0.00003423,0.00001460,-0.
 00003976,-0.00003184,-0.00000242,0.00002995,-0.00002877,-0.00001988,-0
 .05722350,0.02829857,0.02601010,0.00444272,-0.02155362,-0.02098960,0.0
 0216616,0.00000693,0.00079482,-0.00163346,0.00062501,-0.00109201,0.000
 16458,-0.00004550,0.00016183,-0.00001486,0.00001070,-0.00000702,0.0000
 8737,-0.00000722,-0.00005181,0.00001700,-0.00000459,-0.00001728,0.0000
 0041,0.00000160,0.00000469,-0.00000790,-0.00000386,0.00000964,-0.00003
 608,0.00009560,0.00004883,-0.00144819,0.00479035,0.00467995,0.06141259
 ,0.00484374,-0.00216130,0.00198610,-0.00146276,-0.01548267,-0.01540829
 ,-0.00125136,0.00123633,0.00036059,-0.00005196,-0.00012689,0.00077316,
 0.00026441,-0.00031732,-0.00012422,-0.00010321,0.00010881,-0.00002077,
 -0.00020735,0.00017547,0.00011226,-0.00014552,0.00013301,-0.00014838,0
 .00000168,0.00000650,0.00001977,-0.00000542,0.00000457,0.00000685,-0.0
 0000099,0.00000282,-0.00000160,0.00000577,0.00000718,-0.00000164,-0.00
 000828,0.00000094,0.00001175,0.02995351,-0.17284361,-0.12193598,0.0032
 3613,-0.01368780,-0.01267892,0.00034685,0.00111623,0.00088767,0.001010
 60,0.00099804,0.00038282,-0.00002999,0.00005672,-0.00009977,0.00002738
 ,-0.00000493,0.00000840,-0.00006245,-0.00001574,0.00004582,-0.00005855
 ,-0.00000216,0.00004415,0.00000370,-0.00000176,-0.00000307,0.00000023,
 -0.00000074,-0.00000133,0.00000981,-0.00000878,-0.00002677,-0.00242662
 ,0.01093704,0.00937672,-0.03059766,0.19025089,-0.00155898,0.00262874,0
 .00051971,-0.00267435,0.00702800,0.00503552,0.00008385,0.00049274,-0.0
 0021199,0.00023028,0.00007329,0.00049638,0.00008366,-0.00012517,-0.000
 10164,-0.00000791,0.00003126,0.00004059,0.00000239,0.00010899,0.000040
 36,-0.00002427,-0.00001676,-0.00003922,-0.00000656,-0.00003241,0.00000
 695,-0.00001422,0.00000323,-0.00000619,-0.00000662,0.00003349,-0.00000
 640,0.00002468,0.00001104,0.00001204,-0.00003650,0.00003638,0.00004896
 ,0.02835319,-0.12421534,-0.16476790,0.00079792,-0.00296444,-0.00306377
 ,-0.00003172,0.00057231,0.00026241,-0.00040942,0.00028522,0.00059570,-
 0.00000399,0.00006178,-0.00000232,-0.00000119,-0.00000998,0.00000557,0
 .00000593,0.00003146,0.00000854,0.00000544,0.00000091,0.00001732,-0.00
 000250,-0.00000074,-0.00000526,0.00001340,0.00000337,-0.00001640,0.000
 03610,-0.00011758,-0.00009048,0.00505500,-0.02053733,-0.01909423,-0.02
 728965,0.13614851,0.17801233,-0.00078398,0.00158019,0.00106423,0.00049
 991,-0.00264192,-0.00205879,0.00055634,0.00107168,0.00070498,-0.000172
 03,0.00025802,0.00000806,0.00001134,-0.00009839,-0.00015191,0.00002122
 ,0.00002178,0.00005985,-0.00001862,0.00008013,0.00010339,-0.00001094,-
 0.00001612,-0.00000950,-0.00001751,-0.00002210,0.00000449,-0.00001144,
 0.00000271,-0.00000477,0.00001575,0.00003106,-0.00000432,0.00000329,0.
 00000092,0.00000069,0.00001345,0.00001078,0.00001295,0.00465854,-0.021
 93662,-0.01939716,-0.05807643,0.03693872,0.03550449,-0.00911628,0.0230
 5949,0.01480357,0.00045483,-0.00014498,0.00025372,-0.00006979,-0.00001
 369,-0.00007547,-0.00000062,-0.00000129,-0.00000388,-0.00004214,0.0000
 1015,0.00002950,0.00001231,-0.00000031,0.00000308,-0.00000154,-0.00000
 141,-0.00000077,0.00000352,0.00000288,-0.00000430,0.00000790,-0.000050
 59,-0.00000021,0.00137924,0.00044275,0.00027415,-0.00532109,-0.0030673
 2,-0.00108820,0.06991358,0.00154759,0.00088877,0.00153003,0.00113568,-
 0.00166962,-0.00043520,-0.00012917,0.00002661,-0.00021327,0.00004985,0
 .00000179,0.00003857,0.00004962,-0.00003217,0.00000092,-0.00003378,0.0
 0001838,-0.00002069,-0.00003652,0.00003919,-0.00000004,-0.00000994,0.0
 0000171,-0.00002384,-0.00000186,0.00000264,0.00000678,0.00000067,0.000
 00345,0.00000196,-0.00000066,-0.00000112,0.00000431,-0.00000132,-0.000
 00245,0.00000168,-0.00001074,0.00001019,0.00001787,-0.00010297,-0.0145
 0048,-0.01331668,0.03847508,-0.18603924,-0.12171222,0.00647727,-0.0167
 0716,-0.01043341,0.00005316,0.00008258,0.00011680,-0.00002359,0.000020
 48,-0.00001436,0.00000221,-0.00000241,0.00000287,-0.00001121,0.0000047
 8,0.00000400,-0.00000600,0.00000239,0.00000847,0.00000125,-0.00000063,
 -0.00000181,0.00000227,-0.00000186,-0.00000469,0.00001248,-0.00001993,
 -0.00004168,0.00056590,0.00031812,0.00008712,-0.00271846,-0.00114232,0
 .00004289,-0.04523767,0.20772299,0.00126524,0.00202191,0.00072754,0.00
 056761,-0.00360161,-0.00088221,0.00007200,0.00071916,0.00037459,-0.000
 06392,0.00003795,-0.00003966,0.00002296,-0.00006593,-0.00010480,-0.000
 00528,0.00002184,0.00001912,-0.00002974,0.00005919,0.00008439,0.000005
 71,-0.00001265,-0.00000270,-0.00000519,-0.00002409,0.00001431,-0.00000
 990,0.00000017,-0.00000294,-0.00000388,0.00001933,-0.00000932,0.000015
 27,0.00001474,0.00000003,0.00000303,0.00000196,-0.00000383,-0.00064731
 ,-0.00295177,-0.00376593,0.03683981,-0.12769030,-0.16650982,-0.0040587
 4,0.01399368,0.01137149,0.00009302,0.00002463,0.00013467,-0.00001541,-
 0.00000015,-0.00003763,0.00000259,-0.00000208,-0.00000294,-0.00002661,
 -0.00000149,0.00002600,0.00000521,-0.00000020,-0.00000258,-0.00000176,
 -0.00000071,-0.00000140,0.00000287,0.00000316,-0.00000165,0.00001892,-
 0.00001991,0.00002187,-0.00041299,0.00042989,0.00094572,-0.00100117,-0
 .00008772,0.00135502,-0.03603483,0.13396777,0.17414501,-0.00001914,0.0
 0134286,-0.00026320,0.00146374,-0.00255686,0.00124088,-0.00043998,0.00
 033428,-0.00063682,0.00008837,-0.00016320,0.00002351,-0.00001022,0.000
 04004,0.00010388,-0.00003572,0.00000997,-0.00007362,0.00000283,-0.0000
 0039,-0.00007794,-0.00002629,0.00003207,-0.00001669,0.00004193,-0.0000
 5452,0.00004650,-0.00001888,-0.00001008,-0.00000841,-0.00006454,-0.000
 00218,-0.00002977,0.00006789,0.00007127,-0.00000080,-0.00004196,0.0000
 0201,-0.00002116,-0.01067503,-0.01134661,0.02403752,-0.07132564,-0.028
 20566,0.06083051,0.00204829,0.01756610,-0.02764280,-0.00001677,-0.0000
 2544,0.00018477,-0.00005590,0.00005207,-0.00000001,-0.00000923,-0.0000
 0796,0.00000875,0.00001431,-0.00002009,-0.00000288,-0.00002267,0.00000
 422,0.00000056,-0.00000510,0.00000152,-0.00000136,0.00000441,0.0000036
 0,-0.00000090,0.00010499,0.00000496,0.00002119,-0.00477367,-0.00317445
 ,-0.00106599,0.00132020,0.00045198,-0.00063454,-0.00091803,-0.00282160
 ,0.00544906,0.08060700,-0.00008477,0.00064122,0.00024454,0.00067607,-0
 .00113551,0.00032884,-0.00022803,0.00026629,-0.00038981,0.00003311,-0.
 00007966,-0.00004167,-0.00006915,0.00008620,0.00008729,0.00000932,-0.0
 0001666,-0.00003916,0.00005160,-0.00003033,-0.00007733,-0.00001895,0.0
 0000371,-0.00000218,0.00001958,-0.00003807,0.00002402,-0.00001416,-0.0
 0000768,-0.00000902,-0.00003491,0.00000806,-0.00002236,0.00004207,0.00
 003836,0.00000352,-0.00002025,0.00000230,-0.00001255,-0.00931665,-0.00
 747196,0.01533160,-0.02906709,-0.08889560,0.07660790,0.00441466,-0.011
 47474,0.02056523,-0.00008505,-0.00005384,0.00014422,-0.00002569,0.0000
 3429,0.00000265,-0.00001720,-0.00000524,0.00000366,0.00000713,-0.00000
 297,-0.00000773,-0.00000920,0.00000264,-0.00000156,-0.00000496,0.00000
 156,-0.00000027,0.00000409,0.00000405,0.00000004,0.00006249,-0.0000062
 8,0.00001693,-0.00294630,-0.00132192,-0.00012412,0.00101322,0.00032600
 ,0.00037442,0.00659422,0.01089586,-0.01938966,0.02981932,0.09737126,0.
 00008663,-0.00101342,0.00062670,0.00008792,0.00144265,0.00020902,0.000
 45775,-0.00030857,0.00004984,0.00002232,0.00010631,0.00001836,0.000037
 66,-0.00001637,-0.00004509,0.00000054,-0.00001097,0.00003902,-0.000025
 86,-0.00001274,0.00003798,0.00001332,-0.00002503,0.00000674,-0.0000145
 7,0.00002129,-0.00000512,0.00000663,0.00000597,0.00000651,0.00001354,-
 0.00001640,0.00001547,-0.00002416,-0.00001598,-0.00000494,0.00001037,0
 .00000411,0.00001107,-0.00143793,-0.00323281,0.00429709,0.06359206,0.0
 7688066,-0.22369516,-0.00662302,0.01162170,-0.00994504,-0.00001422,0.0
 0004109,-0.00013035,0.00002836,-0.00003562,-0.00000729,0.00001759,0.00
 001104,-0.00000394,-0.00000873,0.00000706,0.00000028,0.00001328,-0.000
 00138,-0.00000121,0.00000444,-0.00000133,-0.00000036,-0.00000314,-0.00
 000466,-0.00000025,-0.00000552,0.00000890,-0.00002130,-0.00173423,-0.0
 0077355,0.00119759,0.00040128,0.00052482,0.00092067,0.00760524,0.00871
 733,-0.01911544,-0.06122746,-0.09339992,0.24394636,-0.00014109,-0.0010
 6473,-0.00030576,-0.00054048,0.00112727,-0.00041024,0.00006680,-0.0001
 7819,0.00000753,-0.00005765,0.00003815,-0.00003431,-0.00007701,0.00007
 217,-0.00002844,0.00005809,-0.00004228,0.00004705,0.00005144,-0.000056
 79,0.00000825,0.00000994,-0.00000913,0.00001858,-0.00001095,0.00001752
 ,-0.00002066,0.00000372,0.00000053,0.00000012,0.00002793,-0.00000120,0
 .00000852,-0.00002912,-0.00001965,-0.00000586,0.00002930,-0.00000872,-
 0.00000081,0.00089085,0.00124336,0.00154050,-0.00948703,0.01654939,0.0
 2337145,-0.10225540,0.09895506,0.07976104,-0.00008603,0.00000069,-0.00
 006759,0.00001455,-0.00001434,0.00000208,-0.00000607,0.00000775,-0.000
 01153,-0.00000430,0.00000504,-0.00000019,0.00001190,-0.00000076,-0.000
 00117,0.00000059,-0.00000090,0.00000312,-0.00000655,-0.00000192,0.0000
 0508,-0.00003002,0.00001993,0.00001422,-0.00009312,0.00005587,0.000091
 71,-0.00056827,-0.00066287,-0.00081917,-0.00357561,0.00267477,-0.00291
 159,0.00142224,-0.00068940,-0.00099639,0.10371312,0.00010739,0.0000736
 1,0.00009472,0.00017950,-0.00029201,-0.00003802,-0.00006437,-0.0000087
 8,0.00004789,0.00000319,0.00000265,-0.00002037,0.00000618,0.00002586,-
 0.00000640,-0.00000147,-0.00001382,0.00000775,-0.00000959,-0.00002677,
 0.00000972,0.00000819,0.00000116,-0.00000285,-0.00000220,0.00001448,-0
 .00000240,0.00000404,0.00000138,0.00000319,0.00000735,-0.00001618,0.00
 000732,-0.00001439,-0.00000321,-0.00000664,0.00000744,-0.00000605,0.00
 000169,-0.00053664,0.00120758,0.00053415,0.01025815,-0.01790366,-0.015
 75778,0.07409727,-0.17339342,-0.15414495,0.00000515,0.00005970,-0.0000
 3914,0.00000791,-0.00000948,-0.00000350,0.00000651,0.00000747,-0.00000
 459,-0.00000439,-0.00000017,0.00000090,0.00000076,-0.00000092,0.000001
 53,0.00000245,-0.00000091,0.00000116,-0.00000534,-0.00000272,0.0000037
 4,-0.00000498,0.00002346,-0.00000491,0.00000381,-0.00004893,0.00028237
 ,0.00049507,0.00034217,-0.00027199,0.00320811,-0.00085884,0.00302610,-
 0.00176872,0.00082117,-0.00083139,-0.09494264,0.20575805,-0.00024632,0
 .00003222,-0.00007614,0.00004726,0.00016362,0.00008161,0.00011547,-0.0
 0003760,-0.00004313,-0.00003029,0.00003078,0.00000853,-0.00004346,0.00
 000666,-0.00001823,0.00003360,-0.00000689,0.00002127,0.00003570,0.0000
 0309,0.00000064,-0.00000578,-0.00001013,0.00001061,-0.00000611,-0.0000
 0925,-0.00000618,-0.00000464,-0.00000067,-0.00000413,0.00000645,0.0000
 2117,-0.00000498,0.00000232,-0.00000722,0.00000553,0.00000748,0.000005
 00,0.00000010,0.00083174,0.00021542,0.00075393,-0.00837146,0.01753995,
 0.00846267,0.07817173,-0.20061509,-0.22015276,-0.00004644,-0.00004741,
 0.00001211,-0.00000246,0.00000108,0.00000381,-0.00001051,-0.00000369,-
 0.00000137,0.00000194,0.00000335,-0.00000072,0.00000547,0.00000077,-0.
 00000276,-0.00000267,0.00000037,-0.00000021,0.00000378,0.00000243,-0.0
 0000228,-0.00000416,-0.00002511,0.00001183,0.00004744,-0.00013255,-0.0
 0030352,0.00027218,-0.00034341,-0.00002321,-0.00245470,0.00199928,0.00
 020030,-0.00010690,0.00050039,0.00198711,-0.07679540,0.18455986,0.2204
 7529,0.00008919,0.00078160,0.00022224,-0.00031498,-0.00272032,-0.00044
 857,-0.00091357,0.00059537,-0.00030993,0.00008591,-0.00025086,-0.00009
 821,0.00003150,0.00007849,0.00014907,-0.00008460,0.00000917,-0.0001142
 0,-0.00003594,-0.00002022,-0.00008526,-0.00000819,0.00002983,-0.000045
 84,0.00002102,0.00000820,0.00002217,0.00000407,-0.00000055,0.00000638,
 -0.00002989,-0.00002791,-0.00000028,0.00001432,0.00001760,-0.00000033,
 -0.00003410,0.00000167,0.00000540,-0.00449301,0.00565489,-0.00224586,-
 0.02058659,-0.01947933,-0.00304493,-0.27290020,-0.15516467,-0.10336881
 ,0.00002995,0.00007383,0.00008586,-0.00001115,0.00002238,0.00000480,0.
 00000118,-0.00000103,0.00000611,0.00001740,-0.00001269,-0.00000680,-0.
 00002969,0.00000046,0.00000884,0.00000206,0.00000034,-0.00000225,0.000
 00023,-0.00000342,-0.00000148,0.00003452,0.00002121,-0.00004016,0.0005
 2134,0.00040363,-0.00005586,0.00028260,-0.00001351,-0.00008207,0.00058
 484,0.00009773,0.00086503,0.00127260,-0.00011512,-0.00028369,0.0106682
 3,0.00894627,0.00854874,0.28578095,-0.00019932,-0.00001324,-0.00001708
 ,0.00079212,0.00093951,0.00000563,0.00016274,-0.00024212,0.00009777,0.
 00001441,0.00000855,0.00009577,0.00003418,-0.00003875,0.00000172,-0.00
 000889,0.00001088,0.00000396,-0.00001683,0.00001238,0.,-0.00000900,0.0
 0000721,0.00000003,0.00000328,-0.00000376,0.00000340,0.,0.00000006,-0.
 00000007,-0.00000948,-0.00000445,-0.00000023,0.00000827,0.00000638,0.0
 0000108,-0.00000975,0.00000204,-0.00000021,0.00221397,-0.00192505,0.00
 137762,0.02180002,0.01139701,0.01167087,-0.16335359,-0.17666925,-0.090
 43314,0.00001972,-0.00000402,-0.00002824,0.00000791,0.00000081,0.00000
 809,0.00000722,0.00000010,0.00000475,0.00000293,-0.00000025,-0.0000050
 4,-0.00000106,0.00000011,-0.00000027,0.00000056,0.00000039,-0.00000057
 ,0.00000184,0.00000019,-0.00000159,0.00000810,-0.00000335,-0.00000327,
 0.00008476,-0.00011984,-0.00027413,0.00011255,0.00009331,0.00032370,-0
 .00008117,0.00093829,-0.00049323,0.00042152,0.00003748,0.00030721,-0.0
 2307396,-0.01575286,-0.00384640,0.16106694,0.18132226,0.00026831,-0.00
 004212,-0.00015701,-0.00039383,-0.00021776,0.00063826,0.00031422,-0.00
 004862,0.00009117,-0.00003868,0.00006563,-0.00002383,-0.00007719,0.000
 02517,-0.00006221,0.00006980,-0.00002306,0.00005402,0.00005647,-0.0000
 1487,0.00002655,0.00000807,-0.00001899,0.00003278,-0.00001263,-0.00000
 311,-0.00002024,-0.00000230,-0.00000108,-0.00000607,0.00002788,0.00002
 312,-0.00000361,-0.00001424,-0.00001728,0.00000072,0.00003121,-0.00000
 582,-0.00000894,0.00040515,0.00179926,-0.00021087,-0.01430925,-0.00562
 860,-0.00846615,-0.06473383,-0.05862698,-0.04715926,-0.00005568,-0.000
 04626,-0.00003061,-0.00000342,-0.00000698,-0.00000255,-0.00001482,-0.0
 0000065,-0.00000449,-0.00001269,0.00000846,0.00000738,0.00001802,0.000
 00017,-0.00000351,-0.00000310,0.00000036,0.00000330,-0.00000206,0.0000
 0364,0.00000422,-0.00003822,-0.00000864,0.00003594,-0.00027544,-0.0001
 1351,0.00027943,0.00022791,0.00019250,0.00005095,0.00085643,-0.0003307
 5,0.00106277,-0.00013587,-0.00071791,-0.00039431,-0.02247012,-0.017447
 17,-0.01139573,0.10030990,0.08120185,0.06566192\\0.00000153,-0.0000021
 2,-0.00000024,-0.00000369,-0.00000175,0.00000422,-0.00000268,-0.000001
 46,-0.00000075,-0.00000120,0.00000348,-0.00000226,-0.00000106,0.000000
 37,-0.00000081,0.00000013,0.00000014,0.00000147,-0.00000022,-0.0000002
 7,-0.00000026,-0.00000072,0.00000067,0.00000286,0.00000099,0.00000230,
 -0.00000120,-0.00000316,-0.00000275,0.00000084,-0.00000015,0.00000104,
 0.00000026,-0.00000175,0.00000051,-0.00000193,0.00000318,-0.00000182,0
 .00000100,-0.00000152,-0.00000019,0.00000100,0.00000746,-0.00000256,-0
 .00000670,0.00000358,0.00000162,0.00000349,0.00000183,-0.00000094,-0.0
 0000158,0.00000050,0.00000051,-0.00000043,-0.00000142,-0.00000003,-0.0
 0000153,0.00000069,0.00000070,0.00000041,0.00000054,0.00000087,0.00000
 046,0.00000006,-0.00000032,0.00000136,-0.00000030,-0.00000134,0.000000
 52,0.00000113,0.00000172,0.00000173,-0.00000196,0.00000295,-0.00000147
 ,-0.00000158,0.00000079,-0.00000266,-0.00000052,0.00000003,0.00000448,
 -0.00000124,-0.00000143,-0.00000055,0.00000020,-0.00000066,-0.00000203
 ,0.00000135,-0.00000007,0.00000031\\\@


 A DANDELION FROM A LOVER MEANS MORE THAN AN ORCHID FROM A FRIEND.
 Job cpu time:       0 days  2 hours  1 minutes 59.5 seconds.
 File lengths (MBytes):  RWF=    415 Int=      0 D2E=      0 Chk=     13 Scr=      1
 Normal termination of Gaussian 09 at Wed Jul 28 23:33:21 2021.
