 Entering Gaussian System, Link 0=g09
 Input=opt_freq-conf-455.com
 Output=opt_freq-conf-455.log
 Initial command:
 /aerosol/software/g09/l1.exe "/scratch/nicole/10626/Gau-83422.inp" -scrdir="/scratch/nicole/10626/"
 Entering Link 1 = /aerosol/software/g09/l1.exe PID=     83429.
  
 Copyright (c) 1988,1990,1992,1993,1995,1998,2003,2009,2013,
            Gaussian, Inc.  All Rights Reserved.
  
 This is part of the Gaussian(R) 09 program.  It is based on
 the Gaussian(R) 03 system (copyright 2003, Gaussian, Inc.),
 the Gaussian(R) 98 system (copyright 1998, Gaussian, Inc.),
 the Gaussian(R) 94 system (copyright 1995, Gaussian, Inc.),
 the Gaussian 92(TM) system (copyright 1992, Gaussian, Inc.),
 the Gaussian 90(TM) system (copyright 1990, Gaussian, Inc.),
 the Gaussian 88(TM) system (copyright 1988, Gaussian, Inc.),
 the Gaussian 86(TM) system (copyright 1986, Carnegie Mellon
 University), and the Gaussian 82(TM) system (copyright 1983,
 Carnegie Mellon University). Gaussian is a federally registered
 trademark of Gaussian, Inc.
  
 This software contains proprietary and confidential information,
 including trade secrets, belonging to Gaussian, Inc.
  
 This software is provided under written license and may be
 used, copied, transmitted, or stored only in accord with that
 written license.
  
 The following legend is applicable only to US Government
 contracts under FAR:
  
                    RESTRICTED RIGHTS LEGEND
  
 Use, reproduction and disclosure by the US Government is
 subject to restrictions as set forth in subparagraphs (a)
 and (c) of the Commercial Computer Software - Restricted
 Rights clause in FAR 52.227-19.
  
 Gaussian, Inc.
 340 Quinnipiac St., Bldg. 40, Wallingford CT 06492
  
  
 ---------------------------------------------------------------
 Warning -- This program may not be used in any manner that
 competes with the business of Gaussian, Inc. or will provide
 assistance to any competitor of Gaussian, Inc.  The licensee
 of this program is prohibited from giving any competitor of
 Gaussian, Inc. access to this program.  By using this program,
 the user acknowledges that Gaussian, Inc. is engaged in the
 business of creating and licensing software in the field of
 computational chemistry and represents and warrants to the
 licensee that it is not a competitor of Gaussian, Inc. and that
 it will not use this program in any manner prohibited above.
 ---------------------------------------------------------------
  

 Cite this work as:
 Gaussian 09, Revision D.01,
 M. J. Frisch, G. W. Trucks, H. B. Schlegel, G. E. Scuseria, 
 M. A. Robb, J. R. Cheeseman, G. Scalmani, V. Barone, B. Mennucci, 
 G. A. Petersson, H. Nakatsuji, M. Caricato, X. Li, H. P. Hratchian, 
 A. F. Izmaylov, J. Bloino, G. Zheng, J. L. Sonnenberg, M. Hada, 
 M. Ehara, K. Toyota, R. Fukuda, J. Hasegawa, M. Ishida, T. Nakajima, 
 Y. Honda, O. Kitao, H. Nakai, T. Vreven, J. A. Montgomery, Jr., 
 J. E. Peralta, F. Ogliaro, M. Bearpark, J. J. Heyd, E. Brothers, 
 K. N. Kudin, V. N. Staroverov, T. Keith, R. Kobayashi, J. Normand, 
 K. Raghavachari, A. Rendell, J. C. Burant, S. S. Iyengar, J. Tomasi, 
 M. Cossi, N. Rega, J. M. Millam, M. Klene, J. E. Knox, J. B. Cross, 
 V. Bakken, C. Adamo, J. Jaramillo, R. Gomperts, R. E. Stratmann, 
 O. Yazyev, A. J. Austin, R. Cammi, C. Pomelli, J. W. Ochterski, 
 R. L. Martin, K. Morokuma, V. G. Zakrzewski, G. A. Voth, 
 P. Salvador, J. J. Dannenberg, S. Dapprich, A. D. Daniels, 
 O. Farkas, J. B. Foresman, J. V. Ortiz, J. Cioslowski, 
 and D. J. Fox, Gaussian, Inc., Wallingford CT, 2013.
 
 ******************************************
 Gaussian 09:  ES64L-G09RevD.01 24-Apr-2013
                28-Jul-2021 
 ******************************************
 %mem=2gb
 %nproc=4
 Will use up to    4 processors via shared memory.
 %chk=conf-455.chk
 ----------------------------------------------------------------------
 # B3LYP/6-311G(d,p) opt=calcfc freq=noraman nosymm integral(ultrafineg
 rid)
 ----------------------------------------------------------------------
 1/10=4,14=-1,18=20,19=15,26=4,38=1/1,3;
 2/9=110,12=2,15=1,17=6,18=5,40=1/2;
 3/5=4,6=6,7=101,11=2,16=1,25=1,30=1,71=2,74=-5,75=-5,140=1/1,2,3;
 4//1;
 5/5=2,38=5/2;
 8/6=4,10=90,11=11/1;
 11/6=1,8=1,9=11,15=111,16=1,31=1/1,2,10;
 10/6=1,13=1,31=1/2;
 6/7=2,8=2,9=2,10=2,28=1/1;
 7/10=1,18=20,25=1,30=1/1,2,3,16;
 1/10=4,14=-1,18=20,19=15,26=4/3(2);
 2/9=110,15=1/2;
 99//99;
 2/9=110,15=1/2;
 3/5=4,6=6,7=101,11=2,16=1,25=1,30=1,71=1,74=-5,75=-5/1,2,3;
 4/5=5,16=3,69=1/1;
 5/5=2,38=5/2;
 7/30=1/1,2,3,16;
 1/14=-1,18=20,19=15,26=4/3(-5);
 2/9=110,15=1/2;
 6/7=2,8=2,9=2,10=2,19=2,28=1/1;
 99/9=1/99;
 ------------------------------------------------------------
 Candidate Structure: Conf:455 OPT and FREQ calc in gas phase
 ------------------------------------------------------------
 Symbolic Z-matrix:
 Charge =  0 Multiplicity = 1
 O                     0.28008  -0.25923  -1.27944 
 C                     0.9495   -0.15887  -0.2498 
 N                     0.4937   -0.52865   0.97949 
 C                    -0.61605  -1.43415   1.23982 
 C                    -0.16578  -2.89331   1.09177 
 O                    -1.0117   -3.80859   1.62216 
 O                     0.85198  -3.23587   0.56269 
 C                    -1.87574  -1.18421   0.39051 
 C                    -2.39463   0.209     0.52312 
 C                    -3.31851   0.77342   1.35646 
 N                    -3.40808   2.13496   1.12826 
 C                    -2.54901   2.37777   0.1668 
 N                    -1.91356   1.2507   -0.23435 
 C                     2.35746   0.42422  -0.24031 
 C                     2.66699   1.2558   -1.48472 
 N                     3.99632   1.85969  -1.50811 
 H                     1.17862  -0.50482   1.71547 
 H                    -0.87804  -1.28132   2.29154 
 H                    -1.75658  -3.37408   2.04376 
 H                    -2.65134  -1.87719   0.72534 
 H                    -1.66079  -1.41998  -0.64787 
 H                    -3.9224    0.28943   2.11093 
 H                    -2.33695   3.33354  -0.27858 
 H                    -1.20225   1.15599  -0.94843 
 H                     2.49242   1.02514   0.66613 
 H                     3.07123  -0.40887  -0.17155 
 H                     2.56078   0.62307  -2.36526 
 H                     1.9279    2.05322  -1.57997 
 H                     4.12507   2.46199  -0.70287 
 H                     4.70929   1.14111  -1.45005 
 

 GradGradGradGradGradGradGradGradGradGradGradGradGradGradGradGradGradGrad
 Berny optimization.
 Initialization pass.
                           ----------------------------
                           !    Initial Parameters    !
                           ! (Angstroms and Degrees)  !
 --------------------------                            --------------------------
 ! Name  Definition              Value          Derivative Info.                !
 --------------------------------------------------------------------------------
 ! R1    R(1,2)                  1.2322         calculate D2E/DX2 analytically  !
 ! R2    R(2,3)                  1.3622         calculate D2E/DX2 analytically  !
 ! R3    R(2,14)                 1.524          calculate D2E/DX2 analytically  !
 ! R4    R(3,4)                  1.4558         calculate D2E/DX2 analytically  !
 ! R5    R(3,17)                 1.0057         calculate D2E/DX2 analytically  !
 ! R6    R(4,5)                  1.5342         calculate D2E/DX2 analytically  !
 ! R7    R(4,8)                  1.5397         calculate D2E/DX2 analytically  !
 ! R8    R(4,18)                 1.0946         calculate D2E/DX2 analytically  !
 ! R9    R(5,6)                  1.3545         calculate D2E/DX2 analytically  !
 ! R10   R(5,7)                  1.1971         calculate D2E/DX2 analytically  !
 ! R11   R(6,19)                 0.9599         calculate D2E/DX2 analytically  !
 ! R12   R(8,9)                  1.4926         calculate D2E/DX2 analytically  !
 ! R13   R(8,20)                 1.0927         calculate D2E/DX2 analytically  !
 ! R14   R(8,21)                 1.0863         calculate D2E/DX2 analytically  !
 ! R15   R(9,10)                 1.3662         calculate D2E/DX2 analytically  !
 ! R16   R(9,13)                 1.3749         calculate D2E/DX2 analytically  !
 ! R17   R(10,11)                1.3834         calculate D2E/DX2 analytically  !
 ! R18   R(10,22)                1.0808         calculate D2E/DX2 analytically  !
 ! R19   R(11,12)                1.312          calculate D2E/DX2 analytically  !
 ! R20   R(12,13)                1.3546         calculate D2E/DX2 analytically  !
 ! R21   R(12,23)                1.0756         calculate D2E/DX2 analytically  !
 ! R22   R(13,24)                1.0123         calculate D2E/DX2 analytically  !
 ! R23   R(14,15)                1.5284         calculate D2E/DX2 analytically  !
 ! R24   R(14,25)                1.0959         calculate D2E/DX2 analytically  !
 ! R25   R(14,26)                1.0992         calculate D2E/DX2 analytically  !
 ! R26   R(15,16)                1.4603         calculate D2E/DX2 analytically  !
 ! R27   R(15,27)                1.0895         calculate D2E/DX2 analytically  !
 ! R28   R(15,28)                1.0914         calculate D2E/DX2 analytically  !
 ! R29   R(16,29)                1.0138         calculate D2E/DX2 analytically  !
 ! R30   R(16,30)                1.0139         calculate D2E/DX2 analytically  !
 ! A1    A(1,2,3)              123.3788         calculate D2E/DX2 analytically  !
 ! A2    A(1,2,14)             122.5669         calculate D2E/DX2 analytically  !
 ! A3    A(3,2,14)             114.0402         calculate D2E/DX2 analytically  !
 ! A4    A(2,3,4)              125.8242         calculate D2E/DX2 analytically  !
 ! A5    A(2,3,17)             115.2206         calculate D2E/DX2 analytically  !
 ! A6    A(4,3,17)             113.7692         calculate D2E/DX2 analytically  !
 ! A7    A(3,4,5)              110.5236         calculate D2E/DX2 analytically  !
 ! A8    A(3,4,8)              115.0915         calculate D2E/DX2 analytically  !
 ! A9    A(3,4,18)             105.512          calculate D2E/DX2 analytically  !
 ! A10   A(5,4,8)              109.9549         calculate D2E/DX2 analytically  !
 ! A11   A(5,4,18)             107.2037         calculate D2E/DX2 analytically  !
 ! A12   A(8,4,18)             108.1509         calculate D2E/DX2 analytically  !
 ! A13   A(4,5,6)              114.9362         calculate D2E/DX2 analytically  !
 ! A14   A(4,5,7)              124.355          calculate D2E/DX2 analytically  !
 ! A15   A(6,5,7)              120.707          calculate D2E/DX2 analytically  !
 ! A16   A(5,6,19)             110.5326         calculate D2E/DX2 analytically  !
 ! A17   A(4,8,9)              112.7642         calculate D2E/DX2 analytically  !
 ! A18   A(4,8,20)             107.9844         calculate D2E/DX2 analytically  !
 ! A19   A(4,8,21)             109.2787         calculate D2E/DX2 analytically  !
 ! A20   A(9,8,20)             108.5416         calculate D2E/DX2 analytically  !
 ! A21   A(9,8,21)             110.8736         calculate D2E/DX2 analytically  !
 ! A22   A(20,8,21)            107.201          calculate D2E/DX2 analytically  !
 ! A23   A(8,9,10)             132.4452         calculate D2E/DX2 analytically  !
 ! A24   A(8,9,13)             122.4539         calculate D2E/DX2 analytically  !
 ! A25   A(10,9,13)            105.0494         calculate D2E/DX2 analytically  !
 ! A26   A(9,10,11)            110.4721         calculate D2E/DX2 analytically  !
 ! A27   A(9,10,22)            128.2159         calculate D2E/DX2 analytically  !
 ! A28   A(11,10,22)           121.311          calculate D2E/DX2 analytically  !
 ! A29   A(10,11,12)           105.1067         calculate D2E/DX2 analytically  !
 ! A30   A(11,12,13)           111.7273         calculate D2E/DX2 analytically  !
 ! A31   A(11,12,23)           126.6557         calculate D2E/DX2 analytically  !
 ! A32   A(13,12,23)           121.6167         calculate D2E/DX2 analytically  !
 ! A33   A(9,13,12)            107.644          calculate D2E/DX2 analytically  !
 ! A34   A(9,13,24)            124.304          calculate D2E/DX2 analytically  !
 ! A35   A(12,13,24)           128.0481         calculate D2E/DX2 analytically  !
 ! A36   A(2,14,15)            112.968          calculate D2E/DX2 analytically  !
 ! A37   A(2,14,25)            109.1919         calculate D2E/DX2 analytically  !
 ! A38   A(2,14,26)            108.079          calculate D2E/DX2 analytically  !
 ! A39   A(15,14,25)           110.4976         calculate D2E/DX2 analytically  !
 ! A40   A(15,14,26)           109.3782         calculate D2E/DX2 analytically  !
 ! A41   A(25,14,26)           106.4924         calculate D2E/DX2 analytically  !
 ! A42   A(14,15,16)           114.9869         calculate D2E/DX2 analytically  !
 ! A43   A(14,15,27)           108.8035         calculate D2E/DX2 analytically  !
 ! A44   A(14,15,28)           109.3562         calculate D2E/DX2 analytically  !
 ! A45   A(16,15,27)           108.4196         calculate D2E/DX2 analytically  !
 ! A46   A(16,15,28)           108.2352         calculate D2E/DX2 analytically  !
 ! A47   A(27,15,28)           106.7251         calculate D2E/DX2 analytically  !
 ! A48   A(15,16,29)           110.4008         calculate D2E/DX2 analytically  !
 ! A49   A(15,16,30)           110.2504         calculate D2E/DX2 analytically  !
 ! A50   A(29,16,30)           106.6351         calculate D2E/DX2 analytically  !
 ! D1    D(1,2,3,4)             19.7155         calculate D2E/DX2 analytically  !
 ! D2    D(1,2,3,17)           172.5228         calculate D2E/DX2 analytically  !
 ! D3    D(14,2,3,4)          -161.625          calculate D2E/DX2 analytically  !
 ! D4    D(14,2,3,17)           -8.8176         calculate D2E/DX2 analytically  !
 ! D5    D(1,2,14,15)           18.4503         calculate D2E/DX2 analytically  !
 ! D6    D(1,2,14,25)          141.8325         calculate D2E/DX2 analytically  !
 ! D7    D(1,2,14,26)         -102.7103         calculate D2E/DX2 analytically  !
 ! D8    D(3,2,14,15)         -160.2215         calculate D2E/DX2 analytically  !
 ! D9    D(3,2,14,25)          -36.8393         calculate D2E/DX2 analytically  !
 ! D10   D(3,2,14,26)           78.6178         calculate D2E/DX2 analytically  !
 ! D11   D(2,3,4,5)             79.9655         calculate D2E/DX2 analytically  !
 ! D12   D(2,3,4,8)            -45.3216         calculate D2E/DX2 analytically  !
 ! D13   D(2,3,4,18)          -164.4618         calculate D2E/DX2 analytically  !
 ! D14   D(17,3,4,5)           -73.1791         calculate D2E/DX2 analytically  !
 ! D15   D(17,3,4,8)           161.5337         calculate D2E/DX2 analytically  !
 ! D16   D(17,3,4,18)           42.3935         calculate D2E/DX2 analytically  !
 ! D17   D(3,4,5,6)            164.5717         calculate D2E/DX2 analytically  !
 ! D18   D(3,4,5,7)            -14.9493         calculate D2E/DX2 analytically  !
 ! D19   D(8,4,5,6)            -67.2837         calculate D2E/DX2 analytically  !
 ! D20   D(8,4,5,7)            113.1952         calculate D2E/DX2 analytically  !
 ! D21   D(18,4,5,6)            50.062          calculate D2E/DX2 analytically  !
 ! D22   D(18,4,5,7)          -129.4591         calculate D2E/DX2 analytically  !
 ! D23   D(3,4,8,9)            -56.2643         calculate D2E/DX2 analytically  !
 ! D24   D(3,4,8,20)          -176.1842         calculate D2E/DX2 analytically  !
 ! D25   D(3,4,8,21)            67.5248         calculate D2E/DX2 analytically  !
 ! D26   D(5,4,8,9)            178.1539         calculate D2E/DX2 analytically  !
 ! D27   D(5,4,8,20)            58.234          calculate D2E/DX2 analytically  !
 ! D28   D(5,4,8,21)           -58.057          calculate D2E/DX2 analytically  !
 ! D29   D(18,4,8,9)            61.3994         calculate D2E/DX2 analytically  !
 ! D30   D(18,4,8,20)          -58.5205         calculate D2E/DX2 analytically  !
 ! D31   D(18,4,8,21)         -174.8115         calculate D2E/DX2 analytically  !
 ! D32   D(4,5,6,19)            -2.2359         calculate D2E/DX2 analytically  !
 ! D33   D(7,5,6,19)           177.3042         calculate D2E/DX2 analytically  !
 ! D34   D(4,8,9,10)           -91.9136         calculate D2E/DX2 analytically  !
 ! D35   D(4,8,9,13)            85.0596         calculate D2E/DX2 analytically  !
 ! D36   D(20,8,9,10)           27.6848         calculate D2E/DX2 analytically  !
 ! D37   D(20,8,9,13)         -155.3421         calculate D2E/DX2 analytically  !
 ! D38   D(21,8,9,10)          145.1832         calculate D2E/DX2 analytically  !
 ! D39   D(21,8,9,13)          -37.8436         calculate D2E/DX2 analytically  !
 ! D40   D(8,9,10,11)          177.1271         calculate D2E/DX2 analytically  !
 ! D41   D(8,9,10,22)           -2.4995         calculate D2E/DX2 analytically  !
 ! D42   D(13,9,10,11)          -0.2284         calculate D2E/DX2 analytically  !
 ! D43   D(13,9,10,22)        -179.855          calculate D2E/DX2 analytically  !
 ! D44   D(8,9,13,12)         -177.4772         calculate D2E/DX2 analytically  !
 ! D45   D(8,9,13,24)            1.8542         calculate D2E/DX2 analytically  !
 ! D46   D(10,9,13,12)           0.2103         calculate D2E/DX2 analytically  !
 ! D47   D(10,9,13,24)         179.5417         calculate D2E/DX2 analytically  !
 ! D48   D(9,10,11,12)           0.157          calculate D2E/DX2 analytically  !
 ! D49   D(22,10,11,12)        179.8136         calculate D2E/DX2 analytically  !
 ! D50   D(10,11,12,13)         -0.0184         calculate D2E/DX2 analytically  !
 ! D51   D(10,11,12,23)       -179.8148         calculate D2E/DX2 analytically  !
 ! D52   D(11,12,13,9)          -0.1235         calculate D2E/DX2 analytically  !
 ! D53   D(11,12,13,24)       -179.4222         calculate D2E/DX2 analytically  !
 ! D54   D(23,12,13,9)         179.6847         calculate D2E/DX2 analytically  !
 ! D55   D(23,12,13,24)          0.386          calculate D2E/DX2 analytically  !
 ! D56   D(2,14,15,16)         178.7562         calculate D2E/DX2 analytically  !
 ! D57   D(2,14,15,27)         -59.4451         calculate D2E/DX2 analytically  !
 ! D58   D(2,14,15,28)          56.7759         calculate D2E/DX2 analytically  !
 ! D59   D(25,14,15,16)         56.0991         calculate D2E/DX2 analytically  !
 ! D60   D(25,14,15,27)        177.8978         calculate D2E/DX2 analytically  !
 ! D61   D(25,14,15,28)        -65.8812         calculate D2E/DX2 analytically  !
 ! D62   D(26,14,15,16)        -60.8223         calculate D2E/DX2 analytically  !
 ! D63   D(26,14,15,27)         60.9764         calculate D2E/DX2 analytically  !
 ! D64   D(26,14,15,28)        177.1974         calculate D2E/DX2 analytically  !
 ! D65   D(14,15,16,29)        -58.4127         calculate D2E/DX2 analytically  !
 ! D66   D(14,15,16,30)         59.1529         calculate D2E/DX2 analytically  !
 ! D67   D(27,15,16,29)        179.5809         calculate D2E/DX2 analytically  !
 ! D68   D(27,15,16,30)        -62.8534         calculate D2E/DX2 analytically  !
 ! D69   D(28,15,16,29)         64.1716         calculate D2E/DX2 analytically  !
 ! D70   D(28,15,16,30)       -178.2628         calculate D2E/DX2 analytically  !
 --------------------------------------------------------------------------------
 Trust Radius=3.00D-01 FncErr=1.00D-07 GrdErr=1.00D-06
 Number of steps in this run=    160 maximum allowed number of steps=    180.
 GradGradGradGradGradGradGradGradGradGradGradGradGradGradGradGradGradGrad

                          Input orientation:                          
 ---------------------------------------------------------------------
 Center     Atomic      Atomic             Coordinates (Angstroms)
 Number     Number       Type             X           Y           Z
 ---------------------------------------------------------------------
      1          8           0        0.280076   -0.259227   -1.279438
      2          6           0        0.949501   -0.158872   -0.249798
      3          7           0        0.493702   -0.528654    0.979487
      4          6           0       -0.616052   -1.434154    1.239824
      5          6           0       -0.165782   -2.893307    1.091772
      6          8           0       -1.011697   -3.808590    1.622156
      7          8           0        0.851977   -3.235870    0.562694
      8          6           0       -1.875739   -1.184206    0.390509
      9          6           0       -2.394627    0.209002    0.523119
     10          6           0       -3.318514    0.773416    1.356456
     11          7           0       -3.408081    2.134965    1.128260
     12          6           0       -2.549011    2.377768    0.166802
     13          7           0       -1.913559    1.250695   -0.234345
     14          6           0        2.357461    0.424218   -0.240307
     15          6           0        2.666987    1.255801   -1.484724
     16          7           0        3.996323    1.859687   -1.508106
     17          1           0        1.178621   -0.504817    1.715468
     18          1           0       -0.878044   -1.281316    2.291542
     19          1           0       -1.756579   -3.374081    2.043759
     20          1           0       -2.651343   -1.877186    0.725335
     21          1           0       -1.660789   -1.419981   -0.647874
     22          1           0       -3.922403    0.289426    2.110935
     23          1           0       -2.336948    3.333540   -0.278585
     24          1           0       -1.202253    1.155990   -0.948429
     25          1           0        2.492418    1.025139    0.666134
     26          1           0        3.071227   -0.408875   -0.171547
     27          1           0        2.560782    0.623066   -2.365263
     28          1           0        1.927898    2.053224   -1.579966
     29          1           0        4.125069    2.461991   -0.702866
     30          1           0        4.709286    1.141108   -1.450048
 ---------------------------------------------------------------------
                    Distance matrix (angstroms):
                    1          2          3          4          5
     1  O    0.000000
     2  C    1.232217   0.000000
     3  N    2.284943   1.362216   0.000000
     4  C    2.920647   2.509237   1.455768   0.000000
     5  C    3.572087   3.243578   2.457460   1.534205   0.000000
     6  O    4.762972   4.546531   3.665682   2.437346   1.354482
     7  O    3.546961   3.183955   2.762444   2.420701   1.197125
     8  C    2.879558   3.072993   2.528022   1.539683   2.517289
     9  C    3.259216   3.451945   3.015767   2.525264   3.862051
    10  C    4.578661   4.654585   4.046045   3.491457   4.842997
    11  N    5.013150   5.113634   4.726617   4.532823   5.983088
    12  C    4.129053   4.341391   4.285539   4.406638   5.858291
    13  N    2.860790   3.191274   3.230228   3.326427   4.688930
    14  C    2.421243   1.523954   2.422696   3.806062   4.375747
    15  C    2.834571   2.544819   3.738955   5.043547   5.646062
    16  N    4.283990   3.865365   4.915348   6.298770   6.831796
    17  H    3.136425   2.008593   1.005660   2.076236   2.810925
    18  H    3.890734   3.325389   2.041979   1.094583   2.131965
    19  H    4.989381   4.787572   3.780595   2.389651   1.915217
    20  H    3.902579   4.107257   3.431390   2.145550   2.710127
    21  H    2.348017   2.926171   2.843343   2.157564   2.726189
    22  H    5.427382   5.432262   4.631567   3.829037   5.027989
    23  H    4.556149   4.795677   4.950946   5.291310   6.735388
    24  H    2.075983   2.616676   3.071017   3.441065   4.651182
    25  H    3.213923   2.149746   2.550947   4.004975   4.754095
    26  H    3.006715   2.137837   2.825396   4.079117   4.271605
    27  H    2.675644   2.771795   4.097148   5.226956   5.634724
    28  H    2.855356   2.760430   3.908172   5.156035   5.999154
    29  H    4.745674   4.142273   4.996108   6.436786   7.093049
    30  H    4.648434   4.155301   5.144112   6.498200   6.819358
                    6          7          8          9         10
     6  O    0.000000
     7  O    2.218952   0.000000
     8  C    3.025048   3.417515   0.000000
     9  C    4.388784   4.733831   1.492602   0.000000
    10  C    5.136806   5.839300   2.616665   1.366228   0.000000
    11  N    6.427475   6.878505   3.729510   2.258897   1.383442
    12  C    6.538533   6.575438   3.631941   2.203256   2.140410
    13  N    5.464094   5.330360   2.514084   1.374883   2.175395
    14  C    5.721595   4.038259   4.572192   4.817829   5.906630
    15  C    6.988095   5.259401   5.486939   5.545012   6.643133
    16  N    8.185851   6.335600   6.881216   6.906147   7.930481
    17  H    3.964986   2.982321   3.397970   3.833971   4.689028
    18  H    2.617834   3.130842   2.149128   2.765573   3.324485
    19  H    0.959894   3.002869   2.746450   3.944355   4.484836
    20  H    2.687573   3.761080   1.092652   2.111628   2.805195
    21  H    3.358543   3.328202   1.086293   2.136195   3.402407
    22  H    5.050233   6.133471   3.052915   2.204932   1.080818
    23  H    7.508604   7.350792   4.590254   3.226266   3.192345
    24  H    5.593860   5.078562   2.779003   2.117545   3.152367
    25  H    6.046300   4.567051   4.902854   4.956787   5.857204
    26  H    5.607647   3.668254   5.038802   5.544357   6.675432
    27  H    6.949941   5.136568   5.526593   5.750676   6.959879
    28  H    7.297648   5.807161   5.369486   5.148625   6.146976
    29  H    8.432809   6.691815   7.106330   7.006099   7.905632
    30  H    8.165022   6.171539   7.222000   7.431540   8.512181
                   11         12         13         14         15
    11  N    0.000000
    12  C    1.312005   0.000000
    13  N    2.207312   1.354626   0.000000
    14  C    6.167747   5.296749   4.350254   0.000000
    15  C    6.671362   5.585068   4.748144   1.528369   0.000000
    16  N    7.864566   6.776069   6.076186   2.520666   1.460259
    17  H    5.324574   4.960130   4.055264   2.465324   3.944140
    18  H    4.407413   4.549236   3.723370   4.448325   5.767530
    19  H    5.823674   6.102022   5.157806   6.047260   7.311220
    20  H    4.102725   4.292675   3.353946   5.596162   6.556264
    21  H    4.341120   3.984411   2.714297   4.439990   5.156528
    22  H    2.153181   3.166548   3.234166   6.706951   7.568534
    23  H    2.136147   1.075566   2.125902   5.522960   5.550778
    24  H    3.183820   2.133129   1.012344   3.702498   3.907505
    25  H    6.021724   5.243561   4.502707   1.095881   2.170224
    26  H    7.081105   6.282271   5.254161   1.099197   2.158469
    27  H    7.079398   5.966600   4.995443   2.143903   1.089487
    28  H    5.984467   4.816559   4.148679   2.152411   1.091424
    29  H    7.759402   6.731029   6.176712   2.736954   2.047485
    30  H    8.574793   7.538328   6.734390   2.740162   2.045810
                   16         17         18         19         20
    16  N    0.000000
    17  H    4.890987   0.000000
    18  H    6.932725   2.272594   0.000000
    19  H    8.550085   4.117749   2.283175   0.000000
    20  H    7.946316   4.187168   2.439806   2.186216   0.000000
    21  H    6.595388   3.805938   3.045010   3.327548   1.753835
    22  H    8.846999   5.177611   3.430448   4.256359   2.868743
    23  H    6.617725   5.573908   5.480041   7.121958   5.315859
    24  H    5.275757   3.939948   4.067307   5.457290   3.755197
    25  H    2.772277   2.273308   4.395646   6.269368   5.906375
    26  H    2.790800   2.674321   4.735473   6.083399   5.975629
    27  H    2.079598   4.453634   6.094098   7.352296   6.555097
    28  H    2.078702   4.238499   5.829326   7.494157   6.460029
    29  H    1.013783   4.830305   6.928922   8.729116   8.172390
    30  H    1.013925   5.019478   7.147439   8.625603   8.247499
                   21         22         23         24         25
    21  H    0.000000
    22  H    3.955755   0.000000
    23  H    4.815551   4.182117   0.000000
    24  H    2.633669   4.184478   2.545182   0.000000
    25  H    4.995434   6.616543   5.435437   4.034170   0.000000
    26  H    4.862222   7.389737   6.577650   4.616815   1.758729
    27  H    4.994510   7.885388   5.973998   4.056089   3.058709
    28  H    5.080416   7.138610   4.639150   3.316883   2.533891
    29  H    6.967703   8.797688   6.534315   5.490564   2.569874
    30  H    6.912345   9.376140   7.471847   5.932801   3.066949
                   26         27         28         29         30
    26  H    0.000000
    27  H    2.477467   0.000000
    28  H    3.058230   1.750024   0.000000
    29  H    3.103989   2.931245   2.400823   0.000000
    30  H    2.592343   2.392081   2.930009   1.626137   0.000000
 Symmetry turned off by external request.
 Stoichiometry    C9H14N4O3
 Framework group  C1[X(C9H14N4O3)]
 Deg. of freedom    84
 Full point group                 C1      NOp   1
 Rotational constants (GHZ):      0.5402563      0.4097795      0.2497933
 Standard basis: 6-311G(d,p) (5D, 7F)
   372 basis functions,   624 primitive gaussians,   388 cartesian basis functions
    60 alpha electrons       60 beta electrons
       nuclear repulsion energy      1133.9479686227 Hartrees.
 NAtoms=   30 NActive=   30 NUniq=   30 SFac= 1.00D+00 NAtFMM=   60 NAOKFM=F Big=F
 Integral buffers will be    131072 words long.
 Raffenetti 2 integral format.
 Two-electron integral symmetry is turned off.
 One-electron integrals computed using PRISM.
 NBasis=   372 RedAO= T EigKep=  5.05D-04  NBF=   372
 NBsUse=   372 1.00D-06 EigRej= -1.00D+00 NBFU=   372
 ExpMin= 1.03D-01 ExpMax= 8.59D+03 ExpMxC= 1.30D+03 IAcc=3 IRadAn=         5 AccDes= 0.00D+00
 Harris functional with IExCor=  402 and IRadAn=       5 diagonalized for initial guess.
 HarFok:  IExCor=  402 AccDes= 0.00D+00 IRadAn=         5 IDoV= 1 UseB2=F ITyADJ=14
 ICtDFT=  3500011 ScaDFX=  1.000000  1.000000  1.000000  1.000000
 FoFCou: FMM=F IPFlag=           0 FMFlag=      100000 FMFlg1=           0
         NFxFlg=           0 DoJE=T BraDBF=F KetDBF=T FulRan=T
         wScrn=  0.000000 ICntrl=     500 IOpCl=  0 I1Cent=   200000004 NGrid=           0
         NMat0=    1 NMatS0=      1 NMatT0=    0 NMatD0=    1 NMtDS0=    0 NMtDT0=    0
 Symmetry not used in FoFCou.
 Requested convergence on RMS density matrix=1.00D-08 within 128 cycles.
 Requested convergence on MAX density matrix=1.00D-06.
 Requested convergence on             energy=1.00D-06.
 No special actions if energy rises.
 Integral accuracy reduced to 1.0D-05 until final iterations.
 Initial convergence to 1.0D-05 achieved.  Increase integral accuracy.
 SCF Done:  E(RB3LYP) =  -796.298176701     A.U. after   14 cycles
            NFock= 14  Conv=0.62D-08     -V/T= 2.0033
 DoSCS=F DFT=T ScalE2(SS,OS)=  1.000000  1.000000
 Range of M.O.s used for correlation:     1   372
 NBasis=   372 NAE=    60 NBE=    60 NFC=     0 NFV=     0
 NROrb=    372 NOA=    60 NOB=    60 NVA=   312 NVB=   312
 Symmetrizing basis deriv contribution to polar:
 IMax=3 JMax=2 DiffMx= 0.00D+00
 G2DrvN: will do    31 centers at a time, making    1 passes.
 Calling FoFCou, ICntrl=  3107 FMM=F I1Cent=   0 AccDes= 0.00D+00.
 End of G2Drv F.D. properties file   721 does not exist.
 End of G2Drv F.D. properties file   722 does not exist.
 End of G2Drv F.D. properties file   788 does not exist.
          IDoAtm=111111111111111111111111111111
          Differentiating once with respect to nuclear coordinates.
          There are    93 degrees of freedom in the 1st order CPHF.  IDoFFX=6 NUNeed=     0.
     87 vectors produced by pass  0 Test12= 2.01D-14 1.08D-09 XBig12= 1.88D-01 8.67D-02.
 AX will form    87 AO Fock derivatives at one time.
     87 vectors produced by pass  1 Test12= 2.01D-14 1.08D-09 XBig12= 2.52D-02 3.73D-02.
     87 vectors produced by pass  2 Test12= 2.01D-14 1.08D-09 XBig12= 2.97D-04 4.15D-03.
     87 vectors produced by pass  3 Test12= 2.01D-14 1.08D-09 XBig12= 1.19D-06 1.87D-04.
     87 vectors produced by pass  4 Test12= 2.01D-14 1.08D-09 XBig12= 2.53D-09 3.87D-06.
     79 vectors produced by pass  5 Test12= 2.01D-14 1.08D-09 XBig12= 3.13D-12 1.50D-07.
     26 vectors produced by pass  6 Test12= 2.01D-14 1.08D-09 XBig12= 3.08D-15 6.40D-09.
 InvSVY:  IOpt=1 It=  1 EMax= 5.00D-16
 Solved reduced A of dimension   540 with    93 vectors.
 End of Minotr F.D. properties file   721 does not exist.
 End of Minotr F.D. properties file   722 does not exist.
 End of Minotr F.D. properties file   788 does not exist.

 **********************************************************************

            Population analysis using the SCF density.

 **********************************************************************

 Alpha  occ. eigenvalues --  -19.18809 -19.12595 -19.10980 -14.36490 -14.35889
 Alpha  occ. eigenvalues --  -14.29571 -14.28438 -10.32178 -10.29846 -10.25995
 Alpha  occ. eigenvalues --  -10.21745 -10.20914 -10.20528 -10.20224 -10.19499
 Alpha  occ. eigenvalues --  -10.17979  -1.12959  -1.06385  -1.04820  -1.01673
 Alpha  occ. eigenvalues --   -0.95937  -0.89512  -0.86935  -0.82687  -0.77520
 Alpha  occ. eigenvalues --   -0.74689  -0.69045  -0.65493  -0.63468  -0.61321
 Alpha  occ. eigenvalues --   -0.60617  -0.59416  -0.56919  -0.54349  -0.53602
 Alpha  occ. eigenvalues --   -0.51797  -0.50057  -0.47770  -0.46977  -0.46128
 Alpha  occ. eigenvalues --   -0.45840  -0.44676  -0.43988  -0.43307  -0.42403
 Alpha  occ. eigenvalues --   -0.41585  -0.41145  -0.40860  -0.39941  -0.39377
 Alpha  occ. eigenvalues --   -0.38715  -0.35883  -0.34477  -0.30870  -0.29190
 Alpha  occ. eigenvalues --   -0.28316  -0.27868  -0.26623  -0.24770  -0.23150
 Alpha virt. eigenvalues --   -0.02150  -0.00971  -0.00630   0.01841   0.02545
 Alpha virt. eigenvalues --    0.03015   0.04975   0.05602   0.07086   0.07256
 Alpha virt. eigenvalues --    0.07952   0.09249   0.10085   0.10488   0.11817
 Alpha virt. eigenvalues --    0.12620   0.12979   0.14717   0.15778   0.17338
 Alpha virt. eigenvalues --    0.18596   0.20062   0.20297   0.21736   0.22882
 Alpha virt. eigenvalues --    0.23922   0.25058   0.25920   0.27457   0.28175
 Alpha virt. eigenvalues --    0.29612   0.30594   0.31334   0.32947   0.33488
 Alpha virt. eigenvalues --    0.33972   0.35846   0.36135   0.37242   0.37611
 Alpha virt. eigenvalues --    0.38644   0.39732   0.40610   0.41102   0.42249
 Alpha virt. eigenvalues --    0.42986   0.43887   0.44543   0.46561   0.46738
 Alpha virt. eigenvalues --    0.48272   0.49189   0.50519   0.50886   0.51948
 Alpha virt. eigenvalues --    0.52302   0.54130   0.54758   0.55356   0.56081
 Alpha virt. eigenvalues --    0.56183   0.57161   0.57813   0.58372   0.58595
 Alpha virt. eigenvalues --    0.59085   0.60301   0.61013   0.61646   0.61859
 Alpha virt. eigenvalues --    0.62096   0.63481   0.64366   0.66887   0.68393
 Alpha virt. eigenvalues --    0.69143   0.70078   0.71486   0.71942   0.72872
 Alpha virt. eigenvalues --    0.73364   0.74754   0.75041   0.75843   0.78466
 Alpha virt. eigenvalues --    0.79504   0.81071   0.82418   0.82789   0.83942
 Alpha virt. eigenvalues --    0.84897   0.87781   0.90676   0.91703   0.92912
 Alpha virt. eigenvalues --    0.93900   0.97079   0.97535   0.98538   1.00248
 Alpha virt. eigenvalues --    1.03137   1.04803   1.05096   1.06315   1.08660
 Alpha virt. eigenvalues --    1.09217   1.10495   1.11952   1.15141   1.15773
 Alpha virt. eigenvalues --    1.17503   1.18979   1.19343   1.21967   1.22768
 Alpha virt. eigenvalues --    1.24753   1.25733   1.27777   1.29283   1.31038
 Alpha virt. eigenvalues --    1.31982   1.33942   1.36397   1.37314   1.40156
 Alpha virt. eigenvalues --    1.41111   1.43318   1.44532   1.45942   1.46173
 Alpha virt. eigenvalues --    1.47897   1.48408   1.49488   1.52426   1.53969
 Alpha virt. eigenvalues --    1.53987   1.54773   1.56017   1.56484   1.57384
 Alpha virt. eigenvalues --    1.58942   1.60684   1.60936   1.61125   1.62832
 Alpha virt. eigenvalues --    1.63612   1.65631   1.67004   1.67628   1.68830
 Alpha virt. eigenvalues --    1.70533   1.70808   1.71787   1.72555   1.73029
 Alpha virt. eigenvalues --    1.73279   1.75255   1.76400   1.77292   1.78840
 Alpha virt. eigenvalues --    1.80162   1.82735   1.83721   1.84222   1.85433
 Alpha virt. eigenvalues --    1.89431   1.90996   1.91646   1.93640   1.95193
 Alpha virt. eigenvalues --    1.95874   1.97290   1.98136   2.01259   2.02458
 Alpha virt. eigenvalues --    2.04604   2.04978   2.07700   2.09467   2.11778
 Alpha virt. eigenvalues --    2.13108   2.16337   2.16581   2.18635   2.20102
 Alpha virt. eigenvalues --    2.22978   2.24294   2.25356   2.27436   2.29084
 Alpha virt. eigenvalues --    2.31467   2.35550   2.37090   2.38442   2.39778
 Alpha virt. eigenvalues --    2.40987   2.42568   2.44805   2.45585   2.46916
 Alpha virt. eigenvalues --    2.48387   2.49251   2.50368   2.53308   2.54741
 Alpha virt. eigenvalues --    2.55838   2.56928   2.58210   2.58498   2.59439
 Alpha virt. eigenvalues --    2.60887   2.61459   2.63420   2.64342   2.65687
 Alpha virt. eigenvalues --    2.67396   2.69734   2.71679   2.72210   2.73264
 Alpha virt. eigenvalues --    2.75115   2.76076   2.77773   2.79841   2.80826
 Alpha virt. eigenvalues --    2.81663   2.82985   2.83236   2.85148   2.86567
 Alpha virt. eigenvalues --    2.87546   2.89135   2.90514   2.90911   2.92902
 Alpha virt. eigenvalues --    2.93489   2.95888   2.96846   3.00125   3.01084
 Alpha virt. eigenvalues --    3.02844   3.05179   3.05955   3.10368   3.11605
 Alpha virt. eigenvalues --    3.15473   3.16457   3.26133   3.28229   3.29201
 Alpha virt. eigenvalues --    3.33183   3.33696   3.35691   3.38051   3.46810
 Alpha virt. eigenvalues --    3.48081   3.49582   3.52415   3.56769   3.58976
 Alpha virt. eigenvalues --    3.59569   3.65854   3.67855   3.75525   3.77940
 Alpha virt. eigenvalues --    3.79830   3.81518   3.82526   3.82908   3.84510
 Alpha virt. eigenvalues --    3.85664   3.89575   3.94984   4.00124   4.02097
 Alpha virt. eigenvalues --    4.04128   4.16663   4.22402   4.28968   4.41789
 Alpha virt. eigenvalues --    4.71946   4.77078   4.78142   4.79073   4.84785
 Alpha virt. eigenvalues --    4.91160   4.92382   4.94911   5.00831   5.04987
 Alpha virt. eigenvalues --    5.14992   5.25862   5.26595   5.51044   5.67772
 Alpha virt. eigenvalues --    5.76970  23.71022  23.75584  23.76324  23.77823
 Alpha virt. eigenvalues --   23.82745  23.85555  23.89342  23.93409  24.15333
 Alpha virt. eigenvalues --   35.52550  35.56297  35.58927  35.69570  49.82938
 Alpha virt. eigenvalues --   49.97652  50.00610
          Condensed to atoms (all electrons):
               1          2          3          4          5          6
     1  O    7.956803   0.578545  -0.089264   0.001479  -0.001280  -0.000006
     2  C    0.578545   4.612998   0.351996  -0.083260   0.002696   0.000342
     3  N   -0.089264   0.351996   6.665685   0.239697  -0.039921   0.003876
     4  C    0.001479  -0.083260   0.239697   5.497482   0.236590  -0.104446
     5  C   -0.001280   0.002696  -0.039921   0.236590   4.497315   0.340041
     6  O   -0.000006   0.000342   0.003876  -0.104446   0.340041   7.793548
     7  O   -0.000962   0.015211  -0.000885  -0.110122   0.700978  -0.070649
     8  C    0.000262  -0.005171  -0.030584   0.277482  -0.058432   0.006898
     9  C   -0.007102  -0.004387  -0.000068  -0.084278   0.002196   0.000492
    10  C    0.000160  -0.000426  -0.000842  -0.004778  -0.000081  -0.000001
    11  N   -0.000010  -0.000035  -0.000009   0.000045   0.000002   0.000000
    12  C    0.000027   0.000416   0.000551   0.000019   0.000004   0.000000
    13  N   -0.011616   0.003450  -0.001054  -0.000076  -0.000083  -0.000001
    14  C   -0.096024   0.251795  -0.080760   0.006079  -0.000729   0.000000
    15  C    0.014048  -0.047828   0.004048  -0.000497   0.000008   0.000000
    16  N    0.000212   0.008147  -0.000067   0.000003   0.000000   0.000000
    17  H    0.003740  -0.033849   0.371539  -0.040750   0.001056   0.000068
    18  H   -0.000284   0.007164  -0.022759   0.374304  -0.032021   0.003337
    19  H    0.000002  -0.000115  -0.000116   0.009849  -0.038608   0.309467
    20  H    0.001193   0.000832   0.004874  -0.041471  -0.004276   0.006964
    21  H    0.016703  -0.000660  -0.004731  -0.044909   0.000288  -0.000513
    22  H    0.000005  -0.000006  -0.000049   0.000004  -0.000030  -0.000004
    23  H   -0.000069   0.000018   0.000042   0.000001   0.000000   0.000000
    24  H    0.031329  -0.003671  -0.001957  -0.000081  -0.000102   0.000005
    25  H    0.002242  -0.037222   0.003867   0.001567  -0.000036  -0.000001
    26  H    0.000398  -0.012602  -0.003453  -0.001421   0.000435   0.000007
    27  H    0.010439  -0.004843   0.000828   0.000060  -0.000003   0.000000
    28  H    0.002570   0.000116   0.000057  -0.000041   0.000004   0.000000
    29  H    0.000018  -0.000272   0.000000   0.000000   0.000000   0.000000
    30  H    0.000002   0.000171  -0.000011   0.000000   0.000000   0.000000
               7          8          9         10         11         12
     1  O   -0.000962   0.000262  -0.007102   0.000160  -0.000010   0.000027
     2  C    0.015211  -0.005171  -0.004387  -0.000426  -0.000035   0.000416
     3  N   -0.000885  -0.030584  -0.000068  -0.000842  -0.000009   0.000551
     4  C   -0.110122   0.277482  -0.084278  -0.004778   0.000045   0.000019
     5  C    0.700978  -0.058432   0.002196  -0.000081   0.000002   0.000004
     6  O   -0.070649   0.006898   0.000492  -0.000001   0.000000   0.000000
     7  O    7.750557  -0.000475  -0.000343  -0.000001   0.000000   0.000000
     8  C   -0.000475   5.043279   0.290794  -0.044239   0.008182   0.007194
     9  C   -0.000343   0.290794   5.129099   0.548162  -0.088248  -0.124348
    10  C   -0.000001  -0.044239   0.548162   4.876368   0.502900  -0.182180
    11  N    0.000000   0.008182  -0.088248   0.502900   6.433324   0.580305
    12  C    0.000000   0.007194  -0.124348  -0.182180   0.580305   4.742042
    13  N    0.000000  -0.047917   0.389057  -0.066398  -0.090728   0.429214
    14  C   -0.001091   0.000267  -0.000509  -0.000002   0.000000   0.000072
    15  C    0.000010   0.000034   0.000002   0.000001   0.000000  -0.000026
    16  N    0.000000   0.000000   0.000000   0.000000   0.000000   0.000000
    17  H    0.003966   0.006926  -0.000413  -0.000052   0.000000   0.000068
    18  H    0.001806  -0.028335  -0.003702   0.002459  -0.000152  -0.000338
    19  H    0.004338  -0.001613  -0.000072   0.000041   0.000001  -0.000002
    20  H   -0.000272   0.382712  -0.029057   0.001279   0.000129  -0.000141
    21  H    0.001806   0.408610  -0.031551   0.001233  -0.000384   0.000265
    22  H    0.000000   0.000663  -0.057513   0.425120  -0.024688   0.008392
    23  H    0.000000  -0.000445   0.005104   0.006357  -0.023505   0.414880
    24  H    0.000009   0.000313  -0.033127   0.008343   0.005357  -0.025055
    25  H   -0.000075  -0.000193   0.000068  -0.000010   0.000001   0.000008
    26  H    0.002293   0.000000   0.000005   0.000000   0.000000  -0.000001
    27  H   -0.000007  -0.000024   0.000011   0.000000   0.000000  -0.000004
    28  H    0.000001   0.000008  -0.000020  -0.000004   0.000000   0.000063
    29  H    0.000000   0.000000   0.000000   0.000000   0.000000   0.000000
    30  H   -0.000001   0.000000   0.000000   0.000000   0.000000   0.000000
              13         14         15         16         17         18
     1  O   -0.011616  -0.096024   0.014048   0.000212   0.003740  -0.000284
     2  C    0.003450   0.251795  -0.047828   0.008147  -0.033849   0.007164
     3  N   -0.001054  -0.080760   0.004048  -0.000067   0.371539  -0.022759
     4  C   -0.000076   0.006079  -0.000497   0.000003  -0.040750   0.374304
     5  C   -0.000083  -0.000729   0.000008   0.000000   0.001056  -0.032021
     6  O   -0.000001   0.000000   0.000000   0.000000   0.000068   0.003337
     7  O    0.000000  -0.001091   0.000010   0.000000   0.003966   0.001806
     8  C   -0.047917   0.000267   0.000034   0.000000   0.006926  -0.028335
     9  C    0.389057  -0.000509   0.000002   0.000000  -0.000413  -0.003702
    10  C   -0.066398  -0.000002   0.000001   0.000000  -0.000052   0.002459
    11  N   -0.090728   0.000000   0.000000   0.000000   0.000000  -0.000152
    12  C    0.429214   0.000072  -0.000026   0.000000   0.000068  -0.000338
    13  N    6.438688   0.000040  -0.000142   0.000000   0.000076  -0.000163
    14  C    0.000040   5.276060   0.346997  -0.059348   0.001785  -0.000183
    15  C   -0.000142   0.346997   4.814258   0.336628   0.000386   0.000018
    16  N    0.000000  -0.059348   0.336628   6.450363  -0.000123   0.000000
    17  H    0.000076   0.001785   0.000386  -0.000123   0.469125  -0.009190
    18  H   -0.000163  -0.000183   0.000018   0.000000  -0.009190   0.552533
    19  H    0.000010   0.000003   0.000000   0.000000  -0.000184   0.001887
    20  H    0.003423   0.000065  -0.000002   0.000000  -0.000173  -0.005629
    21  H   -0.001991   0.001005  -0.000045   0.000000  -0.000565   0.007665
    22  H    0.004595   0.000000   0.000000   0.000000  -0.000002   0.000231
    23  H   -0.037916   0.000006  -0.000003   0.000000   0.000002  -0.000003
    24  H    0.342095  -0.002294   0.001195   0.000015  -0.000222   0.000077
    25  H    0.000204   0.381748  -0.041660   0.004701  -0.000806  -0.000015
    26  H   -0.000015   0.372325  -0.028689   0.002511   0.000685   0.000000
    27  H    0.000003  -0.044225   0.403334  -0.026970  -0.000135   0.000000
    28  H    0.000214  -0.054205   0.405651  -0.028951  -0.000015   0.000000
    29  H   -0.000001  -0.001215  -0.057630   0.376084  -0.000008   0.000000
    30  H    0.000000  -0.001107  -0.058214   0.377096  -0.000003   0.000000
              19         20         21         22         23         24
     1  O    0.000002   0.001193   0.016703   0.000005  -0.000069   0.031329
     2  C   -0.000115   0.000832  -0.000660  -0.000006   0.000018  -0.003671
     3  N   -0.000116   0.004874  -0.004731  -0.000049   0.000042  -0.001957
     4  C    0.009849  -0.041471  -0.044909   0.000004   0.000001  -0.000081
     5  C   -0.038608  -0.004276   0.000288  -0.000030   0.000000  -0.000102
     6  O    0.309467   0.006964  -0.000513  -0.000004   0.000000   0.000005
     7  O    0.004338  -0.000272   0.001806   0.000000   0.000000   0.000009
     8  C   -0.001613   0.382712   0.408610   0.000663  -0.000445   0.000313
     9  C   -0.000072  -0.029057  -0.031551  -0.057513   0.005104  -0.033127
    10  C    0.000041   0.001279   0.001233   0.425120   0.006357   0.008343
    11  N    0.000001   0.000129  -0.000384  -0.024688  -0.023505   0.005357
    12  C   -0.000002  -0.000141   0.000265   0.008392   0.414880  -0.025055
    13  N    0.000010   0.003423  -0.001991   0.004595  -0.037916   0.342095
    14  C    0.000003   0.000065   0.001005   0.000000   0.000006  -0.002294
    15  C    0.000000  -0.000002  -0.000045   0.000000  -0.000003   0.001195
    16  N    0.000000   0.000000   0.000000   0.000000   0.000000   0.000015
    17  H   -0.000184  -0.000173  -0.000565  -0.000002   0.000002  -0.000222
    18  H    0.001887  -0.005629   0.007665   0.000231  -0.000003   0.000077
    19  H    0.462074   0.004808  -0.000134   0.000014   0.000000  -0.000001
    20  H    0.004808   0.577163  -0.017211   0.001716   0.000022  -0.000167
    21  H   -0.000134  -0.017211   0.484894  -0.000050  -0.000020   0.000994
    22  H    0.000014   0.001716  -0.000050   0.555713  -0.000393  -0.000254
    23  H    0.000000   0.000022  -0.000020  -0.000393   0.533431  -0.002970
    24  H   -0.000001  -0.000167   0.000994  -0.000254  -0.002970   0.433604
    25  H    0.000001  -0.000004  -0.000029   0.000000   0.000005  -0.000398
    26  H   -0.000005   0.000000  -0.000066   0.000000   0.000000   0.000104
    27  H    0.000000  -0.000001   0.000000   0.000000  -0.000001   0.000057
    28  H    0.000000   0.000000  -0.000036   0.000000   0.000025   0.000809
    29  H    0.000000   0.000000   0.000000   0.000000   0.000000   0.000005
    30  H    0.000000   0.000000   0.000000   0.000000   0.000000   0.000002
              25         26         27         28         29         30
     1  O    0.002242   0.000398   0.010439   0.002570   0.000018   0.000002
     2  C   -0.037222  -0.012602  -0.004843   0.000116  -0.000272   0.000171
     3  N    0.003867  -0.003453   0.000828   0.000057   0.000000  -0.000011
     4  C    0.001567  -0.001421   0.000060  -0.000041   0.000000   0.000000
     5  C   -0.000036   0.000435  -0.000003   0.000004   0.000000   0.000000
     6  O   -0.000001   0.000007   0.000000   0.000000   0.000000   0.000000
     7  O   -0.000075   0.002293  -0.000007   0.000001   0.000000  -0.000001
     8  C   -0.000193   0.000000  -0.000024   0.000008   0.000000   0.000000
     9  C    0.000068   0.000005   0.000011  -0.000020   0.000000   0.000000
    10  C   -0.000010   0.000000   0.000000  -0.000004   0.000000   0.000000
    11  N    0.000001   0.000000   0.000000   0.000000   0.000000   0.000000
    12  C    0.000008  -0.000001  -0.000004   0.000063   0.000000   0.000000
    13  N    0.000204  -0.000015   0.000003   0.000214  -0.000001   0.000000
    14  C    0.381748   0.372325  -0.044225  -0.054205  -0.001215  -0.001107
    15  C   -0.041660  -0.028689   0.403334   0.405651  -0.057630  -0.058214
    16  N    0.004701   0.002511  -0.026970  -0.028951   0.376084   0.377096
    17  H   -0.000806   0.000685  -0.000135  -0.000015  -0.000008  -0.000003
    18  H   -0.000015   0.000000   0.000000   0.000000   0.000000   0.000000
    19  H    0.000001  -0.000005   0.000000   0.000000   0.000000   0.000000
    20  H   -0.000004   0.000000  -0.000001   0.000000   0.000000   0.000000
    21  H   -0.000029  -0.000066   0.000000  -0.000036   0.000000   0.000000
    22  H    0.000000   0.000000   0.000000   0.000000   0.000000   0.000000
    23  H    0.000005   0.000000  -0.000001   0.000025   0.000000   0.000000
    24  H   -0.000398   0.000104   0.000057   0.000809   0.000005   0.000002
    25  H    0.592347  -0.028543   0.009274  -0.005581   0.007545  -0.000663
    26  H   -0.028543   0.545853  -0.007267   0.008594  -0.000884   0.006869
    27  H    0.009274  -0.007267   0.552354  -0.030081   0.009599  -0.010222
    28  H   -0.005581   0.008594  -0.030081   0.586687  -0.010469   0.010357
    29  H    0.007545  -0.000884   0.009599  -0.010469   0.539450  -0.043467
    30  H   -0.000663   0.006869  -0.010222   0.010357  -0.043467   0.535198
 Mulliken charges:
               1
     1  O   -0.413558
     2  C    0.400452
     3  N   -0.370528
     4  C   -0.128529
     5  C    0.393988
     6  O   -0.289424
     7  O   -0.296091
     8  C   -0.216196
     9  C    0.099749
    10  C   -0.073410
    11  N   -0.302487
    12  C    0.148576
    13  N   -0.352967
    14  C   -0.296551
    15  C   -0.091880
    16  N   -0.440300
    17  H    0.227067
    18  H    0.151294
    19  H    0.248353
    20  H    0.113223
    21  H    0.179433
    22  H    0.086535
    23  H    0.105432
    24  H    0.245987
    25  H    0.111660
    26  H    0.142865
    27  H    0.137823
    28  H    0.114247
    29  H    0.181244
    30  H    0.183992
 Sum of Mulliken charges =   0.00000
 Mulliken charges with hydrogens summed into heavy atoms:
               1
     1  O   -0.413558
     2  C    0.400452
     3  N   -0.143461
     4  C    0.022765
     5  C    0.393988
     6  O   -0.041071
     7  O   -0.296091
     8  C    0.076460
     9  C    0.099749
    10  C    0.013125
    11  N   -0.302487
    12  C    0.254008
    13  N   -0.106980
    14  C   -0.042027
    15  C    0.160190
    16  N   -0.075063
 APT charges:
               1
     1  O   -0.320795
     2  C    0.149185
     3  N   -0.588579
     4  C   -0.522961
     5  C   -0.455502
     6  O    0.061796
     7  O    0.068649
     8  C   -0.792874
     9  C   -0.263430
    10  C   -0.597710
    11  N    0.579774
    12  C   -0.662128
    13  N   -0.496912
    14  C   -0.728933
    15  C   -0.593018
    16  N   -0.851110
    17  H    0.598893
    18  H    0.473910
    19  H    0.457973
    20  H    0.578780
    21  H    0.231181
    22  H    0.713637
    23  H    0.560552
    24  H    0.146606
    25  H    0.287211
    26  H    0.464838
    27  H    0.344802
    28  H    0.174113
    29  H    0.410206
    30  H    0.571847
 Sum of APT charges =   0.00000
 APT charges with hydrogens summed into heavy atoms:
               1
     1  O   -0.320795
     2  C    0.149185
     3  N    0.010314
     4  C   -0.049051
     5  C   -0.455502
     6  O    0.519770
     7  O    0.068649
     8  C    0.017087
     9  C   -0.263430
    10  C    0.115927
    11  N    0.579774
    12  C   -0.101575
    13  N   -0.350306
    14  C    0.023115
    15  C   -0.074104
    16  N    0.130942
 Electronic spatial extent (au):  <R**2>=           4359.4964
 Charge=              0.0000 electrons
 Dipole moment (field-independent basis, Debye):
    X=              1.8977    Y=             -0.3398    Z=              3.0984  Tot=              3.6492
 Quadrupole moment (field-independent basis, Debye-Ang):
   XX=            -98.5616   YY=           -109.5961   ZZ=            -93.8196
   XY=             15.4003   XZ=              7.2046   YZ=             -6.4386
 Traceless Quadrupole moment (field-independent basis, Debye-Ang):
   XX=              2.0975   YY=             -8.9370   ZZ=              6.8395
   XY=             15.4003   XZ=              7.2046   YZ=             -6.4386
 Octapole moment (field-independent basis, Debye-Ang**2):
  XXX=            154.2800  YYY=            102.1385  ZZZ=            -39.1707  XYY=             13.0561
  XXY=            -49.0502  XXZ=            -10.1781  XZZ=             10.5462  YZZ=            -16.4820
  YYZ=            -29.9378  XYZ=             50.1270
 Hexadecapole moment (field-independent basis, Debye-Ang**3):
 XXXX=          -2977.2939 YYYY=          -2303.6469 ZZZZ=           -726.3870 XXXY=            159.5112
 XXXZ=            524.2118 YYYX=             82.1375 YYYZ=            291.4742 ZZZX=            457.4769
 ZZZY=            247.5312 XXYY=           -923.8118 XXZZ=           -650.3479 YYZZ=           -487.7327
 XXYZ=             69.7236 YYXZ=            211.3130 ZZXY=              4.8104
 N-N= 1.133947968623D+03 E-N=-4.128977690592D+03  KE= 7.936464857706D+02
  Exact polarizability:   0.000   0.000   0.000   0.000   0.000   0.000
 Approx polarizability: 192.807  -6.223 192.484 -28.848  -8.028 186.991
 Calling FoFJK, ICntrl=    100147 FMM=F ISym2X=0 I1Cent= 0 IOpClX= 0 NMat=1 NMatS=1 NMatT=0.
 -------------------------------------------------------------------
 Center     Atomic                   Forces (Hartrees/Bohr)
 Number     Number              X              Y              Z
 -------------------------------------------------------------------
      1        8           0.007419516    0.003110125    0.007888134
      2        6          -0.000415537   -0.003795363   -0.010110905
      3        7          -0.003866154   -0.003350217    0.000698282
      4        6           0.004878001   -0.000480016    0.002476461
      5        6           0.006847804   -0.003394238   -0.001251341
      6        8           0.002092005   -0.002862862   -0.001721755
      7        8          -0.000797775    0.000145859    0.000562957
      8        6          -0.006586115    0.003257040    0.000430770
      9        6           0.002968316   -0.005855549   -0.003543807
     10        6          -0.003772619    0.009534831    0.002814666
     11        7          -0.003296522   -0.002364863    0.003869523
     12        6          -0.002228560    0.000537253    0.001957047
     13        7           0.004005071   -0.001298584   -0.005063572
     14        6          -0.001481635   -0.001871427    0.001379172
     15        6           0.001868548    0.001247504   -0.001382148
     16        7           0.000169030    0.000633549   -0.000893133
     17        1           0.002277559    0.000983112    0.002273888
     18        1          -0.001989490    0.000799053    0.000676720
     19        1          -0.004509415    0.001125077    0.002221719
     20        1          -0.000970484    0.000003052    0.000663655
     21        1           0.000457048   -0.000267254   -0.001383913
     22        1          -0.000158273    0.000360971   -0.000814865
     23        1          -0.001122245    0.003376950   -0.000362404
     24        1          -0.000566898   -0.001960912   -0.000191744
     25        1           0.000627326    0.000713225    0.000160577
     26        1          -0.002049118   -0.000183418    0.000367457
     27        1          -0.001336275    0.000195008   -0.001410208
     28        1          -0.000827770    0.001044992   -0.001074953
     29        1           0.000740871    0.001400498    0.001141644
     30        1           0.001623793   -0.000783397   -0.000377923
 -------------------------------------------------------------------
 Cartesian Forces:  Max     0.010110905 RMS     0.002949923
 FormGI is forming the generalized inverse of G from B-inverse, IUseBI=4.

 GradGradGradGradGradGradGradGradGradGradGradGradGradGradGradGradGradGrad
 Berny optimization.
 Internal  Forces:  Max     0.010980505 RMS     0.002735214
 Search for a local minimum.
 Step number   1 out of a maximum of  160
 All quantities printed in internal units (Hartrees-Bohrs-Radians)
 Mixed Optimization -- RFO/linear search
 Second derivative matrix not updated -- analytic derivatives used.
 ITU=  0
     Eigenvalues ---    0.00026   0.00098   0.00226   0.00313   0.00346
     Eigenvalues ---    0.00373   0.00642   0.00862   0.00998   0.01020
     Eigenvalues ---    0.01182   0.02037   0.02395   0.02728   0.02965
     Eigenvalues ---    0.03439   0.04117   0.04216   0.04358   0.04377
     Eigenvalues ---    0.04523   0.04740   0.04842   0.05304   0.05443
     Eigenvalues ---    0.06061   0.06276   0.07008   0.07684   0.08127
     Eigenvalues ---    0.08654   0.10301   0.10751   0.10772   0.11646
     Eigenvalues ---    0.12323   0.12690   0.13587   0.14603   0.16232
     Eigenvalues ---    0.16788   0.18070   0.18203   0.18456   0.18962
     Eigenvalues ---    0.20346   0.21560   0.21942   0.22728   0.23333
     Eigenvalues ---    0.23634   0.24224   0.24849   0.26939   0.28251
     Eigenvalues ---    0.30150   0.32047   0.32441   0.32548   0.33079
     Eigenvalues ---    0.33236   0.33387   0.33743   0.34177   0.34427
     Eigenvalues ---    0.35812   0.36462   0.36749   0.37145   0.37577
     Eigenvalues ---    0.41128   0.41593   0.43564   0.44906   0.44953
     Eigenvalues ---    0.45388   0.45726   0.47646   0.48015   0.54062
     Eigenvalues ---    0.58109   0.61966   0.75489   0.90910
 RFO step:  Lambda=-3.54273829D-03 EMin= 2.61195319D-04
 Linear search not attempted -- first point.
 Iteration  1 RMS(Cart)=  0.09750026 RMS(Int)=  0.00362612
 Iteration  2 RMS(Cart)=  0.00517667 RMS(Int)=  0.00007263
 Iteration  3 RMS(Cart)=  0.00001502 RMS(Int)=  0.00007236
 Iteration  4 RMS(Cart)=  0.00000000 RMS(Int)=  0.00007236
 Variable       Old X    -DE/DX   Delta X   Delta X   Delta X     New X
                                 (Linear)    (Quad)   (Total)
    R1        2.32855  -0.01088   0.00000  -0.01449  -0.01449   2.31406
    R2        2.57421   0.00648   0.00000   0.01412   0.01412   2.58834
    R3        2.87986   0.00029   0.00000  -0.00186  -0.00186   2.87799
    R4        2.75100   0.00345   0.00000  -0.00019  -0.00019   2.75081
    R5        1.90042   0.00324   0.00000   0.00669   0.00669   1.90711
    R6        2.89923   0.00583   0.00000   0.02189   0.02189   2.92112
    R7        2.90958   0.01098   0.00000   0.03073   0.03073   2.94031
    R8        2.06846   0.00124   0.00000   0.00310   0.00310   2.07156
    R9        2.55960   0.00288   0.00000   0.00406   0.00406   2.56366
   R10        2.26224  -0.00097   0.00000  -0.00195  -0.00195   2.26028
   R11        1.81394   0.00498   0.00000   0.00886   0.00886   1.82280
   R12        2.82061   0.00351   0.00000   0.00140   0.00140   2.82201
   R13        2.06481   0.00089   0.00000   0.00298   0.00298   2.06779
   R14        2.05280   0.00147   0.00000   0.00599   0.00599   2.05878
   R15        2.58180   0.00868   0.00000   0.01728   0.01735   2.59914
   R16        2.59815   0.00227   0.00000   0.00634   0.00641   2.60456
   R17        2.61433  -0.00423   0.00000  -0.01697  -0.01699   2.59734
   R18        2.04245  -0.00064   0.00000  -0.00090  -0.00090   2.04155
   R19        2.47933   0.00207   0.00000   0.00526   0.00517   2.48450
   R20        2.55987   0.00801   0.00000   0.01410   0.01407   2.57394
   R21        2.03252   0.00293   0.00000   0.00714   0.00714   2.03967
   R22        1.91305  -0.00008   0.00000   0.00129   0.00129   1.91434
   R23        2.88820   0.00574   0.00000   0.01835   0.01835   2.90655
   R24        2.07091   0.00060   0.00000   0.00111   0.00111   2.07203
   R25        2.07718  -0.00117   0.00000  -0.00301  -0.00301   2.07417
   R26        2.75949   0.00283   0.00000   0.00299   0.00299   2.76248
   R27        2.05883   0.00116   0.00000   0.00300   0.00300   2.06184
   R28        2.06249   0.00142   0.00000   0.00493   0.00493   2.06743
   R29        1.91577   0.00183   0.00000   0.00330   0.00330   1.91908
   R30        1.91604   0.00168   0.00000   0.00298   0.00298   1.91902
    A1        2.15337   0.00229   0.00000   0.00031   0.00031   2.15368
    A2        2.13920  -0.00383   0.00000  -0.00901  -0.00901   2.13019
    A3        1.99038   0.00153   0.00000   0.00865   0.00865   1.99903
    A4        2.19605   0.00699   0.00000   0.00719   0.00719   2.20323
    A5        2.01098  -0.00379   0.00000  -0.00835  -0.00835   2.00262
    A6        1.98565  -0.00278   0.00000  -0.00137  -0.00137   1.98427
    A7        1.92900  -0.00587   0.00000  -0.01582  -0.01591   1.91309
    A8        2.00873   0.00739   0.00000   0.01169   0.01173   2.02045
    A9        1.84153  -0.00024   0.00000   0.00772   0.00777   1.84931
   A10        1.91907   0.00063   0.00000   0.01390   0.01393   1.93301
   A11        1.87106   0.00185   0.00000   0.00400   0.00409   1.87514
   A12        1.88759  -0.00406   0.00000  -0.02258  -0.02257   1.86502
   A13        2.00601   0.00081   0.00000   0.00630   0.00630   2.01231
   A14        2.17040  -0.00024   0.00000  -0.00429  -0.00429   2.16612
   A15        2.10674  -0.00056   0.00000  -0.00203  -0.00203   2.10470
   A16        1.92916   0.00228   0.00000   0.01034   0.01034   1.93950
   A17        1.96811   0.01029   0.00000   0.03512   0.03514   2.00324
   A18        1.88468  -0.00352   0.00000  -0.00822  -0.00820   1.87649
   A19        1.90727  -0.00220   0.00000  -0.00727  -0.00727   1.90000
   A20        1.89441  -0.00362   0.00000  -0.01077  -0.01079   1.88362
   A21        1.93511  -0.00291   0.00000  -0.01053  -0.01059   1.92452
   A22        1.87101   0.00153   0.00000   0.00004  -0.00008   1.87093
   A23        2.31160  -0.00056   0.00000   0.00508   0.00465   2.31625
   A24        2.13722   0.00286   0.00000   0.00252   0.00209   2.13931
   A25        1.83346  -0.00227   0.00000  -0.00573  -0.00584   1.82762
   A26        1.92810   0.00339   0.00000   0.00810   0.00816   1.93626
   A27        2.23779  -0.00149   0.00000  -0.00681  -0.00694   2.23085
   A28        2.11728  -0.00189   0.00000  -0.00117  -0.00130   2.11598
   A29        1.83446  -0.00085   0.00000  -0.00006  -0.00009   1.83437
   A30        1.95001   0.00154   0.00000   0.00202   0.00199   1.95200
   A31        2.21056  -0.00279   0.00000  -0.01574  -0.01574   2.19482
   A32        2.12261   0.00125   0.00000   0.01375   0.01375   2.13636
   A33        1.87874  -0.00181   0.00000  -0.00432  -0.00421   1.87453
   A34        2.16951  -0.00087   0.00000  -0.01457  -0.01463   2.15488
   A35        2.23486   0.00269   0.00000   0.01879   0.01871   2.25358
   A36        1.97166   0.00216   0.00000   0.00662   0.00658   1.97824
   A37        1.90576   0.00047   0.00000   0.01632   0.01633   1.92209
   A38        1.88634  -0.00246   0.00000  -0.02438  -0.02433   1.86200
   A39        1.92855  -0.00150   0.00000  -0.00688  -0.00698   1.92157
   A40        1.90901   0.00087   0.00000   0.00646   0.00646   1.91547
   A41        1.85864   0.00033   0.00000   0.00115   0.00124   1.85988
   A42        2.00690   0.00097   0.00000   0.00585   0.00583   2.01273
   A43        1.89898   0.00007   0.00000   0.00203   0.00199   1.90097
   A44        1.90863   0.00016   0.00000  -0.00079  -0.00078   1.90784
   A45        1.89228  -0.00017   0.00000   0.00378   0.00375   1.89603
   A46        1.88906  -0.00052   0.00000  -0.00183  -0.00183   1.88723
   A47        1.86271  -0.00062   0.00000  -0.01031  -0.01030   1.85240
   A48        1.92686   0.00100   0.00000   0.00849   0.00844   1.93530
   A49        1.92423   0.00096   0.00000   0.00743   0.00738   1.93162
   A50        1.86113  -0.00045   0.00000   0.00372   0.00363   1.86476
    D1        0.34410   0.00108   0.00000   0.04088   0.04088   0.38498
    D2        3.01109   0.00104   0.00000   0.03379   0.03379   3.04489
    D3       -2.82089   0.00040   0.00000   0.03888   0.03887  -2.78201
    D4       -0.15390   0.00036   0.00000   0.03179   0.03179  -0.12211
    D5        0.32202   0.00015   0.00000   0.04771   0.04767   0.36969
    D6        2.47544   0.00007   0.00000   0.05547   0.05556   2.53100
    D7       -1.79263  -0.00062   0.00000   0.05225   0.05221  -1.74042
    D8       -2.79639   0.00073   0.00000   0.04956   0.04951  -2.74688
    D9       -0.64297   0.00064   0.00000   0.05731   0.05739  -0.58557
   D10        1.37214  -0.00004   0.00000   0.05409   0.05405   1.42619
   D11        1.39566   0.00016   0.00000   0.00114   0.00111   1.39678
   D12       -0.79101  -0.00161   0.00000  -0.01369  -0.01365  -0.80466
   D13       -2.87040  -0.00066   0.00000   0.00237   0.00234  -2.86806
   D14       -1.27722   0.00048   0.00000   0.00982   0.00979  -1.26743
   D15        2.81930  -0.00129   0.00000  -0.00502  -0.00497   2.81432
   D16        0.73991  -0.00034   0.00000   0.01104   0.01102   0.75093
   D17        2.87232  -0.00200   0.00000   0.06611   0.06614   2.93846
   D18       -0.26091  -0.00243   0.00000   0.06850   0.06854  -0.19238
   D19       -1.17432   0.00372   0.00000   0.08002   0.07997  -1.09435
   D20        1.97563   0.00329   0.00000   0.08241   0.08237   2.05800
   D21        0.87375   0.00027   0.00000   0.06284   0.06285   0.93660
   D22       -2.25949  -0.00016   0.00000   0.06524   0.06525  -2.19424
   D23       -0.98200  -0.00193   0.00000   0.02499   0.02504  -0.95695
   D24       -3.07499  -0.00139   0.00000   0.02230   0.02238  -3.05262
   D25        1.17853  -0.00010   0.00000   0.03066   0.03073   1.20926
   D26        3.10937  -0.00029   0.00000   0.02564   0.02556   3.13493
   D27        1.01637   0.00025   0.00000   0.02295   0.02289   1.03927
   D28       -1.01329   0.00154   0.00000   0.03131   0.03124  -0.98204
   D29        1.07162  -0.00053   0.00000   0.02611   0.02611   1.09773
   D30       -1.02138   0.00001   0.00000   0.02343   0.02344  -0.99793
   D31       -3.05104   0.00131   0.00000   0.03179   0.03179  -3.01924
   D32       -0.03902   0.00008   0.00000   0.02556   0.02556  -0.01347
   D33        3.09454   0.00049   0.00000   0.02324   0.02324   3.11778
   D34       -1.60419   0.00134   0.00000  -0.01085  -0.01091  -1.61510
   D35        1.48457   0.00245   0.00000   0.04403   0.04410   1.52867
   D36        0.48319   0.00092   0.00000  -0.00647  -0.00658   0.47661
   D37       -2.71123   0.00202   0.00000   0.04841   0.04842  -2.66281
   D38        2.53392  -0.00108   0.00000  -0.01899  -0.01901   2.51491
   D39       -0.66050   0.00002   0.00000   0.03588   0.03600  -0.62450
   D40        3.09145   0.00101   0.00000   0.04970   0.04974   3.14119
   D41       -0.04363   0.00037   0.00000   0.02867   0.02869  -0.01494
   D42       -0.00399  -0.00006   0.00000   0.00162   0.00168  -0.00231
   D43       -3.13906  -0.00070   0.00000  -0.01941  -0.01937   3.12476
   D44       -3.09756  -0.00088   0.00000  -0.04386  -0.04376  -3.14132
   D45        0.03236  -0.00018   0.00000  -0.05191  -0.05170  -0.01934
   D46        0.00367  -0.00004   0.00000  -0.00170  -0.00174   0.00193
   D47        3.13359   0.00067   0.00000  -0.00975  -0.00968   3.12391
   D48        0.00274   0.00012   0.00000  -0.00094  -0.00098   0.00176
   D49        3.13834   0.00071   0.00000   0.01837   0.01844  -3.12641
   D50       -0.00032  -0.00014   0.00000  -0.00016  -0.00016  -0.00048
   D51       -3.13836  -0.00057   0.00000  -0.00791  -0.00776   3.13707
   D52       -0.00216   0.00010   0.00000   0.00118   0.00121  -0.00094
   D53       -3.13151  -0.00060   0.00000   0.00992   0.01006  -3.12145
   D54        3.13609   0.00050   0.00000   0.00842   0.00845  -3.13865
   D55        0.00674  -0.00021   0.00000   0.01716   0.01729   0.02403
   D56        3.11988   0.00082   0.00000   0.04823   0.04821  -3.11509
   D57       -1.03751   0.00132   0.00000   0.05872   0.05872  -0.97879
   D58        0.99093   0.00070   0.00000   0.04710   0.04709   1.03802
   D59        0.97911  -0.00022   0.00000   0.02738   0.02739   1.00650
   D60        3.10490   0.00027   0.00000   0.03788   0.03789  -3.14039
   D61       -1.14984  -0.00034   0.00000   0.02626   0.02627  -1.12358
   D62       -1.06155  -0.00028   0.00000   0.02614   0.02613  -1.03542
   D63        1.06424   0.00022   0.00000   0.03664   0.03664   1.10088
   D64        3.09268  -0.00040   0.00000   0.02501   0.02501   3.11769
   D65       -1.01949  -0.00020   0.00000   0.00410   0.00409  -1.01541
   D66        1.03241   0.00044   0.00000   0.01841   0.01844   1.05086
   D67        3.13428  -0.00083   0.00000  -0.00540  -0.00543   3.12885
   D68       -1.09700  -0.00018   0.00000   0.00891   0.00893  -1.08807
   D69        1.12001   0.00027   0.00000   0.00571   0.00569   1.12569
   D70       -3.11127   0.00092   0.00000   0.02002   0.02005  -3.09123
         Item               Value     Threshold  Converged?
 Maximum Force            0.010981     0.000450     NO 
 RMS     Force            0.002735     0.000300     NO 
 Maximum Displacement     0.422238     0.001800     NO 
 RMS     Displacement     0.099447     0.001200     NO 
 Predicted change in Energy=-1.947535D-03
 GradGradGradGradGradGradGradGradGradGradGradGradGradGradGradGradGradGrad

                          Input orientation:                          
 ---------------------------------------------------------------------
 Center     Atomic      Atomic             Coordinates (Angstroms)
 Number     Number       Type             X           Y           Z
 ---------------------------------------------------------------------
      1          8           0        0.291012   -0.180483   -1.245785
      2          6           0        0.974463   -0.134432   -0.230750
      3          7           0        0.519872   -0.520170    1.002378
      4          6           0       -0.590114   -1.424228    1.266138
      5          6           0       -0.119473   -2.886869    1.096894
      6          8           0       -0.982858   -3.829838    1.550564
      7          8           0        0.928942   -3.202683    0.615519
      8          6           0       -1.885068   -1.163102    0.444027
      9          6           0       -2.424809    0.225202    0.550666
     10          6           0       -3.355111    0.803152    1.382686
     11          7           0       -3.516876    2.135875    1.088070
     12          6           0       -2.696710    2.367363    0.086929
     13          7           0       -2.013202    1.247032   -0.277638
     14          6           0        2.402040    0.395990   -0.241027
     15          6           0        2.705118    1.306996   -1.442649
     16          7           0        4.074800    1.812826   -1.513959
     17          1           0        1.217505   -0.511071    1.731564
     18          1           0       -0.849756   -1.282736    2.321727
     19          1           0       -1.772439   -3.425035    1.928872
     20          1           0       -2.652333   -1.851776    0.810585
     21          1           0       -1.697114   -1.415849   -0.598910
     22          1           0       -3.925472    0.329907    2.168729
     23          1           0       -2.560386    3.315575   -0.410363
     24          1           0       -1.310926    1.133066   -0.998777
     25          1           0        2.614888    0.924626    0.695716
     26          1           0        3.063429   -0.479682   -0.263390
     27          1           0        2.485882    0.763357   -2.362889
     28          1           0        2.025900    2.164510   -1.426946
     29          1           0        4.311390    2.336473   -0.676628
     30          1           0        4.737312    1.045902   -1.578399
 ---------------------------------------------------------------------
                    Distance matrix (angstroms):
                    1          2          3          4          5
     1  O    0.000000
     2  C    1.224550   0.000000
     3  N    2.285170   1.369690   0.000000
     4  C    2.938203   2.520346   1.455665   0.000000
     5  C    3.602938   3.245803   2.453357   1.545790   0.000000
     6  O    4.770754   4.545350   3.675950   2.453998   1.356628
     7  O    3.606258   3.183144   2.740962   2.427702   1.196091
     8  C    2.925120   3.112941   2.551246   1.555943   2.552438
     9  C    3.281386   3.506422   3.070956   2.568778   3.911256
    10  C    4.601153   4.714600   4.112337   3.552466   4.916024
    11  N    5.031143   5.202471   4.832934   4.612155   6.063859
    12  C    4.146581   4.453921   4.418404   4.494935   5.938783
    13  N    2.878283   3.291927   3.343338   3.397653   4.750230
    14  C    2.407966   1.522968   2.434740   3.812837   4.350313
    15  C    2.842404   2.557652   3.753930   5.065142   5.658277
    16  N    4.285120   3.879502   4.940884   6.322094   6.818769
    17  H    3.135647   2.012858   1.009200   2.077971   2.799059
    18  H    3.904287   3.340885   2.048919   1.096223   2.146340
    19  H    4.986320   4.799739   3.814620   2.416679   1.927202
    20  H    3.960449   4.145756   3.445700   2.154779   2.751140
    21  H    2.428419   2.985782   2.877741   2.168853   2.743830
    22  H    5.449600   5.475625   4.673766   3.875084   5.097265
    23  H    4.588118   4.942669   5.118278   5.399848   6.833754
    24  H    2.086295   2.723861   3.176418   3.491297   4.687352
    25  H    3.223522   2.161235   2.563312   4.014291   4.707990
    26  H    2.956504   2.117556   2.841389   4.071854   4.216134
    27  H    2.637463   2.763409   4.103371   5.236135   5.664108
    28  H    2.922610   2.796702   3.921383   5.193772   6.040598
    29  H    4.777284   4.176034   5.035382   6.476260   7.075395
    30  H    4.624309   4.167539   5.186500   6.524906   6.797958
                    6          7          8          9         10
     6  O    0.000000
     7  O    2.218696   0.000000
     8  C    3.024878   3.479649   0.000000
     9  C    4.418412   4.796065   1.493344   0.000000
    10  C    5.207721   5.915097   2.628357   1.375408   0.000000
    11  N    6.498067   6.963390   3.736420   2.265411   1.374451
    12  C    6.594302   6.667096   3.640119   2.208583   2.135237
    13  N    5.493499   5.408688   2.519119   1.378275   2.180464
    14  C    5.703065   3.981725   4.612956   4.894325   5.995583
    15  C    6.996253   5.265744   5.543531   5.608897   6.705427
    16  N    8.173791   6.291774   6.943334   7.002010   8.038257
    17  H    3.986047   2.928071   3.421821   3.899111   4.770505
    18  H    2.664609   3.124277   2.147544   2.809151   3.392570
    19  H    0.964582   3.011942   2.708098   3.955916   4.547608
    20  H    2.692107   3.832562   1.094227   2.105508   2.805323
    21  H    3.310248   3.400556   1.089461   2.131692   3.405825
    22  H    5.132697   6.201370   3.060542   2.209318   1.080341
    23  H    7.575668   7.464284   4.609185   3.239192   3.187300
    24  H    5.589023   5.140202   2.771950   2.113226   3.155773
    25  H    6.023244   4.459095   4.967048   5.090066   6.010622
    26  H    5.557554   3.569769   5.045308   5.592880   6.749288
    27  H    6.960223   5.198504   5.540327   5.735268   6.938885
    28  H    7.338283   5.846516   5.465274   5.242201   6.221143
    29  H    8.426911   6.617616   7.204094   7.165199   8.084991
    30  H    8.141473   6.112891   7.268137   7.516810   8.620572
                   11         12         13         14         15
    11  N    0.000000
    12  C    1.314741   0.000000
    13  N    2.217258   1.362070   0.000000
    14  C    6.310885   5.476415   4.496663   0.000000
    15  C    6.767924   5.713469   4.860390   1.538078   0.000000
    16  N    8.031716   6.980237   6.237979   2.534937   1.461841
    17  H    5.462121   5.129453   4.191096   2.473256   3.948922
    18  H    4.508030   4.661415   3.809203   4.467662   5.789160
    19  H    5.888440   6.148082   5.172510   6.060938   7.335379
    20  H    4.089718   4.280980   3.345942   5.630722   6.614921
    21  H    4.332687   3.972689   2.700752   4.495988   5.244562
    22  H    2.143897   3.161484   3.237685   6.771167   7.613244
    23  H    2.133510   1.079346   2.143805   5.760063   5.729358
    24  H    3.197933   2.150034   1.013026   3.860516   4.044240
    25  H    6.262555   5.537615   4.740314   1.096470   2.174156
    26  H    7.208883   6.434873   5.362269   1.097605   2.170544
    27  H    7.058755   5.952621   4.982366   2.155060   1.091077
    28  H    6.086747   4.963468   4.298491   2.162302   1.094036
    29  H    8.027212   7.049640   6.430127   2.756961   2.055898
    30  H    8.742409   7.732028   6.877636   2.768473   2.053390
                   16         17         18         19         20
    16  N    0.000000
    17  H    4.908976   0.000000
    18  H    6.967513   2.284147   0.000000
    19  H    8.571958   4.179699   2.365402   0.000000
    20  H    8.005444   4.197778   2.420050   2.121302   0.000000
    21  H    6.676575   3.839887   3.043987   3.229889   1.757598
    22  H    8.931159   5.229586   3.476213   4.335052   2.867957
    23  H    6.892161   5.788223   5.615607   7.178350   5.310432
    24  H    5.452846   4.068280   4.132133   5.436948   3.739311
    25  H    2.793368   2.255412   4.418158   6.299910   5.955268
    26  H    2.800426   2.718135   4.758229   6.071798   5.975450
    27  H    2.084881   4.471855   6.103983   7.354939   6.581118
    28  H    2.080684   4.217632   5.848543   7.545324   6.559189
    29  H    1.015531   4.845617   6.980417   8.774768   8.261153
    30  H    1.015503   5.076323   7.200615   8.641011   8.289188
                   21         22         23         24         25
    21  H    0.000000
    22  H    3.958923   0.000000
    23  H    4.813228   4.174852   0.000000
    24  H    2.608831   4.184975   2.582776   0.000000
    25  H    5.074174   6.730510   5.807195   4.280977   0.000000
    26  H    4.863307   7.444151   6.786228   4.719823   1.758737
    27  H    5.035674   7.863136   5.982558   4.051325   3.065569
    28  H    5.231200   7.191209   4.836571   3.518752   2.527828
    29  H    7.084354   8.942497   6.946283   5.758680   2.598991
    30  H    6.958552   9.465593   7.731243   6.076573   3.113035
                   26         27         28         29         30
    26  H    0.000000
    27  H    2.507310   0.000000
    28  H    3.069542   1.746654   0.000000
    29  H    3.107877   2.941198   2.411641   0.000000
    30  H    2.618881   2.400873   2.937001   1.631004   0.000000
 Symmetry turned off by external request.
 Stoichiometry    C9H14N4O3
 Framework group  C1[X(C9H14N4O3)]
 Deg. of freedom    84
[...]
 9323,-0.00032071,-0.00059827,-0.00049880,-0.00032362,0.00082986,-0.000
 29689,-0.00003329,-0.00047128,0.00021594,0.00007738,0.00038000,-0.0000
 6802,-0.00010347,0.00011085,-0.00015851,-0.00009077,-0.00005646,0.0000
 5769,0.00011689,0.00007917,-0.00044063,-0.00018100,-0.00138386,-0.0001
 1019,-0.00028815,0.00111089,0.00091254,-0.00071684,-0.00041090,0.00034
 722,-0.05382474,0.06961937,0.00042106,-0.00112989,-0.00338456,-0.00144
 226,0.00100581,0.00235920,0.00066158,-0.00044924,-0.00180779,-0.000264
 83,0.00058342,-0.00029954,-0.00011483,0.00031828,0.00015562,0.00003085
 ,-0.00012804,-0.00000905,0.00017230,-0.00020566,-0.00011089,-0.0011086
 5,0.00012533,0.00008245,0.00774828,-0.00840490,-0.01130290,0.00168313,
 0.00345273,-0.00113121,0.00116073,0.00139577,0.00530432,-0.00457016,-0
 .00374002,-0.00169957,0.20368315,-0.03906719,-0.24374249,-0.00025965,0
 .00009898,-0.00014018,-0.00004495,0.00015816,0.00032771,0.00004676,0.0
 0002622,-0.00019903,0.00001930,-0.00000630,-0.00004330,-0.00001984,-0.
 00000027,0.00000354,0.00000322,0.00012246,-0.00003004,0.00004212,-0.00
 041783,0.00012766,0.00008862,0.00002971,0.00014868,0.00104920,-0.00019
 443,0.00059974,-0.00063811,-0.00014822,-0.00058824,-0.20840618,0.04676
 803,0.25542356,-0.00858555,-0.00270401,-0.00037614,-0.00312995,-0.0088
 7419,-0.03086195,0.00020620,0.00159808,0.00112508,0.00019242,0.0001388
 9,0.00001562,0.00008424,-0.00002860,-0.00010518,0.00002429,0.00008517,
 0.00001350,0.00000220,0.00002752,0.00005431,-0.00000974,0.00002313,-0.
 00017440,0.00007041,0.00002415,-0.00008030,-0.00001639,0.00002385,0.00
 002980,-0.00005249,0.00004891,0.00009364,0.00002590,-0.00011996,-0.000
 01854,-0.00007908,0.00015682,0.00006227,-0.06397631,-0.02538673,-0.055
 06159,0.00008947,0.00054727,0.00323676,0.00090429,0.00113789,0.0001995
 6,-0.00059230,-0.00162595,0.00086822,0.00000346,0.00001173,0.00000517,
 -0.00001838,-0.00000321,-0.00001773,0.00002225,-0.00001079,0.00010052,
 0.00011495,0.00010069,0.00005637,-0.00001117,0.00000061,0.00000186,-0.
 00001400,0.00000580,-0.00001383,0.00018392,-0.00030332,-0.00004754,0.0
 6857945,-0.00426761,0.00097038,0.00012641,0.00323209,-0.00509148,-0.01
 259935,-0.00042190,0.00043435,0.00116965,0.00035020,-0.00003497,0.0000
 7303,-0.00012567,0.00005410,-0.00007085,0.00000788,-0.00005117,0.00001
 325,0.00011492,-0.00000470,0.00017701,0.00001871,0.00005590,-0.0001130
 9,0.00007074,0.00006534,-0.00010447,-0.00001151,0.00002683,0.00000976,
 -0.00007597,0.00004130,0.00009138,0.00004361,-0.00017152,-0.00001971,-
 0.00017233,0.00015566,0.00006008,-0.02693742,-0.08185987,-0.08147964,0
 .00627191,0.00853716,0.02353765,0.00182047,0.00141495,-0.00111473,-0.0
 0130664,-0.00061595,0.00082726,-0.00004468,0.00000046,0.00001134,-0.00
 000049,0.00002023,-0.00002757,0.00000914,-0.00001644,0.00007325,0.0000
 7556,0.00005820,0.00003577,-0.00000754,-0.00000074,0.00000677,-0.00000
 017,0.00000645,0.00000417,0.00020274,-0.00025110,0.00002067,0.02939420
 ,0.08713408,0.00054812,-0.00080814,0.00230552,0.00110284,0.00250095,-0
 .00184129,0.00124637,0.00123921,0.00002703,-0.00035009,-0.00008012,0.0
 0073299,0.00012235,-0.00001029,-0.00005309,0.00000516,0.00007838,0.000
 00151,-0.00001188,0.00003827,0.00008740,0.00000187,0.00005099,-0.00003
 540,0.00003124,0.00002252,-0.00004489,-0.00001539,0.00001691,0.0000290
 8,-0.00002739,0.00000599,0.00006981,0.00004387,-0.00005908,-0.00004208
 ,-0.00002804,0.00001901,0.00002882,-0.05858945,-0.08362857,-0.24916125
 ,-0.00719508,-0.00891672,-0.02193711,0.00023515,-0.00034594,0.00250999
 ,0.00064881,-0.00030360,0.00079286,-0.00008151,-0.00008150,0.00001449,
 -0.00001697,-0.00000372,-0.00001418,-0.00001338,0.00000133,0.00005387,
 0.00005257,0.00001496,0.00002767,-0.00000863,-0.00000166,0.00000118,-0
 .00000058,-0.00000791,-0.00001079,0.00009456,-0.00001937,-0.00006305,0
 .06249277,0.08793736,0.27413221,0.00095471,-0.00449550,-0.00099701,-0.
 02191270,0.02589953,0.00783586,-0.00136609,-0.00263764,-0.00004690,0.0
 0084169,-0.00094502,0.00013751,-0.00150746,0.00044414,0.00046865,0.000
 39545,-0.00017270,-0.00010865,0.00086672,-0.00018565,-0.00039321,0.000
 08885,0.00001581,-0.00004929,0.00005373,0.00001855,-0.00006108,-0.0000
 0472,0.00000834,0.00000123,-0.00003879,0.00002230,0.00004124,0.0000486
 2,-0.00007866,-0.00003074,-0.00007059,-0.00003689,0.00000284,-0.145931
 56,0.12120552,0.03544666,0.00104804,-0.00209193,-0.00088254,0.00173346
 ,-0.00084911,-0.00074715,-0.00041307,0.00034199,0.00025398,-0.00001672
 ,-0.00007561,0.00004474,0.00005998,0.00008379,-0.00000739,-0.00003366,
 -0.00000486,0.00002709,0.00003794,0.00004451,-0.00001506,-0.00000099,-
 0.00000075,0.00000494,0.00000331,0.00000048,0.00000267,0.00014055,0.00
 003103,0.00004466,0.00597649,-0.00682745,-0.00182911,0.15813954,-0.000
 02360,-0.00133945,-0.00055975,-0.00775786,0.01141037,0.00276386,-0.000
 45509,-0.00085474,0.00052626,0.00060514,-0.00082050,0.00001795,-0.0008
 5681,0.00027994,0.00025481,0.00014621,-0.00017451,-0.00006853,0.000450
 89,-0.00006910,-0.00017216,0.00007279,0.00002093,-0.00002661,0.0000400
 6,-0.00001973,-0.00002836,0.00000332,0.00000303,-0.00001046,-0.0000013
 9,0.00004481,0.00001561,-0.00000485,-0.00002400,0.00001552,-0.00002990
 ,0.00002900,0.00000849,0.11673688,-0.18472778,-0.04474134,0.01576572,-
 0.02096547,-0.00355583,0.00022034,0.00318624,-0.00154841,-0.00014085,-
 0.00009013,0.00022375,0.00003360,-0.00000399,0.00000349,0.00003989,0.0
 0003048,-0.00000201,-0.00000581,0.00000193,0.00001187,0.00002882,0.000
 02581,-0.00000870,-0.00000029,0.00000095,-0.00000302,-0.00002157,0.000
 01289,-0.00001033,0.00006853,-0.00010667,0.00000880,0.00704345,-0.0087
 1129,-0.00276952,-0.12958889,0.20433938,-0.00072881,-0.00094892,-0.000
 59576,0.00127868,-0.00075604,-0.00138817,0.00114387,0.00127419,-0.0000
 9824,-0.00050719,0.00055761,0.00014254,0.00093288,-0.00022676,-0.00022
 083,-0.00024356,0.00012312,0.00005159,-0.00057606,0.00012496,0.0000591
 1,-0.00004498,0.00000571,-0.00001476,0.00000597,0.00000134,-0.00000308
 ,-0.00001161,0.00001557,0.00002366,-0.00001022,-0.00000409,0.00003275,
 0.00001143,-0.00001600,-0.00002453,-0.00001794,0.00002314,0.00000781,0
 .03475374,-0.04498208,-0.05616340,-0.01498233,0.02104218,0.00374364,-0
 .00174785,-0.00200190,0.00120666,0.00035981,-0.00090229,-0.00015207,0.
 00000265,0.00000423,-0.00000802,-0.00003610,-0.00004198,0.00001358,0.0
 0001783,-0.00000042,0.00000679,0.00002449,0.00000536,0.00000395,-0.000
 00323,-0.00000035,0.00000075,0.00000427,-0.00000393,-0.00000125,0.0000
 8637,-0.00001554,-0.00002299,0.01858494,-0.02099454,-0.00677486,-0.039
 60577,0.04491302,0.06183313,-0.00124302,-0.00039371,-0.00032902,0.0006
 2901,0.00023474,0.00157787,0.00002999,-0.00010556,-0.00087791,-0.00014
 352,-0.00004969,0.00002407,0.00007635,-0.00010478,0.00000533,0.0000009
 9,0.00006376,-0.00000275,-0.00006331,0.00005601,0.00000466,0.00000124,
 0.00002105,0.00004069,-0.00003701,-0.00005395,0.00005630,0.00001948,-0
 .00000909,-0.00001534,0.00004261,-0.00002811,-0.00006540,-0.00005006,0
 .00008464,0.00002707,0.00004533,0.00000467,-0.00004135,0.00168162,0.00
 170875,0.00038839,-0.07043403,-0.02329999,-0.06489307,-0.01627473,-0.0
 1893392,-0.02810248,0.00019747,0.00012907,-0.00008994,0.00001120,0.000
 01681,-0.00001197,-0.00000859,-0.00001921,0.00000865,0.00001434,0.0000
 0523,-0.00002085,-0.00002009,-0.00003384,-0.00000888,0.00000339,-0.000
 00061,-0.00000350,0.00000614,0.00000482,0.00001344,-0.00021258,0.00002
 792,0.00013548,0.00002020,-0.00098562,0.00058671,0.00017819,-0.0002653
 8,-0.00032885,0.08439398,-0.00045219,-0.00113104,-0.00073543,0.0005246
 1,0.00095630,0.00137381,-0.00021816,0.00001354,-0.00052712,-0.00012466
 ,-0.00000821,-0.00008870,-0.00002350,0.00001724,0.00003114,0.00000827,
 -0.00000205,-0.00000325,0.00001192,-0.00002092,-0.00005307,-0.00003198
 ,-0.00002728,0.00006249,-0.00001163,0.00002547,-0.00000660,-0.00001323
 ,-0.00000004,0.00001685,-0.00000148,-0.00001709,0.00003062,0.00002744,
 0.00000835,-0.00002966,0.00004690,-0.00003764,0.00002248,0.00653245,0.
 00725679,0.02368966,-0.02622383,-0.08462328,-0.08616207,-0.00643090,-0
 .00628811,-0.01031019,0.00030100,0.00024836,-0.00023651,0.00001422,0.0
 0000551,-0.00000692,-0.00000092,0.00000174,0.00000391,-0.00001588,-0.0
 0000098,-0.00002056,-0.00001424,-0.00001125,-0.00001473,-0.00000207,-0
 .00000080,0.00000095,0.00000007,-0.00001348,-0.00001740,-0.00000996,0.
 00011101,-0.00010515,-0.00095212,-0.00311740,0.00418443,0.00054265,0.0
 0133501,-0.00060659,0.03579588,0.09285503,0.00003836,-0.00092005,0.003
 58364,-0.00317177,-0.00112785,-0.00398553,0.00034122,0.00027820,0.0007
 2718,0.00013010,-0.00006936,-0.00003437,-0.00004292,0.00001063,-0.0000
 3713,0.00001772,0.00000014,0.00000562,0.00005069,0.00000643,0.00005255
 ,0.00000635,0.00001466,-0.00006625,0.00003779,0.00005187,-0.00005058,-
 0.00001733,0.00001304,0.00002313,-0.00004095,0.00001879,0.00007019,0.0
 0004970,-0.00008315,-0.00003459,-0.00004617,0.00001109,0.00004937,-0.0
 0454066,-0.00582431,-0.02337837,-0.06957138,-0.08650559,-0.25426655,0.
 00118984,0.00260441,0.00766892,-0.00009527,-0.00014763,0.00035928,0.00
 001085,0.00001140,0.00000088,-0.00000346,0.00000815,-0.00001637,-0.000
 00452,-0.00000640,0.00004598,0.00004221,0.00002768,0.00002670,-0.00000
 700,-0.00000030,0.00000312,-0.00000237,-0.00000619,-0.00001070,0.00019
 065,-0.00003085,-0.00010338,0.00043101,0.00384724,-0.00187844,-0.00024
 345,0.00000193,0.00114172,0.07529650,0.08954618,0.27394853,0.00018698,
 0.00024006,0.00014669,0.00028162,-0.00034438,-0.00038183,0.00023062,0.
 00018209,-0.00010381,-0.00000515,-0.00003766,-0.00001793,0.00001293,-0
 .00003693,0.00000615,0.00000695,0.00002561,-0.00000190,-0.00001179,-0.
 00000078,0.00000494,0.00000494,0.00002432,-0.00001132,-0.00001269,-0.0
 0003064,0.00004901,0.00001592,-0.00000556,-0.00002486,0.00003091,-0.00
 001405,-0.00003932,-0.00009656,0.00013493,0.00003655,0.00007713,-0.000
 07416,-0.00001824,0.00259836,-0.00078122,-0.00102615,-0.13166941,0.111
 05241,0.03169527,-0.02857978,0.02143744,0.01390511,0.00000237,0.000061
 95,0.00002695,0.00001446,0.00001406,-0.00001010,-0.00000632,-0.0000051
 8,0.00000231,0.00000915,-0.00000064,0.00000002,-0.00000908,-0.00001062
 ,-0.00000276,-0.00000142,0.,0.00000027,0.00000226,-0.00000897,0.000004
 35,-0.00005033,0.00001478,-0.00002840,-0.00006987,0.00015843,-0.000124
 17,0.00055089,-0.00093387,0.00070960,0.00683758,-0.00722803,-0.0012316
 7,0.15531033,-0.00145599,0.00038226,-0.00086518,0.00320208,0.00013572,
 0.00073687,-0.00088967,0.00000111,0.00036441,0.00010185,0.00005163,0.0
 0004474,0.00027633,-0.00003107,-0.00009325,-0.00014450,-0.00007614,0.0
 0002656,-0.00023989,0.00002976,0.00008675,0.00003034,-0.00008615,0.000
 01108,-0.00002662,-0.00019591,0.00014420,0.00005380,-0.00004196,-0.000
 08652,0.00011537,0.00008746,-0.00012527,-0.00019769,0.00025896,0.00014
 393,0.00025733,0.00006478,-0.00000552,0.01140104,-0.02009413,-0.004052
 21,0.11716046,-0.20199907,-0.04895443,-0.00980655,0.01223559,0.0048795
 1,0.00014046,-0.00012417,-0.00013773,-0.00002386,-0.00003239,0.0000213
 0,0.00001677,-0.00002239,0.00001107,-0.00000991,0.00002768,-0.00001838
 ,-0.00000013,0.00001378,-0.00000032,0.00000953,0.00000121,-0.00002019,
 -0.00005291,0.00004131,-0.00002738,-0.00029688,-0.00033983,-0.00009170
 ,-0.00002026,0.00118671,0.00026991,-0.00100464,-0.00217191,0.00368788,
 0.00680669,-0.00885656,-0.00275002,-0.12237584,0.21815571,-0.00012943,
 0.00025029,0.00034724,-0.00135622,-0.00031241,0.00074596,0.00020843,-0
 .00041511,-0.00029369,-0.00004616,0.00001419,-0.00000541,-0.00012488,-
 0.00002617,0.00003127,0.00006429,0.00004637,-0.00001390,0.00008796,0.0
 0002071,-0.00003265,0.00000006,-0.00000589,0.00000112,0.00000763,-0.00
 003115,0.00003216,0.00001864,0.00000385,-0.00002756,0.00002897,0.00001
 384,-0.00006667,-0.00003132,-0.00003889,0.00006041,-0.00002008,0.00004
 759,-0.00006441,-0.01279514,0.02158146,0.00362585,0.03425763,-0.048297
 83,-0.06476026,0.00401907,-0.00277564,-0.00073625,-0.00004012,0.000118
 56,0.00002970,0.00000365,0.00000370,-0.00000173,-0.00000105,-0.0000031
 3,0.00000420,0.00000069,0.00000701,-0.00000389,-0.00000498,-0.00000441
 ,0.00000162,0.00000479,0.00000354,-0.00000483,-0.00001977,0.00002628,0
 .00001660,-0.00009239,-0.00011738,0.00010141,-0.00053974,-0.00082868,0
 .00119095,0.00055152,0.00413645,-0.00267988,0.01749039,-0.02145353,-0.
 00583342,-0.04167855,0.04645468,0.06685688,0.00028214,-0.00026360,0.00
 090488,-0.00088157,0.00012950,-0.00084173,0.00014109,0.00011786,0.0001
 6791,-0.00002157,-0.00002611,-0.00002502,0.00000232,-0.00005338,-0.000
 00407,0.00001575,0.00003802,-0.00000251,-0.00000395,0.00002923,0.00000
 398,-0.00000064,-0.00000081,-0.00001400,0.00000545,0.00001208,-0.00000
 641,-0.00000759,0.00000496,0.00001248,0.00000547,0.00000699,0.00001996
 ,0.00001025,-0.00000983,-0.00000473,0.00001934,-0.00000875,0.00001606,
 0.00150763,0.00074988,-0.00081725,-0.01344595,-0.01454408,-0.03528324,
 -0.10218039,-0.04624516,-0.10154852,0.00000862,-0.00007012,0.00004388,
 0.00001222,0.00000878,-0.00000464,-0.00000608,-0.00000919,0.00000026,0
 .00000587,0.00000135,0.00000372,0.00000237,0.00000257,0.00000437,-0.00
 000289,0.00000100,-0.00000234,-0.00001209,-0.00000217,-0.00001244,0.00
 002037,0.00000472,-0.00005402,0.00005006,-0.00046794,0.00106347,0.0000
 1443,-0.00001747,0.00019460,-0.00654854,-0.00218557,0.00185462,0.00053
 171,0.00075990,-0.00016737,0.11098851,0.00097964,0.00014455,0.00070106
 ,-0.00177886,-0.00016261,-0.00010503,0.00071195,0.00012834,-0.00039777
 ,-0.00018454,-0.00016580,0.00002588,-0.00016434,-0.00018760,0.00007313
 ,0.00014846,0.00020056,-0.00003552,0.00012452,0.00008903,-0.00004808,-
 0.00002040,0.00008613,-0.00002579,-0.00003729,-0.00001512,0.00006918,-
 0.00000321,0.00000854,0.00001404,0.00004016,-0.00009519,-0.00003354,-0
 .00003019,0.00007820,-0.00000433,0.00009853,-0.00003351,-0.00005499,0.
 00192411,0.00097692,-0.00221012,-0.00917395,-0.00827881,-0.01038498,-0
 .03195314,-0.07186574,-0.11128975,-0.00007758,-0.00000439,0.00013277,0
 .00003764,0.00004652,-0.00002908,-0.00003504,-0.00002696,0.00000663,0.
 00004493,-0.00000287,-0.00000289,-0.00002465,-0.00003360,-0.00000467,-
 0.00000489,0.00000135,0.00000085,0.00001370,-0.00000440,0.00001092,-0.
 00012724,0.00012385,-0.00000838,-0.00043798,-0.00017071,0.00071080,-0.
 00003985,-0.00038826,0.00001826,-0.00139747,0.00085997,0.00109441,0.00
 067829,0.00049485,0.00069820,0.05134003,0.09161132,-0.00013470,-0.0000
 2661,-0.00008821,0.00056366,0.00028529,-0.00030610,-0.00017113,-0.0000
 5117,0.00014326,0.00008255,0.00006496,-0.00004816,0.00005798,0.0000862
 5,-0.00002799,-0.00005830,-0.00008726,0.00001672,-0.00004073,-0.000044
 97,0.00002251,0.00000603,-0.00003135,0.00001190,0.00001521,0.00001687,
 -0.00003185,-0.00000082,-0.00000196,-0.00000412,-0.00002530,0.00003331
 ,0.00001859,0.00002163,-0.00004327,-0.00000506,-0.00004793,0.00000869,
 0.00002643,0.00131366,0.00043233,0.00275134,0.00503272,0.00811710,0.00
 196676,-0.11108397,-0.15820098,-0.32185152,0.00003933,0.00003655,-0.00
 006495,-0.00000744,-0.00001036,0.00000770,0.00001432,0.00001437,-0.000
 00562,-0.00001876,-0.00000100,0.00000100,0.00000910,0.00001136,-0.0000
 0111,0.00000193,-0.00000080,0.00000135,-0.00000127,-0.00000161,-0.0000
 0270,0.00006417,-0.00002996,-0.00000847,-0.00017560,-0.00066524,0.0000
 0987,-0.00004921,-0.00006743,-0.00008095,0.00000267,0.00095359,0.00177
 785,-0.00064834,-0.00013235,0.00010651,0.11131287,0.14744640,0.3280786
 8,0.00034109,-0.00009507,0.00020504,-0.00029275,-0.00015683,-0.0005944
 5,0.00036611,0.00015266,-0.00010789,-0.00007784,-0.00001766,-0.0000332
 1,-0.00007339,-0.00004644,0.00003385,0.00005907,0.00006758,-0.00001399
 ,0.00006187,0.00001583,-0.00003957,-0.00001786,0.00003162,-0.00000355,
 -0.00000763,0.00003038,-0.00000547,-0.00000932,0.00000438,0.00002111,-
 0.00000900,-0.00003559,0.00001217,0.00002556,-0.00001887,-0.00002745,-
 0.00001365,-0.00002414,-0.00001275,0.00189454,0.00075129,-0.00014188,-
 0.02520786,0.03001347,0.00977858,-0.19498966,0.15708835,0.06565179,-0.
 00001609,0.00000623,0.00003039,0.00001788,0.00002108,-0.00001535,-0.00
 001276,-0.00000460,0.00000232,0.00001168,-0.00000556,0.00000126,-0.000
 00642,-0.00001068,0.00000009,-0.00000290,-0.00000006,0.00000377,0.0000
 1685,-0.00001164,0.00000760,0.00002765,0.00010033,0.00000897,0.0000050
 2,-0.00011765,0.00001582,0.00016379,-0.00115201,0.00073337,0.00084637,
 0.00013493,-0.00066872,-0.00619271,-0.00378661,0.00030349,0.00948765,-
 0.01065133,-0.00607432,0.21360469,0.00028997,0.00002978,0.00014793,-0.
 00066137,-0.00050298,-0.00000219,0.00026582,0.00009804,-0.00016247,-0.
 00011954,-0.00003168,0.00002399,-0.00009916,-0.00009266,0.00003546,0.0
 0008689,0.00011024,-0.00002062,0.00007771,0.00004192,-0.00003967,-0.00
 000972,0.00002219,-0.00000993,-0.00001420,-0.00000570,0.00002603,-0.00
 000324,0.00000407,0.00000837,0.00002714,-0.00002620,-0.00001225,-0.000
 01248,0.00002652,0.00001003,0.00005646,-0.00001086,-0.00001784,-0.0014
 7845,0.00218461,-0.00011783,-0.01384021,0.00750006,0.00937932,0.178039
 70,-0.24424451,-0.11580116,-0.00001003,-0.00000234,0.00004506,0.000013
 64,0.00001193,-0.00001146,-0.00001685,-0.00001613,0.00000567,0.0000165
 7,0.00000254,-0.00000466,-0.00001281,-0.00001185,-0.00000010,-0.000002
 37,0.00000174,-0.00000284,-0.00000790,-0.00000128,-0.00000495,-0.00006
 008,0.00002367,-0.00001716,0.00009898,-0.00006474,-0.00005484,0.000376
 52,-0.00025325,-0.00029513,0.00072090,0.00046183,-0.00007454,-0.002135
 83,0.00090316,0.00088348,0.01069733,-0.01341457,0.00188924,-0.17228339
 ,0.24725641,-0.00054423,-0.00025083,-0.00054622,0.00096137,0.00069816,
 0.00059599,-0.00062299,-0.00023266,0.00016874,0.00018298,0.00009082,0.
 00000553,0.00013108,0.00019216,-0.00003708,-0.00013421,-0.00019001,0.0
 0002243,-0.00010404,-0.00009622,0.00002227,0.00001711,-0.00004673,0.00
 002690,0.00002397,0.00001868,-0.00005674,0.00000147,-0.00000703,-0.000
 00984,-0.00004680,0.00004981,0.00002172,0.00002929,-0.00006159,-0.0000
 1465,-0.00011242,0.00001174,0.00002478,-0.00074672,-0.00192661,-0.0000
 5667,0.00682629,0.00006333,-0.00274468,0.04164732,-0.07772725,-0.05652
 045,0.00004468,0.00000295,-0.00009395,-0.00003422,-0.00003858,0.000024
 82,0.00003055,0.00002977,-0.00000176,-0.00003347,-0.00000327,0.0000052
 6,0.00002041,0.00002298,0.00000103,0.00000527,-0.00000167,0.00000481,0
 .00001205,0.00000141,0.00000815,0.00013175,-0.00003217,0.00005280,0.00
 010113,-0.00000418,-0.00015883,0.00020295,0.00067064,-0.00003889,-0.00
 086690,0.00046139,0.00021104,-0.00123786,0.00047756,0.00137265,0.02318
 522,-0.02636763,-0.01241364,-0.06907104,0.10419504,0.07012446\\-0.0000
 0014,-0.00000102,-0.00000048,-0.00000042,0.00000433,-0.00000102,0.0000
 0106,-0.00000245,0.00000034,-0.00000148,0.00000015,-0.00000161,-0.0000
 0172,-0.00000029,0.00000090,-0.00000009,0.00000030,-0.00000079,0.00000
 010,-0.00000028,-0.00000054,-0.00000046,0.00000059,-0.00000023,-0.0000
 0054,-0.00000073,-0.00000004,0.00000041,-0.00000028,-0.00000059,0.0000
 0026,0.00000053,-0.00000055,0.,0.00000030,-0.00000001,0.00000048,-0.00
 000056,-0.00000034,-0.00000037,0.00000187,0.00000129,0.00000088,-0.000
 00527,-0.00000199,-0.00000011,0.00000025,0.00000300,-0.00000019,0.0000
 0037,0.00000019,-0.00000047,0.00000012,-0.00000057,-0.00000065,-0.0000
 0027,-0.00000110,-0.00000001,0.00000018,0.00000029,0.00000004,0.000000
 91,-0.00000074,-0.00000030,0.00000023,-0.00000075,0.00000045,0.0000004
 3,-0.00000014,0.00000105,0.00000041,-0.00000020,0.00000045,-0.00000024
 ,0.00000018,0.00000105,-0.00000141,0.00000073,-0.00000077,0.00000108,0
 .00000204,0.00000039,0.00000142,0.00000075,0.00000075,-0.00000038,0.00
 000117,0.00000033,-0.00000028,0.00000080\\\@


 The most important thing in communication is to hear what isn't being said.
 -- Peter F. Drucker
 Job cpu time:       0 days  2 hours 11 minutes 20.6 seconds.
 File lengths (MBytes):  RWF=    415 Int=      0 D2E=      0 Chk=     13 Scr=      1
 Normal termination of Gaussian 09 at Wed Jul 28 23:24:12 2021.
