 Entering Gaussian System, Link 0=g09
 Input=opt_freq-conf-318.com
 Output=opt_freq-conf-318.log
 Initial command:
 /aerosol/software/g09/l1.exe "/scratch/nicole/10492/Gau-72623.inp" -scrdir="/scratch/nicole/10492/"
 Entering Link 1 = /aerosol/software/g09/l1.exe PID=     72626.
  
 Copyright (c) 1988,1990,1992,1993,1995,1998,2003,2009,2013,
            Gaussian, Inc.  All Rights Reserved.
  
 This is part of the Gaussian(R) 09 program.  It is based on
 the Gaussian(R) 03 system (copyright 2003, Gaussian, Inc.),
 the Gaussian(R) 98 system (copyright 1998, Gaussian, Inc.),
 the Gaussian(R) 94 system (copyright 1995, Gaussian, Inc.),
 the Gaussian 92(TM) system (copyright 1992, Gaussian, Inc.),
 the Gaussian 90(TM) system (copyright 1990, Gaussian, Inc.),
 the Gaussian 88(TM) system (copyright 1988, Gaussian, Inc.),
 the Gaussian 86(TM) system (copyright 1986, Carnegie Mellon
 University), and the Gaussian 82(TM) system (copyright 1983,
 Carnegie Mellon University). Gaussian is a federally registered
 trademark of Gaussian, Inc.
  
 This software contains proprietary and confidential information,
 including trade secrets, belonging to Gaussian, Inc.
  
 This software is provided under written license and may be
 used, copied, transmitted, or stored only in accord with that
 written license.
  
 The following legend is applicable only to US Government
 contracts under FAR:
  
                    RESTRICTED RIGHTS LEGEND
  
 Use, reproduction and disclosure by the US Government is
 subject to restrictions as set forth in subparagraphs (a)
 and (c) of the Commercial Computer Software - Restricted
 Rights clause in FAR 52.227-19.
  
 Gaussian, Inc.
 340 Quinnipiac St., Bldg. 40, Wallingford CT 06492
  
  
 ---------------------------------------------------------------
 Warning -- This program may not be used in any manner that
 competes with the business of Gaussian, Inc. or will provide
 assistance to any competitor of Gaussian, Inc.  The licensee
 of this program is prohibited from giving any competitor of
 Gaussian, Inc. access to this program.  By using this program,
 the user acknowledges that Gaussian, Inc. is engaged in the
 business of creating and licensing software in the field of
 computational chemistry and represents and warrants to the
 licensee that it is not a competitor of Gaussian, Inc. and that
 it will not use this program in any manner prohibited above.
 ---------------------------------------------------------------
  

 Cite this work as:
 Gaussian 09, Revision D.01,
 M. J. Frisch, G. W. Trucks, H. B. Schlegel, G. E. Scuseria, 
 M. A. Robb, J. R. Cheeseman, G. Scalmani, V. Barone, B. Mennucci, 
 G. A. Petersson, H. Nakatsuji, M. Caricato, X. Li, H. P. Hratchian, 
 A. F. Izmaylov, J. Bloino, G. Zheng, J. L. Sonnenberg, M. Hada, 
 M. Ehara, K. Toyota, R. Fukuda, J. Hasegawa, M. Ishida, T. Nakajima, 
 Y. Honda, O. Kitao, H. Nakai, T. Vreven, J. A. Montgomery, Jr., 
 J. E. Peralta, F. Ogliaro, M. Bearpark, J. J. Heyd, E. Brothers, 
 K. N. Kudin, V. N. Staroverov, T. Keith, R. Kobayashi, J. Normand, 
 K. Raghavachari, A. Rendell, J. C. Burant, S. S. Iyengar, J. Tomasi, 
 M. Cossi, N. Rega, J. M. Millam, M. Klene, J. E. Knox, J. B. Cross, 
 V. Bakken, C. Adamo, J. Jaramillo, R. Gomperts, R. E. Stratmann, 
 O. Yazyev, A. J. Austin, R. Cammi, C. Pomelli, J. W. Ochterski, 
 R. L. Martin, K. Morokuma, V. G. Zakrzewski, G. A. Voth, 
 P. Salvador, J. J. Dannenberg, S. Dapprich, A. D. Daniels, 
 O. Farkas, J. B. Foresman, J. V. Ortiz, J. Cioslowski, 
 and D. J. Fox, Gaussian, Inc., Wallingford CT, 2013.
 
 ******************************************
 Gaussian 09:  ES64L-G09RevD.01 24-Apr-2013
                24-Jul-2021 
 ******************************************
 %mem=2gb
 %nproc=4
 Will use up to    4 processors via shared memory.
 %chk=conf-318.chk
 ----------------------------------------------------------------------
 # B3LYP/6-311G(d,p) EmpiricalDispersion=GD3BJ opt=calcfc freq=noraman 
 nosymm integral(ultrafinegrid)
 ----------------------------------------------------------------------
 1/10=4,14=-1,18=20,19=15,26=4,38=1/1,3;
 2/9=110,12=2,15=1,17=6,18=5,40=1/2;
 3/5=4,6=6,7=101,11=2,16=1,25=1,30=1,71=2,74=-5,75=-5,124=41,140=1/1,2,3;
 4//1;
 5/5=2,38=5/2;
 8/6=4,10=90,11=11/1;
 11/6=1,8=1,9=11,15=111,16=1,31=1/1,2,10;
 10/6=1,13=1,31=1/2;
 6/7=2,8=2,9=2,10=2,28=1/1;
 7/10=1,18=20,25=1,30=1/1,2,3,16;
 1/10=4,14=-1,18=20,19=15,26=4/3(2);
 2/9=110,15=1/2;
 99//99;
 2/9=110,15=1/2;
 3/5=4,6=6,7=101,11=2,16=1,25=1,30=1,71=1,74=-5,75=-5,124=41/1,2,3;
 4/5=5,16=3,69=1/1;
 5/5=2,38=5/2;
 7/30=1/1,2,3,16;
 1/14=-1,18=20,19=15,26=4/3(-5);
 2/9=110,15=1/2;
 6/7=2,8=2,9=2,10=2,19=2,28=1/1;
 99/9=1/99;
 ------------------------------------------------------------
 Candidate Structure: Conf:318 OPT and FREQ calc in gas phase
 ------------------------------------------------------------
 Symbolic Z-matrix:
 Charge =  1 Multiplicity = 1
 O                     1.13479   0.36017   1.71301 
 C                     1.16226  -0.2433    0.64574 
 N                     0.11396  -1.00733   0.23996 
 C                    -1.06936  -1.15699   1.0577 
 C                    -1.84054  -2.36383   0.54088 
 O                    -2.80523  -2.83052   1.35604 
 O                    -1.63337  -2.87104  -0.528 
 C                    -1.9416    0.10927   1.09446 
 C                    -2.42059   0.64013  -0.22615 
 C                    -2.81335   0.0844   -1.40888 
 N                    -3.21509   1.05471  -2.30737 
 C                    -3.07245   2.19143  -1.6678 
 N                    -2.59722   2.00042  -0.41027 
 C                     2.34258  -0.20625  -0.31324 
 C                     3.52376   0.56524   0.25722 
 N                     4.66863   0.61098  -0.69028 
 H                     0.14741  -1.55596  -0.606 
 H                    -0.76096  -1.33802   2.09037 
 H                    -2.82173  -2.33987   2.18352 
 H                    -2.80031  -0.07852   1.7472 
 H                    -1.35361   0.88582   1.58118 
 H                    -2.82341  -0.96002  -1.66902 
 H                    -3.29495   3.16978  -2.05629 
 H                    -2.40028   2.71256   0.27365 
 H                     2.02064   0.25342  -1.25462 
 H                     2.64528  -1.23191  -0.54929 
 H                     3.83569   0.10072   1.19197 
 H                     3.20224   1.57712   0.49941 
 H                     5.00063  -0.32667  -0.91571 
 H                     5.45977   1.12826  -0.30455 
 H                     4.40638   1.06602  -1.56461 
 

 GradGradGradGradGradGradGradGradGradGradGradGradGradGradGradGradGradGrad
 Berny optimization.
 Initialization pass.
                           ----------------------------
                           !    Initial Parameters    !
                           ! (Angstroms and Degrees)  !
 --------------------------                            --------------------------
 ! Name  Definition              Value          Derivative Info.                !
 --------------------------------------------------------------------------------
 ! R1    R(1,2)                  1.2264         calculate D2E/DX2 analytically  !
 ! R2    R(2,3)                  1.3592         calculate D2E/DX2 analytically  !
 ! R3    R(2,14)                 1.5212         calculate D2E/DX2 analytically  !
 ! R4    R(3,4)                  1.4461         calculate D2E/DX2 analytically  !
 ! R5    R(3,17)                 1.0088         calculate D2E/DX2 analytically  !
 ! R6    R(4,5)                  1.5226         calculate D2E/DX2 analytically  !
 ! R7    R(4,8)                  1.538          calculate D2E/DX2 analytically  !
 ! R8    R(4,18)                 1.0928         calculate D2E/DX2 analytically  !
 ! R9    R(5,6)                  1.3464         calculate D2E/DX2 analytically  !
 ! R10   R(5,7)                  1.2011         calculate D2E/DX2 analytically  !
 ! R11   R(6,19)                 0.9622         calculate D2E/DX2 analytically  !
 ! R12   R(8,9)                  1.5018         calculate D2E/DX2 analytically  !
 ! R13   R(8,20)                 1.0949         calculate D2E/DX2 analytically  !
 ! R14   R(8,21)                 1.0889         calculate D2E/DX2 analytically  !
 ! R15   R(9,10)                 1.3645         calculate D2E/DX2 analytically  !
 ! R16   R(9,13)                 1.384          calculate D2E/DX2 analytically  !
 ! R17   R(10,11)                1.3821         calculate D2E/DX2 analytically  !
 ! R18   R(10,22)                1.0764         calculate D2E/DX2 analytically  !
 ! R19   R(11,12)                1.3121         calculate D2E/DX2 analytically  !
 ! R20   R(12,13)                1.3578         calculate D2E/DX2 analytically  !
 ! R21   R(12,23)                1.0759         calculate D2E/DX2 analytically  !
 ! R22   R(13,24)                1.0068         calculate D2E/DX2 analytically  !
 ! R23   R(14,15)                1.5218         calculate D2E/DX2 analytically  !
 ! R24   R(14,25)                1.096          calculate D2E/DX2 analytically  !
 ! R25   R(14,26)                1.0951         calculate D2E/DX2 analytically  !
 ! R26   R(15,16)                1.4868         calculate D2E/DX2 analytically  !
 ! R27   R(15,27)                1.0894         calculate D2E/DX2 analytically  !
 ! R28   R(15,28)                1.089          calculate D2E/DX2 analytically  !
 ! R29   R(16,29)                1.0199         calculate D2E/DX2 analytically  !
 ! R30   R(16,30)                1.0209         calculate D2E/DX2 analytically  !
 ! R31   R(16,31)                1.0199         calculate D2E/DX2 analytically  !
 ! A1    A(1,2,3)              121.2758         calculate D2E/DX2 analytically  !
 ! A2    A(1,2,14)             123.6419         calculate D2E/DX2 analytically  !
 ! A3    A(3,2,14)             115.0822         calculate D2E/DX2 analytically  !
 ! A4    A(2,3,4)              121.3636         calculate D2E/DX2 analytically  !
 ! A5    A(2,3,17)             122.0375         calculate D2E/DX2 analytically  !
 ! A6    A(4,3,17)             116.424          calculate D2E/DX2 analytically  !
 ! A7    A(3,4,5)              107.7302         calculate D2E/DX2 analytically  !
 ! A8    A(3,4,8)              113.1007         calculate D2E/DX2 analytically  !
 ! A9    A(3,4,18)             108.6967         calculate D2E/DX2 analytically  !
 ! A10   A(5,4,8)              111.928          calculate D2E/DX2 analytically  !
 ! A11   A(5,4,18)             109.4136         calculate D2E/DX2 analytically  !
 ! A12   A(8,4,18)             105.8923         calculate D2E/DX2 analytically  !
 ! A13   A(4,5,6)              115.6021         calculate D2E/DX2 analytically  !
 ! A14   A(4,5,7)              123.327          calculate D2E/DX2 analytically  !
 ! A15   A(6,5,7)              121.0623         calculate D2E/DX2 analytically  !
 ! A16   A(5,6,19)             110.8675         calculate D2E/DX2 analytically  !
 ! A17   A(4,8,9)              116.8014         calculate D2E/DX2 analytically  !
 ! A18   A(4,8,20)             108.5318         calculate D2E/DX2 analytically  !
 ! A19   A(4,8,21)             106.9537         calculate D2E/DX2 analytically  !
 ! A20   A(9,8,20)             109.5565         calculate D2E/DX2 analytically  !
 ! A21   A(9,8,21)             108.2526         calculate D2E/DX2 analytically  !
 ! A22   A(20,8,21)            106.2217         calculate D2E/DX2 analytically  !
 ! A23   A(8,9,10)             135.2394         calculate D2E/DX2 analytically  !
 ! A24   A(8,9,13)             120.3403         calculate D2E/DX2 analytically  !
 ! A25   A(10,9,13)            104.3734         calculate D2E/DX2 analytically  !
 ! A26   A(9,10,11)            111.1751         calculate D2E/DX2 analytically  !
 ! A27   A(9,10,22)            127.3977         calculate D2E/DX2 analytically  !
 ! A28   A(11,10,22)           121.4253         calculate D2E/DX2 analytically  !
 ! A29   A(10,11,12)           105.055          calculate D2E/DX2 analytically  !
 ! A30   A(11,12,13)           111.5691         calculate D2E/DX2 analytically  !
 ! A31   A(11,12,23)           126.1078         calculate D2E/DX2 analytically  !
 ! A32   A(13,12,23)           122.323          calculate D2E/DX2 analytically  !
 ! A33   A(9,13,12)            107.8264         calculate D2E/DX2 analytically  !
 ! A34   A(9,13,24)            125.441          calculate D2E/DX2 analytically  !
 ! A35   A(12,13,24)           126.7321         calculate D2E/DX2 analytically  !
 ! A36   A(2,14,15)            112.2264         calculate D2E/DX2 analytically  !
 ! A37   A(2,14,25)            108.8913         calculate D2E/DX2 analytically  !
 ! A38   A(2,14,26)            109.1188         calculate D2E/DX2 analytically  !
 ! A39   A(15,14,25)           109.7159         calculate D2E/DX2 analytically  !
 ! A40   A(15,14,26)           109.9419         calculate D2E/DX2 analytically  !
 ! A41   A(25,14,26)           106.7903         calculate D2E/DX2 analytically  !
 ! A42   A(14,15,16)           111.9861         calculate D2E/DX2 analytically  !
 ! A43   A(14,15,27)           109.1305         calculate D2E/DX2 analytically  !
 ! A44   A(14,15,28)           108.9821         calculate D2E/DX2 analytically  !
 ! A45   A(16,15,27)           109.8421         calculate D2E/DX2 analytically  !
 ! A46   A(16,15,28)           109.9065         calculate D2E/DX2 analytically  !
 ! A47   A(27,15,28)           106.8527         calculate D2E/DX2 analytically  !
 ! A48   A(15,16,29)           111.299          calculate D2E/DX2 analytically  !
 ! A49   A(15,16,30)           111.8094         calculate D2E/DX2 analytically  !
 ! A50   A(15,16,31)           111.2249         calculate D2E/DX2 analytically  !
 ! A51   A(29,16,30)           107.2818         calculate D2E/DX2 analytically  !
 ! A52   A(29,16,31)           107.7209         calculate D2E/DX2 analytically  !
 ! A53   A(30,16,31)           107.2822         calculate D2E/DX2 analytically  !
 ! D1    D(1,2,3,4)             -0.927          calculate D2E/DX2 analytically  !
 ! D2    D(1,2,3,17)          -175.9471         calculate D2E/DX2 analytically  !
 ! D3    D(14,2,3,4)           178.9339         calculate D2E/DX2 analytically  !
 ! D4    D(14,2,3,17)            3.9138         calculate D2E/DX2 analytically  !
 ! D5    D(1,2,14,15)            4.8672         calculate D2E/DX2 analytically  !
 ! D6    D(1,2,14,25)         -116.8023         calculate D2E/DX2 analytically  !
 ! D7    D(1,2,14,26)          126.9811         calculate D2E/DX2 analytically  !
 ! D8    D(3,2,14,15)         -174.99           calculate D2E/DX2 analytically  !
 ! D9    D(3,2,14,25)           63.3405         calculate D2E/DX2 analytically  !
 ! D10   D(3,2,14,26)          -52.8761         calculate D2E/DX2 analytically  !
 ! D11   D(2,3,4,5)           -163.3057         calculate D2E/DX2 analytically  !
 ! D12   D(2,3,4,8)             72.4572         calculate D2E/DX2 analytically  !
 ! D13   D(2,3,4,18)           -44.8421         calculate D2E/DX2 analytically  !
 ! D14   D(17,3,4,5)            11.981          calculate D2E/DX2 analytically  !
 ! D15   D(17,3,4,8)          -112.2561         calculate D2E/DX2 analytically  !
 ! D16   D(17,3,4,18)          130.4447         calculate D2E/DX2 analytically  !
 ! D17   D(3,4,5,6)            165.8373         calculate D2E/DX2 analytically  !
 ! D18   D(3,4,5,7)            -15.219          calculate D2E/DX2 analytically  !
 ! D19   D(8,4,5,6)            -69.2207         calculate D2E/DX2 analytically  !
 ! D20   D(8,4,5,7)            109.7231         calculate D2E/DX2 analytically  !
 ! D21   D(18,4,5,6)            47.8348         calculate D2E/DX2 analytically  !
 ! D22   D(18,4,5,7)          -133.2214         calculate D2E/DX2 analytically  !
 ! D23   D(3,4,8,9)             56.7831         calculate D2E/DX2 analytically  !
 ! D24   D(3,4,8,20)          -178.8236         calculate D2E/DX2 analytically  !
 ! D25   D(3,4,8,21)           -64.6058         calculate D2E/DX2 analytically  !
 ! D26   D(5,4,8,9)            -65.1291         calculate D2E/DX2 analytically  !
 ! D27   D(5,4,8,20)            59.2642         calculate D2E/DX2 analytically  !
 ! D28   D(5,4,8,21)           173.4821         calculate D2E/DX2 analytically  !
 ! D29   D(18,4,8,9)           175.7167         calculate D2E/DX2 analytically  !
 ! D30   D(18,4,8,20)          -59.89           calculate D2E/DX2 analytically  !
 ! D31   D(18,4,8,21)           54.3278         calculate D2E/DX2 analytically  !
 ! D32   D(4,5,6,19)            -3.1825         calculate D2E/DX2 analytically  !
 ! D33   D(7,5,6,19)           177.8478         calculate D2E/DX2 analytically  !
 ! D34   D(4,8,9,10)            35.2995         calculate D2E/DX2 analytically  !
 ! D35   D(4,8,9,13)          -147.6284         calculate D2E/DX2 analytically  !
 ! D36   D(20,8,9,10)          -88.572          calculate D2E/DX2 analytically  !
 ! D37   D(20,8,9,13)           88.5001         calculate D2E/DX2 analytically  !
 ! D38   D(21,8,9,10)          156.0038         calculate D2E/DX2 analytically  !
 ! D39   D(21,8,9,13)          -26.9241         calculate D2E/DX2 analytically  !
 ! D40   D(8,9,10,11)          177.7149         calculate D2E/DX2 analytically  !
 ! D41   D(8,9,10,22)           -2.7787         calculate D2E/DX2 analytically  !
 ! D42   D(13,9,10,11)           0.3232         calculate D2E/DX2 analytically  !
 ! D43   D(13,9,10,22)         179.8295         calculate D2E/DX2 analytically  !
 ! D44   D(8,9,13,12)         -178.07           calculate D2E/DX2 analytically  !
 ! D45   D(8,9,13,24)            2.1942         calculate D2E/DX2 analytically  !
 ! D46   D(10,9,13,12)          -0.1978         calculate D2E/DX2 analytically  !
 ! D47   D(10,9,13,24)        -179.9336         calculate D2E/DX2 analytically  !
 ! D48   D(9,10,11,12)          -0.3247         calculate D2E/DX2 analytically  !
 ! D49   D(22,10,11,12)       -179.8651         calculate D2E/DX2 analytically  !
 ! D50   D(10,11,12,13)          0.191          calculate D2E/DX2 analytically  !
 ! D51   D(10,11,12,23)       -179.6929         calculate D2E/DX2 analytically  !
 ! D52   D(11,12,13,9)           0.0032         calculate D2E/DX2 analytically  !
 ! D53   D(11,12,13,24)        179.7346         calculate D2E/DX2 analytically  !
 ! D54   D(23,12,13,9)         179.8922         calculate D2E/DX2 analytically  !
 ! D55   D(23,12,13,24)         -0.3764         calculate D2E/DX2 analytically  !
 ! D56   D(2,14,15,16)        -179.3655         calculate D2E/DX2 analytically  !
 ! D57   D(2,14,15,27)          58.798          calculate D2E/DX2 analytically  !
 ! D58   D(2,14,15,28)         -57.5501         calculate D2E/DX2 analytically  !
 ! D59   D(25,14,15,16)        -58.1686         calculate D2E/DX2 analytically  !
 ! D60   D(25,14,15,27)        179.995          calculate D2E/DX2 analytically  !
 ! D61   D(25,14,15,28)         63.6469         calculate D2E/DX2 analytically  !
 ! D62   D(26,14,15,16)         58.99           calculate D2E/DX2 analytically  !
 ! D63   D(26,14,15,27)        -62.8465         calculate D2E/DX2 analytically  !
 ! D64   D(26,14,15,28)       -179.1945         calculate D2E/DX2 analytically  !
 ! D65   D(14,15,16,29)        -59.978          calculate D2E/DX2 analytically  !
 ! D66   D(14,15,16,30)       -179.9408         calculate D2E/DX2 analytically  !
 ! D67   D(14,15,16,31)         60.1466         calculate D2E/DX2 analytically  !
 ! D68   D(27,15,16,29)         61.4498         calculate D2E/DX2 analytically  !
 ! D69   D(27,15,16,30)        -58.5131         calculate D2E/DX2 analytically  !
 ! D70   D(27,15,16,31)       -178.4257         calculate D2E/DX2 analytically  !
 ! D71   D(28,15,16,29)        178.7381         calculate D2E/DX2 analytically  !
 ! D72   D(28,15,16,30)         58.7752         calculate D2E/DX2 analytically  !
 ! D73   D(28,15,16,31)        -61.1374         calculate D2E/DX2 analytically  !
 --------------------------------------------------------------------------------
 Trust Radius=3.00D-01 FncErr=1.00D-07 GrdErr=1.00D-06
 Number of steps in this run=    167 maximum allowed number of steps=    186.
 GradGradGradGradGradGradGradGradGradGradGradGradGradGradGradGradGradGrad

                          Input orientation:                          
 ---------------------------------------------------------------------
 Center     Atomic      Atomic             Coordinates (Angstroms)
 Number     Number       Type             X           Y           Z
 ---------------------------------------------------------------------
      1          8           0        1.134793    0.360172    1.713014
      2          6           0        1.162257   -0.243302    0.645742
      3          7           0        0.113957   -1.007325    0.239961
      4          6           0       -1.069364   -1.156993    1.057696
      5          6           0       -1.840539   -2.363826    0.540876
      6          8           0       -2.805228   -2.830522    1.356037
      7          8           0       -1.633368   -2.871040   -0.528005
      8          6           0       -1.941597    0.109268    1.094457
      9          6           0       -2.420593    0.640134   -0.226148
     10          6           0       -2.813354    0.084404   -1.408885
     11          7           0       -3.215093    1.054711   -2.307369
     12          6           0       -3.072450    2.191426   -1.667803
     13          7           0       -2.597217    2.000422   -0.410274
     14          6           0        2.342582   -0.206253   -0.313243
     15          6           0        3.523756    0.565241    0.257219
     16          7           0        4.668626    0.610979   -0.690278
     17          1           0        0.147411   -1.555964   -0.605997
     18          1           0       -0.760965   -1.338020    2.090369
     19          1           0       -2.821728   -2.339868    2.183521
     20          1           0       -2.800315   -0.078519    1.747195
     21          1           0       -1.353609    0.885824    1.581179
     22          1           0       -2.823414   -0.960017   -1.669022
     23          1           0       -3.294949    3.169775   -2.056286
     24          1           0       -2.400277    2.712564    0.273645
     25          1           0        2.020644    0.253423   -1.254621
     26          1           0        2.645282   -1.231912   -0.549292
     27          1           0        3.835693    0.100720    1.191966
     28          1           0        3.202235    1.577124    0.499409
     29          1           0        5.000631   -0.326669   -0.915711
     30          1           0        5.459766    1.128265   -0.304546
     31          1           0        4.406382    1.066022   -1.564605
 ---------------------------------------------------------------------
                    Distance matrix (angstroms):
                    1          2          3          4          5
     1  O    0.000000
     2  C    1.226379   0.000000
     3  N    2.254339   1.359162   0.000000
     4  C    2.754913   2.446359   1.446147   0.000000
     5  C    4.200795   3.677554   2.398061   1.522583   0.000000
     6  O    5.082493   4.789485   3.618192   2.429595   1.346447
     7  O    4.808910   4.012257   2.667649   2.402187   1.201121
     8  C    3.147974   3.155877   2.490431   1.538037   2.536308
     9  C    4.059495   3.791763   3.058647   2.589158   3.154134
    10  C    5.040850   4.487133   3.532664   3.265974   3.277463
    11  N    5.963838   5.437544   4.671558   4.562833   4.657068
    12  C    5.699501   5.404917   4.901506   4.759476   5.210200
    13  N    4.596376   4.503677   4.101196   3.802439   4.530331
    14  C    2.425966   1.521247   2.431979   3.797994   4.783633
    15  C    2.805091   2.526138   3.754996   4.970273   6.118461
    16  N    4.280969   3.848295   4.922323   6.253453   7.261848
    17  H    3.166120   2.078424   1.008845   2.099427   2.433085
    18  H    2.572966   2.642751   2.073368   1.092838   2.149113
    19  H    4.813071   4.757362   3.764485   2.395298   1.913528
    20  H    3.959633   4.116106   3.409900   2.152836   2.756628
    21  H    2.546731   2.911967   2.745293   2.127894   3.446673
    22  H    5.371077   4.664481   3.503513   3.248150   2.796492
    23  H    6.459421   6.230308   5.860167   5.776767   6.283414
    24  H    4.483554   4.644055   4.489998   4.166478   5.114142
    25  H    3.098868   2.143581   2.731065   4.109043   4.998253
    26  H    3.151878   2.145884   2.661008   4.048039   4.753135
    27  H    2.762909   2.750268   3.998175   5.065517   6.222341
    28  H    2.688517   2.738042   4.035363   5.102317   6.400186
    29  H    4.725109   4.144660   5.067392   6.436507   7.285140
    30  H    4.833829   4.610079   5.782292   7.050365   8.136577
    31  H    4.684475   4.138153   5.097071   6.465451   7.431078
                    6          7          8          9         10
     6  O    0.000000
     7  O    2.219124   0.000000
     8  C    3.075167   3.407290   0.000000
     9  C    3.833628   3.610981   1.501750   0.000000
    10  C    4.017668   3.301964   2.650905   1.364538   0.000000
    11  N    5.355705   4.591243   3.753408   2.265962   1.382087
    12  C    5.868133   5.385041   3.639271   2.215806   2.138624
    13  N    5.147926   4.967294   2.504100   1.384009   2.171420
    14  C    6.014419   4.791179   4.520549   4.838574   5.279071
    15  C    7.265993   6.246642   5.547879   5.964440   6.570089
    16  N    8.478788   7.201800   6.865278   7.104456   7.534833
    17  H    3.767247   2.215103   3.166779   3.400261   3.478730
    18  H    2.635492   3.157074   2.116689   3.468964   4.298880
    19  H    0.962156   3.007776   2.821163   3.853287   4.333883
    20  H    2.779667   3.786353   1.094864   2.134182   3.160309
    21  H    3.996138   4.317517   1.088884   2.113114   3.422515
    22  H    3.556699   2.523914   3.091567   2.191947   1.076377
    23  H    6.920069   6.448872   4.596243   3.242374   3.189135
    24  H    5.662276   5.692752   2.767900   2.131941   3.147819
    25  H    6.294068   4.862309   4.608502   4.575138   4.839411
    26  H    5.991152   4.581926   5.053724   5.410367   5.680519
    27  H    7.260919   6.457577   5.778119   6.437635   7.139645
    28  H    7.500052   6.650173   5.382164   5.746354   6.485146
    29  H    8.506560   7.115764   7.240535   7.515636   7.840317
    30  H    9.313413   8.145976   7.601035   7.895852   8.411523
    31  H    8.701754   7.283789   6.948584   6.969967   7.287826
                   11         12         13         14         15
    11  N    0.000000
    12  C    1.312064   0.000000
    13  N    2.207964   1.357832   0.000000
    14  C    6.037741   6.075053   5.411140   0.000000
    15  C    7.226948   7.061170   6.322310   1.521776   0.000000
    16  N    8.060081   7.961007   7.402798   2.494094   1.486798
    17  H    4.584400   5.053501   4.496573   2.593492   4.079750
    18  H    5.575661   5.650116   4.557437   4.085370   5.034052
    19  H    5.643225   5.952158   5.061254   6.120151   7.239853
    20  H    4.230336   4.109614   3.002985   5.541760   6.529037
    21  H    4.314446   3.900627   2.598995   4.294566   5.064024
    22  H    2.149425   3.161268   3.224873   5.393868   6.806128
    23  H    2.131411   1.075914   2.136252   6.798347   7.657065
    24  H    3.173961   2.119581   1.006816   5.599879   6.301225
    25  H    5.400303   5.464996   5.008948   1.095964   2.154585
    26  H    6.531728   6.757423   6.160446   1.095135   2.156834
    27  H    7.928999   7.763490   6.896258   2.142259   1.089421
    28  H    7.023746   6.666772   5.885605   2.140056   1.089008
    29  H    8.446481   8.490059   7.962293   2.728130   2.086247
    30  H    8.903363   8.705601   8.104740   3.390848   2.093014
    31  H    7.657591   7.563737   7.159328   2.728344   2.085390
                   16         17         18         19         20
    16  N    0.000000
    17  H    5.014393   0.000000
    18  H    6.403987   2.853600   0.000000
    19  H    8.548194   4.148699   2.293278   0.000000
    20  H    7.886809   4.050857   2.421375   2.303158   0.000000
    21  H    6.442234   3.605431   2.357113   3.594896   1.746561
    22  H    7.717294   3.211071   4.304603   4.092198   3.528188
    23  H    8.475373   6.023769   6.628427   6.968219   5.026187
    24  H    7.437419   5.048249   4.732342   5.417778   3.181435
    25  H    2.730960   2.683952   4.632385   6.480320   5.688825
    26  H    2.740446   2.519442   4.310636   6.211605   6.021519
    27  H    2.120610   4.425009   4.899629   7.159673   6.661607
    28  H    2.121107   4.513327   5.170703   7.380189   6.350491
    29  H    1.019918   5.016058   6.576879   8.651446   8.246660
    30  H    1.020919   5.959620   7.107437   9.316736   8.596214
    31  H    1.019943   5.092404   6.770504   8.825764   8.013393
                   21         22         23         24         25
    21  H    0.000000
    22  H    4.016374   0.000000
    23  H    4.713426   4.174626   0.000000
    24  H    2.478333   4.176224   2.537334   0.000000
    25  H    4.452783   5.010894   6.115824   5.284649   0.000000
    26  H    5.001484   5.588771   7.545345   6.457072   1.758943
    27  H    5.262769   7.324898   8.415243   6.822930   3.050166
    28  H    4.733270   6.888224   7.161112   5.720869   2.494988
    29  H    6.934045   7.885702   9.074288   8.088570   3.054782
    30  H    7.073671   8.650652   9.158679   8.038942   3.673629
    31  H    6.565510   7.509040   7.998627   7.240226   2.539321
                   26         27         28         29         30
    26  H    0.000000
    27  H    2.494989   0.000000
    28  H    3.049697   1.749478   0.000000
    29  H    2.549784   2.445822   2.976780   0.000000
    30  H    3.681257   2.435777   2.438086   1.643521   0.000000
    31  H    3.068034   2.975934   2.443635   1.647357   1.643545
                   31
    31  H    0.000000
 Symmetry turned off by external request.
 Stoichiometry    C9H15N4O3(1+)
 Framework group  C1[X(C9H15N4O3)]
 Deg. of freedom    87
 Full point group                 C1      NOp   1
 Rotational constants (GHZ):      0.6292239      0.3107285      0.2460042
 Standard basis: 6-311G(d,p) (5D, 7F)
   378 basis functions,   632 primitive gaussians,   394 cartesian basis functions
    60 alpha electrons       60 beta electrons
       nuclear repulsion energy      1133.0540732988 Hartrees.
 NAtoms=   31 NActive=   31 NUniq=   31 SFac= 1.00D+00 NAtFMM=   60 NAOKFM=F Big=F
 Integral buffers will be    131072 words long.
 Raffenetti 2 integral format.
 Two-electron integral symmetry is turned off.
 Nuclear repulsion after empirical dispersion term =     1132.9986854905 Hartrees.
 One-electron integrals computed using PRISM.
 NBasis=   378 RedAO= T EigKep=  5.26D-04  NBF=   378
 NBsUse=   378 1.00D-06 EigRej= -1.00D+00 NBFU=   378
 ExpMin= 1.03D-01 ExpMax= 8.59D+03 ExpMxC= 1.30D+03 IAcc=3 IRadAn=         5 AccDes= 0.00D+00
 Harris functional with IExCor=  402 and IRadAn=       5 diagonalized for initial guess.
 HarFok:  IExCor=  402 AccDes= 0.00D+00 IRadAn=         5 IDoV= 1 UseB2=F ITyADJ=14
 ICtDFT=  3500011 ScaDFX=  1.000000  1.000000  1.000000  1.000000
 FoFCou: FMM=F IPFlag=           0 FMFlag=      100000 FMFlg1=           0
         NFxFlg=           0 DoJE=T BraDBF=F KetDBF=T FulRan=T
         wScrn=  0.000000 ICntrl=     500 IOpCl=  0 I1Cent=   200000004 NGrid=           0
         NMat0=    1 NMatS0=      1 NMatT0=    0 NMatD0=    1 NMtDS0=    0 NMtDT0=    0
 Symmetry not used in FoFCou.
 Requested convergence on RMS density matrix=1.00D-08 within 128 cycles.
 Requested convergence on MAX density matrix=1.00D-06.
 Requested convergence on             energy=1.00D-06.
 No special actions if energy rises.
 Integral accuracy reduced to 1.0D-05 until final iterations.
 EnCoef did     2 forward-backward iterations
 EnCoef did     2 forward-backward iterations
 Initial convergence to 1.0D-05 achieved.  Increase integral accuracy.
 SCF Done:  E(RB3LYP) =  -796.714925024     A.U. after   17 cycles
            NFock= 17  Conv=0.58D-08     -V/T= 2.0035
 DoSCS=F DFT=T ScalE2(SS,OS)=  1.000000  1.000000
 Range of M.O.s used for correlation:     1   378
 NBasis=   378 NAE=    60 NBE=    60 NFC=     0 NFV=     0
 NROrb=    378 NOA=    60 NOB=    60 NVA=   318 NVB=   318
 Symmetrizing basis deriv contribution to polar:
 IMax=3 JMax=2 DiffMx= 0.00D+00
 G2DrvN: will do    32 centers at a time, making    1 passes.
 Calling FoFCou, ICntrl=  3107 FMM=F I1Cent=   0 AccDes= 0.00D+00.
 End of G2Drv F.D. properties file   721 does not exist.
 End of G2Drv F.D. properties file   722 does not exist.
 End of G2Drv F.D. properties file   788 does not exist.
          IDoAtm=1111111111111111111111111111111
          Differentiating once with respect to nuclear coordinates.
          There are    96 degrees of freedom in the 1st order CPHF.  IDoFFX=6 NUNeed=     0.
     90 vectors produced by pass  0 Test12= 1.99D-14 1.04D-09 XBig12= 1.71D-01 9.22D-02.
 AX will form    90 AO Fock derivatives at one time.
     90 vectors produced by pass  1 Test12= 1.99D-14 1.04D-09 XBig12= 1.43D-02 2.76D-02.
     90 vectors produced by pass  2 Test12= 1.99D-14 1.04D-09 XBig12= 1.45D-04 1.98D-03.
     90 vectors produced by pass  3 Test12= 1.99D-14 1.04D-09 XBig12= 4.99D-07 8.21D-05.
     90 vectors produced by pass  4 Test12= 1.99D-14 1.04D-09 XBig12= 1.12D-09 4.06D-06.
     81 vectors produced by pass  5 Test12= 1.99D-14 1.04D-09 XBig12= 1.44D-12 1.38D-07.
     24 vectors produced by pass  6 Test12= 1.99D-14 1.04D-09 XBig12= 1.49D-15 6.11D-09.
 InvSVY:  IOpt=1 It=  1 EMax= 5.55D-16
 Solved reduced A of dimension   555 with    96 vectors.
 End of Minotr F.D. properties file   721 does not exist.
 End of Minotr F.D. properties file   722 does not exist.
 End of Minotr F.D. properties file   788 does not exist.

 **********************************************************************

            Population analysis using the SCF density.

 **********************************************************************

 Alpha  occ. eigenvalues --  -19.27243 -19.22572 -19.21620 -14.65185 -14.46664
 Alpha  occ. eigenvalues --  -14.44812 -14.36349 -10.42086 -10.41945 -10.41417
 Alpha  occ. eigenvalues --  -10.36288 -10.34907 -10.29872 -10.29783 -10.28920
 Alpha  occ. eigenvalues --  -10.25671  -1.22421  -1.21687  -1.18180  -1.13777
 Alpha  occ. eigenvalues --   -1.09927  -1.06096  -0.97719  -0.95224  -0.91438
 Alpha  occ. eigenvalues --   -0.86294  -0.83310  -0.80628  -0.79960  -0.77733
 Alpha  occ. eigenvalues --   -0.73606  -0.71478  -0.70706  -0.69793  -0.68293
 Alpha  occ. eigenvalues --   -0.67193  -0.65390  -0.63398  -0.61679  -0.59965
 Alpha  occ. eigenvalues --   -0.58673  -0.57247  -0.56848  -0.55373  -0.54778
 Alpha  occ. eigenvalues --   -0.53659  -0.53551  -0.51796  -0.50546  -0.49583
 Alpha  occ. eigenvalues --   -0.49226  -0.48690  -0.48307  -0.42909  -0.40542
 Alpha  occ. eigenvalues --   -0.39460  -0.38800  -0.36206  -0.34464  -0.31245
 Alpha virt. eigenvalues --   -0.19458  -0.13885  -0.13117  -0.11971  -0.10708
 Alpha virt. eigenvalues --   -0.10400  -0.08246  -0.07458  -0.05591  -0.05360
 Alpha virt. eigenvalues --   -0.04570  -0.03891  -0.02376  -0.02210  -0.01593
 Alpha virt. eigenvalues --   -0.00499   0.00634   0.01260   0.01863   0.03187
 Alpha virt. eigenvalues --    0.04035   0.05601   0.07531   0.07851   0.09067
 Alpha virt. eigenvalues --    0.10354   0.11806   0.12926   0.13468   0.14006
 Alpha virt. eigenvalues --    0.14198   0.15237   0.15829   0.17365   0.19799
 Alpha virt. eigenvalues --    0.20625   0.23345   0.23988   0.25081   0.25720
 Alpha virt. eigenvalues --    0.27255   0.27505   0.28924   0.29030   0.29730
 Alpha virt. eigenvalues --    0.30323   0.31083   0.31575   0.32982   0.33930
 Alpha virt. eigenvalues --    0.35560   0.36355   0.36678   0.37255   0.37519
 Alpha virt. eigenvalues --    0.38240   0.39046   0.40381   0.41205   0.42352
 Alpha virt. eigenvalues --    0.42991   0.43463   0.43923   0.44517   0.44842
 Alpha virt. eigenvalues --    0.46135   0.46300   0.47079   0.47645   0.49684
 Alpha virt. eigenvalues --    0.50242   0.50747   0.51345   0.51999   0.53695
 Alpha virt. eigenvalues --    0.54555   0.55383   0.56490   0.57935   0.58621
 Alpha virt. eigenvalues --    0.60157   0.60910   0.62254   0.63136   0.64242
 Alpha virt. eigenvalues --    0.65565   0.65796   0.68879   0.69725   0.71100
 Alpha virt. eigenvalues --    0.72477   0.74016   0.75775   0.77095   0.77835
 Alpha virt. eigenvalues --    0.79066   0.81154   0.82936   0.83271   0.85184
 Alpha virt. eigenvalues --    0.85820   0.86348   0.90085   0.93309   0.94252
 Alpha virt. eigenvalues --    0.95161   0.97170   0.98864   1.00436   1.01744
 Alpha virt. eigenvalues --    1.03689   1.03793   1.04452   1.05831   1.07057
 Alpha virt. eigenvalues --    1.10336   1.11102   1.11770   1.13814   1.14559
 Alpha virt. eigenvalues --    1.17429   1.19221   1.21945   1.22652   1.23265
 Alpha virt. eigenvalues --    1.23866   1.24727   1.26479   1.27054   1.28194
 Alpha virt. eigenvalues --    1.29650   1.31157   1.32153   1.33410   1.34860
 Alpha virt. eigenvalues --    1.36037   1.38117   1.40826   1.41953   1.43309
 Alpha virt. eigenvalues --    1.44638   1.45050   1.45774   1.46389   1.47498
 Alpha virt. eigenvalues --    1.48458   1.49413   1.50405   1.51299   1.51525
 Alpha virt. eigenvalues --    1.53883   1.54748   1.55656   1.56331   1.58044
 Alpha virt. eigenvalues --    1.58986   1.60388   1.61178   1.62119   1.62938
 Alpha virt. eigenvalues --    1.64482   1.65767   1.65904   1.67826   1.68531
 Alpha virt. eigenvalues --    1.69340   1.72197   1.73719   1.74615   1.75470
 Alpha virt. eigenvalues --    1.77081   1.79387   1.81077   1.82395   1.84870
 Alpha virt. eigenvalues --    1.85921   1.86296   1.87343   1.90063   1.92175
 Alpha virt. eigenvalues --    1.93983   1.97423   1.97962   1.99983   2.01341
 Alpha virt. eigenvalues --    2.02176   2.02967   2.05729   2.08927   2.11413
 Alpha virt. eigenvalues --    2.12305   2.14077   2.15852   2.16993   2.17233
 Alpha virt. eigenvalues --    2.17360   2.19774   2.20005   2.23371   2.24930
 Alpha virt. eigenvalues --    2.28757   2.29240   2.31060   2.33614   2.34205
 Alpha virt. eigenvalues --    2.35460   2.35945   2.37592   2.38632   2.39436
 Alpha virt. eigenvalues --    2.40129   2.41950   2.42934   2.46957   2.47987
 Alpha virt. eigenvalues --    2.48788   2.49569   2.50456   2.50754   2.51321
 Alpha virt. eigenvalues --    2.53428   2.55299   2.57562   2.58370   2.60620
 Alpha virt. eigenvalues --    2.62617   2.63084   2.64551   2.66374   2.67255
 Alpha virt. eigenvalues --    2.68459   2.70426   2.71432   2.74466   2.76009
 Alpha virt. eigenvalues --    2.77325   2.77733   2.78385   2.79131   2.80163
 Alpha virt. eigenvalues --    2.80729   2.81218   2.81995   2.83863   2.86298
 Alpha virt. eigenvalues --    2.89519   2.91999   2.94058   2.94728   2.98665
 Alpha virt. eigenvalues --    3.00624   3.06607   3.08249   3.09426   3.15373
 Alpha virt. eigenvalues --    3.19248   3.20519   3.22244   3.25112   3.28458
 Alpha virt. eigenvalues --    3.30076   3.38785   3.41857   3.43413   3.47758
 Alpha virt. eigenvalues --    3.49348   3.56312   3.56890   3.59165   3.59352
 Alpha virt. eigenvalues --    3.61907   3.66912   3.68902   3.69938   3.73238
 Alpha virt. eigenvalues --    3.74532   3.74970   3.78150   3.81815   3.87564
 Alpha virt. eigenvalues --    3.93673   4.02690   4.06551   4.23744   4.35339
 Alpha virt. eigenvalues --    4.42151   4.42402   4.57165   4.68009   4.71533
 Alpha virt. eigenvalues --    4.73942   4.80354   4.81160   4.84066   4.86390
 Alpha virt. eigenvalues --    4.95301   5.02047   5.16269   5.19602   5.43662
 Alpha virt. eigenvalues --    5.52087   5.69814  23.59976  23.61350  23.65222
 Alpha virt. eigenvalues --   23.67747  23.68008  23.70671  23.80885  23.84103
 Alpha virt. eigenvalues --   24.07507  35.28195  35.43623  35.47650  35.60756
 Alpha virt. eigenvalues --   49.75016  49.86974  49.91041
          Condensed to atoms (all electrons):
               1          2          3          4          5          6
     1  O    7.879894   0.630579  -0.100147   0.008966   0.000539   0.000000
     2  C    0.630579   4.452701   0.412907  -0.060245   0.005492  -0.000099
     3  N   -0.100147   0.412907   6.720982   0.209060  -0.017444   0.002836
     4  C    0.008966  -0.060245   0.209060   5.394219   0.243040  -0.100949
     5  C    0.000539   0.005492  -0.017444   0.243040   4.504327   0.365180
     6  O    0.000000  -0.000099   0.002836  -0.100949   0.365180   7.736762
     7  O   -0.000006   0.000351  -0.007084  -0.098738   0.618262  -0.065235
     8  C   -0.010898  -0.012207  -0.053643   0.316566  -0.059024   0.010699
     9  C   -0.000175   0.002811  -0.001131  -0.066563  -0.006379  -0.003428
    10  C    0.000001   0.000471   0.002868  -0.005986   0.002026   0.000686
    11  N    0.000000  -0.000011  -0.000021   0.000066  -0.000080  -0.000001
    12  C   -0.000002  -0.000028   0.000099  -0.000442   0.000016  -0.000001
    13  N   -0.000002   0.000124  -0.000516   0.002327  -0.000057  -0.000002
    14  C   -0.106143   0.259278  -0.100051   0.010062  -0.000076   0.000000
    15  C    0.021257  -0.042110   0.005873  -0.000337  -0.000003   0.000000
    16  N    0.000321   0.003676   0.000000   0.000000   0.000000   0.000000
    17  H    0.002615  -0.025423   0.359716  -0.056470  -0.008530   0.001806
    18  H    0.011441  -0.005878  -0.033311   0.406085  -0.033209   0.002445
    19  H   -0.000022   0.000028  -0.000082   0.010020  -0.036321   0.311619
    20  H   -0.000222   0.000984   0.005982  -0.041221  -0.009038   0.005886
    21  H    0.018110  -0.000974  -0.008671  -0.021027   0.006465  -0.000032
    22  H   -0.000002  -0.000027   0.000105   0.003633  -0.000447  -0.000879
    23  H    0.000000   0.000000   0.000001   0.000010   0.000000   0.000000
    24  H   -0.000073   0.000003   0.000061  -0.000075  -0.000014  -0.000002
    25  H    0.000426  -0.014435   0.000841  -0.000136  -0.000054   0.000000
    26  H    0.001154  -0.016069   0.002807  -0.000151  -0.000039  -0.000001
    27  H    0.007037   0.000594   0.000494  -0.000003   0.000000   0.000000
    28  H    0.010845   0.000860   0.000782  -0.000021  -0.000001   0.000000
    29  H    0.000035   0.000008  -0.000003   0.000000   0.000000   0.000000
    30  H    0.000042  -0.000123   0.000006   0.000000   0.000000   0.000000
    31  H    0.000035   0.000050   0.000000   0.000000   0.000000   0.000000
               7          8          9         10         11         12
     1  O   -0.000006  -0.010898  -0.000175   0.000001   0.000000  -0.000002
     2  C    0.000351  -0.012207   0.002811   0.000471  -0.000011  -0.000028
     3  N   -0.007084  -0.053643  -0.001131   0.002868  -0.000021   0.000099
     4  C   -0.098738   0.316566  -0.066563  -0.005986   0.000066  -0.000442
     5  C    0.618262  -0.059024  -0.006379   0.002026  -0.000080   0.000016
     6  O   -0.065235   0.010699  -0.003428   0.000686  -0.000001  -0.000001
     7  O    7.815691  -0.003087   0.001602  -0.002793   0.000057   0.000003
     8  C   -0.003087   5.090716   0.225475  -0.038381   0.008450   0.006458
     9  C    0.001602   0.225475   5.198954   0.549777  -0.094334  -0.120674
    10  C   -0.002793  -0.038381   0.549777   4.879876   0.500167  -0.181020
    11  N    0.000057   0.008450  -0.094334   0.500167   6.415958   0.581008
    12  C    0.000003   0.006458  -0.120674  -0.181020   0.581008   4.744814
    13  N    0.000001  -0.031286   0.379800  -0.074024  -0.087477   0.414120
    14  C   -0.000201  -0.001955   0.000003  -0.000005   0.000000   0.000000
    15  C    0.000000   0.000039  -0.000009  -0.000002   0.000000   0.000000
    16  N    0.000000   0.000000   0.000000   0.000000   0.000000   0.000000
    17  H    0.038963   0.005040   0.001326   0.001550   0.000035  -0.000038
    18  H    0.002592  -0.053412   0.011431   0.000199   0.000004   0.000026
    19  H    0.003938  -0.002422   0.000028  -0.000003   0.000000   0.000003
    20  H   -0.000212   0.385790  -0.031335   0.000339  -0.000044   0.000367
    21  H   -0.000370   0.405195  -0.048498   0.002785  -0.000232  -0.000162
    22  H    0.012107  -0.003441  -0.046342   0.418930  -0.019057   0.007343
    23  H    0.000000  -0.000377   0.004163   0.006298  -0.021815   0.414984
    24  H    0.000001   0.004334  -0.038718   0.007434   0.006756  -0.021926
    25  H   -0.000047  -0.000042   0.000513   0.000183  -0.000005  -0.000028
    26  H   -0.000083   0.000092  -0.000020  -0.000012   0.000000   0.000000
    27  H    0.000000   0.000006  -0.000001   0.000000   0.000000   0.000000
    28  H    0.000000   0.000025  -0.000001   0.000000   0.000000   0.000000
    29  H    0.000000   0.000000   0.000000   0.000000   0.000000   0.000000
    30  H    0.000000   0.000000   0.000000   0.000000   0.000000   0.000000
    31  H    0.000000   0.000000   0.000000   0.000000   0.000000   0.000000
              13         14         15         16         17         18
     1  O   -0.000002  -0.106143   0.021257   0.000321   0.002615   0.011441
     2  C    0.000124   0.259278  -0.042110   0.003676  -0.025423  -0.005878
     3  N   -0.000516  -0.100051   0.005873   0.000000   0.359716  -0.033311
     4  C    0.002327   0.010062  -0.000337   0.000000  -0.056470   0.406085
     5  C   -0.000057  -0.000076  -0.000003   0.000000  -0.008530  -0.033209
     6  O   -0.000002   0.000000   0.000000   0.000000   0.001806   0.002445
     7  O    0.000001  -0.000201   0.000000   0.000000   0.038963   0.002592
     8  C   -0.031286  -0.001955   0.000039   0.000000   0.005040  -0.053412
     9  C    0.379800   0.000003  -0.000009   0.000000   0.001326   0.011431
    10  C   -0.074024  -0.000005  -0.000002   0.000000   0.001550   0.000199
    11  N   -0.087477   0.000000   0.000000   0.000000   0.000035   0.000004
    12  C    0.414120   0.000000   0.000000   0.000000  -0.000038   0.000026
    13  N    6.450823  -0.000005   0.000000   0.000000  -0.000060  -0.000247
    14  C   -0.000005   5.253976   0.314722  -0.042366   0.000091   0.001901
    15  C    0.000000   0.314722   4.965801   0.215654  -0.000066  -0.000013
    16  N    0.000000  -0.042366   0.215654   6.104550  -0.000028   0.000000
    17  H   -0.000060   0.000091  -0.000066  -0.000028   0.424251   0.005519
    18  H   -0.000247   0.001901  -0.000013   0.000000   0.005519   0.519957
    19  H   -0.000007   0.000001   0.000000   0.000000  -0.000387   0.001747
    20  H   -0.001646   0.000021  -0.000001   0.000000   0.000060   0.000054
    21  H   -0.001491   0.001287  -0.000032   0.000000  -0.001158  -0.013263
    22  H    0.003602   0.000004   0.000000   0.000000   0.000163   0.000138
    23  H   -0.036767   0.000000   0.000000   0.000000   0.000000   0.000000
    24  H    0.350766  -0.000018   0.000001   0.000000  -0.000007  -0.000009
    25  H    0.000002   0.387278  -0.034212  -0.001931  -0.000084   0.000014
    26  H    0.000001   0.386258  -0.035885  -0.001883   0.000347  -0.000245
    27  H    0.000000  -0.037307   0.404728  -0.021534  -0.000066  -0.000005
    28  H    0.000001  -0.039762   0.403701  -0.021194  -0.000053  -0.000031
    29  H    0.000000  -0.002025  -0.026009   0.356412  -0.000002   0.000000
    30  H    0.000000   0.005281  -0.027750   0.363239   0.000001   0.000000
    31  H    0.000000  -0.001376  -0.027236   0.356569   0.000001  -0.000001
              19         20         21         22         23         24
     1  O   -0.000022  -0.000222   0.018110  -0.000002   0.000000  -0.000073
     2  C    0.000028   0.000984  -0.000974  -0.000027   0.000000   0.000003
     3  N   -0.000082   0.005982  -0.008671   0.000105   0.000001   0.000061
     4  C    0.010020  -0.041221  -0.021027   0.003633   0.000010  -0.000075
     5  C   -0.036321  -0.009038   0.006465  -0.000447   0.000000  -0.000014
     6  O    0.311619   0.005886  -0.000032  -0.000879   0.000000  -0.000002
     7  O    0.003938  -0.000212  -0.000370   0.012107   0.000000   0.000001
     8  C   -0.002422   0.385790   0.405195  -0.003441  -0.000377   0.004334
     9  C    0.000028  -0.031335  -0.048498  -0.046342   0.004163  -0.038718
    10  C   -0.000003   0.000339   0.002785   0.418930   0.006298   0.007434
    11  N    0.000000  -0.000044  -0.000232  -0.019057  -0.021815   0.006756
    12  C    0.000003   0.000367  -0.000162   0.007343   0.414984  -0.021926
    13  N   -0.000007  -0.001646  -0.001491   0.003602  -0.036767   0.350766
    14  C    0.000001   0.000021   0.001287   0.000004   0.000000  -0.000018
    15  C    0.000000  -0.000001  -0.000032   0.000000   0.000000   0.000001
    16  N    0.000000   0.000000   0.000000   0.000000   0.000000   0.000000
    17  H   -0.000387   0.000060  -0.001158   0.000163   0.000000  -0.000007
    18  H    0.001747   0.000054  -0.013263   0.000138   0.000000  -0.000009
    19  H    0.449262   0.005160  -0.000200  -0.000020   0.000000   0.000002
    20  H    0.005160   0.563945  -0.023064  -0.000079   0.000008   0.000044
    21  H   -0.000200  -0.023064   0.530165   0.000010  -0.000034   0.002955
    22  H   -0.000020  -0.000079   0.000010   0.502173  -0.000282  -0.000291
    23  H    0.000000   0.000008  -0.000034  -0.000282   0.513204  -0.002051
    24  H    0.000002   0.000044   0.002955  -0.000291  -0.002051   0.461463
    25  H    0.000001   0.000007  -0.000196   0.000004   0.000000   0.000004
    26  H    0.000001  -0.000001  -0.000010  -0.000002   0.000000   0.000000
    27  H    0.000000   0.000000  -0.000012   0.000000   0.000000   0.000000
    28  H    0.000000   0.000000   0.000003   0.000000   0.000000   0.000001
    29  H    0.000000   0.000000   0.000000   0.000000   0.000000   0.000000
    30  H    0.000000   0.000000   0.000000   0.000000   0.000000   0.000000
    31  H    0.000000   0.000000   0.000000   0.000000   0.000000   0.000000
              25         26         27         28         29         30
     1  O    0.000426   0.001154   0.007037   0.010845   0.000035   0.000042
     2  C   -0.014435  -0.016069   0.000594   0.000860   0.000008  -0.000123
     3  N    0.000841   0.002807   0.000494   0.000782  -0.000003   0.000006
     4  C   -0.000136  -0.000151  -0.000003  -0.000021   0.000000   0.000000
     5  C   -0.000054  -0.000039   0.000000  -0.000001   0.000000   0.000000
     6  O    0.000000  -0.000001   0.000000   0.000000   0.000000   0.000000
     7  O   -0.000047  -0.000083   0.000000   0.000000   0.000000   0.000000
     8  C   -0.000042   0.000092   0.000006   0.000025   0.000000   0.000000
     9  C    0.000513  -0.000020  -0.000001  -0.000001   0.000000   0.000000
    10  C    0.000183  -0.000012   0.000000   0.000000   0.000000   0.000000
    11  N   -0.000005   0.000000   0.000000   0.000000   0.000000   0.000000
    12  C   -0.000028   0.000000   0.000000   0.000000   0.000000   0.000000
    13  N    0.000002   0.000001   0.000000   0.000001   0.000000   0.000000
    14  C    0.387278   0.386258  -0.037307  -0.039762  -0.002025   0.005281
    15  C   -0.034212  -0.035885   0.404728   0.403701  -0.026009  -0.027750
    16  N   -0.001931  -0.001883  -0.021534  -0.021194   0.356412   0.363239
    17  H   -0.000084   0.000347  -0.000066  -0.000053  -0.000002   0.000001
    18  H    0.000014  -0.000245  -0.000005  -0.000031   0.000000   0.000000
    19  H    0.000001   0.000001   0.000000   0.000000   0.000000   0.000000
    20  H    0.000007  -0.000001   0.000000   0.000000   0.000000   0.000000
    21  H   -0.000196  -0.000010  -0.000012   0.000003   0.000000   0.000000
    22  H    0.000004  -0.000002   0.000000   0.000000   0.000000   0.000000
    23  H    0.000000   0.000000   0.000000   0.000000   0.000000   0.000000
    24  H    0.000004   0.000000   0.000000   0.000001   0.000000   0.000000
    25  H    0.515702  -0.024564   0.006578  -0.006211  -0.000577  -0.000195
    26  H   -0.024564   0.525576  -0.006375   0.006926   0.005192  -0.000212
    27  H    0.006578  -0.006375   0.465204  -0.018114  -0.004237  -0.003113
    28  H   -0.006211   0.006926  -0.018114   0.462630   0.004878  -0.002890
    29  H   -0.000577   0.005192  -0.004237   0.004878   0.393865  -0.015263
    30  H   -0.000195  -0.000212  -0.003113  -0.002890  -0.015263   0.382097
    31  H    0.005387  -0.000523   0.005014  -0.004196  -0.017260  -0.015248
              31
     1  O    0.000035
     2  C    0.000050
     3  N    0.000000
     4  C    0.000000
     5  C    0.000000
     6  O    0.000000
     7  O    0.000000
     8  C    0.000000
     9  C    0.000000
    10  C    0.000000
    11  N    0.000000
    12  C    0.000000
    13  N    0.000000
    14  C   -0.001376
    15  C   -0.027236
    16  N    0.356569
    17  H    0.000001
    18  H   -0.000001
    19  H    0.000000
    20  H    0.000000
    21  H    0.000000
    22  H    0.000000
    23  H    0.000000
    24  H    0.000000
    25  H    0.005387
    26  H   -0.000523
    27  H    0.005014
    28  H   -0.004196
    29  H   -0.017260
    30  H   -0.015248
    31  H    0.393599
 Mulliken charges:
               1
     1  O   -0.375606
     2  C    0.406713
     3  N   -0.403317
     4  C   -0.151689
     5  C    0.425368
     6  O   -0.267291
     7  O   -0.315711
     8  C   -0.188713
     9  C    0.081725
    10  C   -0.071363
    11  N   -0.289428
    12  C    0.155079
    13  N   -0.367978
    14  C   -0.288871
    15  C   -0.138111
    16  N   -0.311484
    17  H    0.250887
    18  H    0.176070
    19  H    0.257652
    20  H    0.138217
    21  H    0.152451
    22  H    0.122658
    23  H    0.122656
    24  H    0.229360
    25  H    0.165776
    26  H    0.157720
    27  H    0.201112
    28  H    0.201822
    29  H    0.304985
    30  H    0.314129
    31  H    0.305183
 Sum of Mulliken charges =   1.00000
 Mulliken charges with hydrogens summed into heavy atoms:
               1
     1  O   -0.375606
     2  C    0.406713
     3  N   -0.152430
     4  C    0.024381
     5  C    0.425368
     6  O   -0.009638
     7  O   -0.315711
     8  C    0.101954
     9  C    0.081725
    10  C    0.051294
    11  N   -0.289428
    12  C    0.277736
    13  N   -0.138618
    14  C    0.034625
    15  C    0.264824
    16  N    0.612813
 APT charges:
               1
     1  O   -0.100646
     2  C   -0.087345
     3  N   -0.463121
     4  C   -0.602664
     5  C   -0.425658
     6  O    0.123844
     7  O    0.025787
     8  C   -0.823590
     9  C   -0.156954
    10  C   -0.471456
    11  N    0.230175
    12  C   -0.644187
    13  N   -0.647100
    14  C   -0.553700
    15  C   -0.374529
    16  N   -1.475692
    17  H    0.454196
    18  H    0.461600
    19  H    0.475020
    20  H    0.601915
    21  H    0.218983
    22  H    0.334117
    23  H    0.899300
    24  H    0.525280
    25  H    0.218342
    26  H    0.424885
    27  H    0.437491
    28  H    0.192366
    29  H    0.653995
    30  H    1.179456
    31  H    0.369892
 Sum of APT charges =   1.00000
 APT charges with hydrogens summed into heavy atoms:
               1
     1  O   -0.100646
     2  C   -0.087345
     3  N   -0.008925
     4  C   -0.141065
     5  C   -0.425658
     6  O    0.598864
     7  O    0.025787
     8  C   -0.002692
     9  C   -0.156954
    10  C   -0.137339
    11  N    0.230175
    12  C    0.255113
    13  N   -0.121819
    14  C    0.089526
    15  C    0.255328
    16  N    0.727652
 Electronic spatial extent (au):  <R**2>=           4671.3788
 Charge=              1.0000 electrons
 Dipole moment (field-independent basis, Debye):
    X=             19.4128    Y=              4.3352    Z=              1.0912  Tot=             19.9209
 Quadrupole moment (field-independent basis, Debye-Ang):
   XX=              1.5215   YY=            -84.0530   ZZ=            -92.1533
   XY=              2.4322   XZ=            -33.0847   YZ=             -7.7295
 Traceless Quadrupole moment (field-independent basis, Debye-Ang):
   XX=             59.7497   YY=            -25.8247   ZZ=            -33.9250
   XY=              2.4322   XZ=            -33.0847   YZ=             -7.7295
 Octapole moment (field-independent basis, Debye-Ang**2):
  XXX=            659.6090  YYY=            119.9337  ZZZ=             38.5708  XYY=             64.9188
  XXY=             91.1021  XXZ=            -15.4055  XZZ=             75.5625  YZZ=             -1.1749
  YYZ=              7.3658  XYZ=              0.0183
 Hexadecapole moment (field-independent basis, Debye-Ang**3):
 XXXX=          -1514.9548 YYYY=          -1335.0987 ZZZZ=           -855.1283 XXXY=            167.8952
 XXXZ=           -607.8552 YYYX=           -251.3414 YYYZ=            151.7883 ZZZX=           -329.5245
 ZZZY=            171.1079 XXYY=           -711.0213 XXZZ=           -706.4484 YYZZ=           -313.4516
 XXYZ=             13.1701 YYXZ=            -64.8387 ZZXY=             24.8291
 N-N= 1.132998685491D+03 E-N=-4.113001690488D+03  KE= 7.939559692953D+02
  Exact polarizability:   0.000   0.000   0.000   0.000   0.000   0.000
 Approx polarizability: 159.418   6.306 189.861   7.564  16.785 213.109
 Calling FoFJK, ICntrl=    100147 FMM=F ISym2X=0 I1Cent= 0 IOpClX= 0 NMat=1 NMatS=1 NMatT=0.
 -------------------------------------------------------------------
 Center     Atomic                   Forces (Hartrees/Bohr)
 Number     Number              X              Y              Z
 -------------------------------------------------------------------
      1        8           0.012951402    0.002607394   -0.008233389
      2        6          -0.023222889   -0.005671723    0.012659976
      3        7           0.015077412    0.005811654   -0.001201588
      4        6          -0.000687526    0.002319012    0.000230518
      5        6          -0.004699601   -0.007186872   -0.000527009
      6        8           0.003010452    0.001118930   -0.004927790
      7        8           0.002989863    0.001483280    0.001624884
      8        6          -0.006540812    0.007274550   -0.003874677
      9        6           0.004426499    0.000353620    0.008134997
     10        6          -0.001819759   -0.005796016   -0.009009300
     11        7           0.001979815   -0.001454391    0.002946062
     12        6          -0.002737872   -0.000067318   -0.006070922
     13        7           0.004263799    0.001211195    0.007026313
     14        6           0.008280286   -0.002104092   -0.013205845
     15        6          -0.025081020   -0.001090811    0.021142486
     16        7           0.005380571    0.001202273   -0.002425111
     17        1          -0.003090895   -0.001613259   -0.003438663
     18        1           0.001669484   -0.001932811    0.000945847
     19        1          -0.001476925    0.001126329    0.003306717
     20        1          -0.000339179   -0.001115279    0.002028644
     21        1           0.001821433   -0.000004569    0.002846274
     22        1          -0.000768024   -0.000606695   -0.001531279
     23        1          -0.000867300    0.001981542   -0.001166030
     24        1          -0.000871968    0.001415771    0.000555964
     25        1          -0.002303908   -0.000591554   -0.000132128
     26        1          -0.001327184   -0.001203952   -0.000120233
     27        1           0.006083512    0.000860272   -0.001303720
     28        1           0.004990886    0.002472604   -0.001825843
     29        1           0.001337647   -0.004018125   -0.001946615
     30        1           0.002515176    0.001986882    0.001967146
     31        1          -0.000943377    0.001232160   -0.004475687
 -------------------------------------------------------------------
 Cartesian Forces:  Max     0.025081020 RMS     0.006032800
 FormGI is forming the generalized inverse of G from B-inverse, IUseBI=4.

 GradGradGradGradGradGradGradGradGradGradGradGradGradGradGradGradGradGrad
 Berny optimization.
 Internal  Forces:  Max     0.018448979 RMS     0.003486448
 Search for a local minimum.
 Step number   1 out of a maximum of  167
 All quantities printed in internal units (Hartrees-Bohrs-Radians)
 Mixed Optimization -- RFO/linear search
 Second derivative matrix not updated -- analytic derivatives used.
 ITU=  0
     Eigenvalues ---   -0.00108  -0.00030   0.00042   0.00152   0.00203
     Eigenvalues ---    0.00314   0.00488   0.00490   0.00824   0.00867
     Eigenvalues ---    0.01015   0.01983   0.02084   0.02582   0.03151
     Eigenvalues ---    0.03693   0.03802   0.03843   0.04086   0.04205
     Eigenvalues ---    0.04277   0.04648   0.04904   0.05013   0.05167
     Eigenvalues ---    0.05273   0.05308   0.05897   0.06195   0.07426
     Eigenvalues ---    0.08164   0.08640   0.10361   0.10607   0.11011
     Eigenvalues ---    0.11572   0.11744   0.12167   0.13026   0.13200
     Eigenvalues ---    0.13660   0.15776   0.15986   0.16028   0.16439
     Eigenvalues ---    0.17262   0.18941   0.19179   0.20238   0.22060
     Eigenvalues ---    0.22826   0.23020   0.23856   0.24242   0.24426
     Eigenvalues ---    0.25250   0.29231   0.29553   0.31321   0.32566
     Eigenvalues ---    0.32595   0.32937   0.33202   0.33508   0.34116
     Eigenvalues ---    0.34261   0.34318   0.34773   0.35110   0.35408
     Eigenvalues ---    0.37527   0.37929   0.38374   0.41669   0.43344
     Eigenvalues ---    0.43354   0.43526   0.44422   0.45414   0.45882
     Eigenvalues ---    0.46886   0.47750   0.48433   0.53326   0.58920
     Eigenvalues ---    0.79131   0.89274
 RFO step:  Lambda=-1.03568427D-02 EMin=-1.07964199D-03
 Linear search not attempted -- first point.
 Iteration  1 RMS(Cart)=  0.21570978 RMS(Int)=  0.01983828
 Iteration  2 RMS(Cart)=  0.03640899 RMS(Int)=  0.00083929
 Iteration  3 RMS(Cart)=  0.00113145 RMS(Int)=  0.00052839
 Iteration  4 RMS(Cart)=  0.00000178 RMS(Int)=  0.00052839
 Iteration  5 RMS(Cart)=  0.00000000 RMS(Int)=  0.00052839
 Variable       Old X    -DE/DX   Delta X   Delta X   Delta X     New X
                                 (Linear)    (Quad)   (Total)
    R1        2.31752  -0.00617   0.00000  -0.00642  -0.00642   2.31110
    R2        2.56844  -0.01055   0.00000  -0.04021  -0.04021   2.52823
    R3        2.87474   0.00061   0.00000   0.02657   0.02657   2.90131
    R4        2.73282   0.00196   0.00000   0.00683   0.00683   2.73965
    R5        1.90644   0.00366   0.00000   0.00903   0.00903   1.91547
    R6        2.87726   0.00301   0.00000   0.02193   0.02193   2.89919
    R7        2.90647   0.00350   0.00000   0.01385   0.01385   2.92032
    R8        2.06516   0.00169   0.00000   0.00477   0.00477   2.06993
    R9        2.54442  -0.00286   0.00000  -0.01649  -0.01649   2.52793
   R10        2.26979  -0.00156   0.00000   0.00058   0.00058   2.27037
   R11        1.81821   0.00344   0.00000   0.00642   0.00642   1.82463
   R12        2.83790  -0.00298   0.00000  -0.01244  -0.01244   2.82546
   R13        2.06899   0.00167   0.00000   0.00501   0.00501   2.07400
   R14        2.05769   0.00225   0.00000   0.00768   0.00768   2.06537
   R15        2.57860   0.00996   0.00000   0.02080   0.02082   2.59942
   R16        2.61540   0.00287   0.00000   0.00148   0.00151   2.61691
   R17        2.61177  -0.00200   0.00000  -0.00748  -0.00749   2.60428
   R18        2.03406   0.00097   0.00000   0.00199   0.00199   2.03604
   R19        2.47944   0.00096   0.00000  -0.00236  -0.00239   2.47705
   R20        2.56593   0.00736   0.00000   0.01809   0.01808   2.58401
   R21        2.03318   0.00240   0.00000   0.00576   0.00576   2.03895
   R22        1.90261   0.00121   0.00000   0.00266   0.00266   1.90526
   R23        2.87574   0.00108   0.00000  -0.00493  -0.00493   2.87081
   R24        2.07107   0.00054   0.00000   0.00217   0.00217   2.07324
   R25        2.06951   0.00079   0.00000  -0.00341  -0.00341   2.06610
   R26        2.80964   0.01078   0.00000   0.05809   0.05809   2.86774
   R27        2.05871   0.00026   0.00000  -0.00163  -0.00163   2.05707
   R28        2.05793   0.00042   0.00000  -0.00137  -0.00137   2.05656
   R29        1.92737   0.00456   0.00000   0.00817   0.00817   1.93554
   R30        1.92926   0.00370   0.00000   0.00642   0.00642   1.93567
   R31        1.92741   0.00463   0.00000   0.00877   0.00877   1.93619
    A1        2.11666   0.01845   0.00000   0.06552   0.06535   2.18201
    A2        2.15796  -0.01463   0.00000  -0.06199  -0.06211   2.09585
    A3        2.00856  -0.00381   0.00000  -0.00346  -0.00360   2.00496
    A4        2.11819   0.00570   0.00000   0.03767   0.03578   2.15397
    A5        2.12996  -0.00024   0.00000   0.00618   0.00427   2.13422
    A6        2.03198  -0.00538   0.00000  -0.03551  -0.03737   1.99461
    A7        1.88025  -0.00451   0.00000  -0.03209  -0.03208   1.84817
    A8        1.97398  -0.00020   0.00000  -0.00624  -0.00613   1.96785
    A9        1.89711   0.00192   0.00000   0.01449   0.01420   1.91132
   A10        1.95351   0.00335   0.00000   0.02122   0.02105   1.97457
   A11        1.90963  -0.00058   0.00000  -0.01611  -0.01632   1.89331
   A12        1.84817   0.00012   0.00000   0.01932   0.01931   1.86748
   A13        2.01764   0.00257   0.00000   0.01262   0.01259   2.03023
   A14        2.15246  -0.00452   0.00000  -0.01925  -0.01928   2.13319
   A15        2.11294   0.00196   0.00000   0.00685   0.00682   2.11976
   A16        1.93500   0.00281   0.00000   0.01647   0.01647   1.95147
   A17        2.03857  -0.00787   0.00000  -0.04262  -0.04258   1.99599
   A18        1.89424   0.00088   0.00000  -0.00044  -0.00008   1.89415
   A19        1.86669   0.00106   0.00000  -0.00590  -0.00586   1.86084
   A20        1.91212   0.00437   0.00000   0.03290   0.03269   1.94481
   A21        1.88936   0.00315   0.00000   0.01790   0.01735   1.90672
   A22        1.85392  -0.00118   0.00000   0.00073   0.00034   1.85426
   A23        2.36037  -0.00141   0.00000  -0.00948  -0.00967   2.35070
   A24        2.10033   0.00073   0.00000   0.00768   0.00749   2.10783
   A25        1.82166   0.00069   0.00000   0.00301   0.00294   1.82460
   A26        1.94037  -0.00207   0.00000  -0.00715  -0.00712   1.93325
   A27        2.22351   0.00258   0.00000   0.01350   0.01347   2.23698
   A28        2.11927  -0.00051   0.00000  -0.00629  -0.00632   2.11295
   A29        1.83356   0.00349   0.00000   0.01136   0.01136   1.84491
   A30        1.94725  -0.00015   0.00000  -0.00316  -0.00316   1.94409
   A31        2.20100  -0.00038   0.00000   0.00077   0.00076   2.20176
   A32        2.13494   0.00053   0.00000   0.00239   0.00239   2.13733
   A33        1.88193  -0.00196   0.00000  -0.00407  -0.00407   1.87786
   A34        2.18936   0.00183   0.00000   0.00896   0.00888   2.19824
   A35        2.21189   0.00013   0.00000  -0.00481  -0.00489   2.20700
   A36        1.95872  -0.01452   0.00000  -0.08156  -0.08185   1.87687
   A37        1.90051   0.00283   0.00000  -0.02123  -0.02204   1.87847
   A38        1.90448   0.00378   0.00000   0.04063   0.04161   1.94609
   A39        1.91490   0.00560   0.00000   0.01979   0.01742   1.93232
   A40        1.91885   0.00510   0.00000   0.03365   0.03409   1.95293
   A41        1.86384  -0.00222   0.00000   0.01300   0.01245   1.87630
   A42        1.95453  -0.00388   0.00000  -0.01689  -0.01646   1.93807
   A43        1.90469   0.00470   0.00000   0.05506   0.05422   1.95891
   A44        1.90210   0.00438   0.00000   0.02671   0.02571   1.92781
   A45        1.91711  -0.00261   0.00000  -0.04906  -0.04873   1.86837
   A46        1.91823  -0.00239   0.00000  -0.03374  -0.03369   1.88454
   A47        1.86493   0.00009   0.00000   0.02081   0.01823   1.88316
   A48        1.94253   0.00066   0.00000   0.00449   0.00450   1.94703
   A49        1.95144  -0.00099   0.00000  -0.00690  -0.00690   1.94454
   A50        1.94124   0.00066   0.00000  -0.00278  -0.00278   1.93846
   A51        1.87242   0.00029   0.00000   0.00603   0.00604   1.87846
   A52        1.88008  -0.00097   0.00000  -0.00624  -0.00624   1.87385
   A53        1.87243   0.00031   0.00000   0.00571   0.00570   1.87813
    D1       -0.01618   0.00020   0.00000   0.07597   0.07593   0.05975
    D2       -3.07086  -0.00069   0.00000  -0.04084  -0.04227  -3.11313
    D3        3.12299   0.00075   0.00000   0.10608   0.10750  -3.05270
    D4        0.06831  -0.00014   0.00000  -0.01073  -0.01069   0.05761
    D5        0.08495   0.00030   0.00000   0.23314   0.23366   0.31861
    D6       -2.03859   0.00077   0.00000   0.27616   0.27473  -1.76386
    D7        2.21624  -0.00024   0.00000   0.24999   0.24935   2.46559
    D8       -3.05415  -0.00031   0.00000   0.20202   0.20358  -2.85057
    D9        1.10550   0.00016   0.00000   0.24505   0.24465   1.35015
   D10       -0.92286  -0.00086   0.00000   0.21887   0.21927  -0.70359
   D11       -2.85022   0.00074   0.00000  -0.08921  -0.08850  -2.93872
   D12        1.26462  -0.00012   0.00000  -0.08861  -0.08817   1.17644
   D13       -0.78264  -0.00141   0.00000  -0.11835  -0.11796  -0.90060
   D14        0.20911   0.00179   0.00000   0.02309   0.02277   0.23188
   D15       -1.95924   0.00093   0.00000   0.02369   0.02310  -1.93614
   D16        2.27669  -0.00036   0.00000  -0.00605  -0.00668   2.27001
   D17        2.89441   0.00116   0.00000   0.06558   0.06585   2.96026
   D18       -0.26562   0.00141   0.00000   0.07923   0.07944  -0.18618
   D19       -1.20813  -0.00005   0.00000   0.04897   0.04902  -1.15911
   D20        1.91503   0.00019   0.00000   0.06262   0.06262   1.97764
   D21        0.83488   0.00175   0.00000   0.07540   0.07516   0.91003
   D22       -2.32515   0.00200   0.00000   0.08904   0.08875  -2.23640
   D23        0.99105  -0.00309   0.00000  -0.10000  -0.09997   0.89108
   D24       -3.12106  -0.00237   0.00000  -0.08803  -0.08796   3.07417
   D25       -1.12758  -0.00279   0.00000  -0.09038  -0.09055  -1.21813
   D26       -1.13672   0.00045   0.00000  -0.06916  -0.06896  -1.20568
   D27        1.03436   0.00117   0.00000  -0.05719  -0.05695   0.97740
   D28        3.02783   0.00076   0.00000  -0.05954  -0.05954   2.96829
   D29        3.06684  -0.00077   0.00000  -0.07332  -0.07339   2.99345
   D30       -1.04528  -0.00005   0.00000  -0.06135  -0.06138  -1.10665
   D31        0.94820  -0.00047   0.00000  -0.06370  -0.06397   0.88423
   D32       -0.05555   0.00040   0.00000   0.02189   0.02198  -0.03357
   D33        3.10403   0.00024   0.00000   0.00888   0.00880   3.11283
   D34        0.61609  -0.00055   0.00000  -0.17571  -0.17577   0.44032
   D35       -2.57660  -0.00019   0.00000  -0.13748  -0.13758  -2.71418
   D36       -1.54587   0.00059   0.00000  -0.17029  -0.16989  -1.71576
   D37        1.54462   0.00095   0.00000  -0.13205  -0.13170   1.41292
   D38        2.72278  -0.00207   0.00000  -0.19857  -0.19884   2.52394
   D39       -0.46991  -0.00171   0.00000  -0.16033  -0.16065  -0.63057
   D40        3.10171   0.00034   0.00000   0.03322   0.03300   3.13471
   D41       -0.04850   0.00027   0.00000   0.04078   0.04069  -0.00781
   D42        0.00564   0.00001   0.00000  -0.00101  -0.00106   0.00458
   D43        3.13862  -0.00006   0.00000   0.00656   0.00663  -3.13794
   D44       -3.10791   0.00001   0.00000  -0.02252  -0.02274  -3.13065
   D45        0.03830  -0.00057   0.00000  -0.04038  -0.04064  -0.00234
   D46       -0.00345   0.00022   0.00000   0.00487   0.00491   0.00146
   D47       -3.14043  -0.00036   0.00000  -0.01299  -0.01299   3.12977
   D48       -0.00567  -0.00023   0.00000  -0.00334  -0.00334  -0.00901
   D49       -3.13924  -0.00018   0.00000  -0.01049  -0.01052   3.13343
   D50        0.00333   0.00038   0.00000   0.00657   0.00661   0.00995
   D51       -3.13623   0.00034   0.00000   0.00830   0.00826  -3.12797
   D52        0.00006  -0.00038   0.00000  -0.00741  -0.00743  -0.00738
   D53        3.13696   0.00022   0.00000   0.01079   0.01062  -3.13560
   D54        3.13971  -0.00034   0.00000  -0.00906  -0.00901   3.13070
   D55       -0.00657   0.00025   0.00000   0.00914   0.00905   0.00248
   D56       -3.13052   0.00032   0.00000   0.19336   0.19312  -2.93740
   D57        1.02622   0.00292   0.00000   0.22846   0.22898   1.25520
   D58       -1.00444  -0.00223   0.00000   0.15810   0.15732  -0.84712
   D59       -1.01523  -0.00187   0.00000   0.12582   0.12555  -0.88968
   D60        3.14150   0.00073   0.00000   0.16092   0.16142  -2.98026
   D61        1.11085  -0.00442   0.00000   0.09056   0.08975   1.20060
   D62        1.02957   0.00175   0.00000   0.17315   0.17344   1.20301
   D63       -1.09688   0.00436   0.00000   0.20826   0.20931  -0.88757
   D64       -3.12753  -0.00080   0.00000   0.13790   0.13764  -2.98989
   D65       -1.04681   0.00007   0.00000   0.00032   0.00031  -1.04650
   D66       -3.14056  -0.00009   0.00000  -0.00575  -0.00576   3.13687
   D67        1.04976  -0.00027   0.00000  -0.00643  -0.00645   1.04331
   D68        1.07250   0.00163   0.00000   0.02488   0.02475   1.09725
   D69       -1.02125   0.00147   0.00000   0.01880   0.01868  -1.00257
   D70       -3.11412   0.00129   0.00000   0.01812   0.01799  -3.09613
   D71        3.11957  -0.00123   0.00000   0.00109   0.00123   3.12080
   D72        1.02582  -0.00139   0.00000  -0.00499  -0.00484   1.02098
   D73       -1.06705  -0.00157   0.00000  -0.00567  -0.00553  -1.07258
         Item               Value     Threshold  Converged?
 Maximum Force            0.018449     0.000450     NO 
 RMS     Force            0.003486     0.000300     NO 
 Maximum Displacement     1.120882     0.001800     NO 
 RMS     Displacement     0.234235     0.001200     NO 
 Predicted change in Energy=-6.979880D-03
 GradGradGradGradGradGradGradGradGradGradGradGradGradGradGradGradGradGrad

                          Input orientation:                          
 ---------------------------------------------------------------------
 Center     Atomic      Atomic             Coordinates (Angstroms)
 Number     Number       Type             X           Y           Z
 ---------------------------------------------------------------------
      1          8           0        1.183886    0.446633    1.659985
      2          6           0        1.101963   -0.249107    0.657529
      3          7           0        0.077518   -1.058939    0.366642
      4          6           0       -1.116015   -1.161340    1.183221
      5          6           0       -1.875829   -2.389101    0.664560
      6          8           0       -2.906106   -2.807007    1.408458
      7          8           0       -1.571809   -2.946981   -0.355132
      8          6           0       -1.964717    0.130001    1.165654
      9          6           0       -2.276035    0.644850   -0.203119
     10          6           0       -2.375756    0.075362   -1.451274
     11          7           0       -2.704774    1.023241   -2.395994
     12          6           0       -2.816936    2.153070   -1.740938
     13          7           0       -2.562196    1.984168   -0.408136
     14          6           0        2.211189   -0.204397   -0.403031
     15          6           0        3.442737    0.401758    0.247924
     16          7           0        4.493258    0.748573   -0.790851
     17          1           0        0.063633   -1.636597   -0.466153
     18          1           0       -0.831814   -1.343600    2.225251
     19          1           0       -3.010257   -2.275606    2.207867
     20          1           0       -2.879734   -0.046144    1.745527
     21          1           0       -1.396001    0.885297    1.713948
     22          1           0       -2.230269   -0.956239   -1.726021
     23          1           0       -3.078002    3.110775   -2.163795
     24          1           0       -2.589001    2.699179    0.302182
     25          1           0        1.857399    0.427175   -1.227411
     26          1           0        2.413797   -1.197442   -0.813138
     27          1           0        3.909258   -0.277492    0.959213
     28          1           0        3.181582    1.314857    0.779347
     29          1           0        4.794411   -0.079759   -1.312623
     30          1           0        5.324678    1.161981   -0.358354
     31          1           0        4.129893    1.423073   -1.471139
 ---------------------------------------------------------------------
                    Distance matrix (angstroms):
                    1          2          3          4          5
     1  O    0.000000
     2  C    1.222981   0.000000
     3  N    2.272341   1.337883   0.000000
     4  C    2.846475   2.455187   1.449762   0.000000
     5  C    4.288836   3.666997   2.381943   1.534186   0.000000
     6  O    5.232348   4.813664   3.611528   2.442003   1.337722
     7  O    4.813644   3.931039   2.608820   2.400582   1.201428
     8  C    3.202861   3.131524   2.494539   1.545369   2.569994
     9  C    3.934654   3.598715   2.960868   2.555368   3.180863
    10  C    4.742238   4.080056   3.257301   3.171268   3.286375
    11  N    5.648461   5.043225   4.439457   4.484120   4.658135
    12  C    5.521302   5.184676   4.810069   4.735943   5.225268
    13  N    4.546897   4.421450   4.102301   3.810259   4.554916
    14  C    2.394833   1.535308   2.423879   3.808178   4.755670
    15  C    2.664271   2.463863   3.670480   4.909203   6.020766
    16  N    4.129129   3.820216   4.909750   6.245692   7.247654
    17  H    3.180452   2.065410   1.013622   2.082756   2.367760
    18  H    2.754543   2.719404   2.088622   1.095360   2.149138
    19  H    5.030069   4.839484   3.795359   2.424798   1.918751
    20  H    4.094283   4.132656   3.416493   2.161147   2.768712
    21  H    2.617470   2.939849   2.786852   2.132788   3.471762
    22  H    5.008946   4.157538   3.116997   3.122070   2.809556
    23  H    6.315270   6.059768   5.809212   5.770865   6.300274
    24  H    4.599159   4.737286   4.608463   4.224869   5.150779
    25  H    2.964971   2.140337   2.813808   4.144360   5.044597
    26  H    3.214342   2.187032   2.620927   4.055406   4.690898
    27  H    2.905700   2.823602   3.955254   5.107322   6.165464
    28  H    2.349495   2.604926   3.929434   4.976345   6.269760
    29  H    4.706313   4.188598   5.101745   6.506319   7.330376
    30  H    4.661714   4.566674   5.743761   7.018319   8.093445
    31  H    4.408665   4.061499   5.095052   6.422177   7.427151
                    6          7          8          9         10
     6  O    0.000000
     7  O    2.215895   0.000000
     8  C    3.093732   3.454704   0.000000
     9  C    3.861280   3.663372   1.495168   0.000000
    10  C    4.094800   3.313973   2.649575   1.375555   0.000000
    11  N    5.402332   4.605583   3.745784   2.266207   1.378123
    12  C    5.876140   5.429671   3.642439   2.220853   2.143692
    13  N    5.135528   5.029902   2.504343   1.384808   2.183218
    14  C    6.020114   4.672809   4.473342   4.571254   4.713506
    15  C    7.207691   6.059984   5.491506   5.741680   6.070310
    16  N    8.498805   7.115618   6.776134   6.795551   6.933449
    17  H    3.701807   2.098596   3.146087   3.278450   3.138771
    18  H    2.666720   3.126787   2.139559   3.454951   4.232498
    19  H    0.965551   3.014770   2.822465   3.857590   4.395333
    20  H    2.781488   3.812911   1.097514   2.153868   3.238564
    21  H    4.000856   4.358710   1.092949   2.123069   3.410945
    22  H    3.702305   2.505187   3.100358   2.210160   1.077429
    23  H    6.914528   6.498946   4.605394   3.250875   3.196024
    24  H    5.625165   5.774588   2.781365   2.138585   3.162988
    25  H    6.332355   4.889302   4.519253   4.264016   4.253644
    26  H    5.985612   4.376724   4.984887   5.075498   4.996705
    27  H    7.283506   6.236648   5.891711   6.360785   6.740650
    28  H    7.378719   6.484215   5.295047   5.585673   6.115229
[...]
 7015,-0.00002540,0.00005622,-0.00000633,-0.00001452,-0.00006696,0.0000
 0461,0.00006688,0.00003250,0.00003284,-0.00010633,0.00003935,0.0000936
 0,0.00009537,0.00883966,-0.12582486,-0.15199410,-0.00101723,0.01455876
 ,0.00837684,-0.00030778,0.00061751,0.00251375,0.00130330,0.00031145,0.
 00057393,-0.00003682,-0.00001684,0.00000702,-0.00001254,-0.00003639,0.
 00000960,0.00002065,0.00002976,0.00003493,-0.00010822,0.00003597,0.000
 03906,-0.00002020,0.00000481,0.00000758,0.00000858,-0.00000188,0.00000
 390,-0.00005764,0.00004240,-0.00003257,-0.00858645,0.13639272,0.163562
 04,0.00239604,-0.00172025,0.00296941,-0.02360546,0.00673464,-0.0235578
 4,-0.00113883,-0.00023632,0.00233111,-0.00006923,-0.00080312,0.0013773
 4,0.00013892,0.00018259,0.00014937,-0.00012333,-0.00007667,-0.00004365
 ,-0.00004716,-0.00011314,-0.00007095,0.00021550,-0.00010512,-0.0000330
 9,0.00004581,-0.00007118,-0.00003979,-0.00005536,-0.00006914,0.0000359
 1,0.00030919,-0.00013977,-0.00003264,-0.00002071,0.00013772,0.00012669
 ,0.00007324,0.00004930,-0.00008158,-0.14765653,0.03823238,-0.12922390,
 0.00583654,-0.00226852,0.00888725,0.00027074,-0.00349211,0.00300106,-0
 .00035591,0.00072914,-0.00043761,-0.00048134,-0.00008858,-0.00006058,0
 .00005151,0.00001680,-0.00001409,0.00000938,0.00001679,0.00000969,-0.0
 0000098,0.00002575,0.00001494,0.00002958,0.00000495,0.00005972,-0.0000
 0359,0.00000162,0.00000117,-0.00000903,0.00000149,-0.00001698,0.001020
 67,-0.00058963,0.00124266,0.16257947,-0.00010970,0.00018103,-0.0014776
 0,0.00368711,-0.00089512,0.00274436,-0.00070946,-0.00080811,0.00040130
 ,0.00023409,-0.00011453,0.00034268,0.00013270,0.00012985,-0.00002782,-
 0.00009069,-0.00005886,0.00001493,-0.00006869,-0.00007700,0.00000933,0
 .00000477,-0.00003661,-0.00001032,-0.00000587,-0.00002177,-0.00005952,
 -0.00005788,-0.00013966,0.00001070,0.00028462,-0.00006990,-0.00000563,
 -0.00003902,0.00013630,0.00010663,0.00005213,0.00003150,-0.00005820,0.
 03512658,-0.05681398,0.04149082,0.01589257,-0.00654845,0.02207955,-0.0
 0146451,-0.00500577,0.00229654,-0.00024286,0.00059826,-0.00040173,-0.0
 0021506,-0.00000049,0.00003933,0.00002200,0.00001984,-0.00000501,-0.00
 000843,0.00001251,-0.00000448,0.00000083,0.00000041,-0.00000272,0.0000
 7163,0.00000274,0.00006261,0.00000133,0.00000198,0.00001073,0.00000616
 ,0.00000715,0.00000083,-0.01632594,0.00596637,-0.01922567,-0.03600586,
 0.06220112,-0.00006299,0.00045494,-0.00149302,0.00799645,-0.00447662,0
 .01201663,0.00059225,0.00083334,-0.00056494,-0.00028666,0.00022870,-0.
 00040609,-0.00007984,-0.00008000,-0.00010128,0.00005399,0.00003838,0.0
 0002934,0.00004828,0.00005005,0.00007817,-0.00002553,0.00004290,-0.000
 00314,-0.00002989,-0.00002241,-0.00011077,-0.00003044,0.00006948,-0.00
 003730,-0.00027826,0.00003243,0.00005590,0.00001060,-0.00007624,-0.000
 11309,-0.00000524,0.00006383,0.00015774,-0.12158483,0.04209957,-0.1933
 2964,-0.00791673,0.00276385,-0.01212878,0.00136651,0.00331907,-0.00065
 592,0.00017015,0.00004343,-0.00007385,0.00019942,0.00003939,-0.0000075
 2,-0.00002968,-0.00000873,0.00000403,0.00000375,-0.00001768,0.00001034
 ,-0.00002301,-0.00001586,0.00001262,0.00005364,0.00000432,0.00000597,-
 0.00000046,0.00000274,-0.00000026,-0.00001443,0.00001348,-0.00000737,-
 0.01232649,0.00409815,-0.01515835,0.13194171,-0.04930615,0.21118622,-0
 .00009221,-0.00047089,-0.00011170,0.00092811,-0.00097655,0.00029201,-0
 .00053939,-0.00010374,0.00019187,0.00015016,-0.00004241,-0.00013142,0.
 00004649,0.00010927,0.00006296,-0.00007510,-0.00006027,-0.00000672,-0.
 00003569,-0.00005388,-0.00003996,-0.00001787,-0.00000998,-0.00000596,0
 .00001871,-0.00003389,-0.00000389,-0.00000520,0.00003841,0.00002512,-0
 .00005151,0.00004272,-0.00001827,-0.00000676,-0.00008003,0.00004058,-0
 .00000044,0.00005366,-0.00002329,-0.00746082,-0.00013696,0.00169113,-0
 .32291404,-0.00456775,-0.00635963,-0.00532054,0.00059781,-0.00306045,0
 .00000475,0.00007855,0.00005795,-0.00001956,0.00000110,0.00001518,0.00
 002359,0.00001403,-0.00001117,-0.00001200,0.00000597,-0.00000262,0.000
 01700,-0.00000233,-0.00000128,0.00001109,0.00000766,0.00001713,0.00000
 210,-0.00001433,0.00001069,0.00001559,-0.00002239,-0.00000448,-0.00013
 598,-0.00020716,-0.00007443,0.00113782,0.00019598,0.00016655,0.3425096
 0,0.00005885,0.00201568,-0.00006065,0.00146838,-0.00656220,-0.00067007
 ,-0.00193848,0.00031340,0.00068511,0.00004534,-0.00025625,-0.00029833,
 -0.00005889,0.00017080,0.00016788,-0.00010438,-0.00010423,-0.00003846,
 -0.00002036,-0.00006319,-0.00009188,-0.00006740,-0.00006835,0.00003503
 ,-0.00004459,0.00000906,0.00005450,-0.00008237,-0.00006835,-0.00004200
 ,0.00023390,-0.00022770,0.00002973,-0.00005035,0.00023077,0.00009091,0
 .00007541,-0.00006254,-0.00008910,-0.02879224,-0.00182042,0.00416896,-
 0.00490876,-0.05043962,-0.00228811,0.00291628,-0.00007868,0.00102298,0
 .00003885,0.00012519,0.00017664,-0.00003822,0.00000916,0.00001476,0.00
 003371,0.00000799,-0.00001011,-0.00000951,0.00004376,-0.00003222,0.000
 01097,0.00000358,-0.00001443,0.00000540,-0.00000053,0.00002867,-0.0000
 0694,0.00003342,-0.00002196,-0.00002681,0.00001069,0.00000798,-0.00004
 320,-0.00015175,-0.00052236,-0.00000590,0.00172707,-0.00045142,0.00627
 426,0.05159082,0.00036128,0.00031835,-0.00013961,-0.00000235,0.0023375
 9,0.00020122,0.00150254,0.00019453,-0.00034947,-0.00030867,0.00023076,
 0.00015341,-0.00005547,-0.00016901,-0.00013395,0.00015627,0.00010869,0
 .00003006,0.00009822,0.00006274,0.00009992,0.00004202,0.00009080,0.000
 00314,-0.00010033,0.00008959,0.00006140,0.00015509,0.00044368,-0.00011
 646,-0.00223457,0.00073963,0.00016025,0.00009627,-0.00057724,-0.000482
 56,-0.00028677,-0.00003433,0.00064726,0.01277690,0.00090312,-0.0016930
 2,0.00346656,-0.00340356,-0.04711979,-0.04384104,0.00337082,-0.0155316
 4,-0.00003698,-0.00016274,-0.00011604,0.00009916,-0.00001940,-0.000029
 38,-0.00004855,-0.00000374,0.00000605,0.00001478,-0.00004421,0.0000308
 9,-0.00004633,-0.00002901,0.00003471,-0.00000571,-0.00000282,-0.000061
 90,-0.00005938,0.00004284,-0.00004790,-0.00002065,-0.00002687,0.000023
 78,-0.00001444,0.00033189,0.00001772,0.00123359,0.00040998,0.00052177,
 0.00845967,-0.00507017,0.06396702,-0.00099312,0.00138087,-0.00016753,-
 0.00044979,-0.00349392,-0.00123725,0.00071194,0.00137553,0.00071672,-0
 .00031014,0.00003145,0.00024587,-0.00010550,-0.00025313,-0.00015463,0.
 00013892,0.00013075,0.00002039,0.00007168,0.00014773,0.00012881,0.0000
 3787,-0.00001345,-0.00001206,-0.00010703,0.00003619,-0.00000201,0.0000
 9468,-0.00000246,-0.00009603,-0.00016056,-0.00014098,0.00010372,0.0001
 5974,0.00026715,-0.00006627,-0.00014726,-0.00008957,0.00030644,0.00523
 508,-0.01018385,-0.00631578,-0.09002071,0.08662950,0.04962117,0.004117
 04,-0.01203909,-0.00961829,0.00037968,-0.00004971,-0.00008623,0.000038
 55,-0.00000716,-0.00003136,-0.00005287,-0.00003893,0.00002126,0.000033
 11,0.00001206,0.00001765,-0.00005100,0.00001872,0.00003258,0.00003133,
 0.00001433,-0.00002373,-0.00002978,0.00005620,-0.00008354,-0.00009643,
 0.00006088,-0.00000014,-0.00095157,-0.00232788,0.00092837,-0.00000616,
 0.00013435,0.00012654,-0.00950615,0.02545464,0.01513966,0.09114590,0.0
 0115520,0.00344588,0.00030268,0.00192548,-0.00363377,-0.00354809,0.000
 09118,0.00068298,0.00030080,-0.00011014,0.00001776,0.00010172,-0.00001
 449,-0.00010175,-0.00008455,0.00002964,0.00004659,0.00001540,0.0000028
 3,0.00007990,0.00006907,-0.00001835,-0.00000439,0.00000376,-0.00005229
 ,-0.00006941,-0.00006254,-0.00011916,-0.00016819,0.00006936,0.00010035
 ,-0.00003884,0.00015346,-0.00022082,0.00018115,-0.00000287,0.00010445,
 0.00004716,-0.00011139,0.00595971,-0.02411124,-0.01078366,0.08150231,-
 0.22377140,-0.10376548,-0.00210460,0.00620164,0.00404362,0.00026476,0.
 00008924,0.00006068,0.00000208,-0.00001219,-0.00000987,-0.00001684,-0.
 00001565,0.00000728,0.00001759,0.00000747,0.00001283,-0.00004410,0.000
 02051,0.00001115,0.00001692,-0.00001191,0.00000970,0.00008194,-0.00001
 094,0.00006942,0.00000450,0.00005456,0.00000176,-0.00096059,-0.0030863
 1,0.00297675,-0.00000447,-0.00034424,0.00027106,-0.00068987,0.00256305
 ,0.00182418,-0.08662325,0.24089054,-0.00018796,-0.00120101,-0.00122395
 ,0.00091094,0.00257109,0.00159195,-0.00043178,-0.00148610,-0.00062230,
 0.00023159,0.00001158,-0.00010869,-0.00000279,0.00006735,0.00006189,-0
 .00002073,-0.00003205,-0.00001778,-0.00001731,-0.00005539,-0.00006694,
 -0.00003555,0.00001503,0.00006856,0.00001586,0.00022418,0.00012654,0.0
 0005382,-0.00003534,-0.00017545,-0.00016707,-0.00003467,-0.00001584,-0
 .00008589,0.00015823,0.00021013,-0.00010951,-0.00015282,0.00004727,-0.
 00498480,0.00985228,0.01018438,0.04106305,-0.09493003,-0.10615715,0.00
 944862,-0.02714144,-0.02471661,-0.00043213,-0.00004368,0.00010013,-0.0
 0001972,0.00002977,0.00001056,0.00001329,0.00000597,0.00000256,-0.0000
 0313,0.00000757,-0.00004674,0.00004403,-0.00001292,-0.00004267,0.00001
 816,0.00002269,-0.00000393,-0.00010721,0.00008531,-0.00007723,0.000047
 21,-0.00001079,0.00006809,0.00174558,0.00246572,-0.00132469,-0.0003813
 8,-0.00052968,-0.00000636,0.00017109,0.00239371,0.00251408,-0.04709629
 ,0.10709545,0.12384682,0.00004198,-0.00011510,-0.00009281,0.00004695,0
 .00027989,0.00030650,-0.00006224,-0.00002000,-0.00012560,-0.00004008,-
 0.00004264,0.00003767,-0.00025535,-0.00001139,0.00019713,0.00017749,0.
 00004720,-0.00006740,0.00013598,0.00003142,-0.00019119,0.00004487,0.00
 002456,0.00005669,-0.00017158,0.00013721,0.00057683,-0.00006532,0.0004
 9141,0.00006666,-0.00297950,-0.00096750,-0.00119091,0.00050190,-0.0002
 3662,-0.00081795,-0.00005982,-0.00068427,0.00000556,-0.00015412,0.0003
 4980,0.00079568,0.00250453,-0.00883013,-0.00474882,-0.07240099,0.06999
 141,0.04140805,-0.00002583,-0.00012022,0.00017825,0.00002069,0.0000010
 9,-0.00001634,-0.00002210,-0.00001598,0.00002128,0.00001213,0.00000575
 ,-0.00001549,-0.00001036,-0.00001149,-0.00000099,-0.00042128,-0.000193
 42,-0.00004292,-0.00001098,-0.00000930,-0.00001243,-0.00000106,-0.0000
 0617,0.00001589,0.00045303,-0.00015104,0.00012495,-0.00010010,-0.00027
 599,-0.00015111,-0.00033026,-0.00079812,-0.00052412,-0.00051461,0.0004
 5749,-0.00143653,0.06645358,0.00016300,-0.00062267,-0.00014540,-0.0004
 2740,0.00022534,0.00019998,-0.00003768,-0.00018368,-0.00002501,-0.0000
 7039,-0.00001465,-0.00003095,-0.00016298,0.00012879,0.00022252,0.00011
 676,-0.00001594,-0.00005996,0.00013853,-0.00010896,-0.00017531,0.00000
 844,0.00004638,-0.00003256,-0.00004672,0.00002323,0.00003526,0.0001691
 9,0.00035015,-0.00001771,-0.00076246,0.00056708,0.00003138,0.00000092,
 -0.00036962,-0.00027051,-0.00016687,-0.00003776,0.00029886,0.00044450,
 0.00315647,0.00180447,-0.00234128,0.00701010,0.00045470,0.05919406,-0.
 30697157,-0.14205092,-0.00014346,0.00000103,0.00010977,0.00002021,-0.0
 0001640,-0.00000619,-0.00000444,0.00002254,-0.00000360,-0.00000994,-0.
 00001658,0.00002055,0.00000007,-0.00002083,0.00001408,-0.00011294,0.00
 003472,-0.00000034,-0.00001010,-0.00000559,-0.00001403,0.00000953,-0.0
 0002995,0.00000720,0.00007375,-0.00065602,-0.00069588,-0.00016560,-0.0
 0029736,0.00004599,-0.00013507,-0.00008991,0.00003923,0.00003814,0.000
 54760,0.00215926,-0.06712821,0.32504939,-0.00040222,0.00085146,0.00036
 042,0.00156397,-0.00047109,-0.00056267,-0.00044102,-0.00012598,0.00009
 609,0.00018950,-0.00003475,-0.00006930,0.00014980,0.00020233,0.0001111
 8,-0.00014482,-0.00010284,-0.00001237,-0.00010097,-0.00009862,-0.00010
 264,-0.00001766,-0.00000965,0.00002059,-0.00004388,-0.00006065,0.00001
 944,-0.00013289,0.00018018,-0.00000621,-0.00110704,-0.00024918,-0.0004
 2516,0.00010834,-0.00007644,-0.00018495,-0.00001866,-0.00001314,0.0000
 5817,0.00029429,-0.00165486,0.00193359,0.00850169,-0.02915521,-0.01830
 297,0.03727503,-0.14720870,-0.14200010,0.00012631,0.00018501,0.0000372
 2,-0.00005708,-0.00001024,0.00002121,0.00004720,0.00002530,-0.00001214
 ,-0.00002367,0.00000346,-0.00000013,0.00001421,-0.00001122,0.00000148,
 0.00002159,0.00002877,0.00014706,0.00001783,-0.00001994,-0.00000192,0.
 00005232,-0.00004388,0.00000546,0.00029732,0.00191245,0.00001102,-0.00
 037123,-0.00012628,0.00067118,-0.00035495,-0.00003090,0.00087649,-0.00
 337070,0.00200992,-0.00530754,-0.03984102,0.15473421,0.15003904,0.0000
 7048,-0.00003904,-0.00008243,-0.00042849,0.00009372,-0.00019560,0.0001
 6262,0.00010163,-0.00000141,-0.00003448,0.00000353,0.00005037,-0.00010
 194,-0.00011303,-0.00003003,0.00008431,0.00006386,-0.00000965,0.000038
 12,0.00006230,0.00001364,-0.00003837,-0.00006079,-0.00001249,0.0002852
 4,0.00018624,-0.00027691,0.00031132,-0.00007268,-0.00039091,-0.0009932
 5,0.00212412,-0.00063564,-0.00043082,0.00003143,0.00008622,0.00000536,
 0.00015949,0.00023926,-0.00033093,0.00002852,-0.00259783,0.00637091,0.
 01036606,-0.00439277,-0.15419662,-0.14542739,0.08124266,-0.00000951,-0
 .00004044,-0.00001871,0.00000997,0.00001361,-0.00001031,-0.00002605,-0
 .00002670,0.00001905,0.00001424,0.00001911,-0.00000892,0.00000060,0.00
 002016,-0.00002523,0.00008217,0.00000120,0.00007058,-0.00015968,0.0001
 1333,0.00000633,0.00004753,0.00000672,0.00005259,-0.00008714,-0.000205
 12,0.00008667,0.00024774,0.00046804,-0.00049341,0.00027778,0.00087248,
 -0.00070277,0.00000163,-0.00022883,0.00048857,0.00504763,0.00860853,-0
 .00494425,0.15680478,0.00016829,-0.00000587,-0.00014847,-0.00034385,0.
 00000960,0.00030426,0.00023863,0.00005781,-0.00004804,-0.00007608,0.00
 001176,0.00005160,-0.00009615,-0.00005190,0.00001364,0.00008635,0.0000
 4048,-0.00001087,0.00005790,0.00001881,-0.00001451,0.00001337,-0.00000
 552,-0.00000865,-0.00006474,-0.00015240,0.00001777,-0.00013938,-0.0002
 5651,0.00022425,0.00146492,-0.00112750,0.00032613,0.00002904,0.0005231
 7,0.00022504,0.00021877,-0.00007867,-0.00046552,0.00043014,-0.00012408
 ,0.00013731,0.00067382,0.00046980,0.00154367,-0.13324289,-0.24913264,0
 .10262871,-0.00002573,-0.00003631,-0.00002465,0.00002028,0.00000111,-0
 .00000925,-0.00002293,-0.00000734,0.00000857,0.00000887,0.00000194,0.0
 0000317,-0.00000685,0.00000424,0.00000172,-0.00002413,-0.00001691,-0.0
 0000242,0.00019903,-0.00006440,-0.00000052,-0.00002601,0.00007740,-0.0
 0003117,0.00002979,0.00041969,0.00007525,-0.00024083,0.00019614,0.0001
 1935,0.00038129,0.00047843,-0.00043925,0.00017649,0.00024630,-0.000553
 53,-0.01950063,-0.02293055,0.01518763,0.14967041,0.26306976,0.00010341
 ,-0.00037773,-0.00002904,-0.00066005,0.00039394,0.00015312,0.00009783,
 -0.00011014,-0.00000615,-0.00001449,0.00001539,0.00001870,0.00009594,0
 .00006648,-0.00000113,-0.00005969,-0.00003292,0.00001105,-0.00003583,-
 0.00004413,0.00000716,0.00002597,0.00002242,-0.00001646,0.00003806,-0.
 00003047,-0.00011916,-0.00004941,0.00001740,-0.00003406,-0.00074106,0.
 00060375,-0.00030388,-0.00001812,-0.00016280,-0.00015546,-0.00005929,0
 .00011058,0.00012264,-0.00305328,-0.00168260,-0.00560596,0.01809297,0.
 02555241,-0.01325078,0.07924504,0.10855981,-0.11828288,-0.00000799,0.0
 0003864,-0.00006357,-0.00000046,-0.00001210,0.00000711,0.00001471,0.00
 001806,-0.00001010,-0.00001067,-0.00001914,0.00001679,0.00000328,-0.00
 000975,0.00001039,0.00007095,0.00003461,0.00003463,0.00004405,-0.00004
 722,0.00008159,0.00007074,-0.00002274,0.00001044,-0.00019192,-0.000324
 56,0.00037957,0.00083014,0.00132222,-0.00066864,-0.00052968,0.00039509
 ,0.00176077,0.00085398,-0.00048411,-0.00005604,-0.01251911,-0.01501623
 ,0.00989574,-0.08209527,-0.11428987,0.12379304,-0.00485732,0.00101115,
 0.00050228,0.00863481,-0.00044667,-0.00110203,-0.00424046,-0.00058911,
 -0.00080278,0.00206096,-0.00039294,-0.00024856,-0.00039471,-0.00086801
 ,-0.00038434,-0.00007960,0.00028732,-0.00006758,-0.00052189,0.00077682
 ,0.00005724,-0.00063770,-0.00127761,0.00019091,0.00152903,-0.00387713,
 -0.00354962,-0.00921255,-0.01048835,0.00487884,0.01887785,-0.01538579,
 0.00773535,-0.00443977,0.01462314,0.01234838,0.00662639,0.00243308,-0.
 01248190,0.00021022,0.00114440,0.00148195,0.00235950,0.00158276,-0.016
 50988,-0.18826829,0.02359836,-0.01006880,0.00071166,0.00005170,0.00042
 028,-0.00042855,0.00039085,0.00003153,-0.00005134,-0.00038775,0.000243
 76,0.00014845,0.00059053,-0.00042682,0.00031049,0.00046739,-0.00043779
 ,0.00160583,0.00044539,0.00069749,0.00201978,-0.00077589,0.00072080,-0
 .00045976,0.00152732,-0.00035389,-0.00035407,0.00030956,-0.00006088,-0
 .00068843,-0.00069493,0.00060917,0.00138072,-0.00049192,0.00468614,0.0
 0130553,-0.00050863,0.00126796,0.00218482,0.00273990,0.00271267,-0.013
 02516,-0.00005718,0.00045925,0.17769354,0.00121719,-0.00056645,-0.0002
 2125,-0.00225965,0.00055273,0.00101158,0.00104066,0.00006095,-0.000035
 81,-0.00066018,0.00007463,0.00016293,-0.00015472,0.00023487,0.00030500
 ,0.00019957,-0.00003793,-0.00004310,0.00027395,-0.00017624,-0.00021146
 ,0.00042892,0.00060347,0.00035761,-0.00166649,0.00000319,0.00280165,-0
 .00401611,0.00438998,0.00141596,-0.00934528,-0.01354631,-0.00359421,0.
 00624814,-0.00281663,-0.00480885,-0.00100865,-0.00287183,0.00145168,0.
 00052332,-0.00033941,-0.00027334,-0.00068363,-0.00101008,0.00329808,0.
 02726063,-0.07163050,0.00192586,-0.00018869,-0.00015493,0.00002695,0.0
 0014310,-0.00012117,-0.00002907,-0.00000718,0.00009658,-0.00004797,-0.
 00001325,-0.00015205,0.00004303,-0.00013258,-0.00024875,0.00022140,-0.
 00090859,-0.00043662,-0.00044261,-0.00034718,-0.00005835,-0.00016916,-
 0.00015263,-0.00012854,-0.00012731,0.00027828,-0.00029222,0.00001406,0
 .00006304,0.00001958,-0.00017934,-0.00019320,0.00066084,-0.00155609,-0
 .00070160,0.00025790,-0.00094577,0.02730101,-0.00477480,0.00418284,-0.
 02680045,0.00836418,-0.00448428,-0.01573775,0.08404389,-0.00025917,-0.
 00070287,0.00022074,0.00090199,0.00150457,-0.00026453,-0.00043990,-0.0
 0043210,-0.00015538,0.00027784,-0.00000484,-0.00005565,0.00005578,0.00
 017848,0.00017692,-0.00009460,-0.00008084,-0.00003511,-0.00008361,-0.0
 0005902,-0.00017286,0.00004560,-0.00029713,-0.00021903,0.00078671,0.00
 093254,-0.00051143,0.00219708,-0.00060469,-0.00177755,0.00193324,-0.00
 300052,-0.00499247,0.00369534,0.00153001,-0.00316674,0.00091722,-0.001
 53695,-0.00102575,0.00009861,0.00046086,0.00047969,-0.02887400,0.00457
 554,-0.00108839,-0.02137459,0.00404838,-0.06561844,0.00003916,0.000111
 34,0.00008020,-0.00006767,-0.00000388,0.00002484,0.00004046,0.00001025
 ,0.00000218,-0.00003112,0.00000280,-0.00000096,0.00008314,0.00008151,-
 0.00008925,-0.00006456,0.00006417,0.00027664,-0.00002341,-0.00030192,0
 .00004172,0.00039008,0.00008913,-0.00036804,0.00003706,0.00013745,-0.0
 0003471,0.00015356,-0.00010174,0.00011641,-0.00046206,0.00046019,-0.00
 528821,0.00009870,-0.00055747,0.00113696,0.01800362,-0.00163287,0.0026
 8274,0.01456860,-0.00482134,0.00230056,0.00745090,-0.00004903,0.077324
 93\\-0.00000716,0.00001267,-0.00000873,-0.00001775,-0.00000447,0.00001
 366,0.00001073,-0.00004436,0.00001584,0.00001095,0.00001427,0.00000463
 ,0.00000694,0.00000134,-0.00000093,-0.00000022,0.00000151,-0.00000147,
 0.00000153,0.00000428,-0.00000447,-0.00000508,0.00000659,-0.00002151,-
 0.00000363,0.00000335,0.00001795,-0.00000961,0.00002501,0.00000498,0.0
 0000627,-0.00000745,0.00000015,0.00000819,-0.00001100,-0.00001449,-0.0
 0000299,-0.00001330,0.00000493,0.00002229,0.00000425,0.00000297,-0.000
 02039,-0.00001004,-0.00000348,-0.00008568,0.00000456,0.00000760,-0.000
 00479,0.00000342,-0.00001383,0.00000127,0.00000350,0.00000329,-0.00000
 073,-0.00000087,0.00000115,0.00000116,0.00000492,-0.00000648,-0.000001
 67,-0.00000815,0.00000590,-0.00000313,-0.00000280,0.00000039,-0.000001
 91,0.00000066,-0.00000157,-0.00000230,-0.00000037,0.00000113,0.0000038
 4,0.00001325,0.00000249,-0.00000186,-0.00000887,-0.00000011,0.00000293
 ,0.00000228,-0.00000911,0.00000229,-0.00000547,-0.00000769,-0.00000399
 ,0.00000016,-0.00000164,-0.00000811,0.00000833,0.00000050,0.00010263,0
 .00000278,0.00000794\\\@


 DO YOU KNOW THAT THE LETTERS IN "EPISCOPAL", WHEN
 REARRANGED, SPELL "PEPSI COLA"?
 Job cpu time:       0 days  2 hours 40 minutes 14.4 seconds.
 File lengths (MBytes):  RWF=    458 Int=      0 D2E=      0 Chk=     13 Scr=      1
 Normal termination of Gaussian 09 at Sat Jul 24 03:39:49 2021.
