 Entering Gaussian System, Link 0=g09
 Input=opt_freq-conf-715.com
 Output=opt_freq-conf-715.log
 Initial command:
 /aerosol/software/g09/l1.exe "/scratch/nicole/10494/Gau-76018.inp" -scrdir="/scratch/nicole/10494/"
 Entering Link 1 = /aerosol/software/g09/l1.exe PID=     76022.
  
 Copyright (c) 1988,1990,1992,1993,1995,1998,2003,2009,2013,
            Gaussian, Inc.  All Rights Reserved.
  
 This is part of the Gaussian(R) 09 program.  It is based on
 the Gaussian(R) 03 system (copyright 2003, Gaussian, Inc.),
 the Gaussian(R) 98 system (copyright 1998, Gaussian, Inc.),
 the Gaussian(R) 94 system (copyright 1995, Gaussian, Inc.),
 the Gaussian 92(TM) system (copyright 1992, Gaussian, Inc.),
 the Gaussian 90(TM) system (copyright 1990, Gaussian, Inc.),
 the Gaussian 88(TM) system (copyright 1988, Gaussian, Inc.),
 the Gaussian 86(TM) system (copyright 1986, Carnegie Mellon
 University), and the Gaussian 82(TM) system (copyright 1983,
 Carnegie Mellon University). Gaussian is a federally registered
 trademark of Gaussian, Inc.
  
 This software contains proprietary and confidential information,
 including trade secrets, belonging to Gaussian, Inc.
  
 This software is provided under written license and may be
 used, copied, transmitted, or stored only in accord with that
 written license.
  
 The following legend is applicable only to US Government
 contracts under FAR:
  
                    RESTRICTED RIGHTS LEGEND
  
 Use, reproduction and disclosure by the US Government is
 subject to restrictions as set forth in subparagraphs (a)
 and (c) of the Commercial Computer Software - Restricted
 Rights clause in FAR 52.227-19.
  
 Gaussian, Inc.
 340 Quinnipiac St., Bldg. 40, Wallingford CT 06492
  
  
 ---------------------------------------------------------------
 Warning -- This program may not be used in any manner that
 competes with the business of Gaussian, Inc. or will provide
 assistance to any competitor of Gaussian, Inc.  The licensee
 of this program is prohibited from giving any competitor of
 Gaussian, Inc. access to this program.  By using this program,
 the user acknowledges that Gaussian, Inc. is engaged in the
 business of creating and licensing software in the field of
 computational chemistry and represents and warrants to the
 licensee that it is not a competitor of Gaussian, Inc. and that
 it will not use this program in any manner prohibited above.
 ---------------------------------------------------------------
  

 Cite this work as:
 Gaussian 09, Revision D.01,
 M. J. Frisch, G. W. Trucks, H. B. Schlegel, G. E. Scuseria, 
 M. A. Robb, J. R. Cheeseman, G. Scalmani, V. Barone, B. Mennucci, 
 G. A. Petersson, H. Nakatsuji, M. Caricato, X. Li, H. P. Hratchian, 
 A. F. Izmaylov, J. Bloino, G. Zheng, J. L. Sonnenberg, M. Hada, 
 M. Ehara, K. Toyota, R. Fukuda, J. Hasegawa, M. Ishida, T. Nakajima, 
 Y. Honda, O. Kitao, H. Nakai, T. Vreven, J. A. Montgomery, Jr., 
 J. E. Peralta, F. Ogliaro, M. Bearpark, J. J. Heyd, E. Brothers, 
 K. N. Kudin, V. N. Staroverov, T. Keith, R. Kobayashi, J. Normand, 
 K. Raghavachari, A. Rendell, J. C. Burant, S. S. Iyengar, J. Tomasi, 
 M. Cossi, N. Rega, J. M. Millam, M. Klene, J. E. Knox, J. B. Cross, 
 V. Bakken, C. Adamo, J. Jaramillo, R. Gomperts, R. E. Stratmann, 
 O. Yazyev, A. J. Austin, R. Cammi, C. Pomelli, J. W. Ochterski, 
 R. L. Martin, K. Morokuma, V. G. Zakrzewski, G. A. Voth, 
 P. Salvador, J. J. Dannenberg, S. Dapprich, A. D. Daniels, 
 O. Farkas, J. B. Foresman, J. V. Ortiz, J. Cioslowski, 
 and D. J. Fox, Gaussian, Inc., Wallingford CT, 2013.
 
 ******************************************
 Gaussian 09:  ES64L-G09RevD.01 24-Apr-2013
                24-Jul-2021 
 ******************************************
 %mem=2gb
 %nproc=4
 Will use up to    4 processors via shared memory.
 %chk=conf-715.chk
 ----------------------------------------------------------------------
 # B3LYP/6-311G(d,p) EmpiricalDispersion=GD3BJ opt=calcfc freq=noraman 
 nosymm integral(ultrafinegrid)
 ----------------------------------------------------------------------
 1/10=4,14=-1,18=20,19=15,26=4,38=1/1,3;
 2/9=110,12=2,15=1,17=6,18=5,40=1/2;
 3/5=4,6=6,7=101,11=2,16=1,25=1,30=1,71=2,74=-5,75=-5,124=41,140=1/1,2,3;
 4//1;
 5/5=2,38=5/2;
 8/6=4,10=90,11=11/1;
 11/6=1,8=1,9=11,15=111,16=1,31=1/1,2,10;
 10/6=1,13=1,31=1/2;
 6/7=2,8=2,9=2,10=2,28=1/1;
 7/10=1,18=20,25=1,30=1/1,2,3,16;
 1/10=4,14=-1,18=20,19=15,26=4/3(2);
 2/9=110,15=1/2;
 99//99;
 2/9=110,15=1/2;
 3/5=4,6=6,7=101,11=2,16=1,25=1,30=1,71=1,74=-5,75=-5,124=41/1,2,3;
 4/5=5,16=3,69=1/1;
 5/5=2,38=5/2;
 7/30=1/1,2,3,16;
 1/14=-1,18=20,19=15,26=4/3(-5);
 2/9=110,15=1/2;
 6/7=2,8=2,9=2,10=2,19=2,28=1/1;
 99/9=1/99;
 ------------------------------------------------------------
 Candidate Structure: Conf:715 OPT and FREQ calc in gas phase
 ------------------------------------------------------------
 Symbolic Z-matrix:
 Charge =  1 Multiplicity = 1
 O                    -2.0885    1.182    -0.21825 
 C                    -1.46719   0.20547   0.19926 
 N                    -0.12132   0.20757   0.28624 
 C                     0.63783   1.29466  -0.29198 
 C                     0.98029   1.0447   -1.75562 
 O                     1.23244   2.14989  -2.48335 
 O                     1.08562  -0.04757  -2.25602 
 C                     1.91546   1.5648    0.52718 
 C                     2.70196   0.33131   0.85697 
 C                     3.40428  -0.01181   1.97613 
 N                     3.95687  -1.26981   1.84035 
 C                     3.5892   -1.67166   0.64641 
 N                     2.82178  -0.74817   0.01529 
 C                    -2.16715  -1.04944   0.69628 
 C                    -3.29142  -1.47616  -0.2379 
 N                    -4.33054  -0.42348  -0.32038 
 H                     0.38118  -0.63739   0.50118 
 H                    -0.00933   2.17279  -0.24627 
 H                     1.09821   2.93528  -1.94331 
 H                     2.53317   2.28932  -0.01518 
 H                     1.6259    2.0376    1.46797 
 H                     3.54597   0.56831   2.87675 
 H                     3.83588  -2.61477   0.19139 
 H                     2.44531  -0.82716  -0.92241 
 H                    -1.44086  -1.85534   0.81604 
 H                    -2.58091  -0.82551   1.683 
 H                    -3.73537  -2.40919   0.11305 
 H                    -2.88608  -1.66138  -1.23542 
 H                    -3.83816   0.47228  -0.44803 
 H                    -4.9767   -0.56907  -1.09527 
 H                    -4.85767  -0.35807   0.54953 
 

 GradGradGradGradGradGradGradGradGradGradGradGradGradGradGradGradGradGrad
 Berny optimization.
 Initialization pass.
                           ----------------------------
                           !    Initial Parameters    !
                           ! (Angstroms and Degrees)  !
 --------------------------                            --------------------------
 ! Name  Definition              Value          Derivative Info.                !
 --------------------------------------------------------------------------------
 ! R1    R(1,2)                  1.2304         calculate D2E/DX2 analytically  !
 ! R2    R(2,3)                  1.3487         calculate D2E/DX2 analytically  !
 ! R3    R(2,14)                 1.5205         calculate D2E/DX2 analytically  !
 ! R4    R(3,4)                  1.4465         calculate D2E/DX2 analytically  !
 ! R5    R(3,17)                 1.0063         calculate D2E/DX2 analytically  !
 ! R6    R(4,5)                  1.5238         calculate D2E/DX2 analytically  !
 ! R7    R(4,8)                  1.5415         calculate D2E/DX2 analytically  !
 ! R8    R(4,18)                 1.0918         calculate D2E/DX2 analytically  !
 ! R9    R(5,6)                  1.3471         calculate D2E/DX2 analytically  !
 ! R10   R(5,7)                  1.206          calculate D2E/DX2 analytically  !
 ! R11   R(6,19)                 0.9625         calculate D2E/DX2 analytically  !
 ! R12   R(8,9)                  1.4996         calculate D2E/DX2 analytically  !
 ! R13   R(8,20)                 1.0957         calculate D2E/DX2 analytically  !
 ! R14   R(8,21)                 1.092          calculate D2E/DX2 analytically  !
 ! R15   R(9,10)                 1.3651         calculate D2E/DX2 analytically  !
 ! R16   R(9,13)                 1.3741         calculate D2E/DX2 analytically  !
 ! R17   R(10,11)                1.3807         calculate D2E/DX2 analytically  !
 ! R18   R(10,22)                1.0806         calculate D2E/DX2 analytically  !
 ! R19   R(11,12)                1.3123         calculate D2E/DX2 analytically  !
 ! R20   R(12,13)                1.3565         calculate D2E/DX2 analytically  !
 ! R21   R(12,23)                1.0758         calculate D2E/DX2 analytically  !
 ! R22   R(13,24)                1.0135         calculate D2E/DX2 analytically  !
 ! R23   R(14,15)                1.5227         calculate D2E/DX2 analytically  !
 ! R24   R(14,25)                1.0915         calculate D2E/DX2 analytically  !
 ! R25   R(14,26)                1.0932         calculate D2E/DX2 analytically  !
 ! R26   R(15,16)                1.4815         calculate D2E/DX2 analytically  !
 ! R27   R(15,27)                1.0912         calculate D2E/DX2 analytically  !
 ! R28   R(15,28)                1.0925         calculate D2E/DX2 analytically  !
 ! R29   R(16,29)                1.0301         calculate D2E/DX2 analytically  !
 ! R30   R(16,30)                1.0194         calculate D2E/DX2 analytically  !
 ! R31   R(16,31)                1.0193         calculate D2E/DX2 analytically  !
 ! A1    A(1,2,3)              121.6382         calculate D2E/DX2 analytically  !
 ! A2    A(1,2,14)             122.2423         calculate D2E/DX2 analytically  !
 ! A3    A(3,2,14)             116.0786         calculate D2E/DX2 analytically  !
 ! A4    A(2,3,4)              119.9412         calculate D2E/DX2 analytically  !
 ! A5    A(2,3,17)             120.7154         calculate D2E/DX2 analytically  !
 ! A6    A(4,3,17)             117.0225         calculate D2E/DX2 analytically  !
 ! A7    A(3,4,5)              112.2482         calculate D2E/DX2 analytically  !
 ! A8    A(3,4,8)              110.7476         calculate D2E/DX2 analytically  !
 ! A9    A(3,4,18)             106.0591         calculate D2E/DX2 analytically  !
 ! A10   A(5,4,8)              110.6642         calculate D2E/DX2 analytically  !
 ! A11   A(5,4,18)             107.7799         calculate D2E/DX2 analytically  !
 ! A12   A(8,4,18)             109.152          calculate D2E/DX2 analytically  !
 ! A13   A(4,5,6)              115.2382         calculate D2E/DX2 analytically  !
 ! A14   A(4,5,7)              124.5212         calculate D2E/DX2 analytically  !
 ! A15   A(6,5,7)              120.1687         calculate D2E/DX2 analytically  !
 ! A16   A(5,6,19)             109.8912         calculate D2E/DX2 analytically  !
 ! A17   A(4,8,9)              114.0417         calculate D2E/DX2 analytically  !
 ! A18   A(4,8,20)             108.6675         calculate D2E/DX2 analytically  !
 ! A19   A(4,8,21)             108.2948         calculate D2E/DX2 analytically  !
 ! A20   A(9,8,20)             110.9204         calculate D2E/DX2 analytically  !
 ! A21   A(9,8,21)             107.8024         calculate D2E/DX2 analytically  !
 ! A22   A(20,8,21)            106.8359         calculate D2E/DX2 analytically  !
 ! A23   A(8,9,10)             131.062          calculate D2E/DX2 analytically  !
 ! A24   A(8,9,13)             123.8635         calculate D2E/DX2 analytically  !
 ! A25   A(10,9,13)            105.0617         calculate D2E/DX2 analytically  !
 ! A26   A(9,10,11)            110.7505         calculate D2E/DX2 analytically  !
 ! A27   A(9,10,22)            128.0101         calculate D2E/DX2 analytically  !
 ! A28   A(11,10,22)           121.2392         calculate D2E/DX2 analytically  !
 ! A29   A(10,11,12)           104.8527         calculate D2E/DX2 analytically  !
 ! A30   A(11,12,13)           111.9211         calculate D2E/DX2 analytically  !
 ! A31   A(11,12,23)           126.0866         calculate D2E/DX2 analytically  !
 ! A32   A(13,12,23)           121.9891         calculate D2E/DX2 analytically  !
 ! A33   A(9,13,12)            107.4082         calculate D2E/DX2 analytically  !
 ! A34   A(9,13,24)            126.5521         calculate D2E/DX2 analytically  !
 ! A35   A(12,13,24)           125.9817         calculate D2E/DX2 analytically  !
 ! A36   A(2,14,15)            111.7551         calculate D2E/DX2 analytically  !
 ! A37   A(2,14,25)            109.8128         calculate D2E/DX2 analytically  !
 ! A38   A(2,14,26)            107.4722         calculate D2E/DX2 analytically  !
 ! A39   A(15,14,25)           110.5913         calculate D2E/DX2 analytically  !
 ! A40   A(15,14,26)           109.3721         calculate D2E/DX2 analytically  !
 ! A41   A(25,14,26)           107.7021         calculate D2E/DX2 analytically  !
 ! A42   A(14,15,16)           110.6653         calculate D2E/DX2 analytically  !
 ! A43   A(14,15,27)           110.0394         calculate D2E/DX2 analytically  !
 ! A44   A(14,15,28)           109.4941         calculate D2E/DX2 analytically  !
 ! A45   A(16,15,27)           109.8828         calculate D2E/DX2 analytically  !
 ! A46   A(16,15,28)           109.2605         calculate D2E/DX2 analytically  !
 ! A47   A(27,15,28)           107.4348         calculate D2E/DX2 analytically  !
 ! A48   A(15,16,29)           106.8291         calculate D2E/DX2 analytically  !
 ! A49   A(15,16,30)           112.6713         calculate D2E/DX2 analytically  !
 ! A50   A(15,16,31)           111.1517         calculate D2E/DX2 analytically  !
 ! A51   A(29,16,30)           109.4498         calculate D2E/DX2 analytically  !
 ! A52   A(29,16,31)           107.287          calculate D2E/DX2 analytically  !
 ! A53   A(30,16,31)           109.2757         calculate D2E/DX2 analytically  !
 ! D1    D(1,2,3,4)             -8.8925         calculate D2E/DX2 analytically  !
 ! D2    D(1,2,3,17)          -171.0822         calculate D2E/DX2 analytically  !
 ! D3    D(14,2,3,4)           173.3831         calculate D2E/DX2 analytically  !
 ! D4    D(14,2,3,17)           11.1934         calculate D2E/DX2 analytically  !
 ! D5    D(1,2,14,15)           44.9129         calculate D2E/DX2 analytically  !
 ! D6    D(1,2,14,25)          168.0241         calculate D2E/DX2 analytically  !
 ! D7    D(1,2,14,26)          -75.0887         calculate D2E/DX2 analytically  !
 ! D8    D(3,2,14,15)         -137.3777         calculate D2E/DX2 analytically  !
 ! D9    D(3,2,14,25)          -14.2664         calculate D2E/DX2 analytically  !
 ! D10   D(3,2,14,26)          102.6207         calculate D2E/DX2 analytically  !
 ! D11   D(2,3,4,5)            -88.0776         calculate D2E/DX2 analytically  !
 ! D12   D(2,3,4,8)            147.6811         calculate D2E/DX2 analytically  !
 ! D13   D(2,3,4,18)            29.379          calculate D2E/DX2 analytically  !
 ! D14   D(17,3,4,5)            74.7538         calculate D2E/DX2 analytically  !
 ! D15   D(17,3,4,8)           -49.4875         calculate D2E/DX2 analytically  !
 ! D16   D(17,3,4,18)         -167.7896         calculate D2E/DX2 analytically  !
 ! D17   D(3,4,5,6)            156.7686         calculate D2E/DX2 analytically  !
 ! D18   D(3,4,5,7)            -26.3232         calculate D2E/DX2 analytically  !
 ! D19   D(8,4,5,6)            -78.9439         calculate D2E/DX2 analytically  !
 ! D20   D(8,4,5,7)             97.9644         calculate D2E/DX2 analytically  !
 ! D21   D(18,4,5,6)            40.3419         calculate D2E/DX2 analytically  !
 ! D22   D(18,4,5,7)          -142.7499         calculate D2E/DX2 analytically  !
 ! D23   D(3,4,8,9)             47.6667         calculate D2E/DX2 analytically  !
 ! D24   D(3,4,8,20)           171.9589         calculate D2E/DX2 analytically  !
 ! D25   D(3,4,8,21)           -72.3392         calculate D2E/DX2 analytically  !
 ! D26   D(5,4,8,9)            -77.4741         calculate D2E/DX2 analytically  !
 ! D27   D(5,4,8,20)            46.8182         calculate D2E/DX2 analytically  !
 ! D28   D(5,4,8,21)           162.5201         calculate D2E/DX2 analytically  !
 ! D29   D(18,4,8,9)           164.0713         calculate D2E/DX2 analytically  !
 ! D30   D(18,4,8,20)          -71.6365         calculate D2E/DX2 analytically  !
 ! D31   D(18,4,8,21)           44.0654         calculate D2E/DX2 analytically  !
 ! D32   D(4,5,6,19)            -3.3164         calculate D2E/DX2 analytically  !
 ! D33   D(7,5,6,19)           179.6299         calculate D2E/DX2 analytically  !
 ! D34   D(4,8,9,10)          -143.0645         calculate D2E/DX2 analytically  !
 ! D35   D(4,8,9,13)            35.4293         calculate D2E/DX2 analytically  !
 ! D36   D(20,8,9,10)           93.8599         calculate D2E/DX2 analytically  !
 ! D37   D(20,8,9,13)          -87.6463         calculate D2E/DX2 analytically  !
 ! D38   D(21,8,9,10)          -22.7823         calculate D2E/DX2 analytically  !
 ! D39   D(21,8,9,13)          155.7115         calculate D2E/DX2 analytically  !
 ! D40   D(8,9,10,11)          179.0039         calculate D2E/DX2 analytically  !
 ! D41   D(8,9,10,22)           -0.8137         calculate D2E/DX2 analytically  !
 ! D42   D(13,9,10,11)           0.299          calculate D2E/DX2 analytically  !
 ! D43   D(13,9,10,22)        -179.5186         calculate D2E/DX2 analytically  !
 ! D44   D(8,9,13,12)         -179.4715         calculate D2E/DX2 analytically  !
 ! D45   D(8,9,13,24)            3.1788         calculate D2E/DX2 analytically  !
 ! D46   D(10,9,13,12)          -0.6475         calculate D2E/DX2 analytically  !
 ! D47   D(10,9,13,24)        -177.9972         calculate D2E/DX2 analytically  !
 ! D48   D(9,10,11,12)           0.1762         calculate D2E/DX2 analytically  !
 ! D49   D(22,10,11,12)       -179.9919         calculate D2E/DX2 analytically  !
 ! D50   D(10,11,12,13)         -0.6066         calculate D2E/DX2 analytically  !
 ! D51   D(10,11,12,23)       -179.9715         calculate D2E/DX2 analytically  !
 ! D52   D(11,12,13,9)           0.8136         calculate D2E/DX2 analytically  !
 ! D53   D(11,12,13,24)        178.1827         calculate D2E/DX2 analytically  !
 ! D54   D(23,12,13,9)        -179.7915         calculate D2E/DX2 analytically  !
 ! D55   D(23,12,13,24)         -2.4224         calculate D2E/DX2 analytically  !
 ! D56   D(2,14,15,16)         -61.657          calculate D2E/DX2 analytically  !
 ! D57   D(2,14,15,27)         176.7094         calculate D2E/DX2 analytically  !
 ! D58   D(2,14,15,28)          58.8408         calculate D2E/DX2 analytically  !
 ! D59   D(25,14,15,16)        175.6747         calculate D2E/DX2 analytically  !
 ! D60   D(25,14,15,27)         54.0411         calculate D2E/DX2 analytically  !
 ! D61   D(25,14,15,28)        -63.8274         calculate D2E/DX2 analytically  !
 ! D62   D(26,14,15,16)         57.2232         calculate D2E/DX2 analytically  !
 ! D63   D(26,14,15,27)        -64.4103         calculate D2E/DX2 analytically  !
 ! D64   D(26,14,15,28)        177.7211         calculate D2E/DX2 analytically  !
 ! D65   D(14,15,16,29)         45.9451         calculate D2E/DX2 analytically  !
 ! D66   D(14,15,16,30)        166.1675         calculate D2E/DX2 analytically  !
 ! D67   D(14,15,16,31)        -70.7928         calculate D2E/DX2 analytically  !
 ! D68   D(27,15,16,29)        167.6708         calculate D2E/DX2 analytically  !
 ! D69   D(27,15,16,30)        -72.1068         calculate D2E/DX2 analytically  !
 ! D70   D(27,15,16,31)         50.9329         calculate D2E/DX2 analytically  !
 ! D71   D(28,15,16,29)        -74.6919         calculate D2E/DX2 analytically  !
 ! D72   D(28,15,16,30)         45.5305         calculate D2E/DX2 analytically  !
 ! D73   D(28,15,16,31)        168.5702         calculate D2E/DX2 analytically  !
 --------------------------------------------------------------------------------
 Trust Radius=3.00D-01 FncErr=1.00D-07 GrdErr=1.00D-06
 Number of steps in this run=    167 maximum allowed number of steps=    186.
 GradGradGradGradGradGradGradGradGradGradGradGradGradGradGradGradGradGrad

                          Input orientation:                          
 ---------------------------------------------------------------------
 Center     Atomic      Atomic             Coordinates (Angstroms)
 Number     Number       Type             X           Y           Z
 ---------------------------------------------------------------------
      1          8           0       -2.088503    1.182001   -0.218250
      2          6           0       -1.467191    0.205474    0.199256
      3          7           0       -0.121320    0.207573    0.286237
      4          6           0        0.637831    1.294657   -0.291983
      5          6           0        0.980290    1.044701   -1.755619
      6          8           0        1.232437    2.149894   -2.483347
      7          8           0        1.085624   -0.047571   -2.256015
      8          6           0        1.915465    1.564801    0.527178
      9          6           0        2.701962    0.331315    0.856973
     10          6           0        3.404279   -0.011806    1.976126
     11          7           0        3.956873   -1.269812    1.840347
     12          6           0        3.589197   -1.671656    0.646407
     13          7           0        2.821779   -0.748170    0.015291
     14          6           0       -2.167146   -1.049439    0.696276
     15          6           0       -3.291419   -1.476156   -0.237902
     16          7           0       -4.330544   -0.423485   -0.320382
     17          1           0        0.381180   -0.637395    0.501180
     18          1           0       -0.009331    2.172793   -0.246272
     19          1           0        1.098213    2.935276   -1.943309
     20          1           0        2.533171    2.289324   -0.015180
     21          1           0        1.625897    2.037598    1.467968
     22          1           0        3.545970    0.568313    2.876746
     23          1           0        3.835878   -2.614765    0.191386
     24          1           0        2.445311   -0.827160   -0.922414
     25          1           0       -1.440857   -1.855343    0.816045
     26          1           0       -2.580910   -0.825509    1.683004
     27          1           0       -3.735367   -2.409192    0.113052
     28          1           0       -2.886078   -1.661376   -1.235420
     29          1           0       -3.838156    0.472280   -0.448030
     30          1           0       -4.976697   -0.569074   -1.095267
     31          1           0       -4.857675   -0.358075    0.549529
 ---------------------------------------------------------------------
                    Distance matrix (angstroms):
                    1          2          3          4          5
     1  O    0.000000
     2  C    1.230425   0.000000
     3  N    2.252516   1.348680   0.000000
     4  C    2.729657   2.420487   1.446514   0.000000
     5  C    3.435090   3.242838   2.466476   1.523806   0.000000
     6  O    4.134746   4.273771   3.643606   2.426327   1.347078
     7  O    3.967293   3.550951   2.825749   2.420644   1.206047
     8  C    4.090716   3.660281   2.459393   1.541541   2.521154
     9  C    4.982803   4.222590   2.883049   2.551228   3.209160
    10  C    6.034163   5.189961   3.915827   3.808464   4.573604
    11  N    6.840744   5.855776   4.607557   4.705249   5.210372
    12  C    6.413055   5.412081   4.174825   4.288374   4.467071
    13  N    5.281191   4.397561   3.106234   3.006192   3.121152
    14  C    2.412854   1.520451   2.435901   3.786732   4.505947
    15  C    2.917737   2.519285   3.627560   4.808258   5.187069
    16  N    2.759486   2.977315   4.299277   5.257145   5.693894
    17  H    3.150733   2.053792   1.006318   2.104234   2.877762
    18  H    2.303348   2.488814   2.039166   1.091802   2.128396
    19  H    4.025538   4.315518   3.728069   2.372858   1.903525
    20  H    4.756814   4.515674   3.386867   2.158308   2.643796
    21  H    4.167990   3.812283   2.792534   2.150735   3.434263
    22  H    6.457778   5.694944   4.504430   4.361845   5.316809
    23  H    7.048512   6.006359   4.861481   5.073926   5.033577
    24  H    5.008797   4.199066   3.019786   2.857715   2.518805
    25  H    3.273327   2.151299   2.505493   3.933341   4.570083
    26  H    2.808439   2.122452   3.011279   4.330817   5.291877
    27  H    3.964668   3.462446   4.465287   5.745208   6.136671
    28  H    3.123388   2.748939   3.667737   4.695333   4.747869
    29  H    1.902049   2.472174   3.797906   4.553584   5.025423
    30  H    3.489568   3.819993   5.107486   5.970066   6.206933
    31  H    3.260311   3.454802   4.777273   5.800022   6.431432
                    6          7          8          9         10
     6  O    0.000000
     7  O    2.214066   0.000000
     8  C    3.141993   3.321828   0.000000
     9  C    4.077311   3.528002   1.499610   0.000000
    10  C    5.410799   4.825812   2.608008   1.365095   0.000000
    11  N    6.149086   5.149575   3.731861   2.259520   1.380715
    12  C    5.473018   4.162882   3.645580   2.200777   2.134819
    13  N    4.143425   2.943451   2.536388   1.374071   2.174032
    14  C    5.648265   4.505582   4.850830   5.063647   5.809947
    15  C    6.217358   5.027140   6.078191   6.355023   7.202682
    16  N    6.499804   5.763927   6.609407   7.170218   8.079042
    17  H    4.171452   2.906245   2.684095   2.539885   3.421397
    18  H    2.558714   3.188732   2.161647   3.458222   4.622149
    19  H    0.962539   2.999219   2.940987   4.146589   5.418967
    20  H    2.793420   3.546522   1.095741   2.150103   3.165332
    21  H    3.972443   4.302078   1.092004   2.107755   2.760602
    22  H    6.048506   5.725195   3.028532   2.201818   1.080615
    23  H    6.052609   4.488224   4.611888   3.226168   3.185431
    24  H    3.573573   2.057912   2.846670   2.138727   3.160057
    25  H    5.837329   4.369061   4.800596   4.684666   5.312228
    26  H    6.383817   5.437328   5.221772   5.470769   6.047357
    27  H    7.225346   5.867852   6.920695   7.035837   7.758418
    28  H    5.748501   4.406858   6.047295   6.290876   7.252842
    29  H    5.715577   5.270926   5.937069   6.670536   7.652696
    30  H    6.919024   6.194435   7.395109   7.973941   8.943420
    31  H    7.251048   6.579535   7.040835   7.597229   8.391362
                   11         12         13         14         15
    11  N    0.000000
    12  C    1.312310   0.000000
    13  N    2.211646   1.356490   0.000000
    14  C    6.233865   5.790089   5.044193   0.000000
    15  C    7.543171   6.939965   6.161596   1.522749   0.000000
    16  N    8.606177   8.075575   7.167553   2.470972   1.481452
    17  H    3.870258   3.373746   2.490960   2.588785   3.838978
    18  H    5.651219   5.340980   4.076227   3.990907   4.907851
    19  H    6.338039   5.842555   4.513819   5.788603   6.452752
    20  H    4.258797   4.152379   3.051326   5.809173   6.939330
    21  H    4.063382   4.276456   3.361682   4.951008   6.279845
    22  H    2.149806   3.161288   3.231951   6.325446   7.786577
    23  H    2.131340   1.075802   2.131568   6.224263   7.230427
    24  H    3.180189   2.117274   1.013537   4.893295   5.813762
    25  H    5.525172   5.036265   4.476282   1.091478   2.163139
    26  H    6.554752   6.313535   5.654759   1.093151   2.148964
    27  H    7.965694   7.380899   6.764962   2.156014   1.091245
    28  H    7.512632   6.743187   5.914208   2.150065   1.092543
    29  H    8.308672   7.807678   6.786671   2.533247   2.034570
    30  H    9.429609   8.810429   7.879190   3.366593   2.097148
    31  H    8.955094   8.548949   7.707892   2.781809   2.079257
                   16         17         18         19         20
    16  N    0.000000
    17  H    4.787595   0.000000
    18  H    5.041729   2.933997   0.000000
    19  H    6.586847   4.387896   2.165172   0.000000
    20  H    7.386682   3.669247   2.555641   2.488782   0.000000
    21  H    6.688371   3.104768   2.372944   3.566663   1.756770
    22  H    8.558315   4.136779   4.996775   5.901436   3.514382
    23  H    8.470776   3.992606   6.156126   6.546348   5.078366
    24  H    6.814515   2.514611   3.934737   4.124660   3.247040
    25  H    3.419353   2.214127   4.404959   6.083661   5.801905
    26  H    2.690055   3.194695   4.396014   6.389804   6.224134
    27  H    2.117814   4.498430   5.916675   7.493694   7.834990
    28  H    2.110960   3.839179   4.894379   6.124123   6.816545
    29  H    1.030113   4.464883   4.194324   5.715763   6.639490
    30  H    1.019390   5.591078   5.737015   7.064288   8.107721
    31  H    1.019260   5.246519   5.526755   7.247965   7.870973
                   21         22         23         24         25
    21  H    0.000000
    22  H    2.798238   0.000000
    23  H    5.306426   4.174589   0.000000
    24  H    3.819974   4.194331   2.523838   0.000000
    25  H    4.998497   5.915153   5.367573   4.379692   0.000000
    26  H    5.093216   6.395813   6.826531   5.661370   1.764058
    27  H    7.095977   8.337950   7.574440   6.463420   2.462869
    28  H    6.430290   7.953155   6.937537   5.405331   2.516903
    29  H    5.998095   8.098684   8.296354   6.433938   3.572501
    30  H    7.547128   9.471345   9.137931   7.428505   4.220162
    31  H    6.972767   8.769001   8.988813   7.464601   3.739985
                   26         27         28         29         30
    26  H    0.000000
    27  H    2.511090   0.000000
    28  H    3.051066   1.760369   0.000000
    29  H    2.793963   2.937390   2.465547   0.000000
    30  H    3.677545   2.527246   2.362933   1.673202   0.000000
    31  H    2.585907   2.378481   2.961728   1.650464   1.662540
                   31
    31  H    0.000000
 Symmetry turned off by external request.
 Stoichiometry    C9H15N4O3(1+)
 Framework group  C1[X(C9H15N4O3)]
 Deg. of freedom    87
 Full point group                 C1      NOp   1
 Rotational constants (GHZ):      0.7862783      0.3062208      0.2589168
 Standard basis: 6-311G(d,p) (5D, 7F)
   378 basis functions,   632 primitive gaussians,   394 cartesian basis functions
    60 alpha electrons       60 beta electrons
       nuclear repulsion energy      1154.5710476958 Hartrees.
 NAtoms=   31 NActive=   31 NUniq=   31 SFac= 1.00D+00 NAtFMM=   60 NAOKFM=F Big=F
 Integral buffers will be    131072 words long.
 Raffenetti 2 integral format.
 Two-electron integral symmetry is turned off.
 Nuclear repulsion after empirical dispersion term =     1154.5137904666 Hartrees.
 One-electron integrals computed using PRISM.
 NBasis=   378 RedAO= T EigKep=  5.36D-04  NBF=   378
 NBsUse=   378 1.00D-06 EigRej= -1.00D+00 NBFU=   378
 ExpMin= 1.03D-01 ExpMax= 8.59D+03 ExpMxC= 1.30D+03 IAcc=3 IRadAn=         5 AccDes= 0.00D+00
 Harris functional with IExCor=  402 and IRadAn=       5 diagonalized for initial guess.
 HarFok:  IExCor=  402 AccDes= 0.00D+00 IRadAn=         5 IDoV= 1 UseB2=F ITyADJ=14
 ICtDFT=  3500011 ScaDFX=  1.000000  1.000000  1.000000  1.000000
 FoFCou: FMM=F IPFlag=           0 FMFlag=      100000 FMFlg1=           0
         NFxFlg=           0 DoJE=T BraDBF=F KetDBF=T FulRan=T
         wScrn=  0.000000 ICntrl=     500 IOpCl=  0 I1Cent=   200000004 NGrid=           0
         NMat0=    1 NMatS0=      1 NMatT0=    0 NMatD0=    1 NMtDS0=    0 NMtDT0=    0
 Symmetry not used in FoFCou.
 Requested convergence on RMS density matrix=1.00D-08 within 128 cycles.
 Requested convergence on MAX density matrix=1.00D-06.
 Requested convergence on             energy=1.00D-06.
 No special actions if energy rises.
 Integral accuracy reduced to 1.0D-05 until final iterations.
 Initial convergence to 1.0D-05 achieved.  Increase integral accuracy.
 SCF Done:  E(RB3LYP) =  -796.737032191     A.U. after   14 cycles
            NFock= 14  Conv=0.62D-08     -V/T= 2.0034
 DoSCS=F DFT=T ScalE2(SS,OS)=  1.000000  1.000000
 Range of M.O.s used for correlation:     1   378
 NBasis=   378 NAE=    60 NBE=    60 NFC=     0 NFV=     0
 NROrb=    378 NOA=    60 NOB=    60 NVA=   318 NVB=   318
 Symmetrizing basis deriv contribution to polar:
 IMax=3 JMax=2 DiffMx= 0.00D+00
 G2DrvN: will do    32 centers at a time, making    1 passes.
 Calling FoFCou, ICntrl=  3107 FMM=F I1Cent=   0 AccDes= 0.00D+00.
 End of G2Drv F.D. properties file   721 does not exist.
 End of G2Drv F.D. properties file   722 does not exist.
 End of G2Drv F.D. properties file   788 does not exist.
          IDoAtm=1111111111111111111111111111111
          Differentiating once with respect to nuclear coordinates.
          There are    96 degrees of freedom in the 1st order CPHF.  IDoFFX=6 NUNeed=     0.
     90 vectors produced by pass  0 Test12= 1.99D-14 1.04D-09 XBig12= 1.97D-01 9.36D-02.
 AX will form    90 AO Fock derivatives at one time.
     90 vectors produced by pass  1 Test12= 1.99D-14 1.04D-09 XBig12= 2.59D-02 2.67D-02.
     90 vectors produced by pass  2 Test12= 1.99D-14 1.04D-09 XBig12= 2.71D-04 2.71D-03.
     90 vectors produced by pass  3 Test12= 1.99D-14 1.04D-09 XBig12= 1.05D-06 1.25D-04.
     90 vectors produced by pass  4 Test12= 1.99D-14 1.04D-09 XBig12= 1.99D-09 3.69D-06.
     81 vectors produced by pass  5 Test12= 1.99D-14 1.04D-09 XBig12= 2.78D-12 1.55D-07.
     24 vectors produced by pass  6 Test12= 1.99D-14 1.04D-09 XBig12= 2.72D-15 6.08D-09.
      1 vectors produced by pass  7 Test12= 1.99D-14 1.04D-09 XBig12= 1.37D-16 1.05D-09.
 InvSVY:  IOpt=1 It=  1 EMax= 6.66D-16
 Solved reduced A of dimension   556 with    96 vectors.
 End of Minotr F.D. properties file   721 does not exist.
 End of Minotr F.D. properties file   722 does not exist.
 End of Minotr F.D. properties file   788 does not exist.

 **********************************************************************

            Population analysis using the SCF density.

 **********************************************************************

 Alpha  occ. eigenvalues --  -19.29262 -19.26051 -19.23630 -14.62013 -14.49657
 Alpha  occ. eigenvalues --  -14.45663 -14.37355 -10.44337 -10.43431 -10.42082
 Alpha  occ. eigenvalues --  -10.36767 -10.36683 -10.31466 -10.30750 -10.30005
 Alpha  occ. eigenvalues --  -10.26941  -1.23693  -1.21966  -1.19632  -1.15603
 Alpha  occ. eigenvalues --   -1.11316  -1.09168  -0.97928  -0.96377  -0.92914
 Alpha  occ. eigenvalues --   -0.86656  -0.84301  -0.78836  -0.78227  -0.78159
 Alpha  occ. eigenvalues --   -0.75702  -0.74490  -0.71305  -0.70018  -0.69352
 Alpha  occ. eigenvalues --   -0.68548  -0.66121  -0.65107  -0.62276  -0.61276
 Alpha  occ. eigenvalues --   -0.59608  -0.58844  -0.58154  -0.57607  -0.56699
 Alpha  occ. eigenvalues --   -0.55399  -0.55017  -0.53998  -0.52437  -0.51291
 Alpha  occ. eigenvalues --   -0.50466  -0.50044  -0.49551  -0.45069  -0.44040
 Alpha  occ. eigenvalues --   -0.43076  -0.40531  -0.37451  -0.35438  -0.32336
 Alpha virt. eigenvalues --   -0.17142  -0.15183  -0.13276  -0.11731  -0.10671
 Alpha virt. eigenvalues --   -0.09605  -0.08357  -0.06936  -0.06297  -0.05985
 Alpha virt. eigenvalues --   -0.04320  -0.03781  -0.02905  -0.02521  -0.01500
 Alpha virt. eigenvalues --   -0.00737   0.00109   0.00584   0.01659   0.02773
 Alpha virt. eigenvalues --    0.03466   0.04982   0.06070   0.06452   0.08842
 Alpha virt. eigenvalues --    0.09905   0.10791   0.10938   0.12260   0.13221
 Alpha virt. eigenvalues --    0.13915   0.14711   0.16319   0.16854   0.18715
 Alpha virt. eigenvalues --    0.19709   0.20663   0.23170   0.23646   0.24666
 Alpha virt. eigenvalues --    0.25297   0.25416   0.25732   0.27599   0.28952
 Alpha virt. eigenvalues --    0.29192   0.29698   0.30483   0.32497   0.33308
 Alpha virt. eigenvalues --    0.34085   0.34629   0.35427   0.37051   0.37899
 Alpha virt. eigenvalues --    0.38237   0.38701   0.38928   0.39484   0.40466
 Alpha virt. eigenvalues --    0.41723   0.42213   0.43140   0.44650   0.45091
 Alpha virt. eigenvalues --    0.45772   0.47030   0.47201   0.47610   0.48000
 Alpha virt. eigenvalues --    0.48573   0.49117   0.51312   0.51752   0.52730
 Alpha virt. eigenvalues --    0.53176   0.53790   0.54953   0.55445   0.57163
 Alpha virt. eigenvalues --    0.58138   0.60566   0.61964   0.63179   0.63836
 Alpha virt. eigenvalues --    0.64446   0.66617   0.69236   0.69667   0.70442
 Alpha virt. eigenvalues --    0.70761   0.72376   0.73626   0.76507   0.76647
 Alpha virt. eigenvalues --    0.78765   0.79607   0.80916   0.83440   0.84561
 Alpha virt. eigenvalues --    0.86046   0.88672   0.89816   0.90589   0.92137
 Alpha virt. eigenvalues --    0.92561   0.95858   0.97550   0.99712   1.00987
 Alpha virt. eigenvalues --    1.01592   1.03156   1.04933   1.07495   1.08118
 Alpha virt. eigenvalues --    1.10582   1.11168   1.12131   1.12656   1.13741
 Alpha virt. eigenvalues --    1.16821   1.17708   1.19169   1.20516   1.23432
 Alpha virt. eigenvalues --    1.23509   1.24766   1.26500   1.27370   1.28392
 Alpha virt. eigenvalues --    1.30252   1.30940   1.32982   1.33580   1.35460
 Alpha virt. eigenvalues --    1.36668   1.39282   1.40423   1.41177   1.43102
 Alpha virt. eigenvalues --    1.43226   1.45223   1.46181   1.47516   1.48029
 Alpha virt. eigenvalues --    1.48544   1.49293   1.49554   1.50642   1.51640
 Alpha virt. eigenvalues --    1.52222   1.52576   1.54795   1.56022   1.56943
 Alpha virt. eigenvalues --    1.58941   1.59101   1.59910   1.60803   1.61446
 Alpha virt. eigenvalues --    1.62826   1.64176   1.65543   1.65826   1.67176
 Alpha virt. eigenvalues --    1.68147   1.70460   1.71267   1.74042   1.75760
 Alpha virt. eigenvalues --    1.76993   1.78978   1.79297   1.81093   1.83826
 Alpha virt. eigenvalues --    1.84989   1.87888   1.89074   1.89930   1.92092
 Alpha virt. eigenvalues --    1.94166   1.94725   1.97762   1.99337   2.01037
 Alpha virt. eigenvalues --    2.01422   2.02579   2.06473   2.07292   2.08053
 Alpha virt. eigenvalues --    2.09907   2.13855   2.15385   2.15770   2.16849
 Alpha virt. eigenvalues --    2.18125   2.18968   2.22334   2.23760   2.24952
 Alpha virt. eigenvalues --    2.28715   2.28894   2.31776   2.35095   2.36142
 Alpha virt. eigenvalues --    2.36918   2.38508   2.39619   2.39930   2.41370
 Alpha virt. eigenvalues --    2.43912   2.44814   2.46088   2.47246   2.47683
 Alpha virt. eigenvalues --    2.48337   2.49246   2.50342   2.51336   2.53197
 Alpha virt. eigenvalues --    2.54604   2.54817   2.55165   2.58168   2.58630
 Alpha virt. eigenvalues --    2.60410   2.61509   2.62455   2.63971   2.68155
 Alpha virt. eigenvalues --    2.69672   2.71323   2.71466   2.73187   2.73578
 Alpha virt. eigenvalues --    2.75689   2.76603   2.77322   2.77686   2.78553
 Alpha virt. eigenvalues --    2.80497   2.80950   2.85394   2.85888   2.87828
 Alpha virt. eigenvalues --    2.88595   2.92480   2.93062   2.96149   2.97184
 Alpha virt. eigenvalues --    3.00229   3.05342   3.05743   3.08109   3.13829
 Alpha virt. eigenvalues --    3.16818   3.19475   3.21777   3.23128   3.24354
 Alpha virt. eigenvalues --    3.29886   3.37171   3.39468   3.41760   3.45551
 Alpha virt. eigenvalues --    3.48831   3.52251   3.56389   3.58562   3.58898
 Alpha virt. eigenvalues --    3.63495   3.65171   3.67743   3.71280   3.72894
 Alpha virt. eigenvalues --    3.73861   3.75659   3.77848   3.80777   3.91152
 Alpha virt. eigenvalues --    3.95463   4.03175   4.05423   4.20902   4.33224
 Alpha virt. eigenvalues --    4.45480   4.47678   4.58700   4.66855   4.69156
 Alpha virt. eigenvalues --    4.71236   4.76993   4.80640   4.81672   4.88385
 Alpha virt. eigenvalues --    4.94689   5.02296   5.15890   5.16558   5.40791
 Alpha virt. eigenvalues --    5.53023   5.67828  23.59015  23.61298  23.62991
 Alpha virt. eigenvalues --   23.65708  23.67267  23.70265  23.80137  23.83872
 Alpha virt. eigenvalues --   24.05842  35.30469  35.43250  35.44912  35.60356
 Alpha virt. eigenvalues --   49.72739  49.84124  49.89016
          Condensed to atoms (all electrons):
               1          2          3          4          5          6
     1  O    7.976794   0.552752  -0.094511  -0.009179   0.002138  -0.000066
     2  C    0.552752   4.548344   0.400160  -0.083912   0.000332  -0.000034
     3  N   -0.094511   0.400160   6.652485   0.203352  -0.047039   0.003646
     4  C   -0.009179  -0.083912   0.203352   5.535218   0.251534  -0.093015
     5  C    0.002138   0.000332  -0.047039   0.251534   4.539759   0.353644
     6  O   -0.000066  -0.000034   0.003646  -0.093015   0.353644   7.740256
     7  O   -0.000132   0.004863   0.006450  -0.103726   0.613165  -0.068436
     8  C    0.000195   0.007976  -0.042173   0.314695  -0.069042   0.003814
     9  C   -0.000062  -0.000638  -0.007452  -0.067372  -0.006403  -0.001457
    10  C    0.000000  -0.000048   0.000270  -0.000211  -0.000144  -0.000024
    11  N    0.000000  -0.000002   0.000007  -0.000259  -0.000009   0.000000
    12  C    0.000000  -0.000037  -0.000066  -0.000085   0.000281   0.000000
    13  N   -0.000001   0.000033  -0.006616   0.002002  -0.000973   0.000132
    14  C   -0.082284   0.298389  -0.065120   0.008746  -0.001075  -0.000003
    15  C    0.009572  -0.057564  -0.001438  -0.000272   0.000188  -0.000001
    16  N   -0.032560  -0.003318  -0.000110  -0.000004  -0.000004   0.000000
    17  H    0.002181  -0.022969   0.362665  -0.035478  -0.000757   0.000227
    18  H    0.025831  -0.012913  -0.027935   0.388085  -0.034152   0.002839
    19  H   -0.000252  -0.000160   0.000173   0.009398  -0.035418   0.310465
    20  H   -0.000017   0.000098   0.005932  -0.054754  -0.004316   0.007178
    21  H   -0.000079   0.000027   0.003072  -0.029850   0.006253  -0.000201
    22  H    0.000000  -0.000003   0.000016  -0.000075   0.000003   0.000000
    23  H    0.000000  -0.000001  -0.000005   0.000014   0.000024   0.000000
    24  H    0.000000   0.000144   0.001709  -0.000437  -0.005830   0.000279
    25  H    0.003118  -0.024042   0.003031  -0.000215  -0.000018   0.000001
    26  H    0.001989  -0.034118  -0.001211  -0.000495  -0.000028   0.000000
    27  H    0.000045   0.006707  -0.000238   0.000021   0.000000   0.000000
    28  H    0.000887  -0.004518   0.000769  -0.000222   0.000109   0.000001
    29  H    0.073807  -0.004112   0.002292   0.000118  -0.000011   0.000001
    30  H    0.000410  -0.000169   0.000004  -0.000002   0.000001   0.000000
    31  H    0.001581  -0.000186   0.000038  -0.000006   0.000000   0.000000
               7          8          9         10         11         12
     1  O   -0.000132   0.000195  -0.000062   0.000000   0.000000   0.000000
     2  C    0.004863   0.007976  -0.000638  -0.000048  -0.000002  -0.000037
     3  N    0.006450  -0.042173  -0.007452   0.000270   0.000007  -0.000066
     4  C   -0.103726   0.314695  -0.067372  -0.000211  -0.000259  -0.000085
     5  C    0.613165  -0.069042  -0.006403  -0.000144  -0.000009   0.000281
     6  O   -0.068436   0.003814  -0.001457  -0.000024   0.000000   0.000000
     7  O    7.847500  -0.001953   0.002581   0.000162  -0.000008   0.000047
     8  C   -0.001953   4.907419   0.272817  -0.019838   0.006662   0.006622
     9  C    0.002581   0.272817   5.275722   0.532104  -0.093350  -0.134201
    10  C    0.000162  -0.019838   0.532104   4.843777   0.509449  -0.169323
    11  N   -0.000008   0.006662  -0.093350   0.509449   6.405964   0.579206
    12  C    0.000047   0.006622  -0.134201  -0.169323   0.579206   4.744640
    13  N   -0.012295  -0.057327   0.361891  -0.077844  -0.087318   0.414445
    14  C   -0.000145  -0.000102  -0.000056  -0.000008   0.000000  -0.000005
    15  C   -0.000006  -0.000004   0.000000   0.000000   0.000000   0.000000
    16  N    0.000000   0.000000   0.000000   0.000000   0.000000   0.000000
    17  H    0.006520  -0.010704   0.005623  -0.001852  -0.000632   0.000665
    18  H    0.003373  -0.028126   0.007146   0.000216   0.000006   0.000038
    19  H    0.004005  -0.000946   0.000038  -0.000002   0.000000   0.000003
    20  H   -0.000637   0.407717  -0.038648  -0.007759   0.000029   0.000274
    21  H   -0.000341   0.410636  -0.040957  -0.003251   0.000189  -0.000202
    22  H    0.000003   0.000497  -0.056285   0.428348  -0.023470   0.008128
    23  H   -0.000072  -0.000372   0.004349   0.006116  -0.021971   0.416877
    24  H    0.035707  -0.000096  -0.033423   0.008397   0.004757  -0.018510
    25  H   -0.000025  -0.000023  -0.000020   0.000030   0.000007   0.000034
    26  H    0.000002   0.000056   0.000001   0.000004   0.000000  -0.000001
    27  H    0.000000   0.000000   0.000000   0.000000   0.000000   0.000000
    28  H    0.000240   0.000008  -0.000003   0.000000   0.000000   0.000000
    29  H    0.000001   0.000002   0.000001   0.000000   0.000000   0.000000
    30  H    0.000000   0.000000   0.000000   0.000000   0.000000   0.000000
    31  H    0.000000   0.000000   0.000000   0.000000   0.000000   0.000000
              13         14         15         16         17         18
     1  O   -0.000001  -0.082284   0.009572  -0.032560   0.002181   0.025831
     2  C    0.000033   0.298389  -0.057564  -0.003318  -0.022969  -0.012913
     3  N   -0.006616  -0.065120  -0.001438  -0.000110   0.362665  -0.027935
     4  C    0.002002   0.008746  -0.000272  -0.000004  -0.035478   0.388085
     5  C   -0.000973  -0.001075   0.000188  -0.000004  -0.000757  -0.034152
     6  O    0.000132  -0.000003  -0.000001   0.000000   0.000227   0.002839
     7  O   -0.012295  -0.000145  -0.000006   0.000000   0.006520   0.003373
     8  C   -0.057327  -0.000102  -0.000004   0.000000  -0.010704  -0.028126
     9  C    0.361891  -0.000056   0.000000   0.000000   0.005623   0.007146
    10  C   -0.077844  -0.000008   0.000000   0.000000  -0.001852   0.000216
    11  N   -0.087318   0.000000   0.000000   0.000000  -0.000632   0.000006
    12  C    0.414445  -0.000005   0.000000   0.000000   0.000665   0.000038
    13  N    6.520294  -0.000035   0.000000   0.000000   0.016733  -0.000102
    14  C   -0.000035   5.139291   0.310053  -0.037645  -0.004087   0.002984
    15  C    0.000000   0.310053   5.008579   0.223608   0.000264  -0.000258
    16  N    0.000000  -0.037645   0.223608   6.165411   0.000016   0.000041
    17  H    0.016733  -0.004087   0.000264   0.000016   0.417465   0.005659
    18  H   -0.000102   0.002984  -0.000258   0.000041   0.005659   0.500619
    19  H    0.000008  -0.000010   0.000001   0.000000  -0.000066   0.001849
    20  H    0.001136   0.000026   0.000000   0.000000   0.000601  -0.001547
    21  H    0.003576  -0.000021   0.000008   0.000000  -0.001158  -0.013001
    22  H    0.003962   0.000000   0.000000   0.000000   0.000047   0.000016
    23  H   -0.037192   0.000000   0.000000   0.000000  -0.000016  -0.000001
    24  H    0.338299   0.000019  -0.000010   0.000000   0.000401   0.000346
    25  H   -0.000085   0.391435  -0.027690   0.003770   0.003116  -0.000212
    26  H   -0.000003   0.401908  -0.044502  -0.002137   0.000188   0.000013
    27  H    0.000000  -0.035782   0.420102  -0.024999  -0.000034   0.000002
    28  H    0.000000  -0.029775   0.397689  -0.023187   0.000140  -0.000021
    29  H    0.000000  -0.015982  -0.027601   0.317677  -0.000153  -0.000068
    30  H    0.000000   0.005624  -0.022258   0.356807   0.000001  -0.000005
    31  H    0.000000  -0.000968  -0.029386   0.357079   0.000004  -0.000008
              19         20         21         22         23         24
     1  O   -0.000252  -0.000017  -0.000079   0.000000   0.000000   0.000000
     2  C   -0.000160   0.000098   0.000027  -0.000003  -0.000001   0.000144
     3  N    0.000173   0.005932   0.003072   0.000016  -0.000005   0.001709
     4  C    0.009398  -0.054754  -0.029850  -0.000075   0.000014  -0.000437
     5  C   -0.035418  -0.004316   0.006253   0.000003   0.000024  -0.005830
     6  O    0.310465   0.007178  -0.000201   0.000000   0.000000   0.000279
     7  O    0.004005  -0.000637  -0.000341   0.000003  -0.000072   0.035707
     8  C   -0.000946   0.407717   0.410636   0.000497  -0.000372  -0.000096
     9  C    0.000038  -0.038648  -0.040957  -0.056285   0.004349  -0.033423
    10  C   -0.000002  -0.007759  -0.003251   0.428348   0.006116   0.008397
    11  N    0.000000   0.000029   0.000189  -0.023470  -0.021971   0.004757
    12  C    0.000003   0.000274  -0.000202   0.008128   0.416877  -0.018510
    13  N    0.000008   0.001136   0.003576   0.003962  -0.037192   0.338299
    14  C   -0.000010   0.000026  -0.000021   0.000000   0.000000   0.000019
    15  C    0.000001   0.000000   0.000008   0.000000   0.000000  -0.000010
    16  N    0.000000   0.000000   0.000000   0.000000   0.000000   0.000000
    17  H   -0.000066   0.000601  -0.001158   0.000047  -0.000016   0.000401
    18  H    0.001849  -0.001547  -0.013001   0.000016  -0.000001   0.000346
    19  H    0.446473   0.003597  -0.000240  -0.000001   0.000000  -0.000211
    20  H    0.003597   0.547817  -0.018959  -0.000079   0.000003  -0.000185
    21  H   -0.000240  -0.018959   0.528547   0.001585   0.000017  -0.000159
    22  H   -0.000001  -0.000079   0.001585   0.525784  -0.000331  -0.000227
    23  H    0.000000   0.000003   0.000017  -0.000331   0.510112  -0.002708
    24  H   -0.000211  -0.000185  -0.000159  -0.000227  -0.002708   0.424150
    25  H    0.000001  -0.000003  -0.000002   0.000000   0.000002  -0.000005
    26  H    0.000000  -0.000002  -0.000027   0.000000   0.000000   0.000002
    27  H    0.000000   0.000000   0.000000   0.000000   0.000000   0.000000
    28  H   -0.000001   0.000000  -0.000001   0.000000   0.000000   0.000003
    29  H    0.000000   0.000000  -0.000002   0.000000   0.000000   0.000000
    30  H    0.000000   0.000000   0.000000   0.000000   0.000000   0.000000
    31  H    0.000000   0.000000   0.000000   0.000000   0.000000   0.000000
              25         26         27         28         29         30
     1  O    0.003118   0.001989   0.000045   0.000887   0.073807   0.000410
     2  C   -0.024042  -0.034118   0.006707  -0.004518  -0.004112  -0.000169
     3  N    0.003031  -0.001211  -0.000238   0.000769   0.002292   0.000004
     4  C   -0.000215  -0.000495   0.000021  -0.000222   0.000118  -0.000002
     5  C   -0.000018  -0.000028   0.000000   0.000109  -0.000011   0.000001
     6  O    0.000001   0.000000   0.000000   0.000001   0.000001   0.000000
     7  O   -0.000025   0.000002   0.000000   0.000240   0.000001   0.000000
     8  C   -0.000023   0.000056   0.000000   0.000008   0.000002   0.000000
     9  C   -0.000020   0.000001   0.000000  -0.000003   0.000001   0.000000
    10  C    0.000030   0.000004   0.000000   0.000000   0.000000   0.000000
    11  N    0.000007   0.000000   0.000000   0.000000   0.000000   0.000000
    12  C    0.000034  -0.000001   0.000000   0.000000   0.000000   0.000000
    13  N   -0.000085  -0.000003   0.000000   0.000000   0.000000   0.000000
    14  C    0.391435   0.401908  -0.035782  -0.029775  -0.015982   0.005624
    15  C   -0.027690  -0.044502   0.420102   0.397689  -0.027601  -0.022258
    16  N    0.003770  -0.002137  -0.024999  -0.023187   0.317677   0.356807
    17  H    0.003116   0.000188  -0.000034   0.000140  -0.000153   0.000001
    18  H   -0.000212   0.000013   0.000002  -0.000021  -0.000068  -0.000005
    19  H    0.000001   0.000000   0.000000  -0.000001   0.000000   0.000000
    20  H   -0.000003  -0.000002   0.000000   0.000000   0.000000   0.000000
    21  H   -0.000002  -0.000027   0.000000  -0.000001  -0.000002   0.000000
    22  H    0.000000   0.000000   0.000000   0.000000   0.000000   0.000000
    23  H    0.000002   0.000000   0.000000   0.000000   0.000000   0.000000
    24  H   -0.000005   0.000002   0.000000   0.000003   0.000000   0.000000
    25  H    0.485098  -0.009049  -0.004452  -0.001266   0.000185  -0.000173
    26  H   -0.009049   0.501217  -0.004873   0.006325   0.001464  -0.000249
    27  H   -0.004452  -0.004873   0.466625  -0.018560   0.003882  -0.001253
    28  H   -0.001266   0.006325  -0.018560   0.474030  -0.000734  -0.005369
    29  H    0.000185   0.001464   0.003882  -0.000734   0.369000  -0.009293
    30  H   -0.000173  -0.000249  -0.001253  -0.005369  -0.009293   0.385780
    31  H    0.000097   0.004620  -0.005799   0.005223  -0.011595  -0.014904
              31
     1  O    0.001581
     2  C   -0.000186
     3  N    0.000038
     4  C   -0.000006
     5  C    0.000000
     6  O    0.000000
     7  O    0.000000
     8  C    0.000000
     9  C    0.000000
    10  C    0.000000
    11  N    0.000000
    12  C    0.000000
    13  N    0.000000
    14  C   -0.000968
    15  C   -0.029386
    16  N    0.357079
    17  H    0.000004
    18  H   -0.000008
    19  H    0.000000
    20  H    0.000000
    21  H    0.000000
    22  H    0.000000
    23  H    0.000000
    24  H    0.000000
    25  H    0.000097
    26  H    0.004620
    27  H   -0.005799
    28  H    0.005223
    29  H   -0.011595
    30  H   -0.014904
    31  H    0.399382
 Mulliken charges:
               1
     1  O   -0.432156
     2  C    0.428917
     3  N   -0.352155
     4  C   -0.233614
     5  C    0.437788
     6  O   -0.259246
     7  O   -0.336845
     8  C   -0.108410
     9  C    0.018053
    10  C   -0.048567
    11  N   -0.279257
    12  C    0.151170
    13  N   -0.382721
    14  C   -0.285373
    15  C   -0.159073
    16  N   -0.300445
    17  H    0.255389
    18  H    0.179287
    19  H    0.261295
    20  H    0.152499
    21  H    0.154541
    22  H    0.112082
    23  H    0.125155
    24  H    0.247589
    25  H    0.177355
    26  H    0.178905
    27  H    0.198607
    28  H    0.198231
    29  H    0.301122
    30  H    0.305050
    31  H    0.294827
 Sum of Mulliken charges =   1.00000
 Mulliken charges with hydrogens summed into heavy atoms:
               1
     1  O   -0.432156
     2  C    0.428917
     3  N   -0.096766
     4  C   -0.054327
     5  C    0.437788
     6  O    0.002050
     7  O   -0.336845
     8  C    0.198630
     9  C    0.018053
    10  C    0.063515
    11  N   -0.279257
    12  C    0.276325
    13  N   -0.135132
    14  C    0.070887
    15  C    0.237765
    16  N    0.600554
 APT charges:
               1
     1  O   -0.117861
     2  C    0.070065
     3  N   -0.377224
     4  C   -0.502357
     5  C   -0.217603
     6  O   -0.043559
     7  O   -0.134408
     8  C   -0.991944
     9  C   -0.279341
    10  C   -0.570816
    11  N    0.572255
    12  C   -0.697220
    13  N   -0.575608
    14  C   -0.626817
    15  C   -0.706017
    16  N   -1.225319
    17  H    0.367603
    18  H    0.427833
    19  H    0.535737
    20  H    0.592267
    21  H    0.396308
    22  H    0.682099
    23  H    0.685588
    24  H    0.208277
    25  H    0.198041
    26  H    0.508053
    27  H    0.741796
    28  H    0.159885
    29  H    0.054144
    30  H    1.052868
    31  H    0.813272
 Sum of APT charges =   1.00000
 APT charges with hydrogens summed into heavy atoms:
               1
     1  O   -0.117861
     2  C    0.070065
     3  N   -0.009621
     4  C   -0.074523
     5  C   -0.217603
     6  O    0.492179
     7  O   -0.134408
     8  C   -0.003369
     9  C   -0.279341
    10  C    0.111283
    11  N    0.572255
    12  C   -0.011632
    13  N   -0.367331
    14  C    0.079277
    15  C    0.195665
    16  N    0.694965
 Electronic spatial extent (au):  <R**2>=           4391.4490
 Charge=              1.0000 electrons
 Dipole moment (field-independent basis, Debye):
    X=            -16.3117    Y=             -0.6910    Z=             -0.3978  Tot=             16.3312
 Quadrupole moment (field-independent basis, Debye-Ang):
   XX=            -26.6651   YY=            -75.0265   ZZ=            -98.9818
   XY=             21.5441   XZ=             -2.9435   YZ=              3.3922
 Traceless Quadrupole moment (field-independent basis, Debye-Ang):
   XX=             40.2260   YY=             -8.1353   ZZ=            -32.0907
   XY=             21.5441   XZ=             -2.9435   YZ=              3.3922
 Octapole moment (field-independent basis, Debye-Ang**2):
  XXX=           -537.7568  YYY=             -0.9674  ZZZ=             23.2830  XYY=            -40.0971
  XXY=            -40.1042  XXZ=            -55.6824  XZZ=            -86.5947  YZZ=              5.3132
  YYZ=            -16.8411  XYZ=             18.5954
 Hexadecapole moment (field-independent basis, Debye-Ang**3):
 XXXX=          -2448.9941 YYYY=           -713.6977 ZZZZ=          -1010.8558 XXXY=            218.5027
 XXXZ=           -300.7749 YYYX=              3.7340 YYYZ=            133.0068 ZZZX=           -209.9729
 ZZZY=            222.0884 XXYY=           -705.9997 XXZZ=           -795.4127 YYZZ=           -304.9599
 XXYZ=            163.8649 YYXZ=           -114.8863 ZZXY=             44.4608
 N-N= 1.154513790467D+03 E-N=-4.154581403930D+03  KE= 7.940568153083D+02
  Exact polarizability:   0.000   0.000   0.000   0.000   0.000   0.000
 Approx polarizability: 178.206 -21.075 205.213  19.727   0.265 177.846
 Calling FoFJK, ICntrl=    100147 FMM=F ISym2X=0 I1Cent= 0 IOpClX= 0 NMat=1 NMatS=1 NMatT=0.
 -------------------------------------------------------------------
 Center     Atomic                   Forces (Hartrees/Bohr)
 Number     Number              X              Y              Z
 -------------------------------------------------------------------
      1        8          -0.017312260   -0.002363557   -0.004998807
      2        6           0.015940983   -0.001390228    0.004467142
      3        7          -0.008704413   -0.000386319   -0.007072712
      4        6           0.000318718    0.008329617    0.007199359
      5        6           0.003294220   -0.002528713   -0.014752841
      6        8          -0.001494136   -0.006328155    0.005138733
      7        8          -0.003179959    0.002097492    0.005350048
      8        6           0.005652152   -0.000277051    0.003275583
      9        6          -0.007537373    0.012245165    0.000538277
     10        6           0.004310765   -0.004335174    0.009032683
     11        7          -0.001203293    0.004010924   -0.001119133
     12        6           0.005630575   -0.007733053    0.005833742
     13        7          -0.003479392   -0.004672425   -0.013972825
     14        6           0.001957939    0.005756031    0.003371416
     15        6           0.016907163   -0.020474467   -0.000935351
     16        7          -0.006692485    0.002991449   -0.001096002
     17        1           0.001818445   -0.003025197    0.002632570
     18        1           0.000650471    0.000241267    0.000350900
     19        1          -0.000173009    0.005269173   -0.000858433
     20        1          -0.000560037    0.000523340   -0.000544426
     21        1           0.000240438    0.000577218   -0.000693662
     22        1          -0.000415878   -0.000360245   -0.000866843
     23        1           0.001147246   -0.002253433   -0.000669918
     24        1           0.001281111    0.000627534    0.000137576
     25        1          -0.004520306   -0.002560146   -0.000313248
     26        1           0.001433887   -0.000949289    0.003164103
     27        1          -0.003218589    0.002370480   -0.000893004
     28        1          -0.004345939    0.003510516   -0.001192105
     29        1           0.009180796    0.011771281   -0.001459150
     30        1          -0.003064217   -0.000874766   -0.000730518
     31        1          -0.003863626    0.000190730    0.001676845
 -------------------------------------------------------------------
 Cartesian Forces:  Max     0.020474467 RMS     0.005824368
 FormGI is forming the generalized inverse of G from B-inverse, IUseBI=4.
 GSVD:  received Info=                   1 from GESDD.

 GradGradGradGradGradGradGradGradGradGradGradGradGradGradGradGradGradGrad
 Berny optimization.
 Internal  Forces:  Max     0.021289478 RMS     0.004602283
 Search for a local minimum.
 Step number   1 out of a maximum of  167
 All quantities printed in internal units (Hartrees-Bohrs-Radians)
 Mixed Optimization -- RFO/linear search
 Second derivative matrix not updated -- analytic derivatives used.
 ITU=  0
     Eigenvalues ---   -0.00308   0.00103   0.00239   0.00296   0.00333
     Eigenvalues ---    0.00527   0.00657   0.00825   0.01022   0.01122
     Eigenvalues ---    0.01589   0.01772   0.02067   0.02714   0.03304
     Eigenvalues ---    0.03846   0.03958   0.04077   0.04216   0.04316
     Eigenvalues ---    0.04716   0.04955   0.05036   0.05261   0.05487
     Eigenvalues ---    0.05572   0.05841   0.05941   0.06216   0.07733
     Eigenvalues ---    0.08156   0.08167   0.10607   0.10952   0.11275
     Eigenvalues ---    0.11662   0.12170   0.12557   0.12938   0.13207
     Eigenvalues ---    0.14658   0.15375   0.16030   0.16855   0.17778
     Eigenvalues ---    0.20151   0.20677   0.21868   0.22210   0.22641
     Eigenvalues ---    0.23146   0.23273   0.24371   0.24998   0.25832
     Eigenvalues ---    0.26892   0.29101   0.31738   0.32041   0.32280
     Eigenvalues ---    0.32768   0.33537   0.33622   0.33869   0.33943
     Eigenvalues ---    0.34176   0.34648   0.34697   0.36693   0.36790
     Eigenvalues ---    0.37546   0.39628   0.41122   0.41869   0.43821
     Eigenvalues ---    0.44275   0.44822   0.45428   0.45948   0.47572
     Eigenvalues ---    0.48396   0.53217   0.54155   0.55560   0.59197
     Eigenvalues ---    0.79092   0.86860
 RFO step:  Lambda=-1.38593237D-02 EMin=-3.08109919D-03
 Linear search not attempted -- first point.
 Iteration  1 RMS(Cart)=  0.17548930 RMS(Int)=  0.02516614
 Iteration  2 RMS(Cart)=  0.10816279 RMS(Int)=  0.00243994
 Iteration  3 RMS(Cart)=  0.00642176 RMS(Int)=  0.00036807
 Iteration  4 RMS(Cart)=  0.00001103 RMS(Int)=  0.00036805
 Iteration  5 RMS(Cart)=  0.00000000 RMS(Int)=  0.00036805
 Variable       Old X    -DE/DX   Delta X   Delta X   Delta X     New X
                                 (Linear)    (Quad)   (Total)
    R1        2.32517   0.00856   0.00000   0.02695   0.02695   2.35211
    R2        2.54864  -0.00246   0.00000  -0.03268  -0.03268   2.51596
    R3        2.87324  -0.00265   0.00000   0.00204   0.00204   2.87528
    R4        2.73352   0.00508   0.00000   0.01348   0.01348   2.74699
    R5        1.90167   0.00401   0.00000   0.01083   0.01083   1.91249
    R6        2.87958   0.00482   0.00000   0.02853   0.02853   2.90811
    R7        2.91309   0.00442   0.00000   0.00552   0.00552   2.91861
    R8        2.06321  -0.00018   0.00000   0.00079   0.00079   2.06399
    R9        2.54561  -0.00349   0.00000  -0.01926  -0.01926   2.52635
   R10        2.27910  -0.00440   0.00000  -0.00517  -0.00517   2.27393
   R11        1.81893   0.00384   0.00000   0.00688   0.00688   1.82581
   R12        2.83385   0.00165   0.00000  -0.00209  -0.00209   2.83176
   R13        2.07065   0.00030   0.00000   0.00043   0.00043   2.07108
   R14        2.06359  -0.00041   0.00000  -0.00141  -0.00141   2.06217
   R15        2.57966   0.00816   0.00000   0.01654   0.01655   2.59621
   R16        2.59662   0.01443   0.00000   0.03199   0.03202   2.62864
   R17        2.60917  -0.00130   0.00000  -0.01295  -0.01297   2.59620
   R18        2.04207  -0.00097   0.00000  -0.00213  -0.00213   2.03994
   R19        2.47991   0.00085   0.00000  -0.00141  -0.00144   2.47847
   R20        2.56339   0.01095   0.00000   0.02116   0.02117   2.58456
   R21        2.03297   0.00252   0.00000   0.00605   0.00605   2.03902
   R22        1.91531  -0.00065   0.00000  -0.00459  -0.00459   1.91072
   R23        2.87758  -0.00063   0.00000   0.01606   0.01606   2.89364
   R24        2.06259  -0.00115   0.00000  -0.00241  -0.00241   2.06018
   R25        2.06576   0.00212   0.00000   0.00389   0.00389   2.06964
   R26        2.79954   0.01321   0.00000   0.04960   0.04960   2.84913
   R27        2.06215  -0.00100   0.00000  -0.00500  -0.00500   2.05716
   R28        2.06461  -0.00112   0.00000  -0.00378  -0.00378   2.06082
   R29        1.94663   0.01481   0.00000   0.06383   0.06383   2.01046
   R30        1.92637   0.00262   0.00000   0.00259   0.00259   1.92896
   R31        1.92612   0.00344   0.00000   0.00426   0.00426   1.93039
    A1        2.12299   0.01421   0.00000   0.01300   0.01253   2.13552
    A2        2.13353  -0.02129   0.00000  -0.05645  -0.05689   2.07664
    A3        2.02595   0.00714   0.00000   0.04543   0.04498   2.07093
    A4        2.09337   0.00810   0.00000   0.01064   0.00992   2.10329
    A5        2.10688  -0.00464   0.00000  -0.02028  -0.02097   2.08591
    A6        2.04243  -0.00300   0.00000  -0.00954  -0.01033   2.03210
    A7        1.95910  -0.00528   0.00000  -0.04709  -0.04698   1.91212
    A8        1.93291  -0.00028   0.00000  -0.01513  -0.01512   1.91779
    A9        1.85108   0.00208   0.00000   0.02917   0.02914   1.88022
   A10        1.93145   0.00421   0.00000   0.02434   0.02366   1.95511
   A11        1.88111   0.00009   0.00000  -0.00550  -0.00557   1.87554
   A12        1.90506  -0.00085   0.00000   0.01618   0.01608   1.92114
   A13        2.01129   0.00259   0.00000   0.01297   0.01290   2.02419
   A14        2.17330  -0.00643   0.00000  -0.03008  -0.03015   2.14315
   A15        2.09734   0.00388   0.00000   0.01812   0.01805   2.11539
   A16        1.91796   0.00667   0.00000   0.03629   0.03629   1.95425
   A17        1.99040   0.00155   0.00000   0.00211   0.00211   1.99251
   A18        1.89661   0.00018   0.00000  -0.00275  -0.00278   1.89383
   A19        1.89010  -0.00181   0.00000  -0.00624  -0.00624   1.88386
   A20        1.93593  -0.00020   0.00000   0.00834   0.00834   1.94426
   A21        1.88151   0.00012   0.00000  -0.00002  -0.00001   1.88149
   A22        1.86464   0.00001   0.00000  -0.00205  -0.00208   1.86256
   A23        2.28746  -0.00262   0.00000  -0.01342  -0.01353   2.27393
   A24        2.16183   0.00535   0.00000   0.02140   0.02128   2.18311
   A25        1.83367  -0.00271   0.00000  -0.00751  -0.00753   1.82615
   A26        1.93296   0.00124   0.00000   0.00432   0.00432   1.93728
   A27        2.23420  -0.00093   0.00000  -0.00795  -0.00796   2.22623
   A28        2.11602  -0.00031   0.00000   0.00365   0.00364   2.11966
   A29        1.83003   0.00507   0.00000   0.01241   0.01237   1.84240
   A30        1.95339  -0.00133   0.00000  -0.00258  -0.00258   1.95081
   A31        2.20063   0.00003   0.00000  -0.00081  -0.00081   2.19981
   A32        2.12911   0.00131   0.00000   0.00342   0.00342   2.13253
   A33        1.87463  -0.00227   0.00000  -0.00662  -0.00659   1.86804
   A34        2.20875   0.00106   0.00000   0.00210   0.00205   2.21080
   A35        2.19879   0.00118   0.00000   0.00501   0.00496   2.20376
   A36        1.95049  -0.02127   0.00000  -0.06355  -0.06336   1.88713
   A37        1.91659   0.01237   0.00000   0.05126   0.05058   1.96717
   A38        1.87574   0.00379   0.00000   0.01365   0.01341   1.88915
   A39        1.93018   0.00275   0.00000  -0.01124  -0.01052   1.91966
   A40        1.90890   0.00654   0.00000   0.01796   0.01808   1.92699
   A41        1.87976  -0.00357   0.00000  -0.00544  -0.00598   1.87378
   A42        1.93147  -0.01368   0.00000  -0.04206  -0.04227   1.88921
   A43        1.92055   0.00610   0.00000   0.04512   0.04474   1.96529
   A44        1.91103   0.00673   0.00000   0.01683   0.01461   1.92564
   A45        1.91782   0.00407   0.00000   0.00087   0.00168   1.91949
   A46        1.90696  -0.00155   0.00000  -0.04302  -0.04323   1.86373
   A47        1.87509  -0.00129   0.00000   0.02370   0.02274   1.89783
   A48        1.86452  -0.00337   0.00000  -0.05708  -0.05707   1.80745
   A49        1.96649   0.00075   0.00000   0.00280   0.00276   1.96924
   A50        1.93996   0.00231   0.00000   0.01398   0.01401   1.95397
   A51        1.91026   0.00157   0.00000   0.03608   0.03601   1.94627
   A52        1.87251   0.00087   0.00000   0.01776   0.01786   1.89037
   A53        1.90722  -0.00209   0.00000  -0.01256  -0.01257   1.89465
    D1       -0.15520   0.00212   0.00000   0.00178   0.00266  -0.15255
    D2       -2.98595   0.00093   0.00000   0.07501   0.07553  -2.91041
    D3        3.02611   0.00099   0.00000  -0.05210  -0.05262   2.97348
    D4        0.19536  -0.00020   0.00000   0.02113   0.02026   0.21562
    D5        0.78388  -0.00209   0.00000  -0.01493  -0.01400   0.76988
    D6        2.93257  -0.00446   0.00000  -0.03672  -0.03695   2.89563
    D7       -1.31055   0.00006   0.00000  -0.00804  -0.00728  -1.31783
    D8       -2.39769  -0.00007   0.00000   0.04105   0.04101  -2.35669
    D9       -0.24900  -0.00243   0.00000   0.01926   0.01806  -0.23094
   D10        1.79107   0.00208   0.00000   0.04793   0.04772   1.83879
   D11       -1.53724   0.00180   0.00000   0.34369   0.34426  -1.19299
   D12        2.57752   0.00039   0.00000   0.35793   0.35765   2.93517
   D13        0.51276   0.00035   0.00000   0.32958   0.32942   0.84218
   D14        1.30470   0.00257   0.00000   0.27105   0.27153   1.57623
   D15       -0.86372   0.00116   0.00000   0.28529   0.28492  -0.57879
   D16       -2.92848   0.00112   0.00000   0.25693   0.25669  -2.67179
   D17        2.73613   0.00002   0.00000   0.05151   0.05181   2.78794
   D18       -0.45943   0.00109   0.00000   0.07384   0.07397  -0.38545
   D19       -1.37783  -0.00106   0.00000   0.01542   0.01547  -1.36236
   D20        1.70980   0.00001   0.00000   0.03775   0.03763   1.74744
   D21        0.70410   0.00040   0.00000   0.04582   0.04572   0.74982
   D22       -2.49146   0.00147   0.00000   0.06815   0.06789  -2.42357
   D23        0.83194  -0.00216   0.00000  -0.01989  -0.01996   0.81198
   D24        3.00125  -0.00118   0.00000  -0.00961  -0.00969   2.99156
   D25       -1.26256  -0.00203   0.00000  -0.01682  -0.01689  -1.27944
   D26       -1.35218   0.00180   0.00000   0.03429   0.03451  -1.31767
   D27        0.81713   0.00278   0.00000   0.04457   0.04478   0.86191
   D28        2.83651   0.00193   0.00000   0.03736   0.03758   2.87409
   D29        2.86358  -0.00031   0.00000   0.01645   0.01631   2.87990
   D30       -1.25029   0.00067   0.00000   0.02674   0.02659  -1.22371
   D31        0.76909  -0.00018   0.00000   0.01952   0.01939   0.78848
   D32       -0.05788  -0.00015   0.00000  -0.00505  -0.00480  -0.06268
   D33        3.13513  -0.00083   0.00000  -0.02472  -0.02497   3.11016
   D34       -2.49695   0.00211   0.00000   0.05098   0.05095  -2.44600
   D35        0.61836   0.00263   0.00000   0.07839   0.07844   0.69680
   D36        1.63816   0.00087   0.00000   0.04653   0.04648   1.68465
   D37       -1.52972   0.00138   0.00000   0.07394   0.07397  -1.45575
   D38       -0.39763   0.00089   0.00000   0.04441   0.04438  -0.35325
   D39        2.71768   0.00141   0.00000   0.07183   0.07186   2.78954
   D40        3.12421   0.00069   0.00000   0.02851   0.02820  -3.13078
   D41       -0.01420   0.00040   0.00000   0.02140   0.02119   0.00699
   D42        0.00522   0.00015   0.00000   0.00457   0.00458   0.00980
   D43       -3.13319  -0.00014   0.00000  -0.00254  -0.00242  -3.13561
   D44       -3.13237  -0.00032   0.00000  -0.02308  -0.02334   3.12748
   D45        0.05548   0.00029   0.00000  -0.03430  -0.03447   0.02101
   D46       -0.01130   0.00005   0.00000  -0.00188  -0.00187  -0.01317
   D47       -3.10664   0.00066   0.00000  -0.01309  -0.01300  -3.11964
   D48        0.00308  -0.00026   0.00000  -0.00539  -0.00545  -0.00238
   D49       -3.14145   0.00001   0.00000   0.00114   0.00103  -3.14042
   D50       -0.01059   0.00027   0.00000   0.00408   0.00412  -0.00647
   D51       -3.14110  -0.00036   0.00000   0.00092   0.00093  -3.14016
   D52        0.01420  -0.00022   0.00000  -0.00150  -0.00149   0.01271
   D53        3.10987  -0.00083   0.00000   0.00954   0.00948   3.11936
   D54       -3.13795   0.00037   0.00000   0.00149   0.00152  -3.13643
   D55       -0.04228  -0.00024   0.00000   0.01252   0.01250  -0.02978
   D56       -1.07612   0.00605   0.00000   0.06271   0.06293  -1.01319
   D57        3.08416   0.00589   0.00000   0.05927   0.06007  -3.13896
   D58        1.02697  -0.00019   0.00000  -0.00648  -0.00665   1.02032
   D59        3.06610   0.00312   0.00000   0.04948   0.04913   3.11523
   D60        0.94320   0.00296   0.00000   0.04605   0.04627   0.98947
   D61       -1.11400  -0.00312   0.00000  -0.01971  -0.02044  -1.13444
   D62        0.99873   0.00179   0.00000   0.05183   0.05177   1.05051
   D63       -1.12417   0.00163   0.00000   0.04840   0.04892  -1.07526
   D64        3.10182  -0.00445   0.00000  -0.01735  -0.01780   3.08402
   D65        0.80189  -0.00090   0.00000  -0.04963  -0.04920   0.75269
   D66        2.90017  -0.00074   0.00000  -0.04104  -0.04055   2.85962
   D67       -1.23557  -0.00119   0.00000  -0.04494  -0.04444  -1.28000
   D68        2.92641   0.00047   0.00000  -0.02010  -0.02004   2.90637
   D69       -1.25850   0.00063   0.00000  -0.01151  -0.01139  -1.26989
   D70        0.88895   0.00018   0.00000  -0.01541  -0.01528   0.87367
   D71       -1.30362   0.00037   0.00000  -0.01626  -0.01688  -1.32050
   D72        0.79466   0.00053   0.00000  -0.00768  -0.00823   0.78643
   D73        2.94211   0.00007   0.00000  -0.01157  -0.01212   2.92999
         Item               Value     Threshold  Converged?
 Maximum Force            0.021289     0.000450     NO 
 RMS     Force            0.004602     0.000300     NO 
 Maximum Displacement     1.024588     0.001800     NO 
 RMS     Displacement     0.268493     0.001200     NO 
 Predicted change in Energy=-9.960985D-03
 GradGradGradGradGradGradGradGradGradGradGradGradGradGradGradGradGradGrad

                          Input orientation:                          
 ---------------------------------------------------------------------
 Center     Atomic      Atomic             Coordinates (Angstroms)
 Number     Number       Type             X           Y           Z
 ---------------------------------------------------------------------
      1          8           0       -2.137831    1.065087   -0.329847
      2          6           0       -1.479474    0.247806    0.339376
      3          7           0       -0.176424    0.398788    0.567098
      4          6           0        0.577355    1.435412   -0.118696
      5          6           0        0.674769    1.096014   -1.616542
      6          8           0        0.954360    2.118157   -2.431597
      7          8           0        0.543435   -0.022141   -2.041317
      8          6           0        1.969615    1.589892    0.531776
      9          6           0        2.677127    0.292816    0.781849
     10          6           0        3.440393   -0.111150    1.850359
     11          7           0        3.915084   -1.386563    1.662073
     12          6           0        3.449895   -1.766588    0.496164
     13          7           0        2.682265   -0.795147   -0.084891
     14          6           0       -2.181190   -0.979272    0.902345
     15          6           0       -3.078813   -1.559642   -0.194085
     16          7           0       -4.050743   -0.490095   -0.623704
     17          1           0        0.358155   -0.376732    0.937284
     18          1           0        0.016479    2.368401   -0.029874
     19          1           0        1.003257    2.957356   -1.955302
     20          1           0        2.572284    2.260445   -0.091354
     21          1           0        1.837840    2.088823    1.493307
     22          1           0        3.674363    0.450998    2.741731
     23          1           0        3.622822   -2.721384    0.024249
     24          1           0        2.232727   -0.849058   -0.988964
     25          1           0       -1.482973   -1.739347    1.253512
     26          1           0       -2.782703   -0.665843    1.762242
     27          1           0       -3.620927   -2.444821    0.133966
     28          1           0       -2.485824   -1.817432   -1.072258
     29          1           0       -3.447489    0.383868   -0.688037
     30          1           0       -4.502012   -0.699885   -1.514940
     31          1           0       -4.775663   -0.328749    0.077689
 ---------------------------------------------------------------------
                    Distance matrix (angstroms):
                    1          2          3          4          5
     1  O    0.000000
     2  C    1.244685   0.000000
     3  N    2.257340   1.331387   0.000000
     4  C    2.748447   2.418838   1.453645   0.000000
     5  C    3.093099   3.030814   2.445187   1.538903   0.000000
     6  O    3.884322   4.135220   3.636904   2.440857   1.336885
     7  O    3.361604   3.135718   2.738468   2.412899   1.203310
     8  C    4.229531   3.705999   2.454682   1.544464   2.556524
     9  C    5.001610   4.180328   2.863582   2.554516   3.225964
    10  C    6.103558   5.159167   3.871454   3.803422   4.596229
    11  N    6.827600   5.789814   4.596399   4.719652   5.235661
    12  C    6.318494   5.327386   4.224225   4.345382   4.512133
    13  N    5.172408   4.311360   3.165861   3.067113   3.154756
    14  C    2.387380   1.521532   2.455712   3.805626   4.336832
    15  C    2.791608   2.471706   3.583114   4.726900   4.813031
    16  N    2.482775   2.843140   4.149514   5.038044   5.082512
    17  H    3.148715   2.030867   1.012049   2.108792   2.965005
    18  H    2.535678   2.621286   2.067115   1.092218   2.137716
    19  H    4.011137   4.332570   3.781590   2.422980   1.920223
    20  H    4.865279   4.544555   3.384483   2.158974   2.698640
    21  H    4.491981   3.965536   2.787713   2.148098   3.465482
    22  H    6.602522   5.689871   4.422705   4.329269   5.329930
    23  H    6.902744   5.911752   4.946152   5.155022   5.094677
    24  H    4.816656   4.092437   3.127693   2.952360   2.569902
    25  H    3.286444   2.187336   2.598048   4.025791   4.575187
    26  H    2.790845   2.134880   3.058512   4.386706   5.145332
    27  H    3.838509   3.446485   4.487574   5.722379   5.835649
    28  H    2.996863   2.696416   3.596171   4.568735   4.332870
    29  H    1.519066   2.224224   3.503634   4.198721   4.285124
    30  H    3.179453   3.670468   4.924700   5.684096   5.480387
    31  H    3.011149   3.356450   4.682075   5.639648   5.882821
                    6          7          8          9         10
     6  O    0.000000
     7  O    2.214059   0.000000
     8  C    3.176694   3.354617   0.000000
     9  C    4.077503   3.552760   1.498505   0.000000
    10  C    5.430038   4.852363   2.606797   1.373854   0.000000
    11  N    6.148746   5.190834   3.731180   2.264430   1.373850
    12  C    5.467241   4.234314   3.668577   2.218091   2.138787
    13  N    4.120682   2.999956   2.564481   1.391017   2.188105
    14  C    5.526383   4.123690   4.895622   5.023542   5.766676
    15  C    5.899080   4.347050   5.994420   6.124940   6.984119
    16  N    5.926424   4.830639   6.473499   6.917569   7.898208
    17  H    4.234299   3.005349   2.574656   2.418695   3.225590
    18  H    2.590466   3.168324   2.176297   3.470735   4.626731
    19  H    0.966179   3.015997   2.998227   4.170565   5.462455
    20  H    2.848624   3.623366   1.095966   2.155236   3.185644
    21  H    4.023216   4.315695   1.091255   2.106233   2.745094
    22  H    6.077924   5.736211   3.014489   2.204686   1.079489
    23  H    6.047563   4.586403   4.645189   3.248645   3.190812
    24  H    3.538330   2.155214   2.886237   2.153404   3.172495
    25  H    5.865233   4.232141   4.850269   4.653879   5.219845
    26  H    6.269337   5.093585   5.402492   5.629382   6.248389
    27  H    6.952419   5.286127   6.905891   6.897819   7.632448
[...]
 11,-0.00002621,0.00000445,0.00002025,0.00007687,-0.10308611,0.07994430
 ,-0.20291468,-0.01034064,0.00875498,-0.01783399,-0.00119917,-0.0040340
 5,-0.00268243,0.00117482,0.00026073,-0.00022688,-0.00005080,-0.0000964
 3,0.00008645,-0.00001737,0.00002997,-0.00003230,-0.00001916,-0.0000137
 0,0.00000405,0.00001188,0.00000037,-0.00000041,0.00004299,0.00001855,0
 .00003602,0.00000533,-0.00000174,0.00000035,-0.00000096,0.00000967,-0.
 00001873,0.11477189,-0.08451418,0.21997163,0.00331241,0.00105533,-0.00
 190089,-0.01822150,0.00482886,0.00356542,-0.00041981,-0.00282159,0.002
 44555,-0.00027584,-0.00033251,-0.00074137,-0.00012976,-0.00009582,-0.0
 0026187,0.00001249,0.00000873,0.00011593,0.00019529,0.00012753,0.00012
 640,-0.00004878,-0.00017015,0.00022483,0.00000666,-0.00000271,-0.00006
 375,-0.00004631,-0.00002409,0.00003351,-0.00002137,0.00001089,0.000001
 27,0.00000810,0.00001324,0.00000193,0.00000232,0.00000184,0.00001722,-
 0.26668556,0.07231111,0.07898325,0.00668267,-0.00264294,-0.00301047,0.
 00053435,-0.00030241,0.00068015,0.00082796,0.00007952,0.00021466,-0.00
 018878,-0.00010833,0.00014419,-0.00000430,0.00003262,-0.00004270,-0.00
 009811,0.00002116,-0.00001447,0.00001605,0.00000864,0.00000233,0.00002
 644,0.00001026,0.00002187,-0.00000198,-0.00000034,0.00000096,0.0000015
 4,-0.00000377,-0.00001366,-0.01288298,0.00351649,0.00511820,0.28565151
 ,0.00138009,0.00071541,-0.00242564,-0.02771214,0.00854373,0.01002922,-
 0.00169555,-0.00436087,0.00246647,-0.00092957,-0.00038645,-0.00096616,
 -0.00009874,-0.00018572,-0.00038807,0.00003237,0.00005199,0.00010877,0
 .00019039,0.00027189,0.00017211,-0.00007481,-0.00031080,0.00034820,0.0
 0000681,-0.00000212,-0.00002081,-0.00000662,-0.00004266,0.00003558,0.0
 0000865,0.00006966,0.00001426,-0.00000712,0.00004676,0.00001869,0.0000
 0975,-0.00001699,-0.00004450,0.07274436,-0.06897739,-0.02316470,0.0224
 5906,-0.01118840,-0.00899934,-0.00050133,0.00045693,0.00076867,0.00032
 474,-0.00013156,0.00046556,-0.00011157,-0.00007880,0.00009001,0.000003
 41,0.00003102,-0.00005265,-0.00016346,0.00003900,-0.00002483,0.0000210
 3,0.00001092,0.00000402,-0.00000546,-0.00000621,0.00000482,-0.00001022
 ,0.00000142,-0.00000039,-0.00000505,-0.00001562,-0.00000942,0.01004456
 ,-0.00321686,-0.00417748,-0.07463732,0.07981613,-0.00135841,-0.0000642
 9,0.00102787,0.01247062,-0.00412379,-0.00441258,0.00009082,0.00181786,
 -0.00045265,0.00033386,-0.00008277,0.00039990,0.00005191,-0.00000475,0
 .00006266,-0.00000596,-0.00000677,-0.00001115,-0.00015451,-0.00000230,
 -0.00003843,0.00003023,0.00014267,-0.00012300,-0.00002164,0.00000439,-
 0.00004233,-0.00003933,-0.00000436,-0.00000982,-0.00001225,-0.00002658
 ,-0.00000343,0.00000585,-0.00001532,0.00000286,0.00000181,0.00001418,0
 .00005452,0.07554998,-0.02265867,-0.07805476,0.02072685,-0.00917543,-0
 .00951213,0.00053099,-0.00034290,0.00118407,0.00025210,-0.00001382,-0.
 00023299,0.00001632,0.00001114,0.00002641,0.00001512,-0.00000143,0.000
 00489,0.00004762,-0.00001704,0.00000906,-0.00001560,-0.00000034,0.0000
 0091,0.00003588,0.00001784,0.00001863,-0.00000307,-0.00000092,0.000002
 87,0.00000007,0.00000180,-0.00000203,-0.02259020,0.00644066,0.01002237
 ,-0.08502614,0.02930424,0.08172286,0.00009790,-0.00019603,0.00030042,0
 .00038524,0.00090738,-0.00046892,0.00030533,-0.00019738,-0.00028530,0.
 00012689,0.00010384,-0.00001691,0.00004622,0.00003141,-0.00014729,-0.0
 0003397,-0.00002813,0.00009671,0.00051976,-0.00001367,0.00025847,0.000
 02717,0.00001321,0.00001628,-0.00002473,0.00002730,-0.00003310,-0.0000
 3796,-0.00002317,0.00003791,-0.00001017,0.00001141,-0.00001445,0.00002
 507,-0.00003117,0.00000648,-0.00002193,0.00001043,-0.00002121,-0.00011
 823,0.00037629,0.00054630,-0.20541130,-0.13044171,0.05203463,0.0098986
 4,0.00988197,-0.00699258,0.00014628,0.00009113,0.00019800,-0.00001697,
 -0.00001894,0.00001984,-0.00001112,0.00001846,-0.00001895,-0.00000733,
 -0.00000014,0.00000454,0.00000632,0.00000250,-0.00000070,0.00001020,-0
 .00000141,0.00000976,0.00000296,-0.00000563,0.00000090,0.00001678,0.00
 000343,-0.00001377,-0.00008042,-0.00025345,-0.00019254,0.00116896,0.00
 031798,-0.00025680,0.21031607,0.00022861,0.00013468,0.00070411,0.00013
 605,-0.00083641,-0.00457396,-0.00064360,-0.00037473,0.00057222,0.00000
 084,0.00035252,0.00017034,-0.00017660,-0.00023209,-0.00018016,0.000015
 08,0.00005232,0.00011011,-0.00024498,0.00015450,0.00003166,0.00002611,
 -0.00004777,0.00005874,-0.00000330,-0.00002281,0.00000305,0.00000911,-
 0.00002407,-0.00000332,0.00001368,0.00004219,0.00000798,-0.00001443,0.
 00003462,0.00002546,0.00000858,-0.00000512,-0.00001889,-0.01558500,-0.
 01596889,0.00267726,-0.12444962,-0.15782663,0.04447593,-0.00810781,-0.
 00844547,0.00551427,-0.00000653,-0.00020995,-0.00010739,0.00002276,0.0
 0001496,-0.00001071,0.00002656,0.00001754,-0.00002851,-0.00002936,0.00
 000961,-0.00000522,0.00000652,0.00001038,-0.00000092,0.00000016,-0.000
 00458,0.00000620,-0.00000627,0.00000299,-0.00000016,-0.00000255,-0.000
 01121,0.00000034,-0.00006915,0.00003868,-0.00027438,0.00028224,0.00089
 639,0.00096306,0.13640909,0.16936252,0.00044469,-0.00056240,0.00197730
 ,0.00026436,-0.00063106,-0.00618109,-0.00088430,-0.00073827,0.00086440
 ,0.00003594,0.00061877,-0.00003194,-0.00051739,-0.00099265,-0.00033306
 ,0.00019155,0.00026704,0.00006796,0.00121051,0.00082302,0.00037399,-0.
 00000508,-0.00003564,0.00012517,-0.00002138,-0.00001412,-0.00006057,-0
 .00003445,-0.00003594,0.00003266,-0.00001070,0.00002107,0.00001084,0.0
 0000043,0.00003949,0.00000765,0.00001397,-0.00000455,-0.00000003,-0.01
 645750,-0.01841307,0.00692712,0.04203330,0.03824063,-0.06261133,0.0235
 4443,0.02302425,-0.01827676,0.00011306,-0.00014565,0.00002862,0.000031
 47,-0.00000494,0.00005493,-0.00001129,0.00002906,-0.00006669,-0.000061
 09,0.00000212,-0.00000445,0.00003141,0.00000746,0.00000626,0.00001444,
 -0.00000403,0.00001601,0.00000073,0.00000043,0.00000035,-0.00001431,-0
 .00000031,-0.00001297,0.00001214,0.00080475,0.00007793,0.00018686,0.00
 049219,0.00122237,-0.05037982,-0.04654609,0.07827654,0.00000401,-0.000
 15088,0.00027582,0.00080846,0.00026008,-0.00027477,0.00009164,0.000092
 89,-0.00002245,-0.00004597,0.00001908,0.00002176,0.00006041,-0.0000526
 2,0.00000918,0.00002664,0.00006783,-0.00005536,0.00016576,0.00007475,0
 .00015035,0.00001282,-0.00003468,0.00000178,-0.00001997,-0.00001500,0.
 00001858,0.00003380,-0.00008176,-0.00006846,0.00013700,0.00006539,-0.0
 0005914,-0.00003129,0.00005518,0.00016941,0.00001225,-0.00003264,-0.00
 002281,0.00601634,-0.00351328,-0.00005309,-0.25282570,0.11587611,0.032
 98952,-0.00384692,0.00309002,-0.00158652,-0.00005505,-0.00013427,-0.00
 016886,0.00000958,0.00001766,-0.00001849,-0.00000367,-0.00001366,0.000
 00530,-0.00000170,0.00001050,-0.00000834,-0.00000538,0.00000302,0.0000
 0206,-0.00000567,0.00000624,-0.00000059,-0.00001398,0.00000910,0.00000
 025,-0.00001579,0.00000104,0.00002148,0.00087986,0.00036094,0.00051205
 ,0.00088109,-0.00136987,-0.00091753,-0.01763696,0.01162488,0.00315953,
 0.26507663,-0.00042447,-0.00023745,0.00017052,0.00283552,0.00081407,-0
 .00030720,-0.00083909,0.00030539,0.00043718,-0.00013331,-0.00000995,-0
 .00002120,-0.00050424,-0.00093281,0.00001356,0.00032260,0.00038426,-0.
 00028031,0.00006472,0.00088439,-0.00013837,-0.00008139,0.00001404,0.00
 001135,0.00004695,-0.00007940,0.00002509,0.00006777,0.00005849,-0.0000
 6331,-0.00000384,-0.00003644,0.00004438,-0.00007266,0.00010283,-0.0000
 4908,0.00006469,-0.00003736,0.00006553,0.01818688,-0.01107814,-0.00486
 053,0.11088922,-0.11718015,-0.01855080,0.01318461,-0.00982228,0.002992
 08,-0.00038321,-0.00038053,-0.00048356,0.00005938,0.00004781,-0.000002
 57,0.00000641,-0.00003802,-0.00000826,0.00000249,-0.00000307,-0.000006
 29,0.00001490,-0.00000996,0.00000862,-0.00002072,-0.00000045,-0.000016
 40,0.00001169,0.00001061,-0.00000362,-0.00005322,0.00000533,0.00002061
 ,-0.00023532,0.00152988,0.00066853,-0.00126067,-0.00227506,-0.00249953
 ,-0.01786197,0.01283172,0.00183525,-0.12548537,0.12534369,0.00020298,-
 0.00023276,0.00102643,0.00090268,0.00159451,-0.00107155,-0.00035237,-0
 .00018701,0.00023949,-0.00012661,-0.00000650,-0.00004538,0.00019385,0.
 00021721,0.00008386,-0.00009301,-0.00011380,0.00005152,0.00023916,-0.0
 0037146,-0.00010910,0.00001507,-0.00005473,0.00000338,0.00001977,0.000
 00062,0.00010863,0.00010152,-0.00006635,-0.00005826,0.00008999,0.00012
 300,-0.00003062,-0.00001396,-0.00005586,0.00013022,-0.00008277,0.00004
 584,-0.00015529,0.01939962,-0.01225120,-0.00567896,0.04303297,-0.02383
 412,-0.05425201,-0.03084593,0.02470915,-0.00459139,-0.00011516,-0.0003
 0599,-0.00010138,-0.00000171,0.00001489,-0.00003245,-0.00001665,0.0000
 0983,0.00000819,-0.00001074,0.00001805,-0.00000304,-0.00000512,0.00000
 237,-0.00000077,-0.00002724,-0.00002127,-0.00001074,0.00002420,-0.0000
 0278,-0.00000141,0.00003285,0.00001254,0.00001333,0.00023906,0.0000700
 2,0.00081893,-0.00154370,-0.00380361,-0.00221636,0.00614165,-0.0047346
 8,0.00025242,-0.03350938,0.01847457,0.06939757,0.00121214,0.00073203,0
 .00406104,-0.00520071,0.00243289,-0.00402226,0.00215034,-0.00040292,0.
 00027877,-0.00026548,-0.00051217,0.00019943,-0.00081001,-0.00087792,0.
 00049056,0.00021323,0.00029246,-0.00050379,0.00042985,-0.00040132,-0.0
 0016586,-0.00015488,0.00007668,-0.00004592,0.00007589,-0.00000667,0.00
 004833,0.00006845,0.00007833,-0.00006823,0.00003083,-0.00008374,0.0000
 0382,-0.00001556,-0.00000822,-0.00003134,0.00004384,-0.00000555,0.0000
 6444,0.00116420,-0.00048793,-0.00049557,-0.00503854,0.00463278,-0.0014
 4744,-0.17086467,0.15512516,0.02509259,-0.00009157,0.00010248,-0.00029
 986,-0.00004960,0.00001719,-0.00003253,-0.00008002,-0.00010036,0.00007
 794,0.00004752,-0.00002154,-0.00001518,0.00000200,-0.00003053,0.000004
 63,-0.00003053,0.00000231,-0.00002896,-0.00000540,0.00000178,-0.000000
 13,-0.00005927,0.00001767,0.00002768,-0.00015821,0.00003150,0.00040298
 ,-0.00018324,-0.00012464,0.00009562,0.00037429,-0.00073232,0.00040857,
 0.00062369,0.00045427,-0.00155525,0.17931146,0.00592305,-0.00435376,0.
 00653516,-0.00674335,0.00906941,-0.00726808,0.00423042,-0.00166600,0.0
 0136041,-0.00065535,-0.00077041,0.00055692,0.00036757,0.00186787,0.000
 86573,-0.00032684,-0.00073251,-0.00004560,-0.00225217,-0.00247966,-0.0
 0069894,-0.00010661,0.00000804,-0.00012730,0.00010779,0.00000293,0.000
 12761,0.00007502,0.00011903,-0.00007060,0.00000415,-0.00011087,-0.0000
 5087,0.00000422,-0.00010478,-0.00002453,-0.00003671,0.00001878,0.00000
 487,-0.00138814,0.00013518,-0.00102203,0.00822062,-0.00935602,0.005818
 15,0.15404872,-0.26776707,-0.03618363,0.00020907,0.00032882,-0.0003978
 9,-0.00010063,-0.00001852,-0.00014946,-0.00006824,-0.00005256,0.000139
 56,0.00007921,-0.00001756,-0.00000434,-0.00005564,-0.00002059,-0.00002
 397,-0.00002713,0.00000756,-0.00003736,0.00002372,0.00000012,-0.000000
 58,0.00003490,0.00003218,0.00003418,-0.00019960,-0.00086860,-0.0001861
 5,0.00021854,0.00036847,0.00025300,-0.00003770,-0.00062474,-0.00052659
 ,-0.00116224,-0.00015813,0.00056718,-0.17034292,0.27827732,0.00453415,
 0.00037462,0.00105590,-0.00611020,0.00198753,-0.00411950,0.00244187,-0
 .00029515,0.00034280,-0.00032000,-0.00054171,0.00051818,0.00050479,0.0
 0093898,0.00089367,-0.00016049,-0.00005716,-0.00035338,-0.00067328,-0.
 00033300,-0.00062013,-0.00006854,0.00001901,-0.00012538,0.00007140,-0.
 00000374,0.00010669,0.00007373,0.00008976,-0.00003999,0.00001189,-0.00
 005689,-0.00004002,-0.00000162,-0.00006843,-0.00002423,-0.00000807,0.0
 0000816,-0.00001724,-0.00137464,-0.00009586,0.00144715,-0.02133912,0.0
 2559333,0.00673090,0.02172383,-0.03228100,-0.06392027,-0.00003169,0.00
 023226,-0.00010557,-0.00003970,-0.00001803,-0.00008822,0.00001632,-0.0
 0004565,0.00010541,0.00008356,-0.00001057,-0.00000968,-0.00004764,-0.0
 0001709,-0.00001487,-0.00003691,-0.00000108,-0.00003051,0.00000679,-0.
 00000006,-0.00000093,0.00001159,0.00000603,0.00003486,0.00056862,-0.00
 003226,0.00027169,0.00061012,-0.00042362,-0.00082697,-0.00004333,0.000
 32143,-0.00040051,-0.00049870,0.00253058,-0.00593954,-0.02499561,0.032
 28351,0.06920218,-0.00457347,-0.00150349,-0.00213529,0.00912446,-0.000
 51055,-0.00054083,-0.00483652,-0.00002653,0.00154814,0.00230277,0.0018
 1275,-0.00163837,-0.00806800,-0.02108520,-0.00514683,0.00486479,0.0088
 5696,-0.00330765,0.00785313,0.01488318,0.00979705,-0.00102012,0.000620
 23,0.00084025,-0.00004219,-0.00015416,-0.00075499,-0.00020548,0.000024
 48,-0.00005899,-0.00005322,-0.00053071,0.00031882,-0.00009084,0.000620
 05,-0.00031242,0.00058983,-0.00019921,0.00085239,-0.00084576,0.0005278
 1,-0.00052918,0.01486339,0.00256967,0.00224416,-0.25291675,-0.07269048
 ,0.09762159,0.00007512,-0.00016689,-0.00017840,0.00018428,-0.00003887,
 0.00077321,-0.00049960,0.00005326,-0.00077655,-0.00028221,-0.00015291,
 -0.00004434,0.00052542,-0.00011244,0.00017444,0.00009287,0.00005062,0.
 00001751,-0.00002077,0.00001913,0.00000901,-0.00067699,0.00015225,0.00
 001247,-0.00009777,-0.00050355,-0.00044676,-0.00014424,-0.00011664,0.0
 0026788,-0.00117320,0.00143630,-0.00441795,0.00033767,0.00116585,-0.00
 182857,-0.01723243,-0.00240996,0.00961685,0.26016800,-0.00093364,-0.00
 135227,0.00221171,0.00062982,0.00228849,-0.00363627,-0.00032393,-0.000
 53053,0.00091195,0.00068451,0.00036200,-0.00069084,-0.00594649,-0.0116
 8275,-0.00104089,0.00184650,0.00349531,-0.00199466,0.00772909,0.002755
 07,0.00318956,-0.00061587,0.00039603,0.00032440,-0.00002509,-0.0000117
 5,-0.00025950,-0.00005859,0.00009561,-0.00004497,-0.00006192,-0.000355
 92,0.00007849,0.00000162,0.00014310,-0.00013274,0.00015857,-0.00009582
 ,0.00031348,0.00033703,0.00014606,-0.00090772,-0.00972892,-0.00745126,
 0.01164739,-0.07270090,-0.08933307,0.03134120,0.00000521,0.00018461,-0
 .00004778,0.00004843,-0.00005226,0.00026389,-0.00061957,-0.00008938,-0
 .00024325,-0.00008115,-0.00009694,-0.00001150,0.00023726,-0.00006772,0
 .00006598,0.00002780,0.00002336,-0.00002000,0.00005194,-0.00000404,0.0
 0000577,-0.00022227,0.00016312,0.00003378,-0.00015651,-0.00033475,-0.0
 0011805,-0.00008498,-0.00016048,0.00005928,0.00102478,-0.00030180,0.00
 185885,-0.00022504,0.00022424,-0.00011425,0.02779864,0.01346881,-0.014
 45444,0.07022775,0.09491653,0.00129733,0.00018409,0.00095968,-0.002726
 78,-0.00129215,-0.00306184,0.00152050,0.00044605,0.00011769,-0.0003896
 4,-0.00197471,0.00068460,0.00117261,0.00438826,-0.00020194,-0.00126751
 ,-0.00078356,0.00044208,-0.00094263,-0.00317748,-0.00442437,0.00017128
 ,-0.00001235,-0.00013623,0.00005971,0.00003286,0.00029997,0.00015108,0
 .00006199,-0.00007512,0.00006469,0.00010769,-0.00012528,-0.00002382,-0
 .00018133,0.00011881,-0.00011614,0.00007255,-0.00022505,0.00054838,0.0
 0041050,-0.00025303,0.02328700,0.01173845,-0.01653963,0.10308002,0.033
 96008,-0.11428748,-0.00027483,0.00010523,-0.00030979,-0.00005859,0.000
 06265,-0.00042040,0.00020474,0.00020025,0.00011489,0.00012941,0.000037
 81,-0.00000968,-0.00011102,0.00001147,-0.00004169,-0.00005559,-0.00001
 763,-0.00003364,0.00001162,-0.00000705,0.00000427,0.00016332,-0.000025
 79,0.00007302,-0.00023494,0.00005563,0.00025695,0.00002054,0.00013223,
 0.00009201,-0.00196901,0.00108905,-0.00362792,0.00016837,-0.00021321,0
 .00205544,0.00334422,-0.00000184,-0.00159131,-0.10460591,-0.03949320,0
 .12589306,0.00101135,0.00094447,0.00075864,-0.00075628,0.00041234,-0.0
 0015798,0.00048704,-0.00001889,0.00004460,-0.00008603,-0.00003589,0.00
 006807,-0.00002517,0.00013464,0.00031646,0.00003849,-0.00006245,-0.000
 09719,-0.00152150,-0.00009390,0.00061911,-0.00003789,-0.00002539,-0.00
 002865,0.00002864,-0.00001674,0.00000202,0.00002266,0.00000400,-0.0000
 2458,0.00003517,0.00001031,0.00002409,-0.00000878,0.00002769,-0.000014
 78,0.00004771,-0.00000929,0.00003936,0.00007459,0.00061323,0.00050851,
 -0.00266906,-0.00212097,-0.00210438,-0.13482472,-0.10738486,-0.0975368
 8,-0.00001897,-0.00002116,-0.00007479,0.00000014,0.00000557,0.00000280
 ,0.00002486,-0.00007745,0.00004454,0.00001054,-0.00000008,-0.00000919,
 -0.00001024,-0.00000289,0.00000334,-0.00001337,0.00000076,-0.00000471,
 -0.00003251,0.00000534,-0.00000200,-0.00004947,-0.00002622,-0.00000339
 ,0.00022928,-0.00004531,-0.00000284,0.00002473,0.00002689,-0.00012209,
 0.00111023,-0.00017504,0.00111787,-0.00066964,-0.00001847,-0.00050721,
 0.01449239,0.01236624,0.01547401,-0.00820219,-0.01902406,-0.02261843,0
 .13128799,-0.00129129,-0.00064147,-0.00202044,0.00093359,-0.00232765,0
 .00102738,-0.00035509,0.00034187,-0.00009351,0.00005686,0.00006288,-0.
 00004332,-0.00019399,-0.00033573,-0.00006213,0.00012870,0.00013413,-0.
 00007410,0.00041006,0.00029575,0.00017750,-0.00005602,0.00004440,-0.00
 001023,0.00000490,-0.00001948,0.00000035,0.00001852,0.00002103,-0.0000
 0301,0.00000220,-0.00004157,0.00000010,-0.00001606,0.00003197,-0.00000
 952,0.00001616,-0.00001541,0.00000851,0.00134579,-0.00183131,0.0028691
 3,0.00705025,0.01463368,0.00833898,-0.10252369,-0.21534429,-0.14020594
 ,-0.00014746,0.00001359,0.00004843,0.00003308,0.00000425,0.00001166,-0
 .00002956,-0.00001002,-0.00000848,0.00000240,-0.00000963,0.00000065,0.
 00001003,-0.00000795,0.00000666,-0.00001247,-0.00000275,-0.00001039,0.
 00001419,0.00000479,-0.00000063,-0.00002177,0.00002013,0.00000675,0.00
 001202,0.00079622,0.00080709,-0.00003936,0.00003630,0.00001087,-0.0001
 2009,0.00098064,0.00059095,0.00063660,-0.00027753,0.00029655,-0.017657
 40,-0.01460273,-0.01564946,-0.00281869,-0.00674159,-0.00591656,0.11460
 759,0.22478746,0.00043516,0.00031332,0.00083738,-0.00032420,0.00115184
 ,-0.00040307,0.00019677,-0.00007561,0.00010053,0.00003207,-0.00015402,
 -0.00001453,-0.00049729,-0.00106140,0.00008552,0.00023394,0.00056291,-
 0.00039084,0.00216146,0.00089996,-0.00047495,-0.00007858,0.00004488,0.
 00002014,0.00001341,0.00000446,0.00001350,0.00003044,0.00001700,-0.000
 03758,0.00002820,-0.00002709,-0.00001715,-0.00001441,0.00000554,0.0000
 2691,0.00002484,-0.00000329,0.00001011,-0.00219847,0.00375995,-0.00381
 496,-0.01130203,-0.01976048,-0.01648978,-0.09580195,-0.14354593,-0.183
 60958,-0.00000433,0.00003165,-0.00009806,-0.00001149,0.00000352,0.0000
 0624,-0.00005512,0.00000354,-0.00000959,0.00001035,-0.00000616,-0.0000
 0715,0.00001966,-0.00001143,0.00000626,-0.00000932,-0.00000193,-0.0000
 0943,0.00000130,-0.00000232,0.00000629,-0.00003002,0.00002014,0.000035
 14,0.00007168,-0.00125871,-0.00083458,0.00010381,0.00004617,0.00008437
 ,0.00118279,-0.00024681,0.00128480,-0.00024093,0.00020635,0.00010883,-
 0.00089270,-0.00172652,-0.00244116,0.00262928,0.01090431,0.01425194,0.
 10428568,0.14990619,0.19177447\\0.00000074,0.00000046,0.00000040,-0.00
 000086,0.00000003,-0.00000122,-0.00000062,-0.00000159,0.00000027,0.000
 00044,-0.00000015,-0.00000008,0.00000177,0.00000451,-0.00000002,-0.000
 00019,-0.00000142,0.00000090,-0.00000203,-0.00000096,-0.00000098,-0.00
 000270,-0.00000157,0.00000111,0.00000470,0.00000112,-0.00000188,-0.000
 00105,-0.00000019,0.00000044,-0.00000081,-0.00000083,0.00000090,-0.000
 00021,0.00000075,-0.00000045,0.00000064,-0.00000143,0.00000128,-0.0000
 0138,-0.00000145,-0.00000292,0.00000318,-0.00000083,0.00000007,-0.0000
 0255,-0.00000176,-0.00000042,0.00000017,0.00000031,0.00000037,0.000000
 05,-0.00000013,0.00000018,0.,0.00000019,0.00000076,0.00000092,-0.00000
 029,0.00000107,-0.00000059,-0.00000017,0.00000042,-0.00000017,-0.00000
 048,0.00000019,-0.00000008,-0.00000017,-0.00000007,-0.00000088,-0.0000
 0031,0.00000101,-0.00000028,-0.00000027,0.00000010,-0.00000018,0.00000
 057,-0.00000059,0.00000144,-0.00000081,0.00000147,-0.00000162,-0.00000
 068,0.00000106,0.00000101,0.00000244,-0.00000195,0.00000093,0.00000383
 ,-0.00000086,0.00000021,0.00000127,-0.00000054\\\@


 LAWS OF PROGRAMMING DEFINITION:  A WORKING PROGRAM
                                  IS ONE THAT HAS
                                  ONLY UNOBSERVED
                                  BUGS.
 Job cpu time:       0 days  2 hours 33 minutes  8.1 seconds.
 File lengths (MBytes):  RWF=    458 Int=      0 D2E=      0 Chk=     13 Scr=      1
 Normal termination of Gaussian 09 at Sat Jul 24 03:40:53 2021.
