 Entering Gaussian System, Link 0=g09
 Input=opt_freq-conf-862.com
 Output=opt_freq-conf-862.log
 Initial command:
 /aerosol/software/g09/l1.exe "/scratch/nicole/10499/Gau-72407.inp" -scrdir="/scratch/nicole/10499/"
 Entering Link 1 = /aerosol/software/g09/l1.exe PID=     72409.
  
 Copyright (c) 1988,1990,1992,1993,1995,1998,2003,2009,2013,
            Gaussian, Inc.  All Rights Reserved.
  
 This is part of the Gaussian(R) 09 program.  It is based on
 the Gaussian(R) 03 system (copyright 2003, Gaussian, Inc.),
 the Gaussian(R) 98 system (copyright 1998, Gaussian, Inc.),
 the Gaussian(R) 94 system (copyright 1995, Gaussian, Inc.),
 the Gaussian 92(TM) system (copyright 1992, Gaussian, Inc.),
 the Gaussian 90(TM) system (copyright 1990, Gaussian, Inc.),
 the Gaussian 88(TM) system (copyright 1988, Gaussian, Inc.),
 the Gaussian 86(TM) system (copyright 1986, Carnegie Mellon
 University), and the Gaussian 82(TM) system (copyright 1983,
 Carnegie Mellon University). Gaussian is a federally registered
 trademark of Gaussian, Inc.
  
 This software contains proprietary and confidential information,
 including trade secrets, belonging to Gaussian, Inc.
  
 This software is provided under written license and may be
 used, copied, transmitted, or stored only in accord with that
 written license.
  
 The following legend is applicable only to US Government
 contracts under FAR:
  
                    RESTRICTED RIGHTS LEGEND
  
 Use, reproduction and disclosure by the US Government is
 subject to restrictions as set forth in subparagraphs (a)
 and (c) of the Commercial Computer Software - Restricted
 Rights clause in FAR 52.227-19.
  
 Gaussian, Inc.
 340 Quinnipiac St., Bldg. 40, Wallingford CT 06492
  
  
 ---------------------------------------------------------------
 Warning -- This program may not be used in any manner that
 competes with the business of Gaussian, Inc. or will provide
 assistance to any competitor of Gaussian, Inc.  The licensee
 of this program is prohibited from giving any competitor of
 Gaussian, Inc. access to this program.  By using this program,
 the user acknowledges that Gaussian, Inc. is engaged in the
 business of creating and licensing software in the field of
 computational chemistry and represents and warrants to the
 licensee that it is not a competitor of Gaussian, Inc. and that
 it will not use this program in any manner prohibited above.
 ---------------------------------------------------------------
  

 Cite this work as:
 Gaussian 09, Revision D.01,
 M. J. Frisch, G. W. Trucks, H. B. Schlegel, G. E. Scuseria, 
 M. A. Robb, J. R. Cheeseman, G. Scalmani, V. Barone, B. Mennucci, 
 G. A. Petersson, H. Nakatsuji, M. Caricato, X. Li, H. P. Hratchian, 
 A. F. Izmaylov, J. Bloino, G. Zheng, J. L. Sonnenberg, M. Hada, 
 M. Ehara, K. Toyota, R. Fukuda, J. Hasegawa, M. Ishida, T. Nakajima, 
 Y. Honda, O. Kitao, H. Nakai, T. Vreven, J. A. Montgomery, Jr., 
 J. E. Peralta, F. Ogliaro, M. Bearpark, J. J. Heyd, E. Brothers, 
 K. N. Kudin, V. N. Staroverov, T. Keith, R. Kobayashi, J. Normand, 
 K. Raghavachari, A. Rendell, J. C. Burant, S. S. Iyengar, J. Tomasi, 
 M. Cossi, N. Rega, J. M. Millam, M. Klene, J. E. Knox, J. B. Cross, 
 V. Bakken, C. Adamo, J. Jaramillo, R. Gomperts, R. E. Stratmann, 
 O. Yazyev, A. J. Austin, R. Cammi, C. Pomelli, J. W. Ochterski, 
 R. L. Martin, K. Morokuma, V. G. Zakrzewski, G. A. Voth, 
 P. Salvador, J. J. Dannenberg, S. Dapprich, A. D. Daniels, 
 O. Farkas, J. B. Foresman, J. V. Ortiz, J. Cioslowski, 
 and D. J. Fox, Gaussian, Inc., Wallingford CT, 2013.
 
 ******************************************
 Gaussian 09:  ES64L-G09RevD.01 24-Apr-2013
                24-Jul-2021 
 ******************************************
 %mem=2gb
 %nproc=4
 Will use up to    4 processors via shared memory.
 %chk=conf-862.chk
 ----------------------------------------------------------------------
 # B3LYP/6-311G(d,p) EmpiricalDispersion=GD3BJ opt=calcfc freq=noraman 
 nosymm integral(ultrafinegrid)
 ----------------------------------------------------------------------
 1/10=4,14=-1,18=20,19=15,26=4,38=1/1,3;
 2/9=110,12=2,15=1,17=6,18=5,40=1/2;
 3/5=4,6=6,7=101,11=2,16=1,25=1,30=1,71=2,74=-5,75=-5,124=41,140=1/1,2,3;
 4//1;
 5/5=2,38=5/2;
 8/6=4,10=90,11=11/1;
 11/6=1,8=1,9=11,15=111,16=1,31=1/1,2,10;
 10/6=1,13=1,31=1/2;
 6/7=2,8=2,9=2,10=2,28=1/1;
 7/10=1,18=20,25=1,30=1/1,2,3,16;
 1/10=4,14=-1,18=20,19=15,26=4/3(2);
 2/9=110,15=1/2;
 99//99;
 2/9=110,15=1/2;
 3/5=4,6=6,7=101,11=2,16=1,25=1,30=1,71=1,74=-5,75=-5,124=41/1,2,3;
 4/5=5,16=3,69=1/1;
 5/5=2,38=5/2;
 7/30=1/1,2,3,16;
 1/14=-1,18=20,19=15,26=4/3(-5);
 2/9=110,15=1/2;
 6/7=2,8=2,9=2,10=2,19=2,28=1/1;
 99/9=1/99;
 ------------------------------------------------------------
 Candidate Structure: Conf:862 OPT and FREQ calc in gas phase
 ------------------------------------------------------------
 Symbolic Z-matrix:
 Charge =  1 Multiplicity = 1
 O                    -0.64382   1.8692   -0.02147 
 C                     0.40427   1.2806    0.22981 
 N                     0.59079   0.64882   1.42117 
 C                    -0.55934   0.17793   2.1589 
 C                    -0.26682   0.28216   3.63838 
 O                    -1.39388   0.18172   4.37067 
 O                     0.82812   0.40151   4.11882 
 C                    -0.95329  -1.29804   1.8377 
 C                    -0.88358  -1.61865   0.37492 
 C                    -1.65877  -1.27871  -0.69283 
 N                    -1.04311  -1.62859  -1.87774 
 C                     0.06046  -2.24305  -1.5287 
 N                     0.21252  -2.25603  -0.18544 
 C                     1.55492   1.16443  -0.75258 
 C                     1.27168   1.77315  -2.11516 
 N                     0.01421   1.25406  -2.69256 
 H                     1.48274   0.25027   1.65622 
 H                    -1.39309   0.82491   1.88935 
 H                    -1.11634   0.23657   5.29364 
 H                    -1.96103  -1.45781   2.21287 
 H                    -0.29261  -1.98659   2.36159 
 H                    -2.59999  -0.7413   -0.67729 
 H                     0.78342  -2.65745  -2.21707 
 H                     0.96095  -2.69677   0.32238 
 H                     1.7852    0.09784  -0.87003 
 H                     2.44008   1.62365  -0.30631 
 H                     2.10403   1.55295  -2.78582 
 H                     1.19989   2.85621  -2.01733 
 H                    -0.03434   0.22637  -2.64484 
 H                    -0.1372    1.56364  -3.65237 
 H                    -0.75596   1.59722  -2.11067 
 

 GradGradGradGradGradGradGradGradGradGradGradGradGradGradGradGradGradGrad
 Berny optimization.
 Initialization pass.
                           ----------------------------
                           !    Initial Parameters    !
                           ! (Angstroms and Degrees)  !
 --------------------------                            --------------------------
 ! Name  Definition              Value          Derivative Info.                !
 --------------------------------------------------------------------------------
 ! R1    R(1,2)                  1.228          calculate D2E/DX2 analytically  !
 ! R2    R(2,3)                  1.3614         calculate D2E/DX2 analytically  !
 ! R3    R(2,14)                 1.5174         calculate D2E/DX2 analytically  !
 ! R4    R(3,4)                  1.4453         calculate D2E/DX2 analytically  !
 ! R5    R(3,17)                 1.0048         calculate D2E/DX2 analytically  !
 ! R6    R(4,5)                  1.5117         calculate D2E/DX2 analytically  !
 ! R7    R(4,8)                  1.561          calculate D2E/DX2 analytically  !
 ! R8    R(4,18)                 1.0892         calculate D2E/DX2 analytically  !
 ! R9    R(5,6)                  1.3478         calculate D2E/DX2 analytically  !
 ! R10   R(5,7)                  1.2017         calculate D2E/DX2 analytically  !
 ! R11   R(6,19)                 0.9654         calculate D2E/DX2 analytically  !
 ! R12   R(8,9)                  1.4991         calculate D2E/DX2 analytically  !
 ! R13   R(8,20)                 1.0871         calculate D2E/DX2 analytically  !
 ! R14   R(8,21)                 1.0886         calculate D2E/DX2 analytically  !
 ! R15   R(9,10)                 1.3626         calculate D2E/DX2 analytically  !
 ! R16   R(9,13)                 1.3862         calculate D2E/DX2 analytically  !
 ! R17   R(10,11)                1.3804         calculate D2E/DX2 analytically  !
 ! R18   R(10,22)                1.084          calculate D2E/DX2 analytically  !
 ! R19   R(11,12)                1.3104         calculate D2E/DX2 analytically  !
 ! R20   R(12,13)                1.3519         calculate D2E/DX2 analytically  !
 ! R21   R(12,23)                1.0809         calculate D2E/DX2 analytically  !
 ! R22   R(13,24)                1.0061         calculate D2E/DX2 analytically  !
 ! R23   R(14,15)                1.519          calculate D2E/DX2 analytically  !
 ! R24   R(14,25)                1.0975         calculate D2E/DX2 analytically  !
 ! R25   R(14,26)                1.0925         calculate D2E/DX2 analytically  !
 ! R26   R(15,16)                1.4779         calculate D2E/DX2 analytically  !
 ! R27   R(15,27)                1.0914         calculate D2E/DX2 analytically  !
 ! R28   R(15,28)                1.0898         calculate D2E/DX2 analytically  !
 ! R29   R(16,29)                1.0299         calculate D2E/DX2 analytically  !
 ! R30   R(16,30)                1.0198         calculate D2E/DX2 analytically  !
 ! R31   R(16,31)                1.0245         calculate D2E/DX2 analytically  !
 ! A1    A(1,2,3)              121.2279         calculate D2E/DX2 analytically  !
 ! A2    A(1,2,14)             123.4631         calculate D2E/DX2 analytically  !
 ! A3    A(3,2,14)             115.2858         calculate D2E/DX2 analytically  !
 ! A4    A(2,3,4)              119.2668         calculate D2E/DX2 analytically  !
 ! A5    A(2,3,17)             120.6914         calculate D2E/DX2 analytically  !
 ! A6    A(4,3,17)             117.2427         calculate D2E/DX2 analytically  !
 ! A7    A(3,4,5)              108.8511         calculate D2E/DX2 analytically  !
 ! A8    A(3,4,8)              113.8197         calculate D2E/DX2 analytically  !
 ! A9    A(3,4,18)             106.8155         calculate D2E/DX2 analytically  !
 ! A10   A(5,4,8)              108.3846         calculate D2E/DX2 analytically  !
 ! A11   A(5,4,18)             110.4487         calculate D2E/DX2 analytically  !
 ! A12   A(8,4,18)             108.5132         calculate D2E/DX2 analytically  !
 ! A13   A(4,5,6)              111.3941         calculate D2E/DX2 analytically  !
 ! A14   A(4,5,7)              125.0616         calculate D2E/DX2 analytically  !
 ! A15   A(6,5,7)              123.5135         calculate D2E/DX2 analytically  !
 ! A16   A(5,6,19)             105.9508         calculate D2E/DX2 analytically  !
 ! A17   A(4,8,9)              113.0321         calculate D2E/DX2 analytically  !
 ! A18   A(4,8,20)             107.5711         calculate D2E/DX2 analytically  !
 ! A19   A(4,8,21)             110.2341         calculate D2E/DX2 analytically  !
 ! A20   A(9,8,20)             110.39           calculate D2E/DX2 analytically  !
 ! A21   A(9,8,21)             107.8233         calculate D2E/DX2 analytically  !
 ! A22   A(20,8,21)            107.6714         calculate D2E/DX2 analytically  !
 ! A23   A(8,9,10)             133.2221         calculate D2E/DX2 analytically  !
 ! A24   A(8,9,13)             121.9732         calculate D2E/DX2 analytically  !
 ! A25   A(10,9,13)            104.3467         calculate D2E/DX2 analytically  !
 ! A26   A(9,10,11)            110.8357         calculate D2E/DX2 analytically  !
 ! A27   A(9,10,22)            127.3342         calculate D2E/DX2 analytically  !
 ! A28   A(11,10,22)           121.6851         calculate D2E/DX2 analytically  !
 ! A29   A(10,11,12)           105.4148         calculate D2E/DX2 analytically  !
 ! A30   A(11,12,13)           111.3386         calculate D2E/DX2 analytically  !
 ! A31   A(11,12,23)           124.9889         calculate D2E/DX2 analytically  !
 ! A32   A(13,12,23)           123.6344         calculate D2E/DX2 analytically  !
 ! A33   A(9,13,12)            107.9562         calculate D2E/DX2 analytically  !
 ! A34   A(9,13,24)            125.8434         calculate D2E/DX2 analytically  !
 ! A35   A(12,13,24)           126.1128         calculate D2E/DX2 analytically  !
 ! A36   A(2,14,15)            114.1209         calculate D2E/DX2 analytically  !
 ! A37   A(2,14,25)            107.6262         calculate D2E/DX2 analytically  !
 ! A38   A(2,14,26)            108.5269         calculate D2E/DX2 analytically  !
 ! A39   A(15,14,25)           109.4253         calculate D2E/DX2 analytically  !
 ! A40   A(15,14,26)           110.4291         calculate D2E/DX2 analytically  !
 ! A41   A(25,14,26)           106.3929         calculate D2E/DX2 analytically  !
 ! A42   A(14,15,16)           111.6146         calculate D2E/DX2 analytically  !
 ! A43   A(14,15,27)           109.1577         calculate D2E/DX2 analytically  !
 ! A44   A(14,15,28)           109.2687         calculate D2E/DX2 analytically  !
 ! A45   A(16,15,27)           109.7541         calculate D2E/DX2 analytically  !
 ! A46   A(16,15,28)           109.1524         calculate D2E/DX2 analytically  !
 ! A47   A(27,15,28)           107.8129         calculate D2E/DX2 analytically  !
 ! A48   A(15,16,29)           111.8689         calculate D2E/DX2 analytically  !
 ! A49   A(15,16,30)           112.7938         calculate D2E/DX2 analytically  !
 ! A50   A(15,16,31)           107.4641         calculate D2E/DX2 analytically  !
 ! A51   A(29,16,30)           109.8469         calculate D2E/DX2 analytically  !
 ! A52   A(29,16,31)           105.8119         calculate D2E/DX2 analytically  !
 ! A53   A(30,16,31)           108.7401         calculate D2E/DX2 analytically  !
 ! D1    D(1,2,3,4)             25.7252         calculate D2E/DX2 analytically  !
 ! D2    D(1,2,3,17)          -173.7386         calculate D2E/DX2 analytically  !
 ! D3    D(14,2,3,4)          -152.579          calculate D2E/DX2 analytically  !
 ! D4    D(14,2,3,17)            7.9572         calculate D2E/DX2 analytically  !
 ! D5    D(1,2,14,15)           -3.3576         calculate D2E/DX2 analytically  !
 ! D6    D(1,2,14,25)         -124.9995         calculate D2E/DX2 analytically  !
 ! D7    D(1,2,14,26)          120.2427         calculate D2E/DX2 analytically  !
 ! D8    D(3,2,14,15)          174.9041         calculate D2E/DX2 analytically  !
 ! D9    D(3,2,14,25)           53.2623         calculate D2E/DX2 analytically  !
 ! D10   D(3,2,14,26)          -61.4956         calculate D2E/DX2 analytically  !
 ! D11   D(2,3,4,5)           -147.0829         calculate D2E/DX2 analytically  !
 ! D12   D(2,3,4,8)             91.9178         calculate D2E/DX2 analytically  !
 ! D13   D(2,3,4,18)           -27.8184         calculate D2E/DX2 analytically  !
 ! D14   D(17,3,4,5)            51.7184         calculate D2E/DX2 analytically  !
 ! D15   D(17,3,4,8)           -69.2808         calculate D2E/DX2 analytically  !
 ! D16   D(17,3,4,18)          170.983          calculate D2E/DX2 analytically  !
 ! D17   D(3,4,5,6)            164.5244         calculate D2E/DX2 analytically  !
 ! D18   D(3,4,5,7)            -17.4413         calculate D2E/DX2 analytically  !
 ! D19   D(8,4,5,6)            -71.1998         calculate D2E/DX2 analytically  !
 ! D20   D(8,4,5,7)            106.8345         calculate D2E/DX2 analytically  !
 ! D21   D(18,4,5,6)            47.5527         calculate D2E/DX2 analytically  !
 ! D22   D(18,4,5,7)          -134.413          calculate D2E/DX2 analytically  !
 ! D23   D(3,4,8,9)            -42.2279         calculate D2E/DX2 analytically  !
 ! D24   D(3,4,8,20)          -164.3511         calculate D2E/DX2 analytically  !
 ! D25   D(3,4,8,21)            78.5144         calculate D2E/DX2 analytically  !
 ! D26   D(5,4,8,9)           -163.4874         calculate D2E/DX2 analytically  !
 ! D27   D(5,4,8,20)            74.3894         calculate D2E/DX2 analytically  !
 ! D28   D(5,4,8,21)           -42.7451         calculate D2E/DX2 analytically  !
 ! D29   D(18,4,8,9)            76.543          calculate D2E/DX2 analytically  !
 ! D30   D(18,4,8,20)          -45.5802         calculate D2E/DX2 analytically  !
 ! D31   D(18,4,8,21)         -162.7147         calculate D2E/DX2 analytically  !
 ! D32   D(4,5,6,19)           178.6815         calculate D2E/DX2 analytically  !
 ! D33   D(7,5,6,19)             0.6113         calculate D2E/DX2 analytically  !
 ! D34   D(4,8,9,10)           -72.7374         calculate D2E/DX2 analytically  !
 ! D35   D(4,8,9,13)            98.1881         calculate D2E/DX2 analytically  !
 ! D36   D(20,8,9,10)           47.7926         calculate D2E/DX2 analytically  !
 ! D37   D(20,8,9,13)         -141.2819         calculate D2E/DX2 analytically  !
 ! D38   D(21,8,9,10)          165.1592         calculate D2E/DX2 analytically  !
 ! D39   D(21,8,9,13)          -23.9152         calculate D2E/DX2 analytically  !
 ! D40   D(8,9,10,11)          169.1789         calculate D2E/DX2 analytically  !
 ! D41   D(8,9,10,22)           -6.4597         calculate D2E/DX2 analytically  !
 ! D42   D(13,9,10,11)          -2.8833         calculate D2E/DX2 analytically  !
 ! D43   D(13,9,10,22)        -178.5219         calculate D2E/DX2 analytically  !
 ! D44   D(8,9,13,12)         -171.9316         calculate D2E/DX2 analytically  !
 ! D45   D(8,9,13,24)           11.3113         calculate D2E/DX2 analytically  !
 ! D46   D(10,9,13,12)           1.2554         calculate D2E/DX2 analytically  !
 ! D47   D(10,9,13,24)        -175.5017         calculate D2E/DX2 analytically  !
 ! D48   D(9,10,11,12)           3.4378         calculate D2E/DX2 analytically  !
 ! D49   D(22,10,11,12)        179.363          calculate D2E/DX2 analytically  !
 ! D50   D(10,11,12,13)         -2.5847         calculate D2E/DX2 analytically  !
 ! D51   D(10,11,12,23)        179.5966         calculate D2E/DX2 analytically  !
 ! D52   D(11,12,13,9)           0.8704         calculate D2E/DX2 analytically  !
 ! D53   D(11,12,13,24)        177.6164         calculate D2E/DX2 analytically  !
 ! D54   D(23,12,13,9)         178.7241         calculate D2E/DX2 analytically  !
 ! D55   D(23,12,13,24)         -4.53           calculate D2E/DX2 analytically  !
 ! D56   D(2,14,15,16)         -52.5526         calculate D2E/DX2 analytically  !
 ! D57   D(2,14,15,27)        -174.0535         calculate D2E/DX2 analytically  !
 ! D58   D(2,14,15,28)          68.2679         calculate D2E/DX2 analytically  !
 ! D59   D(25,14,15,16)         68.0915         calculate D2E/DX2 analytically  !
 ! D60   D(25,14,15,27)        -53.4095         calculate D2E/DX2 analytically  !
 ! D61   D(25,14,15,28)       -171.088          calculate D2E/DX2 analytically  !
 ! D62   D(26,14,15,16)       -175.1202         calculate D2E/DX2 analytically  !
 ! D63   D(26,14,15,27)         63.3789         calculate D2E/DX2 analytically  !
 ! D64   D(26,14,15,28)        -54.2996         calculate D2E/DX2 analytically  !
 ! D65   D(14,15,16,29)        -48.6653         calculate D2E/DX2 analytically  !
 ! D66   D(14,15,16,30)       -173.1017         calculate D2E/DX2 analytically  !
 ! D67   D(14,15,16,31)         67.0609         calculate D2E/DX2 analytically  !
 ! D68   D(27,15,16,29)         72.4895         calculate D2E/DX2 analytically  !
 ! D69   D(27,15,16,30)        -51.9468         calculate D2E/DX2 analytically  !
 ! D70   D(27,15,16,31)       -171.7843         calculate D2E/DX2 analytically  !
 ! D71   D(28,15,16,29)       -169.5537         calculate D2E/DX2 analytically  !
 ! D72   D(28,15,16,30)         66.01           calculate D2E/DX2 analytically  !
 ! D73   D(28,15,16,31)        -53.8275         calculate D2E/DX2 analytically  !
 --------------------------------------------------------------------------------
 Trust Radius=3.00D-01 FncErr=1.00D-07 GrdErr=1.00D-06
 Number of steps in this run=    167 maximum allowed number of steps=    186.
 GradGradGradGradGradGradGradGradGradGradGradGradGradGradGradGradGradGrad

                          Input orientation:                          
 ---------------------------------------------------------------------
 Center     Atomic      Atomic             Coordinates (Angstroms)
 Number     Number       Type             X           Y           Z
 ---------------------------------------------------------------------
      1          8           0       -0.643820    1.869198   -0.021474
      2          6           0        0.404266    1.280600    0.229807
      3          7           0        0.590795    0.648822    1.421167
      4          6           0       -0.559341    0.177930    2.158903
      5          6           0       -0.266819    0.282156    3.638378
      6          8           0       -1.393883    0.181715    4.370668
      7          8           0        0.828125    0.401514    4.118816
      8          6           0       -0.953291   -1.298035    1.837704
      9          6           0       -0.883583   -1.618648    0.374916
     10          6           0       -1.658771   -1.278714   -0.692833
     11          7           0       -1.043111   -1.628594   -1.877743
     12          6           0        0.060456   -2.243054   -1.528696
     13          7           0        0.212517   -2.256029   -0.185437
     14          6           0        1.554917    1.164428   -0.752576
     15          6           0        1.271682    1.773146   -2.115165
     16          7           0        0.014210    1.254061   -2.692555
     17          1           0        1.482741    0.250266    1.656218
     18          1           0       -1.393087    0.824910    1.889346
     19          1           0       -1.116339    0.236566    5.293643
     20          1           0       -1.961030   -1.457807    2.212870
     21          1           0       -0.292610   -1.986586    2.361586
     22          1           0       -2.599988   -0.741296   -0.677291
     23          1           0        0.783419   -2.657445   -2.217071
     24          1           0        0.960952   -2.696775    0.322385
     25          1           0        1.785198    0.097843   -0.870031
     26          1           0        2.440079    1.623648   -0.306310
     27          1           0        2.104031    1.552949   -2.785819
     28          1           0        1.199893    2.856212   -2.017332
     29          1           0       -0.034340    0.226369   -2.644843
     30          1           0       -0.137203    1.563644   -3.652367
     31          1           0       -0.755962    1.597218   -2.110667
 ---------------------------------------------------------------------
                    Distance matrix (angstroms):
                    1          2          3          4          5
     1  O    0.000000
     2  C    1.228037   0.000000
     3  N    2.257168   1.361351   0.000000
     4  C    2.760719   2.421948   1.445270   0.000000
     5  C    4.006912   3.614637   2.405404   1.511713   0.000000
     6  O    4.764568   4.646248   3.585623   2.363975   1.347817
     7  O    4.632788   4.009594   2.719338   2.411703   1.201653
     8  C    3.685605   3.328311   2.519515   1.561038   2.492123
     9  C    3.518477   3.175728   2.899974   2.552535   3.826701
    10  C    3.374937   3.414304   3.639359   3.385699   4.809702
    11  N    3.979915   3.872993   4.328866   4.448829   5.889073
    12  C    4.436027   3.953058   4.164840   4.454627   5.760421
    13  N    4.216360   3.566081   3.341022   3.466389   4.614510
    14  C    2.421911   1.517421   2.433216   3.730948   4.835039
    15  C    2.839351   2.548313   3.772712   4.915792   6.139486
    16  N    2.818878   2.948398   4.197794   5.002367   6.411263
    17  H    3.155607   2.063818   1.004820   2.104287   2.644038
    18  H    2.302862   2.488414   2.045968   1.089209   2.149924
    19  H    5.580253   5.389312   4.252097   3.184380   1.861093
    20  H    4.218566   4.126262   3.402424   2.154827   2.816007
    21  H    4.546361   3.962906   2.934308   2.190287   2.603470
    22  H    3.327367   3.733153   4.064117   3.612924   5.011600
    23  H    5.229547   4.651791   4.919886   5.384376   6.635551
    24  H    4.851973   4.017210   3.540812   3.734704   4.623555
    25  H    3.123760   2.124978   2.641925   3.831151   4.956864
    26  H    3.106744   2.132987   2.711884   4.142933   4.968647
    27  H    3.910538   3.472373   4.561367   5.782258   6.964636
    28  H    2.890834   2.857482   4.131204   5.263937   6.384673
    29  H    3.154745   3.093119   4.135420   4.832593   6.287768
    30  H    3.678778   3.929958   5.206498   5.989095   7.403645
    31  H    2.109805   2.631386   3.897058   4.503584   5.917784
                    6          7          8          9         10
     6  O    0.000000
     7  O    2.247011   0.000000
     8  C    2.966427   3.356395   0.000000
     9  C    4.412227   4.585607   1.499133   0.000000
    10  C    5.276558   5.670960   2.627108   1.362556   0.000000
    11  N    6.514822   6.601635   3.731204   2.258322   1.380385
    12  C    6.541949   6.283108   3.640521   2.214685   2.141111
    13  N    5.411212   5.095891   2.523878   1.386248   2.171246
    14  C    5.992393   4.984047   4.366278   3.868207   4.037363
    15  C    7.190543   6.398487   5.477940   4.727571   4.463678
    16  N    7.281605   6.912603   5.288904   4.297426   3.634928
    17  H    3.955743   2.552605   2.892132   3.276287   4.210097
    18  H    2.563329   3.175466   2.168636   2.919600   3.341178
    19  H    0.965361   2.277798   3.784851   5.262116   6.199048
    20  H    2.768715   3.856046   1.087112   2.136548   2.926866
    21  H    3.154480   3.169689   1.088601   2.105109   3.420081
    22  H    5.271483   6.005050   3.057249   2.196118   1.083951
    23  H    7.496651   7.035815   4.615773   3.252136   3.191941
    24  H    5.497231   4.902033   2.813715   2.137153   3.147143
    25  H    6.130132   5.088891   4.096295   3.408610   3.713115
    26  H    6.217118   4.865568   4.964674   4.692896   5.037228
    27  H    8.082759   7.115317   6.233161   5.382853   5.153405
    28  H    7.395076   6.619370   6.062613   5.485261   5.198448
    29  H    7.146170   6.820675   4.823019   3.639264   2.952015
    30  H    8.237600   7.916672   6.244685   5.186817   4.376414
    31  H    6.664705   6.538004   4.900109   4.066473   3.331111
                   11         12         13         14         15
    11  N    0.000000
    12  C    1.310440   0.000000
    13  N    2.198675   1.351901   0.000000
    14  C    3.977024   3.800882   3.717957   0.000000
    15  C    4.121464   4.235666   4.591288   1.519015   0.000000
    16  N    3.176720   3.685989   4.318066   2.478978   1.477858
    17  H    4.732750   4.287565   3.359564   2.577438   4.072718
    18  H    4.509227   4.817489   4.046587   3.973129   4.902678
    19  H    7.410328   7.353752   6.164349   6.674826   7.934365
    20  H    4.195814   4.324619   3.333667   5.294513   6.294550
    21  H    4.320106   3.914681   2.610571   4.800026   6.051767
    22  H    2.156907   3.171455   3.232107   4.571727   4.835258
    23  H    2.123650   1.080859   2.148162   4.164933   4.458578
    24  H    3.161936   2.107903   1.006129   4.051817   5.100822
    25  H    3.463437   2.981337   2.912508   1.097465   2.149581
    26  H    5.017877   4.701937   4.475325   1.092496   2.158578
    27  H    4.566325   4.490679   4.984790   2.141624   1.091361
    28  H    5.016377   5.247817   5.519579   2.141910   1.089843
    29  H    2.246542   2.711609   3.503129   2.643173   2.092551
    30  H    3.763023   4.363484   5.170281   3.381040   2.095671
    31  H    3.246933   3.968994   4.414971   2.715120   2.035266
                   16         17         18         19         20
    16  N    0.000000
    17  H    4.698512   0.000000
    18  H    4.812326   2.941930   0.000000
    19  H    8.129748   4.470600   3.465829   0.000000
    20  H    5.942979   3.884190   2.374452   3.616015   0.000000
    21  H    6.011678   2.941585   3.055907   3.770662   1.756516
    22  H    3.857042   4.805948   3.239944   6.229726   3.045437
    23  H    4.014679   4.893485   5.807464   8.270139   5.347476
    24  H    5.059178   3.276648   4.516539   6.134577   3.694178
    25  H    2.791923   2.548852   4.271333   6.813886   5.094953
    26  H    3.422806   2.579571   4.489103   6.777284   5.933918
    27  H    2.113146   4.670618   5.883626   8.796667   7.111699
    28  H    2.104438   4.512862   5.109977   8.104185   6.818856
    29  H    1.029944   4.560837   4.771092   8.011890   5.490533
    30  H    1.019806   5.703530   5.730057   9.096753   6.845181
    31  H    1.024459   4.584265   4.123408   7.536912   5.429396
                   21         22         23         24         25
    21  H    0.000000
    22  H    4.013666   0.000000
    23  H    4.750999   4.182104   0.000000
    24  H    2.496823   4.183723   2.545957   0.000000
    25  H    4.370982   4.468910   3.226405   3.148193   0.000000
    26  H    5.255383   5.579683   4.972252   4.609677   1.753492
    27  H    6.690888   5.642450   4.449148   5.387737   2.426774
    28  H    6.697401   5.401562   5.532970   6.030507   3.044253
    29  H    5.479800   3.374935   3.027888   4.282501   2.545033
    30  H    6.985407   4.497680   4.552496   5.929229   3.685864
    31  H    5.749730   3.305094   4.525834   5.225505   3.200749
                   26         27         28         29         30
    26  H    0.000000
    27  H    2.503176   0.000000
    28  H    2.446399   1.762535   0.000000
    29  H    3.680200   2.520381   2.972066   0.000000
    30  H    4.223988   2.402946   2.476267   1.677495   0.000000
    31  H    3.670297   2.938937   2.327906   1.638691   1.661574
                   31
    31  H    0.000000
 Symmetry turned off by external request.
 Stoichiometry    C9H15N4O3(1+)
 Framework group  C1[X(C9H15N4O3)]
 Deg. of freedom    87
 Full point group                 C1      NOp   1
 Rotational constants (GHZ):      0.7898144      0.3929674      0.3096722
 Standard basis: 6-311G(d,p) (5D, 7F)
   378 basis functions,   632 primitive gaussians,   394 cartesian basis functions
    60 alpha electrons       60 beta electrons
       nuclear repulsion energy      1193.3746060359 Hartrees.
 NAtoms=   31 NActive=   31 NUniq=   31 SFac= 1.00D+00 NAtFMM=   60 NAOKFM=F Big=F
 Integral buffers will be    131072 words long.
 Raffenetti 2 integral format.
 Two-electron integral symmetry is turned off.
 Nuclear repulsion after empirical dispersion term =     1193.3130169520 Hartrees.
 One-electron integrals computed using PRISM.
 NBasis=   378 RedAO= T EigKep=  5.44D-04  NBF=   378
 NBsUse=   378 1.00D-06 EigRej= -1.00D+00 NBFU=   378
 ExpMin= 1.03D-01 ExpMax= 8.59D+03 ExpMxC= 1.30D+03 IAcc=3 IRadAn=         5 AccDes= 0.00D+00
 Harris functional with IExCor=  402 and IRadAn=       5 diagonalized for initial guess.
 HarFok:  IExCor=  402 AccDes= 0.00D+00 IRadAn=         5 IDoV= 1 UseB2=F ITyADJ=14
 ICtDFT=  3500011 ScaDFX=  1.000000  1.000000  1.000000  1.000000
 FoFCou: FMM=F IPFlag=           0 FMFlag=      100000 FMFlg1=           0
         NFxFlg=           0 DoJE=T BraDBF=F KetDBF=T FulRan=T
         wScrn=  0.000000 ICntrl=     500 IOpCl=  0 I1Cent=   200000004 NGrid=           0
         NMat0=    1 NMatS0=      1 NMatT0=    0 NMatD0=    1 NMtDS0=    0 NMtDT0=    0
 Symmetry not used in FoFCou.
 Requested convergence on RMS density matrix=1.00D-08 within 128 cycles.
 Requested convergence on MAX density matrix=1.00D-06.
 Requested convergence on             energy=1.00D-06.
 No special actions if energy rises.
 Integral accuracy reduced to 1.0D-05 until final iterations.
 EnCoef did     1 forward-backward iterations
 Initial convergence to 1.0D-05 achieved.  Increase integral accuracy.
 SCF Done:  E(RB3LYP) =  -796.760262131     A.U. after   14 cycles
            NFock= 14  Conv=0.75D-08     -V/T= 2.0034
 DoSCS=F DFT=T ScalE2(SS,OS)=  1.000000  1.000000
 Range of M.O.s used for correlation:     1   378
 NBasis=   378 NAE=    60 NBE=    60 NFC=     0 NFV=     0
 NROrb=    378 NOA=    60 NOB=    60 NVA=   318 NVB=   318
 Symmetrizing basis deriv contribution to polar:
 IMax=3 JMax=2 DiffMx= 0.00D+00
 G2DrvN: will do    32 centers at a time, making    1 passes.
 Calling FoFCou, ICntrl=  3107 FMM=F I1Cent=   0 AccDes= 0.00D+00.
 End of G2Drv F.D. properties file   721 does not exist.
 End of G2Drv F.D. properties file   722 does not exist.
 End of G2Drv F.D. properties file   788 does not exist.
          IDoAtm=1111111111111111111111111111111
          Differentiating once with respect to nuclear coordinates.
          There are    96 degrees of freedom in the 1st order CPHF.  IDoFFX=6 NUNeed=     0.
     90 vectors produced by pass  0 Test12= 1.99D-14 1.04D-09 XBig12= 2.17D-01 9.03D-02.
 AX will form    90 AO Fock derivatives at one time.
     90 vectors produced by pass  1 Test12= 1.99D-14 1.04D-09 XBig12= 3.02D-02 4.03D-02.
     90 vectors produced by pass  2 Test12= 1.99D-14 1.04D-09 XBig12= 2.49D-04 2.14D-03.
     90 vectors produced by pass  3 Test12= 1.99D-14 1.04D-09 XBig12= 9.48D-07 8.79D-05.
     90 vectors produced by pass  4 Test12= 1.99D-14 1.04D-09 XBig12= 1.97D-09 3.87D-06.
     80 vectors produced by pass  5 Test12= 1.99D-14 1.04D-09 XBig12= 2.23D-12 1.25D-07.
     22 vectors produced by pass  6 Test12= 1.99D-14 1.04D-09 XBig12= 2.28D-15 4.99D-09.
 InvSVY:  IOpt=1 It=  1 EMax= 5.55D-16
 Solved reduced A of dimension   552 with    96 vectors.
 End of Minotr F.D. properties file   721 does not exist.
 End of Minotr F.D. properties file   722 does not exist.
 End of Minotr F.D. properties file   788 does not exist.

 **********************************************************************

            Population analysis using the SCF density.

 **********************************************************************

 Alpha  occ. eigenvalues --  -19.27887 -19.24176 -19.22753 -14.59476 -14.50512
 Alpha  occ. eigenvalues --  -14.47807 -14.43136 -10.42834 -10.42121 -10.40019
 Alpha  occ. eigenvalues --  -10.36068 -10.35642 -10.35227 -10.33996 -10.32160
 Alpha  occ. eigenvalues --  -10.31311  -1.22922  -1.19892  -1.17246  -1.16014
 Alpha  occ. eigenvalues --   -1.14111  -1.07583  -1.01328  -0.96201  -0.93248
 Alpha  occ. eigenvalues --   -0.88448  -0.84036  -0.80651  -0.76253  -0.75462
 Alpha  occ. eigenvalues --   -0.75291  -0.74151  -0.73344  -0.72376  -0.68575
 Alpha  occ. eigenvalues --   -0.67426  -0.65439  -0.62764  -0.62112  -0.61350
 Alpha  occ. eigenvalues --   -0.59910  -0.59412  -0.58391  -0.57358  -0.57065
 Alpha  occ. eigenvalues --   -0.56327  -0.54815  -0.54416  -0.54112  -0.53465
 Alpha  occ. eigenvalues --   -0.52546  -0.50722  -0.50109  -0.44056  -0.43090
 Alpha  occ. eigenvalues --   -0.42058  -0.41289  -0.40608  -0.40084  -0.36571
 Alpha virt. eigenvalues --   -0.14650  -0.14089  -0.12576  -0.11146  -0.10166
 Alpha virt. eigenvalues --   -0.08831  -0.08088  -0.07208  -0.06861  -0.06187
 Alpha virt. eigenvalues --   -0.05382  -0.03860  -0.03452  -0.02722  -0.02557
 Alpha virt. eigenvalues --   -0.01869  -0.00280   0.00225   0.01094   0.01302
 Alpha virt. eigenvalues --    0.02352   0.05928   0.07258   0.07671   0.08428
 Alpha virt. eigenvalues --    0.08977   0.09869   0.10611   0.11418   0.13730
 Alpha virt. eigenvalues --    0.14797   0.15154   0.16068   0.17541   0.17929
 Alpha virt. eigenvalues --    0.19285   0.20207   0.21098   0.22258   0.24147
 Alpha virt. eigenvalues --    0.24953   0.25338   0.25733   0.27230   0.28267
 Alpha virt. eigenvalues --    0.28993   0.29989   0.31226   0.31689   0.33713
 Alpha virt. eigenvalues --    0.34027   0.34835   0.36395   0.37468   0.38262
 Alpha virt. eigenvalues --    0.38846   0.39418   0.40234   0.41223   0.41811
 Alpha virt. eigenvalues --    0.41954   0.43401   0.43890   0.44108   0.44800
 Alpha virt. eigenvalues --    0.45785   0.46164   0.47718   0.48276   0.48440
 Alpha virt. eigenvalues --    0.49736   0.50555   0.50853   0.52052   0.52421
 Alpha virt. eigenvalues --    0.53728   0.54847   0.55347   0.56400   0.57157
 Alpha virt. eigenvalues --    0.58268   0.59397   0.60506   0.61733   0.63601
 Alpha virt. eigenvalues --    0.65720   0.65985   0.68160   0.69072   0.70151
 Alpha virt. eigenvalues --    0.71612   0.72140   0.72994   0.75155   0.76699
 Alpha virt. eigenvalues --    0.79081   0.80418   0.81245   0.82368   0.83792
 Alpha virt. eigenvalues --    0.86045   0.86950   0.88726   0.91231   0.91684
 Alpha virt. eigenvalues --    0.93622   0.94582   0.96223   0.98509   0.99256
 Alpha virt. eigenvalues --    1.01054   1.02731   1.04313   1.06611   1.06904
 Alpha virt. eigenvalues --    1.08502   1.09961   1.11523   1.13158   1.14538
 Alpha virt. eigenvalues --    1.15763   1.17641   1.18773   1.19526   1.22608
 Alpha virt. eigenvalues --    1.25808   1.28625   1.29646   1.30255   1.32043
 Alpha virt. eigenvalues --    1.32750   1.33725   1.34630   1.35082   1.35556
 Alpha virt. eigenvalues --    1.36911   1.37897   1.40006   1.41141   1.41288
 Alpha virt. eigenvalues --    1.41626   1.44515   1.44676   1.45729   1.47764
 Alpha virt. eigenvalues --    1.48608   1.48775   1.50127   1.51199   1.52586
 Alpha virt. eigenvalues --    1.53178   1.54025   1.55958   1.56606   1.57140
 Alpha virt. eigenvalues --    1.58144   1.58956   1.60270   1.60598   1.61875
 Alpha virt. eigenvalues --    1.63452   1.64657   1.65355   1.67267   1.68095
 Alpha virt. eigenvalues --    1.69675   1.70342   1.73103   1.74111   1.74985
 Alpha virt. eigenvalues --    1.77181   1.78235   1.79110   1.82384   1.83724
 Alpha virt. eigenvalues --    1.86830   1.88598   1.89949   1.91757   1.92436
 Alpha virt. eigenvalues --    1.94580   1.94654   1.97939   1.99336   2.00080
 Alpha virt. eigenvalues --    2.01264   2.03619   2.06150   2.06492   2.07997
 Alpha virt. eigenvalues --    2.09231   2.10323   2.11698   2.14325   2.16483
 Alpha virt. eigenvalues --    2.18473   2.21023   2.23693   2.25592   2.27729
 Alpha virt. eigenvalues --    2.29947   2.30523   2.32117   2.33435   2.34310
 Alpha virt. eigenvalues --    2.35299   2.36718   2.38149   2.39722   2.41332
 Alpha virt. eigenvalues --    2.42684   2.43569   2.44232   2.44914   2.45297
 Alpha virt. eigenvalues --    2.46601   2.47826   2.50053   2.51478   2.52954
 Alpha virt. eigenvalues --    2.55769   2.56381   2.57368   2.58842   2.59657
 Alpha virt. eigenvalues --    2.62168   2.63714   2.65902   2.66487   2.68171
 Alpha virt. eigenvalues --    2.68889   2.69861   2.71277   2.72909   2.74328
 Alpha virt. eigenvalues --    2.76042   2.76855   2.77395   2.78511   2.79702
 Alpha virt. eigenvalues --    2.80983   2.82342   2.83551   2.85498   2.86471
 Alpha virt. eigenvalues --    2.87990   2.90246   2.92350   2.94349   2.95959
 Alpha virt. eigenvalues --    3.02616   3.03570   3.04769   3.12361   3.14708
 Alpha virt. eigenvalues --    3.15379   3.20000   3.22518   3.24318   3.26546
 Alpha virt. eigenvalues --    3.28210   3.36145   3.40493   3.43068   3.44061
 Alpha virt. eigenvalues --    3.47375   3.52896   3.53507   3.55921   3.60096
 Alpha virt. eigenvalues --    3.61873   3.65680   3.65910   3.66976   3.69611
 Alpha virt. eigenvalues --    3.73214   3.77973   3.78860   3.82887   3.87902
 Alpha virt. eigenvalues --    3.96372   4.06022   4.07839   4.14568   4.30456
 Alpha virt. eigenvalues --    4.48187   4.50523   4.61435   4.62946   4.70113
 Alpha virt. eigenvalues --    4.72729   4.78364   4.79731   4.81410   4.85218
 Alpha virt. eigenvalues --    4.93284   5.02453   5.12053   5.15994   5.46042
 Alpha virt. eigenvalues --    5.53127   5.62773  23.58873  23.62298  23.66343
 Alpha virt. eigenvalues --   23.66735  23.68915  23.71362  23.75711  23.79072
 Alpha virt. eigenvalues --   24.02589  35.32868  35.39530  35.47099  35.55229
 Alpha virt. eigenvalues --   49.74102  49.86228  49.88213
          Condensed to atoms (all electrons):
               1          2          3          4          5          6
     1  O    7.926726   0.591828  -0.092286  -0.005516  -0.000590   0.000002
     2  C    0.591828   4.545054   0.399968  -0.061318   0.006313  -0.000059
     3  N   -0.092286   0.399968   6.675546   0.228590  -0.037898   0.002070
     4  C   -0.005516  -0.061318   0.228590   5.329825   0.268202  -0.105834
     5  C   -0.000590   0.006313  -0.037898   0.268202   4.489844   0.350581
     6  O    0.000002  -0.000059   0.002070  -0.105834   0.350581   7.811104
     7  O   -0.000004   0.000562   0.002936  -0.097897   0.663950  -0.077167
     8  C   -0.000276  -0.005496  -0.045354   0.317136  -0.061445   0.009283
     9  C   -0.005254  -0.008233  -0.007326  -0.062035   0.002150   0.000617
    10  C    0.003035   0.001225  -0.007795   0.000284  -0.000081   0.000000
    11  N   -0.000384  -0.000246   0.000177   0.000118  -0.000001   0.000000
    12  C    0.000097  -0.000196  -0.000009   0.000262  -0.000005   0.000000
    13  N    0.000100   0.001504   0.000827  -0.002574  -0.000088  -0.000001
    14  C   -0.105201   0.274100  -0.096872   0.009003  -0.000594   0.000000
    15  C    0.027109  -0.061241   0.008115  -0.000547   0.000012   0.000000
    16  N   -0.021014  -0.003599  -0.000526  -0.000013   0.000000   0.000000
    17  H    0.002757  -0.032611   0.366062  -0.047040  -0.002961   0.000870
    18  H    0.023116  -0.012772  -0.029151   0.383646  -0.015371   0.005948
    19  H    0.000000   0.000020  -0.000530   0.016785  -0.028961   0.307675
    20  H   -0.000322   0.000389   0.005627  -0.038756  -0.001087   0.006700
    21  H   -0.000085  -0.000589   0.001125  -0.045453   0.000475  -0.000850
    22  H    0.001779   0.000199  -0.000518   0.000284  -0.000023  -0.000003
    23  H    0.000001   0.000007  -0.000019   0.000015  -0.000001   0.000000
    24  H   -0.000021  -0.000034   0.001055  -0.000280  -0.000037  -0.000001
    25  H    0.001872  -0.033715   0.001220  -0.001482  -0.000030  -0.000001
    26  H    0.001015  -0.014020   0.000176   0.000040   0.000004   0.000000
    27  H    0.000562   0.006335  -0.000039   0.000013   0.000000   0.000000
    28  H    0.004504  -0.004513   0.000320  -0.000028   0.000001   0.000000
    29  H    0.001126  -0.000433  -0.000271   0.000177  -0.000003   0.000000
    30  H   -0.000038   0.000135   0.000004  -0.000002   0.000000   0.000000
    31  H    0.044666   0.001326   0.001039   0.000222   0.000001   0.000000
               7          8          9         10         11         12
     1  O   -0.000004  -0.000276  -0.005254   0.003035  -0.000384   0.000097
     2  C    0.000562  -0.005496  -0.008233   0.001225  -0.000246  -0.000196
     3  N    0.002936  -0.045354  -0.007326  -0.007795   0.000177  -0.000009
     4  C   -0.097897   0.317136  -0.062035   0.000284   0.000118   0.000262
     5  C    0.663950  -0.061445   0.002150  -0.000081  -0.000001  -0.000005
     6  O   -0.077167   0.009283   0.000617   0.000000   0.000000   0.000000
     7  O    7.789837  -0.001856  -0.000445  -0.000002   0.000000   0.000000
     8  C   -0.001856   4.912287   0.315408  -0.049485   0.004841   0.007769
     9  C   -0.000445   0.315408   5.210921   0.516469  -0.090283  -0.140222
    10  C   -0.000002  -0.049485   0.516469   4.923672   0.463423  -0.166502
    11  N    0.000000   0.004841  -0.090283   0.463423   6.534049   0.528259
    12  C    0.000000   0.007769  -0.140222  -0.166502   0.528259   4.823458
    13  N    0.000003  -0.040420   0.367563  -0.074658  -0.089016   0.399946
    14  C   -0.000106  -0.000756  -0.000347   0.002888   0.000461  -0.003651
    15  C    0.000000   0.000050   0.000204  -0.001105   0.000115   0.001011
    16  N    0.000000   0.000016   0.000200   0.001440  -0.013476  -0.003099
    17  H    0.019666   0.003662  -0.002613  -0.000240  -0.000060  -0.000086
    18  H    0.001846  -0.026028  -0.007941   0.002131  -0.000059  -0.000042
    19  H    0.008827  -0.001051   0.000063  -0.000001   0.000000   0.000000
    20  H    0.000125   0.408880  -0.027797  -0.004018   0.000102  -0.000172
    21  H    0.003212   0.405928  -0.042827   0.004254  -0.000322  -0.000230
    22  H    0.000000  -0.000118  -0.050028   0.431601  -0.027718   0.007712
    23  H    0.000000  -0.000265   0.003380   0.005959  -0.027428   0.420464
    24  H   -0.000023   0.000578  -0.034038   0.008347   0.005496  -0.022963
    25  H   -0.000025   0.001244  -0.002084  -0.004256  -0.001444   0.006673
    26  H   -0.000032  -0.000044   0.000062   0.000138   0.000017   0.000001
    27  H    0.000000   0.000001  -0.000028  -0.000016  -0.000047   0.000130
    28  H    0.000000   0.000005   0.000009  -0.000032  -0.000026   0.000002
    29  H    0.000000  -0.000264   0.001113  -0.006970   0.053314   0.005203
    30  H    0.000000   0.000000  -0.000002   0.000052  -0.000034   0.000037
    31  H    0.000000  -0.000043  -0.000164   0.002673   0.000318  -0.000145
              13         14         15         16         17         18
     1  O    0.000100  -0.105201   0.027109  -0.021014   0.002757   0.023116
     2  C    0.001504   0.274100  -0.061241  -0.003599  -0.032611  -0.012772
     3  N    0.000827  -0.096872   0.008115  -0.000526   0.366062  -0.029151
     4  C   -0.002574   0.009003  -0.000547  -0.000013  -0.047040   0.383646
     5  C   -0.000088  -0.000594   0.000012   0.000000  -0.002961  -0.015371
     6  O   -0.000001   0.000000   0.000000   0.000000   0.000870   0.005948
     7  O    0.000003  -0.000106   0.000000   0.000000   0.019666   0.001846
     8  C   -0.040420  -0.000756   0.000050   0.000016   0.003662  -0.026028
     9  C    0.367563  -0.000347   0.000204   0.000200  -0.002613  -0.007941
    10  C   -0.074658   0.002888  -0.001105   0.001440  -0.000240   0.002131
    11  N   -0.089016   0.000461   0.000115  -0.013476  -0.000060  -0.000059
    12  C    0.399946  -0.003651   0.001011  -0.003099  -0.000086  -0.000042
    13  N    6.452069  -0.003025  -0.000012   0.000061   0.001607  -0.000034
    14  C   -0.003025   5.253439   0.318319  -0.034991   0.001060   0.003728
    15  C   -0.000012   0.318319   4.900231   0.244663   0.000128  -0.000189
    16  N    0.000061  -0.034991   0.244663   6.176016   0.000033   0.000050
    17  H    0.001607   0.001060   0.000128   0.000033   0.442338   0.006122
    18  H   -0.000034   0.003728  -0.000189   0.000050   0.006122   0.468823
    19  H    0.000000   0.000000   0.000000   0.000000  -0.000187  -0.000813
    20  H    0.002300  -0.000021   0.000001   0.000001  -0.000123  -0.004065
    21  H   -0.004757   0.000000   0.000002  -0.000001   0.003306   0.006286
    22  H    0.003938   0.000210  -0.000084   0.000148  -0.000004   0.000254
    23  H   -0.036356  -0.000093   0.000070   0.000062  -0.000003  -0.000002
    24  H    0.357957   0.000157   0.000017   0.000011   0.000224   0.000021
    25  H    0.008821   0.378569  -0.028506  -0.003825   0.000214  -0.000306
    26  H   -0.000079   0.385994  -0.018857   0.003421   0.000517  -0.000132
    27  H   -0.000003  -0.033009   0.412706  -0.025150  -0.000027   0.000000
    28  H   -0.000006  -0.035303   0.408996  -0.024516  -0.000025  -0.000030
    29  H    0.000341  -0.005826  -0.027157   0.319450  -0.000031  -0.000002
    30  H    0.000004   0.006071  -0.023547   0.356096   0.000002  -0.000001
    31  H   -0.000101  -0.014055  -0.020631   0.331538  -0.000158  -0.000126
              19         20         21         22         23         24
     1  O    0.000000  -0.000322  -0.000085   0.001779   0.000001  -0.000021
     2  C    0.000020   0.000389  -0.000589   0.000199   0.000007  -0.000034
     3  N   -0.000530   0.005627   0.001125  -0.000518  -0.000019   0.001055
     4  C    0.016785  -0.038756  -0.045453   0.000284   0.000015  -0.000280
     5  C   -0.028961  -0.001087   0.000475  -0.000023  -0.000001  -0.000037
     6  O    0.307675   0.006700  -0.000850  -0.000003   0.000000  -0.000001
     7  O    0.008827   0.000125   0.003212   0.000000   0.000000  -0.000023
     8  C   -0.001051   0.408880   0.405928  -0.000118  -0.000265   0.000578
     9  C    0.000063  -0.027797  -0.042827  -0.050028   0.003380  -0.034038
    10  C   -0.000001  -0.004018   0.004254   0.431601   0.005959   0.008347
    11  N    0.000000   0.000102  -0.000322  -0.027718  -0.027428   0.005496
    12  C    0.000000  -0.000172  -0.000230   0.007712   0.420464  -0.022963
    13  N    0.000000   0.002300  -0.004757   0.003938  -0.036356   0.357957
    14  C    0.000000  -0.000021   0.000000   0.000210  -0.000093   0.000157
    15  C    0.000000   0.000001   0.000002  -0.000084   0.000070   0.000017
    16  N    0.000000   0.000001  -0.000001   0.000148   0.000062   0.000011
    17  H   -0.000187  -0.000123   0.003306  -0.000004  -0.000003   0.000224
    18  H   -0.000813  -0.004065   0.006286   0.000254  -0.000002   0.000021
    19  H    0.422726  -0.000040  -0.000280   0.000000   0.000000   0.000001
    20  H   -0.000040   0.481429  -0.014690   0.000439   0.000012  -0.000003
    21  H   -0.000280  -0.014690   0.545704  -0.000067  -0.000033   0.003599
    22  H    0.000000   0.000439  -0.000067   0.508324  -0.000248  -0.000242
    23  H    0.000000   0.000012  -0.000033  -0.000248   0.497447  -0.001611
    24  H    0.000001  -0.000003   0.003599  -0.000242  -0.001611   0.433564
    25  H    0.000000   0.000021  -0.000109  -0.000083   0.000066   0.000375
    26  H    0.000000   0.000000  -0.000003   0.000004   0.000002  -0.000007
    27  H    0.000000   0.000000   0.000000   0.000000   0.000030   0.000001
    28  H    0.000000   0.000000   0.000000  -0.000006   0.000001   0.000002
    29  H    0.000000  -0.000025   0.000008  -0.000918  -0.000738  -0.000294
    30  H    0.000000   0.000000   0.000000   0.000007  -0.000001   0.000000
    31  H    0.000000  -0.000010  -0.000001   0.000379   0.000018  -0.000009
              25         26         27         28         29         30
     1  O    0.001872   0.001015   0.000562   0.004504   0.001126  -0.000038
     2  C   -0.033715  -0.014020   0.006335  -0.004513  -0.000433   0.000135
     3  N    0.001220   0.000176  -0.000039   0.000320  -0.000271   0.000004
     4  C   -0.001482   0.000040   0.000013  -0.000028   0.000177  -0.000002
     5  C   -0.000030   0.000004   0.000000   0.000001  -0.000003   0.000000
     6  O   -0.000001   0.000000   0.000000   0.000000   0.000000   0.000000
     7  O   -0.000025  -0.000032   0.000000   0.000000   0.000000   0.000000
     8  C    0.001244  -0.000044   0.000001   0.000005  -0.000264   0.000000
     9  C   -0.002084   0.000062  -0.000028   0.000009   0.001113  -0.000002
    10  C   -0.004256   0.000138  -0.000016  -0.000032  -0.006970   0.000052
    11  N   -0.001444   0.000017  -0.000047  -0.000026   0.053314  -0.000034
    12  C    0.006673   0.000001   0.000130   0.000002   0.005203   0.000037
    13  N    0.008821  -0.000079  -0.000003  -0.000006   0.000341   0.000004
    14  C    0.378569   0.385994  -0.033009  -0.035303  -0.005826   0.006071
    15  C   -0.028506  -0.018857   0.412706   0.408996  -0.027157  -0.023547
    16  N   -0.003825   0.003421  -0.025150  -0.024516   0.319450   0.356096
    17  H    0.000214   0.000517  -0.000027  -0.000025  -0.000031   0.000002
    18  H   -0.000306  -0.000132   0.000000  -0.000030  -0.000002  -0.000001
    19  H    0.000000   0.000000   0.000000   0.000000   0.000000   0.000000
    20  H    0.000021   0.000000   0.000000   0.000000  -0.000025   0.000000
    21  H   -0.000109  -0.000003   0.000000   0.000000   0.000008   0.000000
    22  H   -0.000083   0.000004   0.000000  -0.000006  -0.000918   0.000007
    23  H    0.000066   0.000002   0.000030   0.000001  -0.000738  -0.000001
    24  H    0.000375  -0.000007   0.000001   0.000002  -0.000294   0.000000
    25  H    0.534161  -0.015605  -0.005097   0.007047   0.003431  -0.000268
    26  H   -0.015605   0.468981  -0.001979  -0.004005   0.000158  -0.000181
    27  H   -0.005097  -0.001979   0.484005  -0.019295  -0.003727  -0.004143
    28  H    0.007047  -0.004005  -0.019295   0.477268   0.004626  -0.002759
    29  H    0.003431   0.000158  -0.003727   0.004626   0.407200  -0.013219
    30  H   -0.000268  -0.000181  -0.004143  -0.002759  -0.013219   0.395828
    31  H   -0.000756   0.000211   0.005270  -0.005023  -0.015922  -0.010241
              31
     1  O    0.044666
     2  C    0.001326
     3  N    0.001039
     4  C    0.000222
     5  C    0.000001
     6  O    0.000000
     7  O    0.000000
     8  C   -0.000043
     9  C   -0.000164
    10  C    0.002673
    11  N    0.000318
    12  C   -0.000145
    13  N   -0.000101
    14  C   -0.014055
    15  C   -0.020631
    16  N    0.331538
    17  H   -0.000158
    18  H   -0.000126
    19  H    0.000000
    20  H   -0.000010
    21  H   -0.000001
    22  H    0.000379
    23  H    0.000018
    24  H   -0.000009
    25  H   -0.000756
    26  H    0.000211
    27  H    0.005270
    28  H   -0.005023
    29  H   -0.015922
    30  H   -0.010241
    31  H    0.378249
 Mulliken charges:
               1
     1  O   -0.399305
     2  C    0.410110
     3  N   -0.376263
     4  C   -0.085825
     5  C    0.367642
     6  O   -0.310935
     7  O   -0.313408
     8  C   -0.154190
     9  C    0.063506
    10  C   -0.052429
    11  N   -0.340147
    12  C    0.136298
    13  N   -0.345910
    14  C   -0.300147
    15  C   -0.139872
    16  N   -0.302996
    17  H    0.237601
    18  H    0.195094
    19  H    0.275765
    20  H    0.185104
    21  H    0.136399
    22  H    0.124784
    23  H    0.139264
    24  H    0.248158
    25  H    0.153875
    26  H    0.194203
    27  H    0.183508
    28  H    0.192786
    29  H    0.279655
    30  H    0.296200
    31  H    0.301475
 Sum of Mulliken charges =   1.00000
 Mulliken charges with hydrogens summed into heavy atoms:
               1
     1  O   -0.399305
     2  C    0.410110
     3  N   -0.138662
     4  C    0.109268
     5  C    0.367642
     6  O   -0.035169
     7  O   -0.313408
     8  C    0.167313
     9  C    0.063506
    10  C    0.072356
    11  N   -0.340147
    12  C    0.275562
    13  N   -0.097751
    14  C    0.047931
    15  C    0.236422
    16  N    0.574333
 APT charges:
               1
     1  O   -0.182704
     2  C    0.000380
     3  N   -0.364520
     4  C   -0.450282
     5  C   -0.659820
     6  O   -0.763557
     7  O    0.365352
     8  C   -1.004070
     9  C    0.011148
    10  C   -0.385853
    11  N   -0.248640
    12  C   -0.344557
    13  N   -0.679140
    14  C   -0.620385
    15  C   -1.096641
    16  N   -0.775327
    17  H    0.491478
    18  H    0.328603
    19  H    1.205849
    20  H    0.590268
    21  H    0.450543
    22  H    0.442127
    23  H    0.656717
    24  H    0.620111
    25  H    0.183666
    26  H    0.569142
    27  H    0.653621
    28  H    0.571518
    29  H    0.134937
    30  H    1.044011
    31  H    0.256023
 Sum of APT charges =   1.00000
 APT charges with hydrogens summed into heavy atoms:
               1
     1  O   -0.182704
     2  C    0.000380
     3  N    0.126958
     4  C   -0.121679
     5  C   -0.659820
     6  O    0.442292
     7  O    0.365352
     8  C    0.036741
     9  C    0.011148
    10  C    0.056274
    11  N   -0.248640
    12  C    0.312160
    13  N   -0.059029
    14  C    0.132424
    15  C    0.128498
    16  N    0.659644
 Electronic spatial extent (au):  <R**2>=           3749.5099
 Charge=              1.0000 electrons
 Dipole moment (field-independent basis, Debye):
    X=              3.5482    Y=              1.0734    Z=             -5.0411  Tot=              6.2574
 Quadrupole moment (field-independent basis, Debye-Ang):
   XX=            -83.9627   YY=            -78.2792   ZZ=            -52.9208
   XY=             -1.3202   XZ=            -13.3999   YZ=            -18.6748
 Traceless Quadrupole moment (field-independent basis, Debye-Ang):
   XX=            -12.2418   YY=             -6.5583   ZZ=             18.8001
   XY=             -1.3202   XZ=            -13.3999   YZ=            -18.6748
 Octapole moment (field-independent basis, Debye-Ang**2):
  XXX=             45.0975  YYY=             10.3786  ZZZ=           -123.2291  XYY=             40.6396
  XXY=             12.0792  XXZ=            -51.4666  XZZ=            -15.6254  YZZ=             48.8732
  YYZ=            -61.4758  XYZ=              1.7012
 Hexadecapole moment (field-independent basis, Debye-Ang**3):
 XXXX=           -586.6349 YYYY=          -1102.6115 ZZZZ=          -1959.1669 XXXY=           -151.3005
 XXXZ=            133.9428 YYYX=           -189.4656 YYYZ=            -52.1597 ZZZX=           -124.2363
 ZZZY=           -148.0872 XXYY=           -284.1859 XXZZ=           -594.1862 YYZZ=           -583.8740
 XXYZ=            -26.7393 YYXZ=             19.4989 ZZXY=            -93.6580
 N-N= 1.193313016952D+03 E-N=-4.231686557514D+03  KE= 7.940237059769D+02
  Exact polarizability:   0.000   0.000   0.000   0.000   0.000   0.000
 Approx polarizability: 201.460 -19.711 154.803   6.275  -7.476 211.561
 Calling FoFJK, ICntrl=    100147 FMM=F ISym2X=0 I1Cent= 0 IOpClX= 0 NMat=1 NMatS=1 NMatT=0.
 -------------------------------------------------------------------
 Center     Atomic                   Forces (Hartrees/Bohr)
 Number     Number              X              Y              Z
 -------------------------------------------------------------------
      1        8           0.002681884   -0.002310252   -0.015904527
      2        6          -0.005104425    0.000186415    0.015122329
      3        7          -0.003819352   -0.002995308   -0.012977844
      4        6          -0.001916904    0.001867051    0.004482489
      5        6          -0.006632503    0.003429732    0.009578036
      6        8           0.003557706    0.000007383   -0.007961539
      7        8           0.003183677   -0.001007222   -0.003982482
      8        6          -0.000312651   -0.003579154   -0.009745999
      9        6           0.002878837   -0.000966516    0.010098990
     10        6          -0.008061615    0.013241759   -0.003882576
     11        7          -0.006195597    0.005733747   -0.005247918
     12        6           0.011353395   -0.002335064   -0.010009073
     13        7           0.002389831    0.001206357    0.006850843
     14        6           0.000475850   -0.008572457    0.001889640
     15        6           0.021431270    0.012150641    0.009101807
     16        7          -0.007117916   -0.001144115   -0.001655847
     17        1           0.004552567   -0.001514185    0.001150054
     18        1           0.000474014    0.000274955    0.002132112
     19        1          -0.001422597   -0.000489017    0.006042225
     20        1          -0.001336189   -0.001145302    0.002029601
     21        1           0.001454874   -0.000883964    0.004694114
     22        1           0.002936105   -0.002202483   -0.000498324
     23        1          -0.000455604   -0.002320203    0.002043190
     24        1           0.001443663   -0.002171896    0.001763182
     25        1           0.000232064    0.001227462    0.001100159
     26        1           0.001593177    0.001601297   -0.003385105
     27        1          -0.003400664   -0.000823080   -0.002054442
     28        1          -0.004651321    0.000097846   -0.003594387
     29        1          -0.005859067   -0.006361421   -0.002451096
     30        1           0.000429028   -0.001421061   -0.002008497
     31        1          -0.004781539    0.001218054    0.007280885
 -------------------------------------------------------------------
 Cartesian Forces:  Max     0.021431270 RMS     0.005719268
 FormGI is forming the generalized inverse of G from B-inverse, IUseBI=4.

 GradGradGradGradGradGradGradGradGradGradGradGradGradGradGradGradGradGrad
 Berny optimization.
 Internal  Forces:  Max     0.038637219 RMS     0.007461332
 Search for a local minimum.
 Step number   1 out of a maximum of  167
 All quantities printed in internal units (Hartrees-Bohrs-Radians)
 Mixed Optimization -- RFO/linear search
 Second derivative matrix not updated -- analytic derivatives used.
 ITU=  0
     Eigenvalues ---   -0.00172   0.00180   0.00226   0.00283   0.00401
     Eigenvalues ---    0.00465   0.00687   0.00926   0.01128   0.01952
     Eigenvalues ---    0.02002   0.02098   0.02149   0.02705   0.03509
     Eigenvalues ---    0.03821   0.03909   0.04023   0.04064   0.04329
     Eigenvalues ---    0.04447   0.04787   0.05030   0.05217   0.05451
     Eigenvalues ---    0.05730   0.05807   0.06355   0.06619   0.07937
     Eigenvalues ---    0.08200   0.08488   0.10351   0.10944   0.11301
     Eigenvalues ---    0.11746   0.11884   0.12129   0.12640   0.13759
     Eigenvalues ---    0.15013   0.15329   0.15693   0.16295   0.17221
     Eigenvalues ---    0.18221   0.19913   0.21002   0.22073   0.22680
     Eigenvalues ---    0.23558   0.24090   0.24596   0.25020   0.25986
     Eigenvalues ---    0.28361   0.31792   0.32430   0.32720   0.33613
     Eigenvalues ---    0.33831   0.33845   0.34020   0.34078   0.34374
     Eigenvalues ---    0.34814   0.35065   0.35553   0.36038   0.36532
     Eigenvalues ---    0.37025   0.40469   0.41593   0.41952   0.42198
     Eigenvalues ---    0.43982   0.45429   0.46407   0.47935   0.48041
     Eigenvalues ---    0.48723   0.49217   0.52751   0.59969   0.78685
     Eigenvalues ---    0.81812   0.89512
 RFO step:  Lambda=-2.81424176D-02 EMin=-1.72438737D-03
 Linear search not attempted -- first point.
 Iteration  1 RMS(Cart)=  0.33602423 RMS(Int)=  0.04588138
 Iteration  2 RMS(Cart)=  0.18067767 RMS(Int)=  0.01004965
 Iteration  3 RMS(Cart)=  0.01531012 RMS(Int)=  0.00124938
 Iteration  4 RMS(Cart)=  0.00010250 RMS(Int)=  0.00124742
 Iteration  5 RMS(Cart)=  0.00000035 RMS(Int)=  0.00124742
 Variable       Old X    -DE/DX   Delta X   Delta X   Delta X     New X
                                 (Linear)    (Quad)   (Total)
    R1        2.32065  -0.00014   0.00000  -0.00272  -0.00272   2.31794
    R2        2.57258  -0.00438   0.00000   0.01580   0.01580   2.58838
    R3        2.86751  -0.00383   0.00000   0.00977   0.00977   2.87728
    R4        2.73116  -0.00120   0.00000   0.01314   0.01314   2.74430
    R5        1.89883   0.00491   0.00000   0.00804   0.00804   1.90688
    R6        2.85672   0.00348   0.00000   0.00592   0.00592   2.86264
    R7        2.94993  -0.00547   0.00000   0.03473   0.03473   2.98467
    R8        2.05831  -0.00073   0.00000  -0.00211  -0.00211   2.05620
    R9        2.54701  -0.00279   0.00000  -0.00825  -0.00825   2.53876
   R10        2.27079   0.00121   0.00000  -0.00325  -0.00325   2.26754
   R11        1.82427   0.00534   0.00000   0.00913   0.00913   1.83339
   R12        2.83295  -0.00298   0.00000  -0.00569  -0.00569   2.82726
   R13        2.05434   0.00211   0.00000   0.00470   0.00470   2.05905
   R14        2.05716   0.00370   0.00000   0.00703   0.00703   2.06419
   R15        2.57486   0.01019   0.00000   0.00841   0.00893   2.58379
   R16        2.61963   0.00342   0.00000   0.00214   0.00272   2.62235
   R17        2.60855   0.00571   0.00000   0.02746   0.02712   2.63567
   R18        2.04837  -0.00365   0.00000  -0.01106  -0.01106   2.03731
   R19        2.47637   0.01166   0.00000   0.03002   0.02937   2.50575
   R20        2.55472   0.00866   0.00000  -0.00850  -0.00864   2.54608
   R21        2.04253  -0.00072   0.00000  -0.00618  -0.00618   2.03635
   R22        1.90131   0.00292   0.00000   0.00854   0.00854   1.90985
   R23        2.87052  -0.00192   0.00000   0.01767   0.01767   2.88819
   R24        2.07391  -0.00126   0.00000  -0.01153  -0.01153   2.06238
   R25        2.06452   0.00058   0.00000   0.00257   0.00257   2.06709
   R26        2.79275   0.01700   0.00000   0.04398   0.04398   2.83672
   R27        2.06237  -0.00117   0.00000  -0.00370  -0.00370   2.05867
   R28        2.05950   0.00008   0.00000   0.00006   0.00006   2.05956
   R29        1.94631   0.00651   0.00000   0.09820   0.09820   2.04451
   R30        1.92715   0.00140   0.00000  -0.00200  -0.00200   1.92516
   R31        1.93595   0.00814   0.00000   0.00309   0.00309   1.93904
    A1        2.11583   0.01181   0.00000   0.02197   0.02125   2.13707
    A2        2.15484  -0.02259   0.00000  -0.03980  -0.04034   2.11449
    A3        2.01212   0.01055   0.00000   0.01608   0.01545   2.02757
    A4        2.08160  -0.01722   0.00000  -0.04198  -0.04826   2.03333
    A5        2.10646   0.00673   0.00000  -0.02646  -0.03261   2.07385
    A6        2.04627   0.00800   0.00000   0.00828   0.00092   2.04719
    A7        1.89981   0.01300   0.00000   0.05959   0.06040   1.96021
    A8        1.98653  -0.02715   0.00000  -0.05351  -0.05491   1.93162
    A9        1.86428   0.00333   0.00000  -0.02905  -0.02993   1.83435
   A10        1.89167   0.01365   0.00000   0.03046   0.03113   1.92280
   A11        1.92769  -0.00580   0.00000  -0.00923  -0.00887   1.91882
   A12        1.89391   0.00259   0.00000   0.00059  -0.00077   1.89314
   A13        1.94419  -0.00100   0.00000  -0.01593  -0.01597   1.92823
   A14        2.18274  -0.00513   0.00000  -0.01219  -0.01223   2.17051
   A15        2.15572   0.00609   0.00000   0.02762   0.02757   2.18329
   A16        1.84919   0.00577   0.00000   0.03175   0.03175   1.88094
   A17        1.97278  -0.03864   0.00000  -0.10287  -0.10261   1.87018
   A18        1.87747   0.00866   0.00000   0.00666   0.00818   1.88565
   A19        1.92395   0.01106   0.00000   0.02745   0.02647   1.95042
   A20        1.92667   0.01570   0.00000   0.06912   0.06874   1.99541
   A21        1.88187   0.01021   0.00000   0.00623   0.00543   1.88730
   A22        1.87922  -0.00567   0.00000  -0.00183  -0.00280   1.87642
   A23        2.32516   0.00157   0.00000  -0.03384  -0.03683   2.28833
   A24        2.12883  -0.00373   0.00000   0.01442   0.00963   2.13847
   A25        1.82119   0.00175   0.00000   0.00241   0.00085   1.82205
   A26        1.93445  -0.00146   0.00000  -0.01409  -0.01350   1.92094
   A27        2.22240   0.00123   0.00000   0.00559   0.00454   2.22694
   A28        2.12381   0.00016   0.00000   0.00469   0.00381   2.12762
   A29        1.83984   0.00089   0.00000   0.00741   0.00712   1.84696
   A30        1.94323  -0.00206   0.00000  -0.01795  -0.01826   1.92497
   A31        2.18147   0.00305   0.00000   0.01426   0.01391   2.19538
   A32        2.15783  -0.00096   0.00000   0.00214   0.00183   2.15966
   A33        1.88419   0.00087   0.00000   0.01992   0.02074   1.90493
   A34        2.19638  -0.00082   0.00000  -0.00610  -0.00700   2.18938
   A35        2.20108  -0.00007   0.00000  -0.01140  -0.01228   2.18880
   A36        1.99179  -0.02921   0.00000  -0.02072  -0.02071   1.97108
   A37        1.87843   0.00623   0.00000  -0.00953  -0.00961   1.86882
   A38        1.89415   0.01446   0.00000   0.04453   0.04448   1.93864
   A39        1.90983   0.00769   0.00000   0.00896   0.00883   1.91866
   A40        1.92735   0.00597   0.00000  -0.02151  -0.02130   1.90605
   A41        1.85691  -0.00355   0.00000  -0.00002  -0.00006   1.85685
   A42        1.94804  -0.01566   0.00000   0.02472   0.02483   1.97288
   A43        1.90516   0.00660   0.00000   0.00488   0.00494   1.91010
   A44        1.90710   0.00784   0.00000   0.01991   0.02024   1.92734
   A45        1.91557   0.00484   0.00000  -0.01306  -0.01337   1.90220
   A46        1.90507  -0.00145   0.00000  -0.04234  -0.04261   1.86246
   A47        1.88169  -0.00170   0.00000   0.00545   0.00480   1.88649
   A48        1.95248   0.00844   0.00000   0.10861   0.10893   2.06141
   A49        1.96862  -0.00055   0.00000  -0.03388  -0.03466   1.93396
   A50        1.87560  -0.00350   0.00000  -0.03849  -0.03844   1.83716
   A51        1.91719  -0.00413   0.00000  -0.01421  -0.01454   1.90265
   A52        1.84677  -0.00266   0.00000  -0.03734  -0.03615   1.81062
   A53        1.89787   0.00217   0.00000   0.01217   0.01086   1.90873
    D1        0.44899   0.00108   0.00000   0.14812   0.14561   0.59460
    D2       -3.03231  -0.00584   0.00000  -0.05272  -0.05167  -3.08398
    D3       -2.66301   0.01011   0.00000   0.21271   0.21166  -2.45135
    D4        0.13888   0.00318   0.00000   0.01187   0.01438   0.15326
    D5       -0.05860   0.00182   0.00000  -0.00137  -0.00170  -0.06030
    D6       -2.18165   0.00648   0.00000   0.00753   0.00698  -2.17467
    D7        2.09863   0.00013   0.00000  -0.00998  -0.01064   2.08799
    D8        3.05265  -0.00676   0.00000  -0.06637  -0.06567   2.98698
    D9        0.92960  -0.00210   0.00000  -0.05746  -0.05699   0.87261
   D10       -1.07330  -0.00845   0.00000  -0.07498  -0.07461  -1.14791
   D11       -2.56708  -0.00485   0.00000   0.00547   0.00515  -2.56193
   D12        1.60427  -0.01366   0.00000  -0.04089  -0.03999   1.56428
   D13       -0.48552  -0.00286   0.00000   0.01028   0.00941  -0.47611
   D14        0.90266   0.00187   0.00000   0.20575   0.20561   1.10827
   D15       -1.20918  -0.00694   0.00000   0.15939   0.16048  -1.04870
   D16        2.98422   0.00385   0.00000   0.21055   0.20988  -3.08909
   D17        2.87149   0.00872   0.00000  -0.00473  -0.00547   2.86602
   D18       -0.30441   0.00765   0.00000  -0.02005  -0.02068  -0.32509
   D19       -1.24267  -0.00775   0.00000  -0.01338  -0.01260  -1.25527
   D20        1.86461  -0.00883   0.00000  -0.02870  -0.02780   1.83681
   D21        0.82995   0.00032   0.00000   0.00046   0.00026   0.83021
   D22       -2.34595  -0.00076   0.00000  -0.01485  -0.01495  -2.36090
   D23       -0.73702   0.01189   0.00000   0.21616   0.21607  -0.52095
   D24       -2.86847   0.01078   0.00000   0.19022   0.18961  -2.67886
   D25        1.37033   0.00654   0.00000   0.17362   0.17317   1.54350
   D26       -2.85339   0.00334   0.00000   0.15344   0.15407  -2.69933
   D27        1.29834   0.00222   0.00000   0.12750   0.12761   1.42595
   D28       -0.74604  -0.00201   0.00000   0.11090   0.11117  -0.63488
   D29        1.33593   0.00091   0.00000   0.14658   0.14692   1.48285
   D30       -0.79552  -0.00020   0.00000   0.12064   0.12046  -0.67507
   D31       -2.83991  -0.00443   0.00000   0.10404   0.10402  -2.73589
   D32        3.11858  -0.00110   0.00000  -0.01199  -0.01215   3.10643
   D33        0.01067   0.00022   0.00000   0.00395   0.00412   0.01479
   D34       -1.26951   0.00495   0.00000   0.37391   0.37467  -0.89483
   D35        1.71371   0.00104   0.00000   0.20707   0.20876   1.92247
   D36        0.83414   0.00089   0.00000   0.36154   0.35993   1.19406
   D37       -2.46583  -0.00302   0.00000   0.19470   0.19402  -2.27182
   D38        2.88257   0.00875   0.00000   0.40130   0.40076  -2.99986
   D39       -0.41740   0.00484   0.00000   0.23446   0.23485  -0.18255
   D40        2.95273  -0.00367   0.00000  -0.17796  -0.17569   2.77704
   D41       -0.11274  -0.00263   0.00000  -0.12088  -0.11948  -0.23222
   D42       -0.05032   0.00013   0.00000  -0.03348  -0.03317  -0.08350
   D43       -3.11579   0.00117   0.00000   0.02360   0.02304  -3.09276
   D44       -3.00077   0.00247   0.00000   0.14741   0.15015  -2.85063
   D45        0.19742   0.00282   0.00000   0.10310   0.10519   0.30261
   D46        0.02191  -0.00034   0.00000   0.01874   0.01859   0.04050
   D47       -3.06308   0.00002   0.00000  -0.02557  -0.02636  -3.08944
   D48        0.06000   0.00005   0.00000   0.03627   0.03641   0.09641
   D49        3.13048  -0.00085   0.00000  -0.01696  -0.01594   3.11454
   D50       -0.04511  -0.00033   0.00000  -0.02381  -0.02416  -0.06927
   D51        3.13455  -0.00132   0.00000   0.02071   0.02113  -3.12750
   D52        0.01519   0.00039   0.00000   0.00344   0.00382   0.01901
   D53        3.09999   0.00000   0.00000   0.04812   0.04897  -3.13423
   D54        3.11932   0.00147   0.00000  -0.04004  -0.04004   3.07928
   D55       -0.07906   0.00108   0.00000   0.00464   0.00511  -0.07395
   D56       -0.91722   0.00690   0.00000   0.06584   0.06587  -0.85134
   D57       -3.03781   0.00654   0.00000   0.06287   0.06291  -2.97490
   D58        1.19150   0.00026   0.00000   0.04201   0.04213   1.23363
   D59        1.18842   0.00082   0.00000   0.04612   0.04609   1.23451
   D60       -0.93217   0.00045   0.00000   0.04315   0.04312  -0.88905
   D61       -2.98605  -0.00583   0.00000   0.02230   0.02235  -2.96370
   D62       -3.05642   0.00456   0.00000   0.03889   0.03880  -3.01762
   D63        1.10617   0.00419   0.00000   0.03592   0.03584   1.14201
   D64       -0.94771  -0.00209   0.00000   0.01506   0.01506  -0.93264
   D65       -0.84937  -0.00055   0.00000   0.07512   0.07542  -0.77395
   D66       -3.02119  -0.00124   0.00000   0.03508   0.03528  -2.98591
   D67        1.17043  -0.00127   0.00000   0.06602   0.06525   1.23568
   D68        1.26518   0.00074   0.00000   0.08870   0.08887   1.35405
   D69       -0.90664   0.00005   0.00000   0.04866   0.04873  -0.85791
   D70       -2.99820   0.00002   0.00000   0.07960   0.07870  -2.91950
   D71       -2.95927   0.00065   0.00000   0.06267   0.06337  -2.89590
   D72        1.15209  -0.00004   0.00000   0.02263   0.02323   1.17532
   D73       -0.93947  -0.00007   0.00000   0.05357   0.05319  -0.88627
         Item               Value     Threshold  Converged?
 Maximum Force            0.038637     0.000450     NO 
 RMS     Force            0.007461     0.000300     NO 
 Maximum Displacement     2.139346     0.001800     NO 
 RMS     Displacement     0.493348     0.001200     NO 
 Predicted change in Energy=-2.551446D-02
 GradGradGradGradGradGradGradGradGradGradGradGradGradGradGradGradGradGrad

                          Input orientation:                          
 ---------------------------------------------------------------------
 Center     Atomic      Atomic             Coordinates (Angstroms)
 Number     Number       Type             X           Y           Z
 ---------------------------------------------------------------------
      1          8           0       -0.513753    1.996375    0.085032
      2          6           0        0.427232    1.228667    0.257426
      3          7           0        0.632569    0.572254    1.441937
      4          6           0       -0.555168    0.178009    2.178686
      5          6           0       -0.343806    0.224627    3.677987
      6          8           0       -1.523462    0.194260    4.320136
      7          8           0        0.731498    0.231742    4.210444
      8          6           0       -1.030561   -1.262962    1.740318
      9          6           0       -0.629578   -1.443865    0.310328
     10          6           0       -0.837454   -0.656717   -0.788148
     11          7           0        0.088982   -0.969105   -1.782846
     12          6           0        0.765491   -2.016150   -1.330888
     13          7           0        0.373946   -2.320098   -0.078048
     14          6           0        1.360168    0.856752   -0.886946
     15          6           0        0.935987    1.465669   -2.223055
     16          7           0       -0.518372    1.254920   -2.529349
     17          1           0        1.452293   -0.007821    1.540918
     18          1           0       -1.319680    0.896112    1.889203
     19          1           0       -1.341857    0.193246    5.273178
     20          1           0       -2.103293   -1.332961    1.918011
     21          1           0       -0.547936   -2.045350    2.330330
     22          1           0       -1.512388    0.178906   -0.880291
     23          1           0        1.572233   -2.514043   -1.843204
     24          1           0        0.744585   -3.073241    0.484818
     25          1           0        1.361671   -0.232283   -0.958165
     26          1           0        2.389914    1.153107   -0.667127
     27          1           0        1.533383    1.032914   -3.024701
     28          1           0        1.102807    2.542696   -2.220312
     29          1           0       -0.939714    0.274288   -2.352273
     30          1           0       -0.732383    1.540768   -3.483466
     31          1           0       -1.023255    1.859495   -1.871736
 ---------------------------------------------------------------------
                    Distance matrix (angstroms):
                    1          2          3          4          5
     1  O    0.000000
     2  C    1.226600   0.000000
     3  N    2.276700   1.369711   0.000000
     4  C    2.773365   2.400048   1.452222   0.000000
     5  C    4.009650   3.647305   2.464564   1.514844   0.000000
     6  O    4.712031   4.623940   3.615990   2.350249   1.343453
     7  O    4.656565   4.088128   2.791123   2.405501   1.199933
     8  C    3.691929   3.245357   2.494605   1.579419   2.537542
     9  C    3.449555   2.874382   2.634064   2.475232   3.769172
    10  C    2.811783   2.499465   2.940173   3.094924   4.578954
    11  N    3.556168   3.017834   3.615315   4.174270   5.606514
    12  C    4.443158   3.628498   3.795532   4.344603   5.598254
    13  N    4.409823   3.564984   3.277642   3.492369   4.593321
    14  C    2.398971   1.522589   2.456427   3.677947   4.913422
    15  C    2.776808   2.543185   3.784497   4.822544   6.164442
    16  N    2.717493   2.942953   4.190681   4.829770   6.294680
    17  H    3.162553   2.055969   1.009075   2.114517   2.801262
    18  H    2.261665   2.413501   2.028844   1.088095   2.145453
    19  H    5.554627   5.418444   4.326709   3.192960   1.881947
    20  H    4.119578   3.965228   3.367705   2.178916   2.935880
    21  H    4.623642   3.995881   3.005775   2.228536   2.647762
    22  H    2.287426   2.481637   3.185641   3.205247   4.705908
    23  H    5.330413   4.442021   4.604383   5.286641   6.454074
    24  H    5.238725   4.319587   3.770711   3.889624   4.717718
    25  H    3.093929   2.117833   2.634267   3.698979   4.960981
    26  H    3.115786   2.170859   2.806029   4.209865   5.216829
    27  H    3.845707   3.469041   4.579795   5.671696   7.007367
    28  H    2.868161   2.884833   4.185192   5.262300   6.500466
    29  H    3.014546   3.096758   4.117874   4.548267   6.059836
    30  H    3.604102   3.928916   5.201990   5.826532   7.291750
    31  H    2.026640   2.652392   3.921628   4.410489   5.825279
                    6          7          8          9         10
     6  O    0.000000
     7  O    2.257937   0.000000
     8  C    3.003650   3.382383   0.000000
     9  C    4.422787   4.457700   1.496123   0.000000
    10  C    5.223920   5.313839   2.607290   1.367284   0.000000
    11  N    6.418706   6.146087   3.708424   2.263428   1.394738
    12  C    6.485313   5.980011   3.636674   2.228748   2.170728
    13  N    5.409822   5.003088   2.529156   1.387689   2.176826
    14  C    5.988983   5.173900   4.136579   3.268852   2.670186
    15  C    7.104838   6.553953   5.198179   4.163462   3.115858
    16  N    7.003617   6.930648   4.983184   3.919129   2.605369
    17  H    4.076765   2.775483   2.789212   2.812608   3.329949
    18  H    2.538417   3.168103   2.183428   2.905956   3.132415
    19  H    0.970190   2.330168   3.833868   5.274216   6.141378
    20  H    2.904964   3.967315   1.089601   2.183753   3.063160
    21  H    3.150687   3.218217   1.092324   2.109231   3.425935
    22  H    5.200462   5.563578   3.029642   2.197797   1.078096
    23  H    7.409790   6.700211   4.602322   3.260514   3.220155
    24  H    5.525420   4.980299   2.829228   2.138606   3.156402
    25  H    6.030456   5.227519   3.750585   2.653692   2.246153
    26  H    6.411450   5.233541   4.830406   4.100855   3.702163
    27  H    7.999642   7.323402   5.877947   4.683509   3.671224
    28  H    7.428991   6.843464   5.892443   5.029709   4.006488
    29  H    6.698374   6.772298   4.372722   3.183973   1.823106
[...]
 8,-0.00043390,-0.00047046,-0.00003203,0.00005859,0.00009453,-0.0002005
 8,0.00081767,-0.00052311,-0.00004509,-0.00016101,0.00679064,-0.0229985
 8,-0.05180938,-0.00850196,0.03320347,0.00066693,0.00056456,-0.00064542
 ,0.00132347,0.00044099,-0.00028565,-0.00111184,-0.00003139,-0.00010780
 ,0.00014768,0.00000597,0.00000235,0.00000968,0.00001752,0.00010289,0.0
 0001584,0.00001407,0.00006043,-0.00001855,-0.00003884,0.00000205,-0.00
 005429,-0.00004736,-0.00017256,-0.00003999,0.00014397,0.00020955,0.000
 00841,-0.00890804,0.01914645,0.05849755,-0.00159487,0.00215323,0.00362
 804,-0.02024731,-0.01308872,-0.01169850,0.00150340,0.00126738,0.000308
 30,-0.00020335,0.00041316,0.00078315,-0.00021497,-0.00001140,0.0000290
 9,0.00003124,-0.00000217,0.00003805,0.00004433,0.00003906,-0.00000106,
 0.00020199,0.00011275,-0.00003408,0.00003337,0.00001106,-0.00007863,-0
 .00003322,0.00000044,-0.00000008,-0.00000020,0.00011272,0.00004264,0.0
 0013281,0.00003183,0.00000988,0.00001623,0.00002027,0.00005874,-0.1983
 0387,-0.10910948,-0.07691922,-0.00575603,-0.00313602,-0.00321452,0.001
 09184,0.00066423,-0.00094098,-0.00004277,-0.00077354,0.00016388,0.0000
 6876,0.00001500,-0.00003932,-0.00001078,-0.00001339,0.00001558,0.00000
 910,0.00004197,0.00000979,-0.00000219,-0.00000438,-0.00000279,0.000019
 17,0.00001036,-0.00000184,-0.00000450,-0.00003255,-0.00001165,0.000008
 43,-0.00000678,0.00000243,0.00876513,0.00508985,0.00426165,0.21394740,
 0.00125290,-0.00137708,-0.00089206,0.00300975,0.00131910,0.00193672,-0
 .00047253,0.00072640,0.00091339,0.00018780,-0.00015877,0.00008497,-0.0
 0020543,0.00002454,-0.00007096,0.00007874,-0.00000663,-0.00000639,0.00
 014934,-0.00003149,0.00001820,-0.00000751,-0.00003512,-0.00009437,-0.0
 0004566,0.00007718,0.00004037,0.00016469,-0.00004449,-0.00006415,-0.00
 003668,-0.00023895,-0.00005682,-0.00040764,0.00009270,-0.00006553,0.00
 009532,-0.00001368,-0.00014316,-0.10844665,-0.11722287,-0.05294161,0.0
 1051166,0.00606927,0.00417215,0.00195165,-0.00023648,0.00398988,-0.000
 44975,-0.00032236,0.00040566,0.00004132,0.00001070,-0.00002000,-0.0000
 0835,0.00000556,0.00000665,-0.00000220,0.00000554,0.00000710,-0.000002
 65,-0.00000871,0.00001229,-0.00002485,-0.00000592,0.00001727,0.0000114
 3,0.00006872,0.00003374,-0.00006288,-0.00000910,-0.00003080,-0.0240988
 3,-0.01572265,-0.01169927,0.11598231,0.12619220,0.00176566,-0.00252475
 ,-0.00216343,0.01418133,0.01362043,0.01300865,-0.00068213,-0.00094205,
 -0.00240937,-0.00044602,-0.00014133,0.00007086,0.00033483,0.00001316,0
 .00018306,-0.00004838,0.00001309,-0.00013404,-0.00014943,-0.00004031,-
 0.00011049,0.00004820,-0.00006998,-0.00009147,-0.00004187,-0.00007821,
 0.00000854,0.00005996,0.00000469,-0.00007821,0.00000423,-0.00033556,0.
 00013408,-0.00022060,0.00007659,-0.00010110,0.00009310,-0.00003784,0.0
 0013709,-0.07193067,-0.04908091,-0.08355498,-0.02267836,-0.01610022,-0
 .00970182,-0.00142359,0.00260302,-0.00642117,0.00037299,0.00034275,-0.
 00030882,-0.00004148,-0.00002907,0.00004457,0.00001881,0.00000981,-0.0
 0001442,0.00000856,0.00004847,0.00000625,0.00000645,0.00003159,0.00000
 680,-0.00001138,0.00000048,-0.00001907,-0.00000092,0.00000807,0.000003
 44,0.00000408,-0.00000155,0.00000468,-0.00176143,-0.00162420,-0.001163
 72,0.08285189,0.05453514,0.09191493,0.00098504,-0.00021145,0.00074398,
 -0.00178401,0.00130760,-0.00200229,0.00094720,0.00008228,-0.00040034,-
 0.00018022,0.00005356,-0.00011306,0.00006573,0.00003217,0.00007443,0.0
 0001620,-0.00000076,-0.00007800,-0.00000618,0.00000313,-0.00003916,0.0
 0002773,-0.00003078,-0.00005543,-0.00000917,-0.00003419,-0.00005140,-0
 .00003394,0.00003143,-0.00007955,-0.00002157,-0.00031365,0.00010635,-0
 .00008153,0.00001947,0.00001066,0.00012306,-0.00003444,0.00012392,0.00
 852401,-0.00197612,-0.00539818,-0.18167325,0.04712690,0.12268367,-0.02
 864578,0.00573639,0.01765472,0.00003260,-0.00002946,0.00005101,0.00000
 160,-0.00000266,0.00000319,0.00000206,-0.00000466,0.00000059,0.0000042
 0,0.00002210,0.00000357,0.00000096,0.00000943,0.00000733,0.00005030,0.
 00002199,-0.00003773,0.00000231,-0.00004575,0.00000944,0.00000456,-0.0
 0000149,-0.00000005,0.00047669,-0.00018616,0.00011978,0.00010878,-0.00
 031943,0.00063031,0.20384275,-0.00011355,0.00081917,-0.00075375,0.0026
 0289,-0.00092723,0.00284336,-0.00091109,-0.00022711,0.00045150,0.00012
 962,-0.00014269,0.00003483,-0.00004563,-0.00003308,-0.00000448,0.00000
 415,0.00000313,0.00002287,0.00000387,-0.00000100,0.00000392,-0.0000496
 2,0.00000516,0.00005464,0.00005740,-0.00001079,-0.00002946,-0.00004597
 ,0.00006732,-0.00008924,0.00005202,-0.00004569,-0.00001718,0.00007073,
 0.00000919,0.00004215,0.00002906,0.00000426,0.00006816,-0.00985974,0.0
 0272778,0.01118528,0.05324944,-0.07158386,-0.05081308,-0.01450861,0.00
 336855,0.00961817,-0.00003512,0.00005596,-0.00000067,-0.00000848,0.000
 00571,-0.00000622,-0.00000359,0.00000460,0.00000694,-0.00000274,-0.000
 02279,-0.00001340,-0.00000162,-0.00000495,-0.00000439,0.00003512,0.000
 00128,-0.00001858,-0.00002664,-0.00008551,-0.00000096,-0.00000685,-0.0
 0000720,0.00001714,-0.00072136,0.00061427,-0.00027942,0.00014609,0.000
 23573,-0.00050760,-0.05125761,0.07067134,0.00035861,-0.00007363,0.0009
 6786,-0.00461313,0.00205499,-0.00329859,0.00202307,0.00039653,-0.00110
 701,-0.00050092,0.00009949,-0.00011433,0.00015134,0.00007860,0.0002085
 4,0.00003474,0.00000024,-0.00018594,-0.00002997,0.00000760,-0.00011196
 ,0.00007237,-0.00003710,-0.00010077,-0.00004102,-0.00003452,-0.0000425
 0,0.00003361,0.00001099,-0.00003621,-0.00003967,-0.00018536,0.00010766
 ,-0.00011581,0.00004342,-0.00006554,0.00008727,-0.00003208,0.00009330,
 0.02035640,-0.00686603,-0.01885281,0.13176598,-0.04853002,-0.17236135,
 -0.01553511,0.00379738,0.01077310,0.00010637,-0.00013341,0.00009391,-0
 .00000470,0.00000289,0.00001376,0.00000421,-0.00001058,0.00000652,0.00
 001035,0.00005095,0.00001678,0.00000086,0.00002582,0.00001413,0.000000
 56,0.00001080,-0.00002758,0.00001662,0.00004164,0.00001002,0.00001345,
 -0.00001083,-0.00001537,0.00019128,0.00022753,0.00137089,-0.00016562,-
 0.00041146,0.00029376,-0.13236480,0.05016615,0.18278455,0.00040135,0.0
 0059660,0.00015770,-0.00045329,-0.00059497,0.00045621,0.00007972,0.000
 14970,-0.00052956,-0.00018395,-0.00007629,0.00012038,-0.00002575,0.000
 03531,0.00010401,0.00003971,0.00000384,-0.00008370,0.00002352,-0.00000
 213,-0.00007342,0.00006289,-0.00004674,-0.00005991,0.00001878,-0.00008
 172,0.00004839,0.00023817,-0.00011327,-0.00029075,0.00000510,-0.001461
 44,0.00056255,-0.00048770,0.00026567,-0.00016021,0.00024789,-0.0000275
 9,0.00052806,-0.00111770,0.00739105,-0.00058840,-0.05291759,0.03537616
 ,0.00410741,-0.00776965,-0.04178448,-0.00458367,0.00005500,0.00000390,
 0.00009860,0.00001507,-0.00000237,0.00001496,-0.00000250,-0.00000391,0
 .00000958,0.00000738,0.00003075,0.00001162,-0.00000499,0.00001629,0.00
 001891,-0.00001644,-0.00000026,-0.00003290,-0.00002464,-0.00009293,-0.
 00001343,-0.00002456,-0.00000977,0.00003705,0.00062073,0.00038260,-0.0
 0180296,0.00040853,0.00048505,-0.00027692,0.00011907,0.02285694,-0.000
 15388,0.06271398,-0.00038529,0.00108061,-0.00058977,0.00128025,-0.0006
 7946,0.00016293,-0.00020264,0.00015544,-0.00015583,-0.00002009,0.00003
 980,0.00004714,-0.00000142,0.00000476,-0.00000219,-0.00000184,0.000002
 74,0.00000271,0.00000204,0.00000496,-0.00000345,0.00002006,-0.00000676
 ,-0.00003488,-0.00000822,-0.00001536,0.00000728,0.00005849,0.00000815,
 -0.00002489,0.00004037,-0.00024167,0.00006076,-0.00010585,0.00006481,0
 .00001897,0.00003733,-0.00003022,0.00002677,0.00261258,-0.00948208,0.0
 0154965,0.02403551,-0.31891638,-0.00979345,-0.00334171,-0.01065467,-0.
 00200725,-0.00002064,-0.00006059,-0.00011651,-0.00002365,0.00000032,0.
 00000472,0.00000060,-0.00000286,-0.00000051,0.00000147,0.00001057,0.00
 000569,0.00000272,0.00000837,0.00000477,-0.00000923,-0.00000549,-0.000
 00972,0.00000251,0.00001568,0.00000629,0.00000102,0.00001369,-0.000001
 78,0.00031895,0.00094394,0.00168932,0.00008123,0.00077576,0.00008454,0
 .00124318,-0.00549650,-0.00004784,-0.02439576,0.34122000,0.00113915,-0
 .00109095,0.00049438,-0.00186472,0.00168882,0.00047782,0.00043417,-0.0
 0048378,-0.00015111,0.00001756,-0.00018112,-0.00004058,0.00000037,0.00
 001734,-0.00003911,0.00000476,-0.00000677,-0.00000116,0.00002389,-0.00
 001849,0.00001592,-0.00001397,0.00000314,0.00002636,-0.00001745,-0.000
 01268,0.00006933,0.00004262,-0.00004690,-0.00014214,-0.00003848,-0.000
 56820,0.00020285,-0.00008223,0.00010113,-0.00019854,0.00012020,0.00001
 081,0.00031997,-0.00453205,0.03138255,0.00009363,0.00243819,-0.0080452
 2,-0.05109753,-0.00300964,-0.01470558,-0.00094481,-0.00001746,0.000129
 43,0.00031611,0.00005012,0.00003228,-0.00004762,0.00000162,0.00000593,
 -0.00000836,-0.00000063,-0.00000783,-0.00000226,-0.00000362,-0.0000094
 1,0.00000663,0.00002095,0.00000803,-0.00000537,-0.00001811,-0.00003732
 ,-0.00002617,-0.00003391,-0.00002288,0.00002005,-0.00056676,0.00182515
 ,-0.00551502,0.00005785,-0.00024047,0.00155566,0.00121427,-0.02130729,
 0.00019534,0.00545678,0.01052999,0.05508418,-0.00033474,-0.00090679,0.
 00116532,0.00064049,0.00056518,-0.00128804,-0.00012472,-0.00054167,0.0
 0061714,0.00028726,0.00009651,-0.00016832,0.00011174,-0.00004215,0.000
 07940,-0.00004988,-0.00002301,0.00003306,-0.00012656,-0.00001297,-0.00
 000999,-0.00003733,0.00028692,0.00016587,-0.00001819,0.00027100,0.0006
 3179,-0.00082485,-0.00211914,0.00280140,-0.00850725,0.00476954,0.00189
 373,0.00228589,0.00042283,-0.00288877,-0.00182729,0.00142544,-0.002059
 04,0.00166925,0.00040302,0.00047661,0.00047192,-0.03097375,0.00065190,
 -0.06311631,-0.01054394,-0.00250185,-0.00001326,0.00006409,-0.00004169
 ,-0.00000887,0.00002163,-0.00001025,-0.00000050,0.00002207,0.00001302,
 -0.00000738,-0.00008227,-0.00002817,0.00000234,-0.00004779,-0.00006262
 ,-0.00023777,-0.00009448,0.00031267,-0.00006724,0.00038319,-0.00001118
 ,0.00006012,-0.00016097,-0.00029492,-0.00038128,0.00053920,-0.00045401
 ,0.00007043,0.00012549,0.00052131,0.00040823,-0.00011329,0.00079090,-0
 .00511977,-0.00102427,-0.00172201,0.07176517,0.00193911,-0.00212410,0.
 00557075,-0.00161827,0.00454684,-0.00574626,-0.00044368,-0.00326313,0.
 00334618,0.00127408,0.00049165,-0.00138332,0.00039816,-0.00037088,0.00
 074401,-0.00006891,-0.00011085,-0.00006326,-0.00057724,-0.00005006,-0.
 00018941,-0.00099080,0.00051791,0.00090174,-0.00185607,0.00166335,-0.0
 0322510,-0.00633610,0.00309218,0.00515815,0.00480407,0.01292064,-0.001
 75207,0.00931852,-0.00722013,0.00426299,-0.00162537,0.00046320,-0.0089
 8147,0.00018922,0.00213699,-0.00062158,-0.01034958,-0.00207580,-0.0052
 1104,-0.00746453,-0.29034810,0.00391677,-0.00004423,0.00048527,0.00004
 480,-0.00006202,0.00006012,-0.00009515,-0.00002643,0.00013191,0.000095
 48,-0.00001063,-0.00038597,-0.00019925,0.00000149,-0.00022157,-0.00033
 304,0.00150631,0.00068941,-0.00039355,0.00039086,0.00110048,-0.0000448
 5,0.00045092,-0.00055874,-0.00046316,0.00041125,-0.00017514,0.00030765
 ,0.00019845,-0.00059985,0.00083639,0.00102333,0.00057601,0.00066184,0.
 00226805,0.00167869,0.00125706,0.00338536,0.29105539,-0.00017986,0.001
 32934,-0.00157336,-0.00004567,-0.00143651,-0.00020932,0.00004536,0.000
 74995,-0.00051233,-0.00010903,-0.00010621,0.00025111,-0.00007942,0.000
 09813,-0.00053787,-0.00007214,0.00002757,0.00021857,0.00016944,0.00000
 181,0.00022467,0.00006911,-0.00003290,-0.00041452,0.00098542,-0.000643
 28,-0.00048075,0.00170675,0.00194712,-0.00481788,0.00056198,-0.0057613
 3,-0.00390964,-0.00319514,0.00197736,-0.00266055,0.00096063,0.00019186
 ,0.00305899,0.00030155,-0.00114023,0.00035175,0.00288059,-0.01170214,0
 .00076874,-0.00268165,-0.00325497,-0.06668210,-0.00007647,-0.00012305,
 -0.00009759,0.00001441,-0.00001966,0.00000302,0.00002037,-0.00003663,-
 0.00006192,-0.00001282,0.00009612,0.00009585,0.00001963,0.00001663,0.0
 0003041,0.00001706,-0.00012750,0.00012024,-0.00021909,-0.00044222,0.00
 015058,-0.00010399,0.00040401,-0.00009246,-0.00054525,0.00028318,-0.00
 011909,0.00003416,0.00032148,-0.00010017,0.00034865,0.00073763,0.00003
 526,-0.00297321,-0.00083536,-0.00071806,0.00343255,0.00671046,0.070818
 11,0.00137956,0.00052053,0.00365565,-0.00241384,0.00116795,0.00003588,
 0.00028796,-0.00050805,0.00042985,0.00014429,0.00000222,-0.00004183,0.
 00002505,-0.00000842,-0.00013909,-0.00004040,0.00000269,0.00007885,0.0
 0000137,0.00000275,0.00006904,-0.00000730,0.00001579,-0.00000545,-0.00
 012122,0.00003211,-0.00001626,0.00009651,-0.00026212,0.00003698,-0.000
 33857,-0.00056095,0.00011813,-0.00010026,0.00006194,-0.00015861,0.0000
 7281,0.00002244,0.00009819,-0.00566535,-0.00396649,-0.00084863,-0.0040
 7256,0.01299970,-0.02956375,-0.07051251,0.02377927,-0.06378816,-0.0000
 4790,-0.00008806,0.00005873,0.00002833,0.00002059,-0.00003704,0.000006
 63,-0.00000300,-0.00001127,-0.00000628,-0.00001060,0.00000809,-0.00000
 030,-0.00000413,0.00000202,0.00010176,0.00003052,0.00010652,-0.0000023
 8,0.00001671,-0.00001764,0.00000274,0.00003321,-0.00000701,0.00003250,
 0.00000020,0.00022856,-0.00020203,0.00082032,-0.00167854,0.00019056,0.
 00105384,0.00041904,0.00125161,-0.00027775,0.00029075,-0.00029581,0.00
 130506,0.00198778,0.06999528,-0.00005072,-0.00035850,-0.00216336,0.000
 39298,-0.00069719,0.00053003,0.00004134,0.00033137,-0.00034614,-0.0001
 4060,0.00000019,0.00006776,-0.00003091,0.00001917,0.00012749,0.0000429
 6,-0.00000722,-0.00008275,0.00001238,-0.00000403,-0.00006809,0.0000278
 6,-0.00000701,-0.00002516,0.00013331,-0.00003599,-0.00010489,0.0001237
 8,-0.00006094,-0.00039531,-0.00075821,-0.00265993,-0.00001824,-0.00049
 089,0.00014160,-0.00042525,0.00013382,0.00009255,0.00044801,-0.0020284
 2,-0.00119419,-0.00041844,-0.00075945,0.00540333,-0.01286157,0.0240000
 7,-0.10092249,0.11444458,-0.00000248,-0.00001338,0.00004438,-0.0000037
 4,-0.00000070,0.00002103,-0.00000498,0.00000532,0.00001161,0.00000234,
 0.00002037,0.00000673,-0.00000280,0.00000785,-0.00000080,-0.00003768,0
 .00000828,0.00007465,-0.00001978,-0.00007703,0.00003605,0.00001333,0.0
 0005043,-0.00000305,-0.00015355,0.00001761,-0.00008338,-0.00019480,0.0
 0041009,-0.00058850,0.00045783,0.00039485,0.00031439,-0.00000393,-0.00
 024532,-0.00081219,0.00790542,-0.00275720,0.03402990,-0.02227520,0.096
 60788,-0.00026160,-0.00048128,-0.00160414,0.00111580,-0.00061304,0.000
 05540,-0.00016125,0.00018710,0.00012033,0.00006125,0.00002116,0.000039
 58,-0.00000995,0.00001027,-0.00018270,-0.00004271,-0.00000047,0.000105
 14,0.00002029,-0.00000941,0.00008923,0.00003047,0.00000116,-0.00003103
 ,0.00007173,-0.00004149,0.00002445,0.00003405,-0.00003222,-0.00016611,
 -0.00033467,-0.00120049,0.00017434,-0.00033594,0.00022025,-0.00013985,
 0.00012612,-0.00006143,0.00031285,-0.00058945,-0.00089360,0.00096754,-
 0.00238349,0.00119942,-0.00568164,-0.06206836,0.11107042,-0.36102715,-
 0.00005525,0.00000565,-0.00004238,-0.00000735,-0.00000694,-0.00000282,
 0.00000819,-0.00000072,-0.00002350,-0.00000228,0.00001066,0.00000793,0
 .00000532,-0.00000476,0.00001227,0.00003169,0.00000814,-0.00004084,-0.
 00000144,-0.00001255,0.00003009,-0.00001505,0.00005410,0.00000317,-0.0
 0010663,-0.00005230,0.00010269,0.00019293,0.00024145,-0.00006413,0.000
 66054,0.00018796,0.00098806,0.00041846,-0.00029303,0.00013404,0.001932
 99,0.00177428,0.00260026,0.06924754,-0.12080805,0.37985099,-0.00749841
 ,0.00087519,0.00400418,0.00188162,-0.00026234,-0.00450931,-0.00112910,
 0.00042412,-0.00012639,0.00008136,-0.00008231,0.00010669,0.00010170,-0
 .00001410,-0.00000701,-0.00005886,0.00000955,0.00003800,-0.00007669,-0
 .00000033,-0.00000884,0.00006384,-0.00002083,0.00000188,-0.00004672,0.
 00003772,0.00034905,0.00107479,-0.00075416,-0.00028556,-0.00062454,-0.
 00129764,0.00046335,-0.00077260,0.00046416,-0.00036474,-0.00018250,0.0
 0013277,0.00034470,-0.00001098,0.00129228,0.00017513,-0.03237060,0.008
 08010,0.01708289,-0.19570570,0.07291890,0.13126262,0.00014327,0.000200
 72,-0.00007340,0.00007718,0.00001660,-0.00001358,0.00000679,-0.0000017
 5,0.00000159,-0.00000475,-0.00001169,0.00003032,-0.00001958,0.00000561
 ,-0.00000410,-0.00041837,-0.00061329,0.00035122,-0.00001373,0.00003747
 ,-0.00002359,-0.00001406,0.00005813,0.00004237,-0.00006764,-0.00009559
 ,0.00020807,0.00015515,-0.00027672,0.00049000,-0.00349796,-0.00257965,
 -0.00287241,0.00184002,0.00008005,0.00060780,0.00332614,0.00260962,-0.
 00326168,0.01020975,-0.00632928,-0.00758193,0.22355117,0.00368845,-0.0
 0662368,0.00165264,-0.00440597,0.00282152,0.00124125,0.00171637,-0.001
 20428,0.00102713,0.00025142,0.00013345,-0.00033396,0.00009572,-0.00008
 485,0.00003046,-0.00003282,-0.00003533,0.00003037,-0.00009077,-0.00000
 608,0.00006390,-0.00009031,0.00016070,0.00036930,0.00045352,0.00019822
 ,0.00066768,0.00026458,-0.00051135,0.00051008,-0.00090210,0.00075207,-
 0.00002721,0.00047753,-0.00016682,-0.00007203,-0.00101919,0.00037647,-
 0.00063710,0.00146395,-0.00043207,-0.00034677,-0.01046141,0.00577177,0
 .00906181,0.07582735,-0.09634864,-0.06318957,-0.00004800,-0.00003061,0
 .00035564,0.00005113,0.00004779,-0.00009000,-0.00000167,0.00003369,0.0
 0000329,-0.00001752,-0.00008711,-0.00004944,-0.00000857,-0.00005308,-0
 .00006810,-0.00083115,-0.00034650,0.00032648,-0.00000446,0.00007468,-0
 .00002379,0.00003053,-0.00002608,0.00007203,0.00032492,-0.00005863,0.0
 0004122,-0.00001815,0.00002068,-0.00012613,-0.00272217,-0.00097590,-0.
 00161838,-0.00116436,-0.00019095,0.00060538,0.02599956,-0.01134851,-0.
 02326057,-0.01392308,0.00553022,0.00951976,-0.07490330,0.10260918,0.01
 762088,-0.00485564,0.00763057,-0.02311213,0.01374684,-0.00800273,0.004
 81250,-0.00637949,0.00609910,0.00177796,0.00031479,-0.00142324,0.00027
 758,-0.00025980,-0.00150870,-0.00042090,-0.00003182,0.00092231,-0.0000
 4178,-0.00001280,0.00090146,-0.00058958,0.00045112,0.00068702,-0.00001
 183,0.00046206,-0.00020324,-0.00094864,0.00027023,0.00067364,0.0003152
 1,0.00325741,-0.00147657,0.00176599,-0.00096388,0.00090394,-0.00054031
 ,0.00004049,-0.00159136,0.00123163,-0.00043605,0.00045628,-0.00341808,
 0.00612892,0.01361014,0.12555922,-0.05615977,-0.17281984,-0.00073910,-
 0.00045107,0.00043752,0.00012924,0.00016613,-0.00038288,0.00004702,0.0
 0002837,-0.00013617,-0.00009631,-0.00030890,-0.00010673,0.00003412,-0.
 00015774,-0.00009347,0.00054754,0.00046553,0.00036852,0.00001241,0.000
 02962,0.00004672,0.00002366,0.00011493,-0.00001781,0.00046211,-0.00000
 712,-0.00048519,0.00062025,0.00000058,-0.00093593,-0.00382641,-0.00159
 498,-0.00165348,-0.00052777,-0.00028510,-0.00007442,-0.00397878,-0.006
 88604,0.00426005,0.01944164,-0.01095142,-0.01661210,-0.13642732,0.0642
 6461,0.17052659\\0.00000012,0.00000460,0.00002147,-0.00000485,0.000030
 73,0.00002235,0.00000002,-0.00000477,-0.00001506,-0.00001930,0.0000009
 3,0.00000801,-0.00000852,0.00000360,0.00001956,0.00000695,-0.00000088,
 -0.00001400,0.00000311,-0.00000169,-0.00000959,0.00001205,-0.00001573,
 -0.00001608,-0.00000697,0.00001561,0.00000524,-0.00001684,-0.00000264,
 -0.00001350,-0.00001147,0.00001148,-0.00000913,0.00002143,-0.00000025,
 -0.00001381,0.00000570,0.00000009,0.00000967,0.00000106,-0.00002548,0.
 00000514,0.00004555,0.00001579,0.00001317,-0.00000949,-0.00002237,-0.0
 0003959,0.00001200,-0.00000199,-0.00000018,-0.00000091,0.00000343,0.00
 000179,-0.00000318,-0.00000245,0.00000876,-0.00000355,-0.00000065,0.00
 000524,0.00000223,0.00000156,0.00001031,0.00000732,-0.00000944,0.00000
 016,-0.00000286,-0.00000511,0.00000229,0.00000002,-0.00000517,0.000000
 64,-0.00000256,0.00000387,-0.00000102,0.00000043,0.00000575,-0.0000039
 2,-0.00000947,-0.00000354,-0.00000446,-0.00001014,0.00000053,-0.000007
 35,-0.00000365,0.00000981,-0.00000371,0.00000418,-0.00000166,-0.000004
 36,-0.00000842,-0.00000395,0.00002195\\\@


    THE DOUGHNUT CREED
 AS YOU RAMBLE ON THROUGH LIFE, BROTHER
 WHATEVER BE YOUR GOAL
 KEEP YOUR EYE UPON THE DOUGHNUT
 AND NOT UPON THE HOLE.
 Job cpu time:       0 days  2 hours 41 minutes 40.5 seconds.
 File lengths (MBytes):  RWF=    458 Int=      0 D2E=      0 Chk=     13 Scr=      1
 Normal termination of Gaussian 09 at Sat Jul 24 02:41:53 2021.
