 Entering Gaussian System, Link 0=g09
 Input=opt_freq-conf-885.com
 Output=opt_freq-conf-885.log
 Initial command:
 /aerosol/software/g09/l1.exe "/scratch/nicole/10501/Gau-72405.inp" -scrdir="/scratch/nicole/10501/"
 Entering Link 1 = /aerosol/software/g09/l1.exe PID=     72410.
  
 Copyright (c) 1988,1990,1992,1993,1995,1998,2003,2009,2013,
            Gaussian, Inc.  All Rights Reserved.
  
 This is part of the Gaussian(R) 09 program.  It is based on
 the Gaussian(R) 03 system (copyright 2003, Gaussian, Inc.),
 the Gaussian(R) 98 system (copyright 1998, Gaussian, Inc.),
 the Gaussian(R) 94 system (copyright 1995, Gaussian, Inc.),
 the Gaussian 92(TM) system (copyright 1992, Gaussian, Inc.),
 the Gaussian 90(TM) system (copyright 1990, Gaussian, Inc.),
 the Gaussian 88(TM) system (copyright 1988, Gaussian, Inc.),
 the Gaussian 86(TM) system (copyright 1986, Carnegie Mellon
 University), and the Gaussian 82(TM) system (copyright 1983,
 Carnegie Mellon University). Gaussian is a federally registered
 trademark of Gaussian, Inc.
  
 This software contains proprietary and confidential information,
 including trade secrets, belonging to Gaussian, Inc.
  
 This software is provided under written license and may be
 used, copied, transmitted, or stored only in accord with that
 written license.
  
 The following legend is applicable only to US Government
 contracts under FAR:
  
                    RESTRICTED RIGHTS LEGEND
  
 Use, reproduction and disclosure by the US Government is
 subject to restrictions as set forth in subparagraphs (a)
 and (c) of the Commercial Computer Software - Restricted
 Rights clause in FAR 52.227-19.
  
 Gaussian, Inc.
 340 Quinnipiac St., Bldg. 40, Wallingford CT 06492
  
  
 ---------------------------------------------------------------
 Warning -- This program may not be used in any manner that
 competes with the business of Gaussian, Inc. or will provide
 assistance to any competitor of Gaussian, Inc.  The licensee
 of this program is prohibited from giving any competitor of
 Gaussian, Inc. access to this program.  By using this program,
 the user acknowledges that Gaussian, Inc. is engaged in the
 business of creating and licensing software in the field of
 computational chemistry and represents and warrants to the
 licensee that it is not a competitor of Gaussian, Inc. and that
 it will not use this program in any manner prohibited above.
 ---------------------------------------------------------------
  

 Cite this work as:
 Gaussian 09, Revision D.01,
 M. J. Frisch, G. W. Trucks, H. B. Schlegel, G. E. Scuseria, 
 M. A. Robb, J. R. Cheeseman, G. Scalmani, V. Barone, B. Mennucci, 
 G. A. Petersson, H. Nakatsuji, M. Caricato, X. Li, H. P. Hratchian, 
 A. F. Izmaylov, J. Bloino, G. Zheng, J. L. Sonnenberg, M. Hada, 
 M. Ehara, K. Toyota, R. Fukuda, J. Hasegawa, M. Ishida, T. Nakajima, 
 Y. Honda, O. Kitao, H. Nakai, T. Vreven, J. A. Montgomery, Jr., 
 J. E. Peralta, F. Ogliaro, M. Bearpark, J. J. Heyd, E. Brothers, 
 K. N. Kudin, V. N. Staroverov, T. Keith, R. Kobayashi, J. Normand, 
 K. Raghavachari, A. Rendell, J. C. Burant, S. S. Iyengar, J. Tomasi, 
 M. Cossi, N. Rega, J. M. Millam, M. Klene, J. E. Knox, J. B. Cross, 
 V. Bakken, C. Adamo, J. Jaramillo, R. Gomperts, R. E. Stratmann, 
 O. Yazyev, A. J. Austin, R. Cammi, C. Pomelli, J. W. Ochterski, 
 R. L. Martin, K. Morokuma, V. G. Zakrzewski, G. A. Voth, 
 P. Salvador, J. J. Dannenberg, S. Dapprich, A. D. Daniels, 
 O. Farkas, J. B. Foresman, J. V. Ortiz, J. Cioslowski, 
 and D. J. Fox, Gaussian, Inc., Wallingford CT, 2013.
 
 ******************************************
 Gaussian 09:  ES64L-G09RevD.01 24-Apr-2013
                24-Jul-2021 
 ******************************************
 %mem=2gb
 %nproc=4
 Will use up to    4 processors via shared memory.
 %chk=conf-885.chk
 ----------------------------------------------------------------------
 # B3LYP/6-311G(d,p) EmpiricalDispersion=GD3BJ opt=calcfc freq=noraman 
 nosymm integral(ultrafinegrid)
 ----------------------------------------------------------------------
 1/10=4,14=-1,18=20,19=15,26=4,38=1/1,3;
 2/9=110,12=2,15=1,17=6,18=5,40=1/2;
 3/5=4,6=6,7=101,11=2,16=1,25=1,30=1,71=2,74=-5,75=-5,124=41,140=1/1,2,3;
 4//1;
 5/5=2,38=5/2;
 8/6=4,10=90,11=11/1;
 11/6=1,8=1,9=11,15=111,16=1,31=1/1,2,10;
 10/6=1,13=1,31=1/2;
 6/7=2,8=2,9=2,10=2,28=1/1;
 7/10=1,18=20,25=1,30=1/1,2,3,16;
 1/10=4,14=-1,18=20,19=15,26=4/3(2);
 2/9=110,15=1/2;
 99//99;
 2/9=110,15=1/2;
 3/5=4,6=6,7=101,11=2,16=1,25=1,30=1,71=1,74=-5,75=-5,124=41/1,2,3;
 4/5=5,16=3,69=1/1;
 5/5=2,38=5/2;
 7/30=1/1,2,3,16;
 1/14=-1,18=20,19=15,26=4/3(-5);
 2/9=110,15=1/2;
 6/7=2,8=2,9=2,10=2,19=2,28=1/1;
 99/9=1/99;
 ------------------------------------------------------------
 Candidate Structure: Conf:885 OPT and FREQ calc in gas phase
 ------------------------------------------------------------
 Symbolic Z-matrix:
 Charge =  1 Multiplicity = 1
 O                    -1.53818   0.57137  -0.33869 
 C                    -1.47554  -0.58604   0.06799 
 N                    -0.33365  -1.08817   0.5939 
 C                     0.82432  -0.23497   0.84341 
 C                     0.46092   0.81771   1.87913 
 O                     1.1605    1.96328   1.73747 
 O                    -0.33418   0.64265   2.76341 
 C                     1.41772   0.3368   -0.46374 
 C                     2.89502   0.58328  -0.40144 
 C                     3.66779   1.61256   0.05406 
 N                     5.01245   1.34801  -0.13655 
 C                     5.05197   0.16407  -0.69755 
 N                     3.80291  -0.34078  -0.88151 
 C                    -2.64265  -1.55339  -0.03225 
 C                    -3.97464  -0.88997   0.28999 
 N                    -4.25956   0.20384  -0.66934 
 H                    -0.37283  -1.95635   1.09943 
 H                     1.55463  -0.89271   1.33001 
 H                     0.86184   2.54627   2.44771 
 H                     1.23317  -0.38449  -1.26056 
 H                     0.88831   1.24414  -0.73456 
 H                     3.33952   2.5325    0.5093 
 H                     5.93702  -0.37237  -0.9914 
 H                     3.57006  -1.22406  -1.30015 
 H                    -2.66526  -1.93206  -1.05777 
 H                    -2.46599  -2.40279   0.62929 
 H                    -4.77649  -1.62938   0.25892 
 H                    -3.94437  -0.48179   1.3025 
 H                    -4.47322  -0.16443  -1.59548 
 H                    -5.02282   0.80563  -0.36245 
 H                    -3.39869   0.76171  -0.75108 
 

 GradGradGradGradGradGradGradGradGradGradGradGradGradGradGradGradGradGrad
 Berny optimization.
 Initialization pass.
                           ----------------------------
                           !    Initial Parameters    !
                           ! (Angstroms and Degrees)  !
 --------------------------                            --------------------------
 ! Name  Definition              Value          Derivative Info.                !
 --------------------------------------------------------------------------------
 ! R1    R(1,2)                  1.2284         calculate D2E/DX2 analytically  !
 ! R2    R(2,3)                  1.3538         calculate D2E/DX2 analytically  !
 ! R3    R(2,14)                 1.5192         calculate D2E/DX2 analytically  !
 ! R4    R(3,4)                  1.4598         calculate D2E/DX2 analytically  !
 ! R5    R(3,17)                 1.0054         calculate D2E/DX2 analytically  !
 ! R6    R(4,5)                  1.5208         calculate D2E/DX2 analytically  !
 ! R7    R(4,8)                  1.5452         calculate D2E/DX2 analytically  !
 ! R8    R(4,18)                 1.0967         calculate D2E/DX2 analytically  !
 ! R9    R(5,6)                  1.3497         calculate D2E/DX2 analytically  !
 ! R10   R(5,7)                  1.202          calculate D2E/DX2 analytically  !
 ! R11   R(6,19)                 0.9662         calculate D2E/DX2 analytically  !
 ! R12   R(8,9)                  1.499          calculate D2E/DX2 analytically  !
 ! R13   R(8,20)                 1.0905         calculate D2E/DX2 analytically  !
 ! R14   R(8,21)                 1.0848         calculate D2E/DX2 analytically  !
 ! R15   R(9,10)                 1.3653         calculate D2E/DX2 analytically  !
 ! R16   R(9,13)                 1.3815         calculate D2E/DX2 analytically  !
 ! R17   R(10,11)                1.3836         calculate D2E/DX2 analytically  !
 ! R18   R(10,22)                1.0776         calculate D2E/DX2 analytically  !
 ! R19   R(11,12)                1.3107         calculate D2E/DX2 analytically  !
 ! R20   R(12,13)                1.3597         calculate D2E/DX2 analytically  !
 ! R21   R(12,23)                1.0758         calculate D2E/DX2 analytically  !
 ! R22   R(13,24)                1.0048         calculate D2E/DX2 analytically  !
 ! R23   R(14,15)                1.5226         calculate D2E/DX2 analytically  !
 ! R24   R(14,25)                1.0934         calculate D2E/DX2 analytically  !
 ! R25   R(14,26)                1.091          calculate D2E/DX2 analytically  !
 ! R26   R(15,16)                1.4825         calculate D2E/DX2 analytically  !
 ! R27   R(15,27)                1.0912         calculate D2E/DX2 analytically  !
 ! R28   R(15,28)                1.0921         calculate D2E/DX2 analytically  !
 ! R29   R(16,29)                1.0193         calculate D2E/DX2 analytically  !
 ! R30   R(16,30)                1.0193         calculate D2E/DX2 analytically  !
 ! R31   R(16,31)                1.0291         calculate D2E/DX2 analytically  !
 ! A1    A(1,2,3)              121.407          calculate D2E/DX2 analytically  !
 ! A2    A(1,2,14)             122.6121         calculate D2E/DX2 analytically  !
 ! A3    A(3,2,14)             115.9422         calculate D2E/DX2 analytically  !
 ! A4    A(2,3,4)              121.2453         calculate D2E/DX2 analytically  !
 ! A5    A(2,3,17)             118.8653         calculate D2E/DX2 analytically  !
 ! A6    A(4,3,17)             116.7217         calculate D2E/DX2 analytically  !
 ! A7    A(3,4,5)              109.3542         calculate D2E/DX2 analytically  !
 ! A8    A(3,4,8)              112.1043         calculate D2E/DX2 analytically  !
 ! A9    A(3,4,18)             104.6867         calculate D2E/DX2 analytically  !
 ! A10   A(5,4,8)              114.314          calculate D2E/DX2 analytically  !
 ! A11   A(5,4,18)             105.7881         calculate D2E/DX2 analytically  !
 ! A12   A(8,4,18)             109.9704         calculate D2E/DX2 analytically  !
 ! A13   A(4,5,6)              113.0883         calculate D2E/DX2 analytically  !
 ! A14   A(4,5,7)              123.9356         calculate D2E/DX2 analytically  !
 ! A15   A(6,5,7)              122.9345         calculate D2E/DX2 analytically  !
 ! A16   A(5,6,19)             105.9471         calculate D2E/DX2 analytically  !
 ! A17   A(4,8,9)              113.8375         calculate D2E/DX2 analytically  !
 ! A18   A(4,8,20)             107.961          calculate D2E/DX2 analytically  !
 ! A19   A(4,8,21)             109.4665         calculate D2E/DX2 analytically  !
 ! A20   A(9,8,20)             107.8126         calculate D2E/DX2 analytically  !
 ! A21   A(9,8,21)             110.7195         calculate D2E/DX2 analytically  !
 ! A22   A(20,8,21)            106.7503         calculate D2E/DX2 analytically  !
 ! A23   A(8,9,10)             134.0777         calculate D2E/DX2 analytically  !
 ! A24   A(8,9,13)             121.5484         calculate D2E/DX2 analytically  !
 ! A25   A(10,9,13)            104.3721         calculate D2E/DX2 analytically  !
 ! A26   A(9,10,11)            111.0979         calculate D2E/DX2 analytically  !
 ! A27   A(9,10,22)            127.74           calculate D2E/DX2 analytically  !
 ! A28   A(11,10,22)           121.1621         calculate D2E/DX2 analytically  !
 ! A29   A(10,11,12)           105.1277         calculate D2E/DX2 analytically  !
 ! A30   A(11,12,13)           111.4432         calculate D2E/DX2 analytically  !
 ! A31   A(11,12,23)           126.3059         calculate D2E/DX2 analytically  !
 ! A32   A(13,12,23)           122.2508         calculate D2E/DX2 analytically  !
 ! A33   A(9,13,12)            107.9583         calculate D2E/DX2 analytically  !
 ! A34   A(9,13,24)            125.4832         calculate D2E/DX2 analytically  !
 ! A35   A(12,13,24)           126.5558         calculate D2E/DX2 analytically  !
 ! A36   A(2,14,15)            112.3751         calculate D2E/DX2 analytically  !
 ! A37   A(2,14,25)            107.3548         calculate D2E/DX2 analytically  !
 ! A38   A(2,14,26)            109.3497         calculate D2E/DX2 analytically  !
 ! A39   A(15,14,25)           109.3478         calculate D2E/DX2 analytically  !
 ! A40   A(15,14,26)           110.6441         calculate D2E/DX2 analytically  !
 ! A41   A(25,14,26)           107.6032         calculate D2E/DX2 analytically  !
 ! A42   A(14,15,16)           110.6503         calculate D2E/DX2 analytically  !
 ! A43   A(14,15,27)           109.9734         calculate D2E/DX2 analytically  !
 ! A44   A(14,15,28)           109.5618         calculate D2E/DX2 analytically  !
 ! A45   A(16,15,27)           109.8954         calculate D2E/DX2 analytically  !
 ! A46   A(16,15,28)           109.2385         calculate D2E/DX2 analytically  !
 ! A47   A(27,15,28)           107.459          calculate D2E/DX2 analytically  !
 ! A48   A(15,16,29)           111.2021         calculate D2E/DX2 analytically  !
 ! A49   A(15,16,30)           112.6245         calculate D2E/DX2 analytically  !
 ! A50   A(15,16,31)           106.8938         calculate D2E/DX2 analytically  !
 ! A51   A(29,16,30)           109.2634         calculate D2E/DX2 analytically  !
 ! A52   A(29,16,31)           107.3997         calculate D2E/DX2 analytically  !
 ! A53   A(30,16,31)           109.2859         calculate D2E/DX2 analytically  !
 ! D1    D(1,2,3,4)              7.1885         calculate D2E/DX2 analytically  !
 ! D2    D(1,2,3,17)           166.4159         calculate D2E/DX2 analytically  !
 ! D3    D(14,2,3,4)          -175.0172         calculate D2E/DX2 analytically  !
 ! D4    D(14,2,3,17)          -15.7898         calculate D2E/DX2 analytically  !
 ! D5    D(1,2,14,15)          -40.7302         calculate D2E/DX2 analytically  !
 ! D6    D(1,2,14,25)           79.5357         calculate D2E/DX2 analytically  !
 ! D7    D(1,2,14,26)         -164.005          calculate D2E/DX2 analytically  !
 ! D8    D(3,2,14,15)          141.5048         calculate D2E/DX2 analytically  !
 ! D9    D(3,2,14,25)          -98.2293         calculate D2E/DX2 analytically  !
 ! D10   D(3,2,14,26)           18.2299         calculate D2E/DX2 analytically  !
 ! D11   D(2,3,4,5)             63.0455         calculate D2E/DX2 analytically  !
 ! D12   D(2,3,4,8)            -64.8105         calculate D2E/DX2 analytically  !
 ! D13   D(2,3,4,18)           176.0112         calculate D2E/DX2 analytically  !
 ! D14   D(17,3,4,5)           -96.6058         calculate D2E/DX2 analytically  !
 ! D15   D(17,3,4,8)           135.5382         calculate D2E/DX2 analytically  !
 ! D16   D(17,3,4,18)           16.36           calculate D2E/DX2 analytically  !
 ! D17   D(3,4,5,6)           -151.0244         calculate D2E/DX2 analytically  !
 ! D18   D(3,4,5,7)             31.2652         calculate D2E/DX2 analytically  !
 ! D19   D(8,4,5,6)            -24.4154         calculate D2E/DX2 analytically  !
 ! D20   D(8,4,5,7)            157.8743         calculate D2E/DX2 analytically  !
 ! D21   D(18,4,5,6)            96.7304         calculate D2E/DX2 analytically  !
 ! D22   D(18,4,5,7)           -80.98           calculate D2E/DX2 analytically  !
 ! D23   D(3,4,8,9)           -149.8559         calculate D2E/DX2 analytically  !
 ! D24   D(3,4,8,20)           -30.1997         calculate D2E/DX2 analytically  !
 ! D25   D(3,4,8,21)            85.6439         calculate D2E/DX2 analytically  !
 ! D26   D(5,4,8,9)             84.9736         calculate D2E/DX2 analytically  !
 ! D27   D(5,4,8,20)          -155.3702         calculate D2E/DX2 analytically  !
 ! D28   D(5,4,8,21)           -39.5266         calculate D2E/DX2 analytically  !
 ! D29   D(18,4,8,9)           -33.8324         calculate D2E/DX2 analytically  !
 ! D30   D(18,4,8,20)           85.8239         calculate D2E/DX2 analytically  !
 ! D31   D(18,4,8,21)         -158.3326         calculate D2E/DX2 analytically  !
 ! D32   D(4,5,6,19)          -179.1045         calculate D2E/DX2 analytically  !
 ! D33   D(7,5,6,19)            -1.3678         calculate D2E/DX2 analytically  !
 ! D34   D(4,8,9,10)           -84.1443         calculate D2E/DX2 analytically  !
 ! D35   D(4,8,9,13)            96.4351         calculate D2E/DX2 analytically  !
 ! D36   D(20,8,9,10)          156.1155         calculate D2E/DX2 analytically  !
 ! D37   D(20,8,9,13)          -23.3051         calculate D2E/DX2 analytically  !
 ! D38   D(21,8,9,10)           39.6805         calculate D2E/DX2 analytically  !
 ! D39   D(21,8,9,13)         -139.7401         calculate D2E/DX2 analytically  !
 ! D40   D(8,9,10,11)         -179.2905         calculate D2E/DX2 analytically  !
 ! D41   D(8,9,10,22)            0.6845         calculate D2E/DX2 analytically  !
 ! D42   D(13,9,10,11)           0.1998         calculate D2E/DX2 analytically  !
 ! D43   D(13,9,10,22)        -179.8253         calculate D2E/DX2 analytically  !
 ! D44   D(8,9,13,12)          179.5376         calculate D2E/DX2 analytically  !
 ! D45   D(8,9,13,24)            0.1163         calculate D2E/DX2 analytically  !
 ! D46   D(10,9,13,12)          -0.0327         calculate D2E/DX2 analytically  !
 ! D47   D(10,9,13,24)        -179.454          calculate D2E/DX2 analytically  !
 ! D48   D(9,10,11,12)          -0.2927         calculate D2E/DX2 analytically  !
 ! D49   D(22,10,11,12)        179.7304         calculate D2E/DX2 analytically  !
 ! D50   D(10,11,12,13)          0.2688         calculate D2E/DX2 analytically  !
 ! D51   D(10,11,12,23)       -179.839          calculate D2E/DX2 analytically  !
 ! D52   D(11,12,13,9)          -0.1545         calculate D2E/DX2 analytically  !
 ! D53   D(11,12,13,24)        179.2589         calculate D2E/DX2 analytically  !
 ! D54   D(23,12,13,9)         179.9482         calculate D2E/DX2 analytically  !
 ! D55   D(23,12,13,24)         -0.6384         calculate D2E/DX2 analytically  !
 ! D56   D(2,14,15,16)          61.4384         calculate D2E/DX2 analytically  !
 ! D57   D(2,14,15,27)        -176.9661         calculate D2E/DX2 analytically  !
 ! D58   D(2,14,15,28)         -59.0665         calculate D2E/DX2 analytically  !
 ! D59   D(25,14,15,16)        -57.6677         calculate D2E/DX2 analytically  !
 ! D60   D(25,14,15,27)         63.9278         calculate D2E/DX2 analytically  !
 ! D61   D(25,14,15,28)       -178.1726         calculate D2E/DX2 analytically  !
 ! D62   D(26,14,15,16)       -176.0146         calculate D2E/DX2 analytically  !
 ! D63   D(26,14,15,27)        -54.4191         calculate D2E/DX2 analytically  !
 ! D64   D(26,14,15,28)         63.4805         calculate D2E/DX2 analytically  !
 ! D65   D(14,15,16,29)         70.3138         calculate D2E/DX2 analytically  !
 ! D66   D(14,15,16,30)       -166.6591         calculate D2E/DX2 analytically  !
 ! D67   D(14,15,16,31)        -46.6241         calculate D2E/DX2 analytically  !
 ! D68   D(27,15,16,29)        -51.3276         calculate D2E/DX2 analytically  !
 ! D69   D(27,15,16,30)         71.6994         calculate D2E/DX2 analytically  !
 ! D70   D(27,15,16,31)       -168.2656         calculate D2E/DX2 analytically  !
 ! D71   D(28,15,16,29)       -168.9888         calculate D2E/DX2 analytically  !
 ! D72   D(28,15,16,30)        -45.9617         calculate D2E/DX2 analytically  !
 ! D73   D(28,15,16,31)         74.0733         calculate D2E/DX2 analytically  !
 --------------------------------------------------------------------------------
 Trust Radius=3.00D-01 FncErr=1.00D-07 GrdErr=1.00D-06
 Number of steps in this run=    167 maximum allowed number of steps=    186.
 GradGradGradGradGradGradGradGradGradGradGradGradGradGradGradGradGradGrad

                          Input orientation:                          
 ---------------------------------------------------------------------
 Center     Atomic      Atomic             Coordinates (Angstroms)
 Number     Number       Type             X           Y           Z
 ---------------------------------------------------------------------
      1          8           0       -1.538177    0.571365   -0.338685
      2          6           0       -1.475544   -0.586038    0.067993
      3          7           0       -0.333646   -1.088170    0.593896
      4          6           0        0.824321   -0.234971    0.843410
      5          6           0        0.460921    0.817714    1.879128
      6          8           0        1.160504    1.963284    1.737470
      7          8           0       -0.334184    0.642647    2.763409
      8          6           0        1.417721    0.336804   -0.463742
      9          6           0        2.895018    0.583283   -0.401438
     10          6           0        3.667793    1.612560    0.054059
     11          7           0        5.012447    1.348006   -0.136547
     12          6           0        5.051966    0.164069   -0.697549
     13          7           0        3.802905   -0.340777   -0.881507
     14          6           0       -2.642649   -1.553390   -0.032247
     15          6           0       -3.974637   -0.889965    0.289986
     16          7           0       -4.259556    0.203843   -0.669340
     17          1           0       -0.372831   -1.956352    1.099430
     18          1           0        1.554627   -0.892708    1.330011
     19          1           0        0.861839    2.546274    2.447712
     20          1           0        1.233170   -0.384492   -1.260563
     21          1           0        0.888307    1.244140   -0.734564
     22          1           0        3.339524    2.532496    0.509303
     23          1           0        5.937025   -0.372368   -0.991397
     24          1           0        3.570064   -1.224065   -1.300151
     25          1           0       -2.665263   -1.932058   -1.057774
     26          1           0       -2.465988   -2.402790    0.629291
     27          1           0       -4.776490   -1.629383    0.258918
     28          1           0       -3.944371   -0.481792    1.302504
     29          1           0       -4.473217   -0.164428   -1.595482
     30          1           0       -5.022815    0.805627   -0.362453
     31          1           0       -3.398692    0.761715   -0.751084
 ---------------------------------------------------------------------
                    Distance matrix (angstroms):
                    1          2          3          4          5
     1  O    0.000000
     2  C    1.228370   0.000000
     3  N    2.252700   1.353751   0.000000
     4  C    2.762051   2.452325   1.459826   0.000000
     5  C    2.995960   3.000104   2.432191   1.520828   0.000000
     6  O    3.678415   4.029261   3.584915   2.396808   1.349745
     7  O    3.328313   3.174529   2.775340   2.408058   1.201995
     8  C    2.967827   3.083077   2.493278   1.545217   2.576002
     9  C    4.433655   4.548570   3.769445   2.550876   3.343766
    10  C    5.323576   5.593562   4.857662   3.481634   3.774478
    11  N    6.599600   6.773212   5.920238   4.583288   5.006052
    12  C    6.612463   6.614915   5.678094   4.517385   5.305113
    13  N    5.445532   5.368773   4.454937   3.443616   4.486877
    14  C    2.414196   1.519194   2.437207   3.811152   4.348291
    15  C    2.909820   2.527275   3.659025   4.874966   5.011558
    16  N    2.765919   2.986351   4.321786   5.322290   5.399484
    17  H    3.132979   2.039019   1.005406   2.112314   2.999752
    18  H    3.807032   3.296767   2.036086   1.096697   2.103156
    19  H    4.174249   4.575784   4.251471   3.211000   1.863315
    20  H    3.073091   3.023708   2.527665   2.148538   3.449540
    21  H    2.548955   3.095390   2.949177   2.163762   2.682515
    22  H    5.325137   5.753685   5.158348   3.754563   3.619842
    23  H    7.562758   7.490937   6.507445   5.433703   6.296342
    24  H    5.499283   5.266598   4.341063   3.621086   4.893205
    25  H    2.838052   2.120036   2.979363   4.321088   5.095063
    26  H    3.262424   2.143974   2.505267   3.946064   4.527752
    27  H    3.960694   3.467170   4.488205   5.801302   6.003652
    28  H    3.097162   2.762244   3.729230   4.797095   4.629018
    29  H    3.276490   3.454121   4.773125   5.832416   6.114183
    30  H    3.492584   3.834729   5.146783   6.060194   5.924204
    31  H    1.915155   2.487131   3.824336   4.622730   4.670949
                    6          7          8          9         10
     6  O    0.000000
     7  O    2.242927   0.000000
     8  C    2.748988   3.684727   0.000000
     9  C    3.080238   4.521894   1.499013   0.000000
    10  C    3.040293   4.929211   2.637896   1.365309   0.000000
    11  N    4.327583   6.123213   3.748552   2.266821   1.383624
    12  C    4.930515   6.420115   3.645852   2.217172   2.139855
    13  N    4.376074   5.600717   2.514507   1.381526   2.170038
    14  C    5.473834   4.238783   4.499514   5.947052   7.060620
    15  C    6.050282   4.660432   5.581272   7.059794   8.045187
    16  N    6.185904   5.233055   5.682555   7.169635   8.083975
    17  H    4.256965   3.086279   3.302749   4.402407   5.491500
    18  H    2.911708   2.824809   2.178989   2.640666   3.517086
    19  H    0.966190   2.270227   3.696935   4.013079   3.804573
    20  H    3.808613   4.438914   1.090527   2.106282   3.412306
    21  H    2.588863   3.753944   1.084843   2.138830   2.912594
    22  H    2.565254   4.706236   3.075907   2.196921   1.077631
    23  H    5.976382   7.379490   4.604938   3.242704   3.190977
    24  H    5.019195   5.936353   2.787197   2.128352   3.144818
    25  H    6.133806   5.163766   4.708649   6.137951   7.342213
    26  H    5.782915   4.286460   4.876812   6.222493   7.353720
    27  H    7.095158   5.582892   6.538837   8.011491   9.047545
    28  H    5.676913   4.053648   5.704539   7.128467   7.993120
    29  H    6.882916   6.064890   6.019570   7.501713   8.494393
    30  H    6.631989   5.637450   6.458371   7.921050   8.737922
    31  H    5.331316   4.664445   4.843650   6.305939   7.162918
                   11         12         13         14         15
    11  N    0.000000
    12  C    1.310722   0.000000
    13  N    2.206795   1.359729   0.000000
    14  C    8.187153   7.911978   6.613383   0.000000
    15  C    9.271361   9.141432   7.884426   1.522550   0.000000
    16  N    9.357512   9.311650   8.083620   2.471466   1.482532
    17  H    6.437985   6.095387   4.896015   2.568101   3.842576
    18  H    4.373570   4.178417   3.201593   4.461992   5.626226
    19  H    5.034063   5.755410   5.297984   5.936234   6.313084
    20  H    4.306727   3.898860   2.597909   4.230491   5.457194
    21  H    4.168567   4.301626   3.320909   4.559284   5.408543
    22  H    2.149141   3.162024   3.225642   7.264581   8.078261
    23  H    2.131971   1.075844   2.137181   8.713529  10.007542
    24  H    3.170173   2.118037   1.004826   6.349317   7.717686
    25  H    8.399686   8.004945   6.663366   1.093438   2.148692
    26  H    8.401308   8.054124   6.770039   1.091019   2.163282
    27  H   10.239362  10.036426   8.750263   2.154955   1.091179
    28  H    9.254384   9.238584   8.050471   2.150433   1.092114
    29  H    9.715646   9.573051   8.308734   2.779190   2.080860
    30  H   10.052447  10.100748   8.914987   3.367371   2.097471
    31  H    8.453914   8.471934   7.286666   2.539298   2.035581
                   16         17         18         19         20
    16  N    0.000000
    17  H    4.785564   0.000000
    18  H    6.245362   2.213504   0.000000
    19  H    6.436745   4.859621   3.681821   0.000000
    20  H    5.555693   3.258765   2.659453   4.741158   0.000000
    21  H    5.252329   3.898352   3.045090   3.438479   1.745866
    22  H    8.034790   5.854877   3.948600   3.145878   4.009734
    23  H   10.217926   6.833363   4.986492   6.789953   4.711565
    24  H    7.983720   4.673399   3.330096   5.966274   2.483450
    25  H    2.693459   3.147914   4.958754   6.692111   4.199270
    26  H    3.420214   2.191266   4.351632   6.234928   4.618316
    27  H    2.118868   4.495062   6.463201   7.349672   6.322546
    28  H    2.111304   3.869298   5.514398   5.794855   5.778037
    29  H    1.019320   5.223668   6.739718   7.222060   5.720442
    30  H    1.019258   5.602497   7.000822   6.749521   6.431200
    31  H    1.029073   4.468570   5.621693   5.618636   4.798698
                   21         22         23         24         25
    21  H    0.000000
    22  H    3.035710   0.000000
    23  H    5.307412   4.175804   0.000000
    24  H    3.688326   4.176005   2.534408   0.000000
    25  H    4.777087   7.644962   8.742792   6.280072   0.000000
    26  H    5.139212   7.620723   8.795446   6.445624   1.762806
    27  H    6.429157   9.124342  10.859226   8.500585   2.506506
    28  H    5.521165   7.922767  10.144750   7.986959   3.051279
    29  H    5.609918   8.528918  10.429827   8.118154   2.585023
    30  H    5.939034   8.583167  11.040894   8.878992   3.679190
    31  H    4.314089   7.080099   9.407417   7.266935   2.808628
                   26         27         28         29         30
    26  H    0.000000
    27  H    2.464499   0.000000
    28  H    2.515764   1.760243   0.000000
    29  H    3.740167   2.382618   2.962890   0.000000
    30  H    4.220765   2.525084   2.364862   1.662355   0.000000
    31  H    3.576236   2.938670   2.461971   1.650864   1.670550
                   31
    31  H    0.000000
 Symmetry turned off by external request.
 Stoichiometry    C9H15N4O3(1+)
 Framework group  C1[X(C9H15N4O3)]
 Deg. of freedom    87
 Full point group                 C1      NOp   1
 Rotational constants (GHZ):      1.1693117      0.2438321      0.2245456
 Standard basis: 6-311G(d,p) (5D, 7F)
   378 basis functions,   632 primitive gaussians,   394 cartesian basis functions
    60 alpha electrons       60 beta electrons
       nuclear repulsion energy      1139.5684606199 Hartrees.
 NAtoms=   31 NActive=   31 NUniq=   31 SFac= 1.00D+00 NAtFMM=   60 NAOKFM=F Big=F
 Integral buffers will be    131072 words long.
 Raffenetti 2 integral format.
 Two-electron integral symmetry is turned off.
 Nuclear repulsion after empirical dispersion term =     1139.5124719909 Hartrees.
 One-electron integrals computed using PRISM.
 NBasis=   378 RedAO= T EigKep=  5.00D-04  NBF=   378
 NBsUse=   378 1.00D-06 EigRej= -1.00D+00 NBFU=   378
 ExpMin= 1.03D-01 ExpMax= 8.59D+03 ExpMxC= 1.30D+03 IAcc=3 IRadAn=         5 AccDes= 0.00D+00
 Harris functional with IExCor=  402 and IRadAn=       5 diagonalized for initial guess.
 HarFok:  IExCor=  402 AccDes= 0.00D+00 IRadAn=         5 IDoV= 1 UseB2=F ITyADJ=14
 ICtDFT=  3500011 ScaDFX=  1.000000  1.000000  1.000000  1.000000
 FoFCou: FMM=F IPFlag=           0 FMFlag=      100000 FMFlg1=           0
         NFxFlg=           0 DoJE=T BraDBF=F KetDBF=T FulRan=T
         wScrn=  0.000000 ICntrl=     500 IOpCl=  0 I1Cent=   200000004 NGrid=           0
         NMat0=    1 NMatS0=      1 NMatT0=    0 NMatD0=    1 NMtDS0=    0 NMtDT0=    0
 Symmetry not used in FoFCou.
 Requested convergence on RMS density matrix=1.00D-08 within 128 cycles.
 Requested convergence on MAX density matrix=1.00D-06.
 Requested convergence on             energy=1.00D-06.
 No special actions if energy rises.
 Integral accuracy reduced to 1.0D-05 until final iterations.
 Initial convergence to 1.0D-05 achieved.  Increase integral accuracy.
 SCF Done:  E(RB3LYP) =  -796.737552203     A.U. after   14 cycles
            NFock= 14  Conv=0.49D-08     -V/T= 2.0034
 DoSCS=F DFT=T ScalE2(SS,OS)=  1.000000  1.000000
 Range of M.O.s used for correlation:     1   378
 NBasis=   378 NAE=    60 NBE=    60 NFC=     0 NFV=     0
 NROrb=    378 NOA=    60 NOB=    60 NVA=   318 NVB=   318
 Symmetrizing basis deriv contribution to polar:
 IMax=3 JMax=2 DiffMx= 0.00D+00
 G2DrvN: will do    32 centers at a time, making    1 passes.
 Calling FoFCou, ICntrl=  3107 FMM=F I1Cent=   0 AccDes= 0.00D+00.
 End of G2Drv F.D. properties file   721 does not exist.
 End of G2Drv F.D. properties file   722 does not exist.
 End of G2Drv F.D. properties file   788 does not exist.
          IDoAtm=1111111111111111111111111111111
          Differentiating once with respect to nuclear coordinates.
          There are    96 degrees of freedom in the 1st order CPHF.  IDoFFX=6 NUNeed=     0.
     90 vectors produced by pass  0 Test12= 1.99D-14 1.04D-09 XBig12= 1.64D-01 8.76D-02.
 AX will form    90 AO Fock derivatives at one time.
     90 vectors produced by pass  1 Test12= 1.99D-14 1.04D-09 XBig12= 2.45D-02 4.53D-02.
     90 vectors produced by pass  2 Test12= 1.99D-14 1.04D-09 XBig12= 2.03D-04 2.37D-03.
     90 vectors produced by pass  3 Test12= 1.99D-14 1.04D-09 XBig12= 7.45D-07 1.08D-04.
     90 vectors produced by pass  4 Test12= 1.99D-14 1.04D-09 XBig12= 1.21D-09 3.97D-06.
     77 vectors produced by pass  5 Test12= 1.99D-14 1.04D-09 XBig12= 1.62D-12 1.43D-07.
     25 vectors produced by pass  6 Test12= 1.99D-14 1.04D-09 XBig12= 1.82D-15 6.65D-09.
 InvSVY:  IOpt=1 It=  1 EMax= 5.55D-16
 Solved reduced A of dimension   552 with    96 vectors.
 End of Minotr F.D. properties file   721 does not exist.
 End of Minotr F.D. properties file   722 does not exist.
 End of Minotr F.D. properties file   788 does not exist.

 **********************************************************************

            Population analysis using the SCF density.

 **********************************************************************

 Alpha  occ. eigenvalues --  -19.27535 -19.25596 -19.22143 -14.61819 -14.49051
 Alpha  occ. eigenvalues --  -14.44273 -14.35672 -10.43777 -10.41840 -10.41820
 Alpha  occ. eigenvalues --  -10.36564 -10.35507 -10.29241 -10.29211 -10.28191
 Alpha  occ. eigenvalues --  -10.25075  -1.22547  -1.21430  -1.19351  -1.13597
 Alpha  occ. eigenvalues --   -1.09355  -1.08241  -0.97546  -0.94695  -0.91568
 Alpha  occ. eigenvalues --   -0.85910  -0.83228  -0.78437  -0.78063  -0.77433
 Alpha  occ. eigenvalues --   -0.75693  -0.71588  -0.69973  -0.69240  -0.67527
 Alpha  occ. eigenvalues --   -0.66762  -0.63877  -0.62695  -0.62049  -0.60594
 Alpha  occ. eigenvalues --   -0.59803  -0.58791  -0.57503  -0.57019  -0.55559
 Alpha  occ. eigenvalues --   -0.53955  -0.53539  -0.51899  -0.51388  -0.50066
 Alpha  occ. eigenvalues --   -0.49405  -0.48533  -0.47644  -0.43742  -0.42919
 Alpha  occ. eigenvalues --   -0.42179  -0.39486  -0.35596  -0.33791  -0.30594
 Alpha virt. eigenvalues --   -0.16949  -0.14891  -0.11813  -0.11460  -0.10563
 Alpha virt. eigenvalues --   -0.08674  -0.06723  -0.06285  -0.06058  -0.04866
 Alpha virt. eigenvalues --   -0.04531  -0.03957  -0.03658  -0.02135  -0.01716
 Alpha virt. eigenvalues --   -0.00487   0.00536   0.01320   0.02162   0.03088
 Alpha virt. eigenvalues --    0.04320   0.04929   0.07362   0.08934   0.09944
 Alpha virt. eigenvalues --    0.10527   0.11286   0.12298   0.13135   0.13215
 Alpha virt. eigenvalues --    0.15798   0.16696   0.17192   0.17467   0.18482
 Alpha virt. eigenvalues --    0.20219   0.21318   0.23666   0.24884   0.25698
 Alpha virt. eigenvalues --    0.26170   0.26519   0.27989   0.28966   0.30243
 Alpha virt. eigenvalues --    0.30629   0.31383   0.32449   0.33369   0.33866
 Alpha virt. eigenvalues --    0.34277   0.35841   0.36521   0.37273   0.37705
 Alpha virt. eigenvalues --    0.39059   0.39911   0.40844   0.41018   0.41639
 Alpha virt. eigenvalues --    0.42096   0.43169   0.44891   0.45533   0.46107
 Alpha virt. eigenvalues --    0.46872   0.47550   0.48454   0.48896   0.49356
 Alpha virt. eigenvalues --    0.49585   0.50418   0.51431   0.52115   0.53713
 Alpha virt. eigenvalues --    0.54371   0.54849   0.55057   0.57532   0.58876
 Alpha virt. eigenvalues --    0.59300   0.60272   0.60859   0.63221   0.63774
 Alpha virt. eigenvalues --    0.63956   0.66378   0.66782   0.67876   0.70572
 Alpha virt. eigenvalues --    0.71851   0.73651   0.74049   0.76605   0.80042
 Alpha virt. eigenvalues --    0.80884   0.82708   0.82990   0.84395   0.85506
 Alpha virt. eigenvalues --    0.87141   0.89431   0.90841   0.91364   0.92445
 Alpha virt. eigenvalues --    0.93759   0.95771   0.97045   0.99779   1.02066
 Alpha virt. eigenvalues --    1.02854   1.05791   1.06363   1.08493   1.09711
 Alpha virt. eigenvalues --    1.12181   1.12998   1.13116   1.13562   1.14514
 Alpha virt. eigenvalues --    1.18013   1.19938   1.22573   1.22962   1.24484
 Alpha virt. eigenvalues --    1.25539   1.26690   1.27394   1.28662   1.30320
 Alpha virt. eigenvalues --    1.31469   1.32541   1.34041   1.34543   1.35036
 Alpha virt. eigenvalues --    1.36266   1.38425   1.39818   1.40732   1.43757
 Alpha virt. eigenvalues --    1.44840   1.45498   1.46382   1.46483   1.48384
 Alpha virt. eigenvalues --    1.49876   1.49985   1.51128   1.51959   1.53598
 Alpha virt. eigenvalues --    1.54118   1.56045   1.56493   1.56973   1.57677
 Alpha virt. eigenvalues --    1.59373   1.60199   1.61360   1.63125   1.63410
 Alpha virt. eigenvalues --    1.65158   1.65605   1.66068   1.67442   1.68085
 Alpha virt. eigenvalues --    1.68766   1.71210   1.71684   1.73732   1.75320
 Alpha virt. eigenvalues --    1.78271   1.79583   1.80802   1.81927   1.83458
 Alpha virt. eigenvalues --    1.84740   1.86235   1.88254   1.90649   1.91642
 Alpha virt. eigenvalues --    1.94711   1.96066   1.96909   2.00124   2.01646
 Alpha virt. eigenvalues --    2.02725   2.04369   2.05399   2.08899   2.10236
 Alpha virt. eigenvalues --    2.12424   2.14137   2.15398   2.17656   2.18158
 Alpha virt. eigenvalues --    2.19331   2.21327   2.22608   2.24535   2.27934
 Alpha virt. eigenvalues --    2.31301   2.32444   2.33075   2.34156   2.36042
 Alpha virt. eigenvalues --    2.37955   2.38322   2.38715   2.40582   2.42030
 Alpha virt. eigenvalues --    2.43332   2.44763   2.46203   2.46472   2.48348
 Alpha virt. eigenvalues --    2.48936   2.49975   2.50891   2.50957   2.53791
 Alpha virt. eigenvalues --    2.54138   2.55130   2.56585   2.58321   2.59701
 Alpha virt. eigenvalues --    2.61075   2.62237   2.63522   2.64257   2.67219
 Alpha virt. eigenvalues --    2.68495   2.71480   2.72364   2.74565   2.75032
 Alpha virt. eigenvalues --    2.75898   2.76432   2.78466   2.79484   2.80328
 Alpha virt. eigenvalues --    2.80563   2.81619   2.83208   2.86186   2.87550
 Alpha virt. eigenvalues --    2.89422   2.92022   2.93229   2.97473   2.97561
 Alpha virt. eigenvalues --    2.99855   3.05197   3.07648   3.08736   3.12038
 Alpha virt. eigenvalues --    3.17931   3.21779   3.22672   3.23931   3.25803
 Alpha virt. eigenvalues --    3.29364   3.38834   3.40894   3.44497   3.47710
 Alpha virt. eigenvalues --    3.49573   3.53949   3.57657   3.58800   3.59367
 Alpha virt. eigenvalues --    3.61832   3.64063   3.64863   3.69161   3.73638
 Alpha virt. eigenvalues --    3.74398   3.75922   3.78226   3.82381   3.87402
 Alpha virt. eigenvalues --    3.91667   4.04610   4.14744   4.21798   4.35095
 Alpha virt. eigenvalues --    4.45819   4.47906   4.58759   4.68685   4.69200
 Alpha virt. eigenvalues --    4.72371   4.78892   4.80733   4.84599   4.85014
 Alpha virt. eigenvalues --    4.92788   5.07106   5.17440   5.21770   5.46576
 Alpha virt. eigenvalues --    5.53741   5.65054  23.59054  23.62690  23.64010
 Alpha virt. eigenvalues --   23.67055  23.68501  23.71950  23.81391  23.84957
 Alpha virt. eigenvalues --   24.08243  35.30653  35.44287  35.45506  35.61472
 Alpha virt. eigenvalues --   49.73706  49.85537  49.89821
          Condensed to atoms (all electrons):
               1          2          3          4          5          6
     1  O    7.983549   0.542913  -0.093061   0.000257   0.007021  -0.000379
     2  C    0.542913   4.561324   0.392848  -0.078565  -0.001924  -0.000845
     3  N   -0.093061   0.392848   6.631731   0.255628  -0.056089   0.002416
     4  C    0.000257  -0.078565   0.255628   5.327396   0.271239  -0.093573
     5  C    0.007021  -0.001924  -0.056089   0.271239   4.483841   0.354115
     6  O   -0.000379  -0.000845   0.002416  -0.093573   0.354115   7.794645
     7  O   -0.001830   0.012494   0.001664  -0.094419   0.656975  -0.079659
     8  C    0.000004  -0.007636  -0.049502   0.276493  -0.057234   0.008327
     9  C    0.000608   0.000111   0.004752  -0.085246   0.001641  -0.005932
    10  C    0.000003  -0.000014   0.000026  -0.003484   0.000752  -0.002839
    11  N    0.000000   0.000000   0.000000  -0.000036  -0.000006   0.000001
    12  C    0.000000   0.000001  -0.000001   0.000135  -0.000025  -0.000025
    13  N   -0.000001  -0.000010  -0.000071   0.000868   0.000005   0.000041
    14  C   -0.084806   0.295898  -0.064092   0.007928  -0.000639  -0.000020
    15  C    0.011992  -0.062932  -0.000740  -0.000452   0.000281   0.000000
    16  N   -0.032886  -0.002446  -0.000147   0.000016  -0.000011   0.000000
    17  H    0.003145  -0.027831   0.365390  -0.025499   0.002598   0.000096
    18  H    0.000241   0.007030  -0.019801   0.392476  -0.025238   0.001474
    19  H    0.000045  -0.000201  -0.000522   0.017079  -0.027259   0.303215
    20  H   -0.001958   0.000606   0.003525  -0.048876   0.005802   0.000072
    21  H    0.009256  -0.000235  -0.000106  -0.047578  -0.005084   0.005549
    22  H   -0.000006  -0.000001  -0.000004   0.000059   0.000100   0.010040
    23  H    0.000000   0.000000   0.000000   0.000003   0.000000   0.000000
    24  H    0.000000  -0.000002  -0.000044   0.000094   0.000013   0.000001
    25  H    0.001664  -0.032626  -0.001739  -0.000308  -0.000058   0.000001
    26  H    0.003017  -0.025856   0.002341   0.000084  -0.000044   0.000000
    27  H    0.000099   0.006587  -0.000188   0.000016   0.000002   0.000000
    28  H    0.001130  -0.003993   0.000481  -0.000211   0.000147   0.000002
    29  H    0.001489  -0.000096   0.000030  -0.000003  -0.000002   0.000000
    30  H    0.000373  -0.000174   0.000005  -0.000002   0.000000   0.000000
    31  H    0.074432  -0.003627   0.002303  -0.000084   0.000027   0.000005
               7          8          9         10         11         12
     1  O   -0.001830   0.000004   0.000608   0.000003   0.000000   0.000000
     2  C    0.012494  -0.007636   0.000111  -0.000014   0.000000   0.000001
     3  N    0.001664  -0.049502   0.004752   0.000026   0.000000  -0.000001
     4  C   -0.094419   0.276493  -0.085246  -0.003484  -0.000036   0.000135
     5  C    0.656975  -0.057234   0.001641   0.000752  -0.000006  -0.000025
     6  O   -0.079659   0.008327  -0.005932  -0.002839   0.000001  -0.000025
     7  O    7.825510   0.004018  -0.000084   0.000009   0.000000   0.000000
     8  C    0.004018   4.999551   0.298285  -0.031628   0.008069   0.006433
     9  C   -0.000084   0.298285   5.149906   0.551296  -0.094751  -0.121158
    10  C    0.000009  -0.031628   0.551296   4.828544   0.503658  -0.175186
    11  N    0.000000   0.008069  -0.094751   0.503658   6.416553   0.578723
    12  C    0.000000   0.006433  -0.121158  -0.175186   0.578723   4.730247
    13  N    0.000000  -0.049462   0.377189  -0.071659  -0.085942   0.418202
    14  C   -0.000614  -0.000341   0.000058   0.000000   0.000000   0.000000
    15  C   -0.000006  -0.000083   0.000000   0.000000   0.000000   0.000000
    16  N    0.000000   0.000002   0.000000   0.000000   0.000000   0.000000
    17  H    0.003495   0.005155  -0.000450  -0.000006   0.000000   0.000001
    18  H   -0.000026  -0.023435  -0.001656   0.000268  -0.000167  -0.000367
    19  H    0.008598  -0.001881   0.000432   0.000429  -0.000007  -0.000004
    20  H   -0.000202   0.398168  -0.029892   0.002899  -0.000361   0.000139
    21  H    0.000001   0.416056  -0.027975  -0.001304   0.000241  -0.000117
    22  H    0.000071  -0.000017  -0.051921   0.424595  -0.024295   0.007662
    23  H    0.000000  -0.000368   0.003973   0.006285  -0.021712   0.414768
    24  H    0.000000   0.002717  -0.039288   0.008164   0.007084  -0.022386
    25  H    0.000003   0.000175  -0.000010   0.000000   0.000000   0.000000
    26  H    0.000003  -0.000037  -0.000004   0.000000   0.000000   0.000000
    27  H   -0.000004   0.000000   0.000000   0.000000   0.000000   0.000000
    28  H    0.000786   0.000004   0.000000   0.000000   0.000000   0.000000
    29  H    0.000000   0.000001   0.000000   0.000000   0.000000   0.000000
    30  H   -0.000001   0.000000   0.000000   0.000000   0.000000   0.000000
    31  H    0.000027   0.000056   0.000001   0.000000   0.000000   0.000000
              13         14         15         16         17         18
     1  O   -0.000001  -0.084806   0.011992  -0.032886   0.003145   0.000241
     2  C   -0.000010   0.295898  -0.062932  -0.002446  -0.027831   0.007030
     3  N   -0.000071  -0.064092  -0.000740  -0.000147   0.365390  -0.019801
     4  C    0.000868   0.007928  -0.000452   0.000016  -0.025499   0.392476
     5  C    0.000005  -0.000639   0.000281  -0.000011   0.002598  -0.025238
     6  O    0.000041  -0.000020   0.000000   0.000000   0.000096   0.001474
     7  O    0.000000  -0.000614  -0.000006   0.000000   0.003495  -0.000026
     8  C   -0.049462  -0.000341  -0.000083   0.000002   0.005155  -0.023435
     9  C    0.377189   0.000058   0.000000   0.000000  -0.000450  -0.001656
    10  C   -0.071659   0.000000   0.000000   0.000000  -0.000006   0.000268
    11  N   -0.085942   0.000000   0.000000   0.000000   0.000000  -0.000167
    12  C    0.418202   0.000000   0.000000   0.000000   0.000001  -0.000367
    13  N    6.456160   0.000000   0.000000   0.000000  -0.000014   0.004298
    14  C    0.000000   5.150994   0.310020  -0.036618  -0.002476  -0.000274
    15  C    0.000000   0.310020   5.006403   0.223698  -0.000026   0.000011
    16  N    0.000000  -0.036618   0.223698   6.165482   0.000040   0.000000
    17  H   -0.000014  -0.002476  -0.000026   0.000040   0.437713  -0.009478
    18  H    0.004298  -0.000274   0.000011   0.000000  -0.009478   0.487459
    19  H    0.000002  -0.000002   0.000004   0.000000  -0.000007  -0.000558
    20  H   -0.003572  -0.000278   0.000059  -0.000005   0.000281  -0.001083
    21  H    0.002146   0.000315  -0.000009  -0.000005  -0.000481   0.005664
    22  H    0.004047   0.000000   0.000000   0.000000  -0.000002   0.000017
    23  H   -0.036733   0.000000   0.000000   0.000000   0.000000   0.000016
    24  H    0.349448   0.000000   0.000000   0.000000   0.000001   0.000348
    25  H    0.000000   0.398291  -0.044354  -0.002511   0.000362   0.000019
    26  H    0.000000   0.391961  -0.026952   0.003796   0.002385  -0.000068
    27  H    0.000000  -0.036576   0.420478  -0.025244  -0.000059   0.000000
    28  H    0.000000  -0.029769   0.397919  -0.022843   0.000114   0.000010
    29  H    0.000000  -0.001068  -0.029376   0.356620   0.000001   0.000000
    30  H    0.000000   0.005660  -0.022343   0.357145   0.000000   0.000000
    31  H    0.000000  -0.017210  -0.027386   0.316656  -0.000249   0.000003
              19         20         21         22         23         24
     1  O    0.000045  -0.001958   0.009256  -0.000006   0.000000   0.000000
     2  C   -0.000201   0.000606  -0.000235  -0.000001   0.000000  -0.000002
     3  N   -0.000522   0.003525  -0.000106  -0.000004   0.000000  -0.000044
     4  C    0.017079  -0.048876  -0.047578   0.000059   0.000003   0.000094
     5  C   -0.027259   0.005802  -0.005084   0.000100   0.000000   0.000013
     6  O    0.303215   0.000072   0.005549   0.010040   0.000000   0.000001
     7  O    0.008598  -0.000202   0.000001   0.000071   0.000000   0.000000
     8  C   -0.001881   0.398168   0.416056  -0.000017  -0.000368   0.002717
     9  C    0.000432  -0.029892  -0.027975  -0.051921   0.003973  -0.039288
    10  C    0.000429   0.002899  -0.001304   0.424595   0.006285   0.008164
    11  N   -0.000007  -0.000361   0.000241  -0.024295  -0.021712   0.007084
    12  C   -0.000004   0.000139  -0.000117   0.007662   0.414768  -0.022386
    13  N    0.000002  -0.003572   0.002146   0.004047  -0.036733   0.349448
    14  C   -0.000002  -0.000278   0.000315   0.000000   0.000000   0.000000
    15  C    0.000004   0.000059  -0.000009   0.000000   0.000000   0.000000
    16  N    0.000000  -0.000005  -0.000005   0.000000   0.000000   0.000000
    17  H   -0.000007   0.000281  -0.000481  -0.000002   0.000000   0.000001
    18  H   -0.000558  -0.001083   0.005664   0.000017   0.000016   0.000348
    19  H    0.430626   0.000114  -0.000525  -0.000180   0.000000   0.000000
    20  H    0.000114   0.563077  -0.018744  -0.000025  -0.000029   0.003242
    21  H   -0.000525  -0.018744   0.486494   0.000456   0.000016  -0.000022
    22  H   -0.000180  -0.000025   0.000456   0.525253  -0.000321  -0.000320
    23  H    0.000000  -0.000029   0.000016  -0.000321   0.513897  -0.002076
    24  H    0.000000   0.003242  -0.000022  -0.000320  -0.002076   0.470942
    25  H    0.000000  -0.000045  -0.000013   0.000000   0.000000   0.000000
    26  H    0.000000   0.000002  -0.000034   0.000000   0.000000   0.000000
    27  H    0.000000   0.000000   0.000000   0.000000   0.000000   0.000000
    28  H   -0.000003  -0.000001  -0.000003   0.000000   0.000000   0.000000
    29  H    0.000000  -0.000002  -0.000003   0.000000   0.000000   0.000000
    30  H    0.000000   0.000000  -0.000001   0.000000   0.000000   0.000000
    31  H   -0.000001   0.000004   0.000126   0.000000   0.000000   0.000000
              25         26         27         28         29         30
     1  O    0.001664   0.003017   0.000099   0.001130   0.001489   0.000373
     2  C   -0.032626  -0.025856   0.006587  -0.003993  -0.000096  -0.000174
     3  N   -0.001739   0.002341  -0.000188   0.000481   0.000030   0.000005
     4  C   -0.000308   0.000084   0.000016  -0.000211  -0.000003  -0.000002
     5  C   -0.000058  -0.000044   0.000002   0.000147  -0.000002   0.000000
     6  O    0.000001   0.000000   0.000000   0.000002   0.000000   0.000000
     7  O    0.000003   0.000003  -0.000004   0.000786   0.000000  -0.000001
     8  C    0.000175  -0.000037   0.000000   0.000004   0.000001   0.000000
     9  C   -0.000010  -0.000004   0.000000   0.000000   0.000000   0.000000
    10  C    0.000000   0.000000   0.000000   0.000000   0.000000   0.000000
    11  N    0.000000   0.000000   0.000000   0.000000   0.000000   0.000000
    12  C    0.000000   0.000000   0.000000   0.000000   0.000000   0.000000
    13  N    0.000000   0.000000   0.000000   0.000000   0.000000   0.000000
    14  C    0.398291   0.391961  -0.036576  -0.029769  -0.001068   0.005660
    15  C   -0.044354  -0.026952   0.420478   0.397919  -0.029376  -0.022343
    16  N   -0.002511   0.003796  -0.025244  -0.022843   0.356620   0.357145
    17  H    0.000362   0.002385  -0.000059   0.000114   0.000001   0.000000
    18  H    0.000019  -0.000068   0.000000   0.000010   0.000000   0.000000
    19  H    0.000000   0.000000   0.000000  -0.000003   0.000000   0.000000
    20  H   -0.000045   0.000002   0.000000  -0.000001  -0.000002   0.000000
    21  H   -0.000013  -0.000034   0.000000  -0.000003  -0.000003  -0.000001
    22  H    0.000000   0.000000   0.000000   0.000000   0.000000   0.000000
    23  H    0.000000   0.000000   0.000000   0.000000   0.000000   0.000000
    24  H    0.000000   0.000000   0.000000   0.000000   0.000000   0.000000
    25  H    0.509907  -0.010215  -0.004765   0.006294   0.004720  -0.000250
    26  H   -0.010215   0.492856  -0.004506  -0.001354   0.000100  -0.000176
    27  H   -0.004765  -0.004506   0.470212  -0.018705  -0.005762  -0.001335
    28  H    0.006294  -0.001354  -0.018705   0.468917   0.005161  -0.005168
    29  H    0.004720   0.000100  -0.005762   0.005161   0.401379  -0.014983
    30  H   -0.000250  -0.000176  -0.001335  -0.005168  -0.014983   0.385653
    31  H    0.001407   0.000277   0.003866  -0.000656  -0.011585  -0.009327
              31
     1  O    0.074432
     2  C   -0.003627
     3  N    0.002303
     4  C   -0.000084
     5  C    0.000027
     6  O    0.000005
     7  O    0.000027
     8  C    0.000056
     9  C    0.000001
    10  C    0.000000
    11  N    0.000000
    12  C    0.000000
    13  N    0.000000
    14  C   -0.017210
    15  C   -0.027386
    16  N    0.316656
    17  H   -0.000249
    18  H    0.000003
    19  H   -0.000001
    20  H    0.000004
    21  H    0.000126
    22  H    0.000000
    23  H    0.000000
    24  H    0.000000
    25  H    0.001407
    26  H    0.000277
    27  H    0.003866
    28  H   -0.000656
    29  H   -0.011585
    30  H   -0.009327
    31  H    0.369765
 Mulliken charges:
               1
     1  O   -0.426312
     2  C    0.429200
     3  N   -0.377032
     4  C   -0.071434
     5  C    0.389052
     6  O   -0.296728
     7  O   -0.336809
     8  C   -0.201887
     9  C    0.070115
    10  C   -0.040808
    11  N   -0.287052
    12  C    0.162960
    13  N   -0.364941
    14  C   -0.286344
    15  C   -0.156206
    16  N   -0.300736
    17  H    0.245801
    18  H    0.182820
    19  H    0.270605
    20  H    0.127082
    21  H    0.175919
    22  H    0.104794
    23  H    0.122283
    24  H    0.222084
    25  H    0.174052
    26  H    0.172424
    27  H    0.195884
    28  H    0.201743
    29  H    0.293380
    30  H    0.304923
    31  H    0.301170
 Sum of Mulliken charges =   1.00000
 Mulliken charges with hydrogens summed into heavy atoms:
               1
     1  O   -0.426312
     2  C    0.429200
     3  N   -0.131232
     4  C    0.111386
     5  C    0.389052
     6  O   -0.026123
     7  O   -0.336809
     8  C    0.101114
     9  C    0.070115
    10  C    0.063986
    11  N   -0.287052
    12  C    0.285242
    13  N   -0.142857
    14  C    0.060133
    15  C    0.241421
    16  N    0.598737
 APT charges:
               1
     1  O   -0.446490
     2  C    0.365808
     3  N   -0.705453
     4  C   -0.412815
     5  C   -0.447891
     6  O   -0.593307
     7  O    0.234112
     8  C   -0.585790
     9  C   -0.485442
    10  C   -0.479361
    11  N    0.661746
    12  C   -0.884139
    13  N   -0.587390
    14  C   -0.708231
    15  C   -1.022025
    16  N   -0.995422
    17  H    0.663754
    18  H    0.501607
    19  H    0.861307
    20  H    0.266879
    21  H    0.277077
    22  H    0.352053
    23  H    1.103713
    24  H    0.362604
    25  H    0.399607
    26  H    0.410447
    27  H    0.917803
    28  H    0.274299
    29  H    0.724430
    30  H    1.074394
    31  H   -0.097884
 Sum of APT charges =   1.00000
 APT charges with hydrogens summed into heavy atoms:
               1
     1  O   -0.446490
     2  C    0.365808
     3  N   -0.041699
     4  C    0.088792
     5  C   -0.447891
     6  O    0.267999
     7  O    0.234112
     8  C   -0.041834
     9  C   -0.485442
    10  C   -0.127308
    11  N    0.661746
    12  C    0.219574
    13  N   -0.224786
    14  C    0.101823
    15  C    0.170077
    16  N    0.705518
 Electronic spatial extent (au):  <R**2>=           4948.2041
 Charge=              1.0000 electrons
 Dipole moment (field-independent basis, Debye):
    X=            -16.8728    Y=             -5.2995    Z=             -2.2846  Tot=             17.8324
 Quadrupole moment (field-independent basis, Debye-Ang):
   XX=            -22.9921   YY=            -77.8440   ZZ=            -87.3985
   XY=            -10.4923   XZ=              7.2618   YZ=              4.3735
 Traceless Quadrupole moment (field-independent basis, Debye-Ang):
   XX=             39.7527   YY=            -15.0991   ZZ=            -24.6536
   XY=            -10.4923   XZ=              7.2618   YZ=              4.3735
 Octapole moment (field-independent basis, Debye-Ang**2):
  XXX=           -570.7788  YYY=            -51.7740  ZZZ=            -88.2125  XYY=            -74.7231
  XXY=            -99.9269  XXZ=            -96.3860  XZZ=            -54.1704  YZZ=            -13.8088
  YYZ=              0.2181  XYZ=             19.0364
 Hexadecapole moment (field-independent basis, Debye-Ang**3):
 XXXX=          -3658.8069 YYYY=           -588.6744 ZZZZ=           -742.5478 XXXY=           -886.8422
 XXXZ=            109.0815 YYYX=           -406.3376 YYYZ=            -36.3829 ZZZX=            141.0930
 ZZZY=            -48.1646 XXYY=           -936.3588 XXZZ=           -841.9843 YYZZ=           -167.7168
 XXYZ=              3.7746 YYXZ=             38.2592 ZZXY=           -129.5095
 N-N= 1.139512471991D+03 E-N=-4.125951565415D+03  KE= 7.940226040644D+02
  Exact polarizability:   0.000   0.000   0.000   0.000   0.000   0.000
 Approx polarizability: 212.277   5.919 194.408  -3.248   9.244 152.191
 Calling FoFJK, ICntrl=    100147 FMM=F ISym2X=0 I1Cent= 0 IOpClX= 0 NMat=1 NMatS=1 NMatT=0.
 -------------------------------------------------------------------
 Center     Atomic                   Forces (Hartrees/Bohr)
 Number     Number              X              Y              Z
 -------------------------------------------------------------------
      1        8          -0.016173645    0.006738822   -0.004832330
      2        6           0.017795061   -0.007481339    0.008382788
      3        7          -0.011277233    0.002926109   -0.001216596
      4        6           0.004748066   -0.004053138   -0.004860965
      5        6           0.003974631    0.012442851    0.006888907
      6        8          -0.005627252   -0.009696442   -0.002802173
      7        8          -0.004861252   -0.002854978   -0.001305672
      8        6           0.009393902   -0.000152777   -0.000861832
      9        6          -0.007101961   -0.000955961   -0.000921206
     10        6           0.008195531    0.008375336    0.002410832
     11        7          -0.005590088    0.000712356    0.001649567
     12        6           0.003818350    0.001966796    0.000541494
     13        7          -0.003007539   -0.006524090   -0.000891051
     14        6           0.004662821    0.000584544   -0.004318174
     15        6           0.003084737   -0.018090822    0.018643930
     16        7          -0.004214685    0.004136573   -0.003837406
     17        1          -0.001090700   -0.002562504    0.000116756
     18        1           0.001443022    0.003603762   -0.002530197
     19        1           0.001135565    0.003185337    0.003128876
     20        1          -0.002423103   -0.001821455   -0.000627894
     21        1          -0.000547757    0.001565553    0.000072375
     22        1           0.000126103   -0.000743326   -0.000545916
     23        1           0.002310880   -0.000646026   -0.000749693
     24        1           0.000662185   -0.002376830   -0.001906716
     25        1           0.001058933   -0.003290342   -0.001144742
     26        1          -0.005924690   -0.000625828   -0.000662239
     27        1          -0.001650705    0.003303628   -0.002205375
     28        1          -0.001391399    0.004743006   -0.002855007
     29        1          -0.002665879    0.000211695   -0.003089912
     30        1          -0.003186121    0.000844349   -0.000504261
     31        1           0.014324222    0.006535143    0.000833832
 -------------------------------------------------------------------
 Cartesian Forces:  Max     0.018643930 RMS     0.005659948
 FormGI is forming the generalized inverse of G from B-inverse, IUseBI=4.

 GradGradGradGradGradGradGradGradGradGradGradGradGradGradGradGradGradGrad
 Berny optimization.
 Internal  Forces:  Max     0.025423050 RMS     0.004793976
 Search for a local minimum.
 Step number   1 out of a maximum of  167
 All quantities printed in internal units (Hartrees-Bohrs-Radians)
 Mixed Optimization -- RFO/linear search
 Second derivative matrix not updated -- analytic derivatives used.
 ITU=  0
     Eigenvalues ---   -0.00014   0.00005   0.00187   0.00307   0.00362
     Eigenvalues ---    0.00395   0.00496   0.00753   0.00913   0.01022
     Eigenvalues ---    0.01801   0.02033   0.02089   0.02545   0.03307
     Eigenvalues ---    0.03833   0.03949   0.03991   0.04189   0.04354
     Eigenvalues ---    0.04707   0.04817   0.04877   0.04961   0.05200
     Eigenvalues ---    0.05475   0.05962   0.06184   0.06378   0.07733
     Eigenvalues ---    0.08059   0.08258   0.10214   0.10764   0.10987
     Eigenvalues ---    0.11430   0.11652   0.12253   0.12937   0.13192
     Eigenvalues ---    0.15036   0.15236   0.15843   0.15956   0.17393
     Eigenvalues ---    0.18957   0.20221   0.21961   0.22168   0.22938
     Eigenvalues ---    0.23107   0.23715   0.24669   0.25121   0.25644
     Eigenvalues ---    0.26048   0.29527   0.31645   0.32087   0.32587
     Eigenvalues ---    0.33339   0.33519   0.33636   0.33792   0.33992
     Eigenvalues ---    0.34235   0.34692   0.35432   0.35905   0.37266
     Eigenvalues ---    0.37529   0.39507   0.40172   0.40521   0.41356
     Eigenvalues ---    0.43832   0.44280   0.45249   0.45500   0.47802
     Eigenvalues ---    0.48109   0.48558   0.52113   0.52422   0.59115
     Eigenvalues ---    0.79280   0.89332
 RFO step:  Lambda=-1.49041433D-02 EMin=-1.37116365D-04
 Linear search not attempted -- first point.
 Iteration  1 RMS(Cart)=  0.23238143 RMS(Int)=  0.02445568
 Iteration  2 RMS(Cart)=  0.06371059 RMS(Int)=  0.00164532
 Iteration  3 RMS(Cart)=  0.00257092 RMS(Int)=  0.00035731
 Iteration  4 RMS(Cart)=  0.00000484 RMS(Int)=  0.00035730
 Iteration  5 RMS(Cart)=  0.00000000 RMS(Int)=  0.00035730
 Variable       Old X    -DE/DX   Delta X   Delta X   Delta X     New X
                                 (Linear)    (Quad)   (Total)
    R1        2.32128   0.00877   0.00000   0.03081   0.03081   2.35210
    R2        2.55822  -0.00743   0.00000  -0.04319  -0.04319   2.51503
    R3        2.87086  -0.00215   0.00000   0.00686   0.00686   2.87772
    R4        2.75867   0.00589   0.00000   0.02151   0.02151   2.78019
    R5        1.89994   0.00231   0.00000   0.00547   0.00547   1.90541
    R6        2.87395   0.00744   0.00000   0.03384   0.03384   2.90779
    R7        2.92004   0.00357   0.00000   0.00517   0.00517   2.92521
    R8        2.07246  -0.00232   0.00000  -0.00774  -0.00774   2.06472
    R9        2.55065  -0.00789   0.00000  -0.03306  -0.03306   2.51759
   R10        2.27144   0.00267   0.00000   0.00400   0.00400   2.27544
   R11        1.82583   0.00387   0.00000   0.00752   0.00752   1.83335
   R12        2.83272  -0.00063   0.00000  -0.01424  -0.01424   2.81848
   R13        2.06080   0.00207   0.00000   0.00831   0.00831   2.06911
   R14        2.05006   0.00156   0.00000   0.00535   0.00535   2.05541
   R15        2.58006   0.00792   0.00000   0.01287   0.01285   2.59291
   R16        2.61071   0.00626   0.00000   0.01320   0.01324   2.62394
   R17        2.61467  -0.00420   0.00000  -0.01764  -0.01769   2.59698
   R18        2.03643  -0.00090   0.00000   0.00040   0.00040   2.03683
   R19        2.47691   0.00214   0.00000   0.00179   0.00178   2.47869
   R20        2.56952   0.00587   0.00000   0.01500   0.01504   2.58456
   R21        2.03305   0.00243   0.00000   0.00582   0.00582   2.03887
   R22        1.89885   0.00273   0.00000   0.00542   0.00542   1.90427
   R23        2.87720  -0.00155   0.00000   0.01450   0.01450   2.89170
   R24        2.06630   0.00219   0.00000   0.00377   0.00377   2.07007
   R25        2.06173  -0.00087   0.00000  -0.00112  -0.00112   2.06061
   R26        2.80158   0.01210   0.00000   0.04627   0.04627   2.84785
   R27        2.06203  -0.00096   0.00000  -0.00487  -0.00487   2.05716
   R28        2.06380  -0.00091   0.00000  -0.00329  -0.00329   2.06050
   R29        1.92624   0.00329   0.00000   0.00382   0.00382   1.93005
   R30        1.92612   0.00273   0.00000   0.00245   0.00245   1.92857
   R31        1.94467   0.01546   0.00000   0.06830   0.06830   2.01297
    A1        2.11895   0.01321   0.00000   0.01999   0.01981   2.13876
    A2        2.13999  -0.02315   0.00000  -0.06855  -0.06873   2.07125
    A3        2.02357   0.01000   0.00000   0.04977   0.04959   2.07316
    A4        2.11613   0.00088   0.00000   0.00004   0.00003   2.11616
    A5        2.07459  -0.00206   0.00000  -0.01461  -0.01463   2.05996
    A6        2.03718   0.00091   0.00000   0.01691   0.01691   2.05409
    A7        1.90859  -0.00933   0.00000  -0.04259  -0.04274   1.86585
    A8        1.95659   0.00517   0.00000   0.01384   0.01412   1.97070
    A9        1.82713   0.00191   0.00000   0.01133   0.01133   1.83846
   A10        1.99515   0.00572   0.00000   0.03577   0.03593   2.03108
   A11        1.84635   0.00125   0.00000   0.00306   0.00319   1.84955
   A12        1.91935  -0.00530   0.00000  -0.02420  -0.02425   1.89509
   A13        1.97376   0.00030   0.00000   0.00211   0.00204   1.97580
   A14        2.16308  -0.00455   0.00000  -0.02790  -0.02798   2.13510
   A15        2.14561   0.00430   0.00000   0.02661   0.02654   2.17215
   A16        1.84913   0.00361   0.00000   0.02960   0.02960   1.87873
   A17        1.98684   0.00042   0.00000  -0.00138  -0.00141   1.98543
   A18        1.88427  -0.00210   0.00000  -0.01797  -0.01800   1.86627
   A19        1.91055   0.00030   0.00000   0.00000  -0.00008   1.91047
   A20        1.88168   0.00147   0.00000   0.03043   0.03048   1.91217
   A21        1.93242  -0.00034   0.00000  -0.01354  -0.01354   1.91888
   A22        1.86314   0.00020   0.00000   0.00313   0.00313   1.86628
   A23        2.34010  -0.00073   0.00000  -0.02398  -0.02401   2.31609
   A24        2.12142   0.00055   0.00000   0.02207   0.02205   2.14347
   A25        1.82164   0.00017   0.00000   0.00189   0.00194   1.82357
   A26        1.93902  -0.00075   0.00000  -0.00032  -0.00036   1.93867
   A27        2.22948   0.00023   0.00000  -0.00744  -0.00744   2.22204
   A28        2.11468   0.00053   0.00000   0.00777   0.00777   2.12245
   A29        1.83483   0.00336   0.00000   0.00851   0.00848   1.84331
   A30        1.94505   0.00007   0.00000   0.00029   0.00035   1.94540
   A31        2.20445  -0.00062   0.00000  -0.00346  -0.00350   2.20096
   A32        2.13368   0.00055   0.00000   0.00317   0.00314   2.13682
   A33        1.88423  -0.00285   0.00000  -0.01034  -0.01040   1.87383
   A34        2.19009   0.00271   0.00000   0.01856   0.01832   2.20842
   A35        2.20881   0.00014   0.00000  -0.00854  -0.00875   2.20007
   A36        1.96132  -0.02542   0.00000  -0.07015  -0.06992   1.89139
   A37        1.87369   0.00472   0.00000   0.01256   0.01234   1.88604
   A38        1.90851   0.01482   0.00000   0.05935   0.05843   1.96694
   A39        1.90848   0.00816   0.00000   0.02310   0.02322   1.93170
   A40        1.93110   0.00265   0.00000  -0.01656  -0.01565   1.91546
   A41        1.87803  -0.00408   0.00000  -0.00494  -0.00556   1.87247
   A42        1.93121  -0.01398   0.00000  -0.04144  -0.04173   1.88949
   A43        1.91940   0.00631   0.00000   0.04619   0.04589   1.96528
   A44        1.91221   0.00664   0.00000   0.01465   0.01230   1.92451
   A45        1.91804   0.00444   0.00000   0.00420   0.00500   1.92304
   A46        1.90657  -0.00183   0.00000  -0.04574  -0.04605   1.86052
   A47        1.87551  -0.00119   0.00000   0.02353   0.02267   1.89819
   A48        1.94084   0.00248   0.00000   0.01626   0.01628   1.95712
   A49        1.96567   0.00080   0.00000   0.00389   0.00381   1.96948
   A50        1.86565  -0.00437   0.00000  -0.06948  -0.06950   1.79615
   A51        1.90701  -0.00206   0.00000  -0.01146  -0.01149   1.89551
   A52        1.87448   0.00134   0.00000   0.02215   0.02226   1.89674
   A53        1.90740   0.00186   0.00000   0.03964   0.03949   1.94689
    D1        0.12546   0.00001   0.00000   0.00108   0.00054   0.12601
    D2        2.90451  -0.00065   0.00000   0.01187   0.01126   2.91577
    D3       -3.05463   0.00113   0.00000   0.03401   0.03462  -3.02001
    D4       -0.27558   0.00047   0.00000   0.04480   0.04534  -0.23025
    D5       -0.71088   0.00109   0.00000   0.03709   0.03607  -0.67481
    D6        1.38816  -0.00101   0.00000   0.03172   0.03103   1.41919
    D7       -2.86243   0.00452   0.00000   0.06385   0.06437  -2.79806
    D8        2.46972  -0.00094   0.00000   0.00154   0.00131   2.47104
    D9       -1.71443  -0.00304   0.00000  -0.00384  -0.00373  -1.71816
   D10        0.31817   0.00249   0.00000   0.02830   0.02961   0.34778
   D11        1.10035   0.00013   0.00000  -0.05719  -0.05722   1.04314
   D12       -1.13116  -0.00401   0.00000  -0.08140  -0.08129  -1.21244
   D13        3.07198  -0.00154   0.00000  -0.06656  -0.06657   3.00540
   D14       -1.68609   0.00137   0.00000  -0.06159  -0.06167  -1.74776
   D15        2.36559  -0.00278   0.00000  -0.08581  -0.08575   2.27984
   D16        0.28554  -0.00031   0.00000  -0.07097  -0.07103   0.21451
   D17       -2.63587  -0.00173   0.00000   0.06524   0.06536  -2.57051
   D18        0.54568  -0.00314   0.00000   0.04177   0.04209   0.58778
   D19       -0.42613   0.00196   0.00000   0.07639   0.07603  -0.35010
   D20        2.75543   0.00055   0.00000   0.05292   0.05276   2.80818
   D21        1.68826  -0.00035   0.00000   0.06981   0.06975   1.75801
   D22       -1.41337  -0.00176   0.00000   0.04634   0.04648  -1.36689
   D23       -2.61548  -0.00187   0.00000  -0.12355  -0.12338  -2.73886
   D24       -0.52708  -0.00121   0.00000  -0.09856  -0.09843  -0.62551
   D25        1.49477  -0.00197   0.00000  -0.10472  -0.10455   1.39022
   D26        1.48307   0.00187   0.00000  -0.10610  -0.10628   1.37679
   D27       -2.71172   0.00253   0.00000  -0.08110  -0.08132  -2.79305
   D28       -0.68987   0.00178   0.00000  -0.08727  -0.08745  -0.77732
   D29       -0.59049   0.00027   0.00000  -0.11643  -0.11638  -0.70687
   D30        1.49791   0.00093   0.00000  -0.09144  -0.09143   1.40648
   D31       -2.76343   0.00017   0.00000  -0.09760  -0.09755  -2.86098
   D32       -3.12596   0.00076   0.00000   0.03119   0.03089  -3.09508
   D33       -0.02387   0.00192   0.00000   0.05298   0.05328   0.02941
   D34       -1.46860  -0.00087   0.00000  -0.27182  -0.27184  -1.74044
   D35        1.68311  -0.00104   0.00000  -0.26880  -0.26879   1.41432
   D36        2.72473   0.00049   0.00000  -0.26942  -0.26948   2.45525
   D37       -0.40675   0.00032   0.00000  -0.26641  -0.26643  -0.67318
   D38        0.69256  -0.00042   0.00000  -0.28349  -0.28347   0.40909
   D39       -2.43892  -0.00059   0.00000  -0.28048  -0.28041  -2.71934
   D40       -3.12921  -0.00039   0.00000   0.00085   0.00090  -3.12831
   D41        0.01195  -0.00014   0.00000   0.00959   0.00956   0.02151
   D42        0.00349  -0.00024   0.00000  -0.00169  -0.00163   0.00185
   D43       -3.13854   0.00001   0.00000   0.00705   0.00703  -3.13151
   D44        3.13352   0.00013   0.00000  -0.00329  -0.00339   3.13013
   D45        0.00203   0.00048   0.00000   0.02912   0.02933   0.03136
   D46       -0.00057   0.00001   0.00000  -0.00087  -0.00090  -0.00147
   D47       -3.13206   0.00036   0.00000   0.03153   0.03183  -3.10023
   D48       -0.00511   0.00038   0.00000   0.00364   0.00360  -0.00151
   D49        3.13689   0.00015   0.00000  -0.00443  -0.00449   3.13240
   D50        0.00469  -0.00036   0.00000  -0.00418  -0.00417   0.00052
   D51       -3.13878  -0.00036   0.00000  -0.00709  -0.00698   3.13742
   D52       -0.00270   0.00024   0.00000   0.00333   0.00331   0.00061
   D53        3.12866  -0.00009   0.00000  -0.02932  -0.02902   3.09964
   D54        3.14069   0.00024   0.00000   0.00611   0.00601  -3.13649
   D55       -0.01114  -0.00009   0.00000  -0.02654  -0.02632  -0.03746
   D56        1.07230  -0.00689   0.00000  -0.08205  -0.08240   0.98990
   D57       -3.08864  -0.00633   0.00000  -0.07331  -0.07421   3.12034
   D58       -1.03091  -0.00005   0.00000  -0.00839  -0.00839  -1.03929
   D59       -1.00649  -0.00220   0.00000  -0.06890  -0.06881  -1.07530
   D60        1.11575  -0.00163   0.00000  -0.06016  -0.06062   1.05513
   D61       -3.10970   0.00465   0.00000   0.00476   0.00520  -3.10450
   D62       -3.07203  -0.00383   0.00000  -0.06713  -0.06667  -3.13870
   D63       -0.94979  -0.00326   0.00000  -0.05839  -0.05847  -1.00827
   D64        1.10794   0.00302   0.00000   0.00653   0.00734   1.11529
   D65        1.22721   0.00134   0.00000   0.03301   0.03244   1.25965
   D66       -2.90875   0.00109   0.00000   0.03305   0.03249  -2.87626
   D67       -0.81374   0.00098   0.00000   0.03864   0.03818  -0.77556
   D68       -0.89584  -0.00034   0.00000  -0.00050  -0.00063  -0.89647
   D69        1.25139  -0.00060   0.00000  -0.00045  -0.00058   1.25081
   D70       -2.93679  -0.00071   0.00000   0.00513   0.00511  -2.93168
   D71       -2.94941  -0.00040   0.00000  -0.00443  -0.00385  -2.95326
   D72       -0.80218  -0.00066   0.00000  -0.00439  -0.00379  -0.80598
   D73        1.29282  -0.00076   0.00000   0.00120   0.00190   1.29472
         Item               Value     Threshold  Converged?
 Maximum Force            0.025423     0.000450     NO 
 RMS     Force            0.004794     0.000300     NO 
 Maximum Displacement     1.239480     0.001800     NO 
 RMS     Displacement     0.279963     0.001200     NO 
 Predicted change in Energy=-8.513748D-03
 GradGradGradGradGradGradGradGradGradGradGradGradGradGradGradGradGradGrad

                          Input orientation:                          
 ---------------------------------------------------------------------
 Center     Atomic      Atomic             Coordinates (Angstroms)
 Number     Number       Type             X           Y           Z
 ---------------------------------------------------------------------
      1          8           0       -1.619133    0.481741   -0.304955
      2          6           0       -1.504869   -0.712451    0.026806
      3          7           0       -0.353903   -1.231606    0.447561
      4          6           0        0.821407   -0.381934    0.694879
      5          6           0        0.419116    0.633941    1.778330
      6          8           0        1.019343    1.815150    1.639182
      7          8           0       -0.349124    0.360333    2.664237
      8          6           0        1.426982    0.202140   -0.604468
      9          6           0        2.862030    0.588286   -0.477880
     10          6           0        3.487281    1.793048   -0.277146
     11          7           0        4.852891    1.642125   -0.246711
     12          6           0        5.070521    0.360888   -0.424281
     13          7           0        3.899308   -0.330172   -0.570115
     14          6           0       -2.728752   -1.614643   -0.057806
     15          6           0       -3.951802   -0.811448    0.390084
     16          7           0       -4.054388    0.416067   -0.478124
     17          1           0       -0.375517   -2.140147    0.884322
     18          1           0        1.560710   -1.039240    1.158731
     19          1           0        0.743169    2.374649    2.382089
     20          1           0        1.320676   -0.564834   -1.378618
     21          1           0        0.839030    1.059258   -0.924934
     22          1           0        3.022401    2.756683   -0.146602
     23          1           0        6.035121   -0.121070   -0.460923
     24          1           0        3.811902   -1.317561   -0.751421
     25          1           0       -2.839455   -1.940198   -1.097868
     26          1           0       -2.633042   -2.512073    0.554152
     27          1           0       -4.873665   -1.387892    0.335916
     28          1           0       -3.818227   -0.459043    1.413255
     29          1           0       -4.356209    0.191675   -1.427696
     30          1           0       -4.684399    1.121271   -0.094315
     31          1           0       -3.049313    0.767134   -0.513681
 ---------------------------------------------------------------------
                    Distance matrix (angstroms):
                    1          2          3          4          5
     1  O    0.000000
     2  C    1.244675   0.000000
     3  N    2.258904   1.330894   0.000000
     4  C    2.775218   2.442769   1.471211   0.000000
     5  C    2.918509   2.929560   2.418424   1.538736   0.000000
     6  O    3.538248   3.919205   3.548026   2.399597   1.332249
     7  O    3.231681   3.072890   2.729093   2.408210   1.204112
     8  C    3.073548   3.135400   2.516732   1.547955   2.622970
     9  C    4.485763   4.584368   3.809287   2.545748   3.325717
    10  C    5.272169   5.593878   4.942512   3.575229   3.870678
    11  N    6.575483   6.785274   5.987574   4.608283   4.977508
    12  C    6.691809   6.677671   5.720185   4.456374   5.153797
    13  N    5.584147   5.450465   4.465204   3.328116   4.307719
    14  C    2.384777   1.522826   2.458052   3.832719   4.282125
    15  C    2.756222   2.475733   3.622805   4.802177   4.808461
    16  N    2.442288   2.833471   4.155155   5.078004   5.015106
    17  H    3.136121   2.012233   1.008302   2.135375   3.020969
    18  H    3.816694   3.284176   2.051465   1.092601   2.118177
    19  H    4.047688   4.486783   4.236868   3.232886   1.870722
    20  H    3.300083   3.159227   2.565878   2.140586   3.495167
    21  H    2.600089   3.088466   2.924874   2.168211   2.768548
    22  H    5.171486   5.706236   5.259174   3.924714   3.871497
    23  H    7.679538   7.578856   6.548149   5.346657   6.092931
    24  H    5.738724   5.407388   4.335767   3.451121   4.660364
    25  H    2.825542   2.133864   3.011382   4.363948   5.051435
    26  H    3.275515   2.188494   2.616378   4.060851   4.551009
    27  H    3.807654   3.449719   4.523842   5.794364   5.846529
    28  H    2.945053   2.708889   3.678445   4.695553   4.391238
    29  H    2.972587   3.326134   4.643358   5.625128   5.768703
    30  H    3.138348   3.672413   4.958110   5.761628   5.458036
    31  H    1.473239   2.206039   3.490585   4.214671   4.159453
                    6          7          8          9         10
     6  O    0.000000
     7  O    2.244979   0.000000
     8  C    2.793195   3.723441   0.000000
     9  C    3.063109   4.498485   1.491475   0.000000
    10  C    3.124663   5.042064   2.623540   1.372110   0.000000
    11  N    4.275818   6.097341   3.733417   2.264408   1.374262
    12  C    4.773343   6.237908   3.651445   2.220814   2.139949
    13  N    4.216348   5.383957   2.529216   1.388531   2.182582
    14  C    5.356441   4.119791   4.568333   6.023803   7.092217
    15  C    5.759474   4.418612   5.563075   7.010058   7.910028
    16  N    5.673021   4.858655   5.486998   6.918562   7.668979
    17  H    4.261434   3.069396   3.309351   4.447656   5.633848
    18  H    2.944732   2.805854   2.160504   2.649673   3.714199
    19  H    0.970167   2.308718   3.755919   3.982473   3.865222
    20  H    3.855157   4.470888   1.094923   2.125273   3.386299
    21  H    2.679286   3.844783   1.087675   2.124665   2.823351
    22  H    2.843897   5.001048   3.046423   2.199411   1.077844
    23  H    5.772124   7.124392   4.621690   3.251458   3.192039
    24  H    4.829828   5.638810   2.831771   2.146936   3.163258
    25  H    6.040232   5.064349   4.799535   6.267738   7.391773
    26  H    5.765593   4.233138   5.019277   6.393210   7.528843
    27  H    6.832681   5.380413   6.565872   8.025492   8.966585
    28  H    5.350241   3.777699   5.658673   7.021333   7.829420
    29  H    6.398279   5.729668   5.841499   7.291257   8.087552
[...]
 234,0.00000461,-0.00000018,0.00000130,-0.00000638,0.00000053,0.0000067
 2,0.00000786,0.00000206,-0.11132107,-0.01362437,-0.25958503,-0.0062870
 7,-0.00153684,-0.01840946,0.00011875,0.00013441,0.00072221,0.00028992,
 -0.00000257,0.00013178,0.00006915,0.00002716,0.00003651,0.00000542,0.0
 0000406,-0.00000678,0.00000741,-0.00000059,0.00001137,-0.00003705,-0.0
 0000847,0.00001931,-0.00000095,-0.00000167,0.00000083,0.00000091,0.000
 00058,-0.00000062,-0.00000389,0.00000085,0.00000004,0.11598935,0.01715
 927,0.28023298,-0.00810588,-0.00506166,0.00379894,0.01101408,-0.026001
 90,0.01259157,0.00012698,0.00236502,-0.00042146,0.00027158,-0.00010738
 ,0.00004182,-0.00006196,0.00003507,0.00010243,0.00006930,0.00003114,0.
 00003906,0.00027024,-0.00007403,-0.00010603,-0.00002466,-0.00004498,0.
 00015463,0.00004134,0.00006108,-0.00006440,0.00000837,-0.00001269,0.00
 000549,0.00000122,0.00000334,-0.00000107,-0.00001589,0.00000709,-0.000
 00462,-0.00002815,-0.00001174,-0.00003107,-0.05133291,0.00369930,-0.00
 563696,0.00029572,0.01425732,-0.00810134,-0.00169177,0.00255597,0.0022
 3352,-0.00148391,-0.00061232,-0.00075983,0.00004400,0.00005182,0.00000
 556,-0.00001148,-0.00001367,0.00000096,-0.00000367,0.00001847,-0.00001
 192,0.00019688,0.00008677,-0.00008090,0.00000108,0.00000862,0.00000079
 ,-0.00000354,-0.00000135,0.00000298,-0.00000611,-0.00000452,0.00000833
 ,-0.00005816,0.01421180,-0.00533617,0.05019156,-0.00265711,0.00000328,
 0.00002972,0.00420852,-0.00853131,0.00467272,0.00062701,0.00112258,-0.
 00010852,-0.00030939,-0.00002065,-0.00028639,0.00022830,-0.00014288,-0
 .00000658,-0.00008089,0.00004322,0.00000813,-0.00028277,0.00014152,-0.
 00014522,-0.00000519,0.00000701,0.00013167,0.00001888,0.00005224,-0.00
 006902,0.00000811,-0.00002110,0.00000492,0.00000811,0.00000600,0.00000
 736,-0.00000312,0.00001398,-0.00000372,-0.00003019,-0.00000539,-0.0000
 2059,0.00255185,-0.26519598,0.10236684,-0.00054723,-0.01794971,0.00790
 991,0.00285591,-0.00149595,-0.00256113,-0.00089679,0.00052347,-0.00065
 799,-0.00002099,0.00000159,0.00001278,0.00000765,-0.00000709,0.0000211
 2,-0.00000217,0.00000576,0.00000413,0.00005449,0.00004409,-0.00005314,
 0.00000152,0.00000522,-0.00000171,-0.00000192,-0.00000081,0.00000097,-
 0.00000523,-0.00000138,0.00000684,0.00021193,0.00358724,-0.00083763,-0
 .00529131,0.28700181,0.00324185,0.00160585,0.00155633,-0.00224250,0.00
 314981,-0.00581420,-0.00028711,-0.00075558,-0.00005722,0.00017849,-0.0
 0010003,0.00001427,-0.00005634,-0.00010429,-0.00006818,-0.00002264,0.0
 0001641,-0.00000239,-0.00018607,0.00008853,-0.00000177,0.00002460,0.00
 006758,-0.00000512,0.00000100,-0.00004556,0.00000945,-0.00000586,-0.00
 000924,-0.00000375,0.00001919,0.00000558,0.00000777,0.00001244,0.00000
 033,0.00000487,0.00001916,0.00002160,-0.00000424,-0.00395429,0.1057349
 5,-0.09571629,-0.00093705,-0.01846345,0.00738345,0.00311579,-0.0049628
 7,-0.00218966,-0.00043954,-0.00008739,0.00076290,0.00001081,0.00002713
 ,0.00002746,-0.00000316,-0.00000781,-0.00000277,0.00001471,-0.00000965
 ,0.00000022,-0.00006947,-0.00004183,0.00006244,-0.00000137,-0.00000562
 ,0.00000045,0.00000075,0.00000206,0.00000122,-0.00000792,0.00000764,0.
 00000399,0.00050155,0.02543984,-0.00974900,0.00160311,-0.11075429,0.10
 236813,0.00013476,-0.00053458,-0.00004096,0.00052460,0.00271744,0.0008
 4570,-0.00033801,-0.00019144,0.00015683,0.00021576,-0.00005465,-0.0000
 8655,0.00001299,0.00015258,0.00013134,-0.00002283,-0.00009291,-0.00009
 806,0.00003289,-0.00016421,-0.00003314,0.00005022,0.00002409,-0.000045
 62,0.00000249,-0.00000553,0.00000806,0.00000116,0.00002284,0.00000255,
 -0.00002827,-0.00001133,-0.00001165,-0.00000809,-0.00000826,-0.0000029
 6,0.00000439,-0.00001494,0.00001066,-0.01316520,-0.00006639,-0.0003220
 9,-0.31851755,-0.03411723,-0.03374555,-0.00213788,-0.00086618,-0.00007
 108,-0.00001121,-0.00005489,0.00005206,-0.00001697,-0.00002115,-0.0000
 1781,-0.00000048,0.00001369,0.00000234,-0.00000017,-0.00000210,-0.0000
 0100,0.00001939,0.00000640,-0.00000174,0.00000195,0.00000392,-0.000002
 19,-0.00000040,-0.00000064,-0.00000009,0.00001160,-0.00000377,-0.00000
 065,0.00124003,-0.00052405,-0.00000289,-0.00023139,0.00033418,0.000191
 66,0.33698919,0.00017440,0.00206776,-0.00023121,-0.00042757,-0.0053892
 5,-0.00165878,0.00103640,0.00072757,0.00000924,-0.00044836,-0.00012418
 ,0.00024159,0.00084587,-0.00055219,-0.00029878,-0.00035394,0.00009580,
 0.00003429,-0.00140241,0.00080499,-0.00031393,-0.00001204,0.00004257,0
 .00002216,-0.00000878,-0.00001793,-0.00000992,0.00000168,-0.00002448,0
 .00001177,0.00003912,0.00002387,0.00001970,0.00001425,0.00000913,-0.00
 000052,-0.00000586,0.00003062,-0.00001228,0.02167941,0.00430342,-0.000
 04119,-0.02155300,-0.05144698,0.00001479,-0.03890372,-0.01528926,-0.00
 486417,0.00000523,0.00009046,-0.00006415,0.00006631,0.00008488,0.00005
 296,0.00003880,0.00003386,0.00003753,-0.00002416,0.00000713,0.00002293
 ,-0.00004388,-0.00003052,0.00000103,0.00000106,-0.00000323,-0.00000683
 ,0.00000126,0.00000191,-0.00000057,-0.00001539,0.00000099,-0.00000193,
 -0.00051658,0.00104579,0.00028499,-0.00047135,-0.00005652,0.00049945,0
 .03431685,0.06537908,-0.00016397,0.00081751,0.00013043,0.00065140,-0.0
 0410837,-0.00196261,0.00088313,0.00068100,0.00063283,-0.00017021,0.000
 00695,0.00026599,0.00052376,-0.00016952,-0.00007207,-0.00008407,0.0000
 7734,-0.00002004,-0.00011516,-0.00016291,0.00034970,-0.00002438,0.0000
 1627,-0.00001202,-0.00000693,-0.00001380,-0.00000010,-0.00000095,-0.00
 000337,0.00000212,0.00001263,0.00000546,0.00000436,0.00000654,0.000002
 33,0.00000141,0.00000235,0.00000910,-0.00000047,0.02206433,0.00103329,
 -0.00039062,-0.03678331,-0.00216824,-0.05535697,0.00943389,0.00279417,
 0.00071834,0.00016458,-0.00018036,-0.00019661,0.00005828,0.00004113,0.
 00001992,0.00001341,0.00001920,0.00001036,-0.00000814,-0.00000120,0.00
 001244,-0.00002778,-0.00001363,0.00000812,-0.00000113,-0.00000184,0.00
 000051,0.00000080,0.00000086,-0.00000003,-0.00000453,0.00000106,-0.000
 00132,0.00013792,0.00087988,0.00103647,-0.00026870,-0.00010138,0.00023
 894,0.03369740,0.00421119,0.05543423,-0.00039686,-0.00013332,-0.000048
 17,0.00213137,-0.00026091,0.00130142,-0.00013237,-0.00001583,-0.000726
 93,-0.00006149,-0.00001055,-0.00018426,-0.00087922,0.00022509,-0.00000
 490,0.00036521,0.00006585,0.00026902,0.00073283,0.00000629,-0.00035550
 ,-0.00005408,-0.00005995,0.00012022,0.00001312,0.00002431,-0.00002980,
 0.00000267,-0.00004570,-0.00000820,0.00003980,0.00001667,0.00001314,0.
 00000333,0.00001277,0.00000584,-0.00001317,0.00001996,-0.00003006,0.00
 428955,-0.00210957,0.01709832,-0.07180503,0.01088080,-0.07076761,0.001
 68324,-0.00457939,0.01121008,-0.00022876,0.00042687,0.00020112,-0.0000
 1155,-0.00001468,-0.00000201,-0.00003582,-0.00008607,-0.00004523,0.000
 01434,0.00000450,-0.00002104,0.00001150,0.00001019,-0.00000129,-0.0000
 0268,-0.00000456,0.00000719,-0.00000114,0.00000039,0.00000143,-0.00002
 129,0.00000822,0.00000810,-0.00138998,0.00185422,0.00196133,0.00116699
 ,-0.00070004,-0.00083553,-0.00553841,0.00519595,-0.03048330,0.06962361
 ,0.00003669,0.00111141,-0.00007993,-0.00165717,-0.00107507,0.00031682,
 0.00030500,0.00015059,0.00011715,0.00010626,-0.00003813,0.00004332,-0.
 00044011,0.00019528,-0.00008452,0.00011698,-0.00000389,0.00011763,0.00
 017444,0.00007927,-0.00046605,-0.00001966,-0.00004132,0.00001242,0.000
 00089,0.00000301,0.00000664,0.00000360,-0.00001640,0.00000137,0.000005
 92,0.00000393,0.00000005,0.00000031,0.00000376,0.00000145,-0.00000455,
 0.00000789,-0.00000638,-0.00494749,0.00107811,-0.02134507,0.00627634,-
 0.05104129,0.02655113,0.00383935,-0.01585748,0.03860197,0.00015049,-0.
 00009173,-0.00017823,0.00002536,0.00000266,-0.00000095,-0.00001740,-0.
 00002134,-0.00001274,0.00000334,0.00000753,-0.00001349,-0.00000793,-0.
 00001184,0.00000144,0.00000148,-0.00000041,0.00000086,-0.00000014,0.00
 000071,-0.00000019,-0.00000372,0.00000262,-0.00000123,0.00320615,-0.00
 185931,-0.00238010,-0.00022485,0.00093439,-0.00010091,-0.00012496,0.00
 192792,-0.00412892,-0.00865195,0.06936429,0.00031989,0.00010510,0.0001
 2547,-0.00186475,0.00004509,-0.00071322,0.00054205,0.00010562,0.000806
 78,0.00007070,-0.00006373,0.00006293,0.00068714,-0.00012656,0.00009767
 ,-0.00021369,-0.00002454,-0.00017769,-0.00035592,-0.00023897,0.0002124
 8,0.00003487,0.00004466,-0.00005836,-0.00000632,-0.00001369,0.00001489
 ,-0.00000280,0.00001830,0.00000511,-0.00001304,-0.00000434,-0.00000249
 ,-0.00000043,-0.00000568,-0.00000331,0.00000619,-0.00000471,0.00001321
 ,-0.00392476,-0.00014870,-0.01622186,-0.06635113,0.03687012,-0.2999472
 8,-0.00051517,0.00336158,-0.00404047,0.00022917,-0.00021872,-0.0001515
 4,0.00001653,0.00001848,0.00000453,0.00001880,0.00003789,0.00002588,-0
 .00001054,0.00000046,0.00001273,-0.00001581,-0.00001171,0.00000167,0.0
 0000143,0.00000112,-0.00000509,0.00000072,-0.00000012,-0.00000093,0.00
 000802,-0.00000386,-0.00000460,0.00232785,-0.00193108,-0.00034152,-0.0
 0006101,0.00001962,0.00116779,-0.00076961,-0.00042592,-0.00128352,0.07
 023047,-0.03848158,0.31969508,-0.00003287,0.00127984,0.00002477,-0.000
 89174,-0.00098902,0.00120528,0.00014732,0.00008929,-0.00020510,0.00005
 253,0.00003120,-0.00001724,-0.00028892,-0.00011068,-0.00019781,0.00004
 892,0.00006447,0.00013154,-0.00057128,-0.00058103,-0.00092979,-0.00003
 650,-0.00005410,0.00004361,-0.00000216,0.00001953,-0.00001227,-0.00001
 037,-0.00001520,-0.00002287,0.00003743,0.00000191,0.00000417,0.0000021
 1,0.00000419,0.00000616,0.00000727,0.00000038,-0.00001033,-0.00035563,
 -0.00311903,0.00099382,0.00961275,-0.00607660,-0.00684903,-0.23269825,
 0.15446379,0.09089015,-0.00008625,0.00003446,-0.00003241,0.00000320,-0
 .00000054,0.00000686,-0.00005654,0.00001370,-0.00002567,0.00001391,0.0
 0000174,-0.00001142,-0.00000570,0.00001333,0.00000581,-0.00000902,-0.0
 0000769,0.00001829,-0.00000089,-0.00000091,0.00000283,-0.00001715,0.00
 000878,0.00000539,0.00001205,0.00009580,-0.00001520,0.00053675,-0.0005
 8662,-0.00049955,0.00061896,-0.00101361,-0.00038153,-0.00011519,0.0002
 2465,0.00016022,0.24144837,-0.00098744,0.00141022,0.00028008,-0.000620
 32,-0.00083981,0.00130775,-0.00018285,0.00017597,-0.00024427,0.0001254
 6,0.00004890,0.00000068,0.00088939,-0.00024340,0.00004105,-0.00056264,
 -0.00018863,-0.00023485,-0.00170970,-0.00001629,-0.00068131,0.00006944
 ,0.00003489,-0.00004892,-0.00000066,0.00001625,-0.00000400,-0.00000537
 ,0.00005821,-0.00000525,-0.00004629,-0.00004115,-0.00001759,-0.0000116
 9,0.00000042,-0.00001020,0.00001231,-0.00005742,0.00003614,-0.00171179
 ,-0.00459220,0.00330173,0.02131460,-0.01791174,-0.01243624,0.15574591,
 -0.19263907,-0.08024596,-0.00007232,-0.00008395,-0.00007535,-0.0000123
 0,0.00001496,0.00000015,0.00001548,0.00013280,0.00005000,-0.00001085,-
 0.00001097,0.00001209,0.00003882,0.00002520,-0.00001704,0.00000172,0.0
 0001277,0.00000256,0.00000028,-0.00000126,0.00000039,0.00002413,-0.000
 00450,-0.00000447,-0.00010812,0.00005089,-0.00002545,0.00076183,-0.000
 69560,-0.00118999,-0.00057113,0.00173654,-0.00085047,0.00023485,0.0000
 3285,0.00048445,-0.16406048,0.20184924,0.00181085,-0.00210781,-0.00024
 312,0.00051064,0.00134640,-0.00172350,0.00019224,-0.00028351,0.0005277
 4,-0.00007099,-0.00003086,-0.00001718,0.00046400,-0.00029568,-0.000128
 24,-0.00035868,-0.00003261,-0.00010716,-0.00151931,-0.00011342,-0.0010
 2086,0.00000987,0.00002959,-0.00001205,0.00000522,-0.00001721,0.000006
 37,0.00001448,-0.00001272,0.00000699,-0.00000333,0.00000591,-0.0000091
 0,-0.00000063,0.00000024,-0.00000149,-0.00000303,0.00001323,-0.0000076
 6,0.00029124,0.00104229,-0.00053187,-0.00702532,0.00324823,0.00350787,
 0.08656057,-0.07605203,-0.10865787,0.00003821,0.00001805,0.00010351,-0
 .00001273,0.00000733,0.00000760,-0.00002289,0.00004931,0.00008044,-0.0
 0000568,0.00000008,0.00000458,0.00000224,-0.00002271,0.00000988,0.0000
 0199,0.00000446,0.00000221,-0.00000145,0.00000176,0.00000179,-0.000001
 42,-0.00000051,0.00000675,-0.00000288,0.00011533,0.00006091,-0.0000761
 1,0.00033693,0.00038515,-0.00017025,-0.00020229,0.00073296,-0.00045804
 ,0.00070309,-0.00046137,-0.09884009,0.08407450,0.10447182,-0.00464430,
 0.00121729,-0.00087731,0.00673416,0.00133058,0.00481260,-0.00323918,-0
 .00056786,-0.00287023,0.00321268,0.00118548,0.00015722,-0.02223601,0.0
 1169288,0.00501785,0.01170096,0.00133800,0.00299119,0.01528034,-0.0143
 0720,-0.00244307,-0.00128528,-0.00152856,0.00076599,0.00009882,0.00030
 444,-0.00004601,0.00002619,-0.00045551,-0.00021470,0.00025085,0.000059
 32,-0.00002322,-0.00004819,0.00005266,0.00012424,-0.00007967,0.0001104
 6,-0.00030050,0.00012879,0.00112796,-0.00036012,-0.00335243,-0.0124351
 6,0.00135193,-0.26427382,-0.04604780,-0.09268872,0.00012698,0.00015272
 ,-0.00004623,-0.00011290,-0.00077834,-0.00038926,-0.00089003,-0.001661
 43,-0.00124935,0.00046025,0.00007063,-0.00050192,0.00016449,0.00024345
 ,0.00008574,-0.00005113,-0.00007046,0.00017635,-0.00002013,-0.00000297
 ,0.00002115,-0.00018697,0.00013294,0.00010996,-0.00030364,-0.00019102,
 0.00000241,-0.00053738,0.00042881,0.00044633,0.00068653,0.00182686,-0.
 00001324,0.00088192,0.00166885,-0.00039159,-0.01592275,-0.00310619,-0.
 00720219,0.26784268,0.00001994,0.00017026,-0.00029443,0.00139153,-0.00
 289604,-0.00171225,-0.00052713,0.00042269,0.00039903,0.00103749,0.0002
 1968,-0.00004898,0.00036640,-0.00118404,0.00097050,-0.00036335,0.00049
 449,-0.00075891,-0.00225822,-0.00555046,-0.00070304,-0.00009088,-0.000
 11262,-0.00006878,0.00001336,0.00008805,0.00000326,-0.00002759,0.00007
 178,-0.00007005,-0.00005610,-0.00008140,-0.00003855,-0.00001839,-0.000
 00513,0.00000950,0.00003282,-0.00010600,0.00005206,-0.00056758,-0.0000
 6921,-0.00005840,-0.03094985,-0.00989998,-0.01236322,-0.05112683,-0.07
 528816,-0.02820232,0.00001982,-0.00026548,-0.00004600,-0.00006561,-0.0
 0005853,-0.00001852,-0.00008108,0.00009241,0.00005503,0.00004546,-0.00
 002175,-0.00002951,0.00007500,0.00008500,0.00000840,-0.00001693,-0.000
 00160,0.00004651,-0.00000103,-0.00000576,0.00000335,0.00002898,0.00000
 906,0.00000077,-0.00004311,0.00010838,0.00010672,0.00016954,0.00012829
 ,0.00019948,0.00002929,-0.00554159,0.00138085,-0.00002388,0.00156208,0
 .00021785,0.02110274,0.00722754,0.01287432,0.05653138,0.08872667,-0.00
 175281,0.00441570,-0.00101021,0.00353021,-0.00561147,0.00521851,-0.002
 56573,0.00059677,-0.00273276,0.00227098,0.00072112,0.00009768,-0.00689
 221,0.00548817,0.00199080,0.00454328,-0.00055576,0.00195974,0.00671999
 ,-0.00538191,-0.00803543,-0.00048826,-0.00081629,0.00028377,0.00004899
 ,0.00012858,0.00002041,0.00004650,-0.00016955,-0.00005275,0.00001077,0
 .00000423,-0.00005973,-0.00006620,0.00000811,0.00002947,-0.00005353,0.
 00001558,-0.00014130,-0.00069107,-0.00021549,-0.00089849,0.01052806,-0
 .00017006,0.00464949,-0.09333387,-0.02641783,-0.10671992,-0.00018014,0
 .00008003,0.00007126,-0.00010277,-0.00032123,-0.00017834,-0.00049333,-
 0.00059972,-0.00051900,0.00021586,0.00006230,-0.00028411,0.00024923,0.
 00010711,-0.00008084,-0.00000216,0.00000504,0.00006040,-0.00001485,-0.
 00000056,0.00001181,-0.00005475,0.00004604,0.00006603,-0.00005304,-0.0
 0011554,-0.00007691,0.00003977,0.00025226,0.00019969,0.00024630,0.0034
 6675,-0.00043853,0.00080841,0.00140702,0.00005491,0.01528196,0.0062937
 4,0.00850355,0.09484106,0.02602187,0.11449660,0.00043783,-0.00843694,0
 .00310080,0.00053077,0.00999398,-0.00854308,0.00185681,-0.00218995,0.0
 0321679,-0.00108495,-0.00025534,-0.00019953,0.00025893,-0.00090592,-0.
 00089940,-0.00026217,0.00043109,0.00013997,-0.00261426,0.00052164,0.00
 096504,-0.00001509,0.00017217,0.00000073,-0.00003720,-0.00006045,-0.00
 001403,-0.00003400,-0.00006866,-0.00002084,0.00015797,0.00005632,0.000
 06592,0.00006088,0.00002233,0.00002110,0.00002294,0.00008794,-0.000016
 85,-0.00011766,0.00099027,0.00044163,-0.00090441,-0.00404936,0.0071926
 3,-0.05865049,-0.00273758,0.02970273,0.00038662,0.00022568,0.00028254,
 0.00005540,0.00004993,0.00005246,0.00004524,0.00000466,-0.00002595,-0.
 00003538,-0.00000979,0.00005519,-0.00020060,-0.00008530,0.00010895,-0.
 00001951,-0.00003949,0.00001149,0.00000580,0.00000302,-0.00000073,-0.0
 0005409,0.00001752,-0.00000994,0.00010491,-0.00027575,-0.00023587,-0.0
 0063922,-0.00012430,0.00016696,-0.00053007,-0.00004281,0.00088687,-0.0
 0027242,-0.00004619,-0.00015746,-0.00144034,-0.00545408,0.02587349,0.0
 0958818,0.00535383,-0.03263664,0.05339957,-0.00341204,0.00223073,-0.00
 162300,0.00292782,-0.00582079,0.00415687,-0.00147283,0.00085804,-0.001
 50151,0.00071705,0.00033997,0.00016207,-0.00045087,0.00058223,0.000473
 91,-0.00002479,-0.00026947,-0.00021025,0.00008867,-0.00060424,-0.00005
 498,-0.00007196,-0.00011742,-0.00006033,-0.00000537,0.00009643,-0.0000
 1253,-0.00003327,0.00011977,-0.00004343,-0.00008835,-0.00008799,-0.000
 03467,-0.00002957,-0.00001315,-0.00000760,0.00002386,-0.00013032,0.000
 05903,0.00102127,0.00104226,0.00063220,-0.00092650,-0.00396683,0.03574
 500,-0.00298643,-0.06455659,0.04470001,-0.00015568,-0.00004844,-0.0000
 5638,-0.00006496,-0.00005875,-0.00003747,-0.00001781,0.00005262,-0.000
 02459,0.00004217,-0.00002323,-0.00001966,0.00012194,0.00016019,-0.0000
 6900,-0.00000977,0.00000478,0.00001445,-0.00000138,-0.00000737,0.00000
 205,0.00004308,-0.00000020,0.00000111,-0.00005741,-0.00060160,-0.00084
 366,-0.00039044,0.00050267,-0.00022770,-0.00019091,0.00006187,-0.00007
 358,-0.00229054,-0.00641009,0.00037356,-0.00083431,0.00449830,-0.02469
 970,0.00167781,0.00168136,-0.00874500,0.00685153,0.07048526,-0.0000581
 2,0.00346741,-0.00523904,-0.00206664,-0.00474034,0.00445329,-0.0006280
 2,0.00153071,-0.00165500,0.00055100,0.00015665,0.00012444,-0.00189630,
 0.00099747,0.00048193,0.00081837,-0.00000854,0.00014348,0.00235005,-0.
 00100324,0.00024602,-0.00014987,-0.00021984,0.00012752,0.00003498,0.00
 007318,-0.00002262,0.00002880,-0.00002975,-0.00001953,-0.00002961,-0.0
 0001252,-0.00003698,-0.00003020,0.00000092,0.00000391,-0.00002537,-0.0
 0002226,-0.00003536,0.00114036,-0.00047866,0.00140177,0.00033236,0.007
 76310,-0.00251911,0.03075622,0.03990496,-0.37996611,-0.00034272,0.0000
 4467,-0.00014103,-0.00001277,-0.00006673,-0.00004625,-0.00010791,-0.00
 010587,-0.00004718,0.00005040,0.00000328,-0.00005724,0.00008769,0.0000
 7417,-0.00002543,-0.00000287,0.00001434,0.00003119,-0.00000619,-0.0000
 0099,0.00000556,-0.00000231,0.00000474,0.00002557,-0.00042685,-0.00006
 257,-0.00014916,0.00033265,-0.00017860,-0.00057995,0.00007900,-0.00079
 790,0.00013576,0.00076577,-0.00060208,0.00111211,-0.00073058,0.0002060
 6,-0.00549865,-0.00128637,0.00206344,-0.01648579,-0.02952497,-0.047975
 22,0.40423186\\0.00000026,-0.00000042,0.00000104,-0.00000159,-0.000000
 27,-0.00000463,-0.00000114,0.00000217,0.00000247,0.00000277,0.00000159
 ,-0.00000219,0.00000016,0.00000018,0.00000265,0.00000025,0.00000018,-0
 .00000012,0.00000263,-0.00000146,-0.00000160,-0.00000115,0.00000124,0.
 00000140,-0.00000016,-0.00000093,0.00000054,0.00000022,0.00000063,-0.0
 0000027,-0.00000024,-0.00000017,-0.00000051,-0.00000005,0.00000031,-0.
 00000040,0.00000026,-0.00000002,0.00000051,-0.00000065,-0.00000225,0.0
 0000443,-0.00000134,0.00000098,-0.00000300,0.00000604,0.00000271,0.000
 00184,-0.00000015,-0.00000093,0.00000055,0.00000018,0.00000007,0.00000
 016,-0.00000011,0.00000091,-0.00000057,-0.00000013,-0.00000076,0.00000
 035,-0.00000050,-0.00000055,-0.00000008,0.00000014,-0.00000023,-0.0000
 0054,-0.00000007,0.00000022,0.00000002,0.00000010,-0.00000004,0.000000
 32,0.00000040,-0.00000002,0.00000008,0.00000116,-0.00000086,-0.0000005
 0,0.00000007,0.00000066,0.00000048,-0.00000021,0.00000039,-0.00000002,
 -0.00000025,-0.00000008,-0.00000072,-0.00000338,-0.00000103,0.00000052
 ,-0.00000350,-0.00000223,-0.00000221\\\@


 IT'S WHAT A FELLER THINKS HE KNOWS THAT HURTS HIM...
                    ------
           KIN HUBBARD
 Job cpu time:       0 days  2 hours 21 minutes 36.1 seconds.
 File lengths (MBytes):  RWF=    458 Int=      0 D2E=      0 Chk=     13 Scr=      1
 Normal termination of Gaussian 09 at Sat Jul 24 03:42:28 2021.
