 Entering Gaussian System, Link 0=g09
 Input=opt_freq-conf-342.com
 Output=opt_freq-conf-342.log
 Initial command:
 /aerosol/software/g09/l1.exe "/scratch/nicole/10497/Gau-76019.inp" -scrdir="/scratch/nicole/10497/"
 Entering Link 1 = /aerosol/software/g09/l1.exe PID=     76025.
  
 Copyright (c) 1988,1990,1992,1993,1995,1998,2003,2009,2013,
            Gaussian, Inc.  All Rights Reserved.
  
 This is part of the Gaussian(R) 09 program.  It is based on
 the Gaussian(R) 03 system (copyright 2003, Gaussian, Inc.),
 the Gaussian(R) 98 system (copyright 1998, Gaussian, Inc.),
 the Gaussian(R) 94 system (copyright 1995, Gaussian, Inc.),
 the Gaussian 92(TM) system (copyright 1992, Gaussian, Inc.),
 the Gaussian 90(TM) system (copyright 1990, Gaussian, Inc.),
 the Gaussian 88(TM) system (copyright 1988, Gaussian, Inc.),
 the Gaussian 86(TM) system (copyright 1986, Carnegie Mellon
 University), and the Gaussian 82(TM) system (copyright 1983,
 Carnegie Mellon University). Gaussian is a federally registered
 trademark of Gaussian, Inc.
  
 This software contains proprietary and confidential information,
 including trade secrets, belonging to Gaussian, Inc.
  
 This software is provided under written license and may be
 used, copied, transmitted, or stored only in accord with that
 written license.
  
 The following legend is applicable only to US Government
 contracts under FAR:
  
                    RESTRICTED RIGHTS LEGEND
  
 Use, reproduction and disclosure by the US Government is
 subject to restrictions as set forth in subparagraphs (a)
 and (c) of the Commercial Computer Software - Restricted
 Rights clause in FAR 52.227-19.
  
 Gaussian, Inc.
 340 Quinnipiac St., Bldg. 40, Wallingford CT 06492
  
  
 ---------------------------------------------------------------
 Warning -- This program may not be used in any manner that
 competes with the business of Gaussian, Inc. or will provide
 assistance to any competitor of Gaussian, Inc.  The licensee
 of this program is prohibited from giving any competitor of
 Gaussian, Inc. access to this program.  By using this program,
 the user acknowledges that Gaussian, Inc. is engaged in the
 business of creating and licensing software in the field of
 computational chemistry and represents and warrants to the
 licensee that it is not a competitor of Gaussian, Inc. and that
 it will not use this program in any manner prohibited above.
 ---------------------------------------------------------------
  

 Cite this work as:
 Gaussian 09, Revision D.01,
 M. J. Frisch, G. W. Trucks, H. B. Schlegel, G. E. Scuseria, 
 M. A. Robb, J. R. Cheeseman, G. Scalmani, V. Barone, B. Mennucci, 
 G. A. Petersson, H. Nakatsuji, M. Caricato, X. Li, H. P. Hratchian, 
 A. F. Izmaylov, J. Bloino, G. Zheng, J. L. Sonnenberg, M. Hada, 
 M. Ehara, K. Toyota, R. Fukuda, J. Hasegawa, M. Ishida, T. Nakajima, 
 Y. Honda, O. Kitao, H. Nakai, T. Vreven, J. A. Montgomery, Jr., 
 J. E. Peralta, F. Ogliaro, M. Bearpark, J. J. Heyd, E. Brothers, 
 K. N. Kudin, V. N. Staroverov, T. Keith, R. Kobayashi, J. Normand, 
 K. Raghavachari, A. Rendell, J. C. Burant, S. S. Iyengar, J. Tomasi, 
 M. Cossi, N. Rega, J. M. Millam, M. Klene, J. E. Knox, J. B. Cross, 
 V. Bakken, C. Adamo, J. Jaramillo, R. Gomperts, R. E. Stratmann, 
 O. Yazyev, A. J. Austin, R. Cammi, C. Pomelli, J. W. Ochterski, 
 R. L. Martin, K. Morokuma, V. G. Zakrzewski, G. A. Voth, 
 P. Salvador, J. J. Dannenberg, S. Dapprich, A. D. Daniels, 
 O. Farkas, J. B. Foresman, J. V. Ortiz, J. Cioslowski, 
 and D. J. Fox, Gaussian, Inc., Wallingford CT, 2013.
 
 ******************************************
 Gaussian 09:  ES64L-G09RevD.01 24-Apr-2013
                24-Jul-2021 
 ******************************************
 %mem=2gb
 %nproc=4
 Will use up to    4 processors via shared memory.
 %chk=conf-342.chk
 ----------------------------------------------------------------------
 # B3LYP/6-311G(d,p) EmpiricalDispersion=GD3BJ opt=calcfc freq=noraman 
 nosymm integral(ultrafinegrid)
 ----------------------------------------------------------------------
 1/10=4,14=-1,18=20,19=15,26=4,38=1/1,3;
 2/9=110,12=2,15=1,17=6,18=5,40=1/2;
 3/5=4,6=6,7=101,11=2,16=1,25=1,30=1,71=2,74=-5,75=-5,124=41,140=1/1,2,3;
 4//1;
 5/5=2,38=5/2;
 8/6=4,10=90,11=11/1;
 11/6=1,8=1,9=11,15=111,16=1,31=1/1,2,10;
 10/6=1,13=1,31=1/2;
 6/7=2,8=2,9=2,10=2,28=1/1;
 7/10=1,18=20,25=1,30=1/1,2,3,16;
 1/10=4,14=-1,18=20,19=15,26=4/3(2);
 2/9=110,15=1/2;
 99//99;
 2/9=110,15=1/2;
 3/5=4,6=6,7=101,11=2,16=1,25=1,30=1,71=1,74=-5,75=-5,124=41/1,2,3;
 4/5=5,16=3,69=1/1;
 5/5=2,38=5/2;
 7/30=1/1,2,3,16;
 1/14=-1,18=20,19=15,26=4/3(-5);
 2/9=110,15=1/2;
 6/7=2,8=2,9=2,10=2,19=2,28=1/1;
 99/9=1/99;
 ------------------------------------------------------------
 Candidate Structure: Conf:342 OPT and FREQ calc in gas phase
 ------------------------------------------------------------
 Symbolic Z-matrix:
 Charge =  1 Multiplicity = 1
 O                     0.48802  -1.04421  -0.1281 
 C                     1.12385  -0.01749  -0.37361 
 N                     0.49047   1.13594  -0.6784 
 C                    -0.95233   1.1798   -0.7779 
 C                    -1.31346   2.46054  -1.51699 
 O                    -2.62801   2.61896  -1.77297 
 O                    -0.51      3.28466  -1.8519 
 C                    -1.63884   1.09438   0.62074 
 C                    -2.6427   -0.01018   0.70235 
 C                    -3.98987  -0.02168   0.90501 
 N                    -4.47679  -1.31734   0.86655 
 C                    -3.42519  -2.06674   0.63906 
 N                    -2.29364  -1.32744   0.53059 
 C                     2.63954   0.02136  -0.38261 
 C                     3.23439  -0.9979    0.57318 
 N                     4.72017  -1.02743   0.50222 
 H                     0.98137   1.94095  -1.03734 
 H                    -1.27896   0.34084  -1.40351 
 H                    -3.11555   1.84612  -1.4643 
 H                    -2.13152   2.03418   0.87054 
 H                    -0.86367   0.94257   1.36936 
 H                    -4.64492   0.82058   1.07669 
 H                    -3.41306  -3.13835   0.54534 
 H                    -1.35254  -1.64532   0.35214 
 H                     2.98248   1.02797  -0.1359 
 H                     2.97543  -0.20079  -1.39969 
 H                     2.83034  -1.97896   0.32785 
 H                     2.92493  -0.76764   1.59206 
 H                     5.03857  -1.26512  -0.43712 
 H                     5.12401  -0.12292   0.74615 
 H                     5.11721  -1.71841   1.14051 
 

 GradGradGradGradGradGradGradGradGradGradGradGradGradGradGradGradGradGrad
 Berny optimization.
 Initialization pass.
                           ----------------------------
                           !    Initial Parameters    !
                           ! (Angstroms and Degrees)  !
 --------------------------                            --------------------------
 ! Name  Definition              Value          Derivative Info.                !
 --------------------------------------------------------------------------------
 ! R1    R(1,2)                  1.2324         calculate D2E/DX2 analytically  !
 ! R2    R(2,3)                  1.3507         calculate D2E/DX2 analytically  !
 ! R3    R(2,14)                 1.5162         calculate D2E/DX2 analytically  !
 ! R4    R(3,4)                  1.4469         calculate D2E/DX2 analytically  !
 ! R5    R(3,17)                 1.0089         calculate D2E/DX2 analytically  !
 ! R6    R(4,5)                  1.5222         calculate D2E/DX2 analytically  !
 ! R7    R(4,8)                  1.5604         calculate D2E/DX2 analytically  !
 ! R8    R(4,18)                 1.0963         calculate D2E/DX2 analytically  !
 ! R9    R(5,6)                  1.3486         calculate D2E/DX2 analytically  !
 ! R10   R(5,7)                  1.1987         calculate D2E/DX2 analytically  !
 ! R11   R(6,19)                 0.9645         calculate D2E/DX2 analytically  !
 ! R12   R(8,9)                  1.4948         calculate D2E/DX2 analytically  !
 ! R13   R(8,20)                 1.0901         calculate D2E/DX2 analytically  !
 ! R14   R(8,21)                 1.0883         calculate D2E/DX2 analytically  !
 ! R15   R(9,10)                 1.3624         calculate D2E/DX2 analytically  !
 ! R16   R(9,13)                 1.3735         calculate D2E/DX2 analytically  !
 ! R17   R(10,11)                1.3847         calculate D2E/DX2 analytically  !
 ! R18   R(10,22)                1.0807         calculate D2E/DX2 analytically  !
 ! R19   R(11,12)                1.3112         calculate D2E/DX2 analytically  !
 ! R20   R(12,13)                1.356          calculate D2E/DX2 analytically  !
 ! R21   R(12,23)                1.0758         calculate D2E/DX2 analytically  !
 ! R22   R(13,24)                1.0092         calculate D2E/DX2 analytically  !
 ! R23   R(14,15)                1.5186         calculate D2E/DX2 analytically  !
 ! R24   R(14,25)                1.0917         calculate D2E/DX2 analytically  !
 ! R25   R(14,26)                1.0939         calculate D2E/DX2 analytically  !
 ! R26   R(15,16)                1.4878         calculate D2E/DX2 analytically  !
 ! R27   R(15,27)                1.089          calculate D2E/DX2 analytically  !
 ! R28   R(15,28)                1.0895         calculate D2E/DX2 analytically  !
 ! R29   R(16,29)                1.0199         calculate D2E/DX2 analytically  !
 ! R30   R(16,30)                1.0202         calculate D2E/DX2 analytically  !
 ! R31   R(16,31)                1.021          calculate D2E/DX2 analytically  !
 ! A1    A(1,2,3)              120.9619         calculate D2E/DX2 analytically  !
 ! A2    A(1,2,14)             122.5677         calculate D2E/DX2 analytically  !
 ! A3    A(3,2,14)             116.457          calculate D2E/DX2 analytically  !
 ! A4    A(2,3,4)              120.5963         calculate D2E/DX2 analytically  !
 ! A5    A(2,3,17)             122.2413         calculate D2E/DX2 analytically  !
 ! A6    A(4,3,17)             115.884          calculate D2E/DX2 analytically  !
 ! A7    A(3,4,5)              107.1857         calculate D2E/DX2 analytically  !
 ! A8    A(3,4,8)              112.0505         calculate D2E/DX2 analytically  !
 ! A9    A(3,4,18)             108.2482         calculate D2E/DX2 analytically  !
 ! A10   A(5,4,8)              112.142          calculate D2E/DX2 analytically  !
 ! A11   A(5,4,18)             107.2244         calculate D2E/DX2 analytically  !
 ! A12   A(8,4,18)             109.7869         calculate D2E/DX2 analytically  !
 ! A13   A(4,5,6)              114.9777         calculate D2E/DX2 analytically  !
 ! A14   A(4,5,7)              123.7188         calculate D2E/DX2 analytically  !
 ! A15   A(6,5,7)              121.3027         calculate D2E/DX2 analytically  !
 ! A16   A(5,6,19)             109.7462         calculate D2E/DX2 analytically  !
 ! A17   A(4,8,9)              112.6345         calculate D2E/DX2 analytically  !
 ! A18   A(4,8,20)             110.9184         calculate D2E/DX2 analytically  !
 ! A19   A(4,8,21)             108.1098         calculate D2E/DX2 analytically  !
 ! A20   A(9,8,20)             108.7249         calculate D2E/DX2 analytically  !
 ! A21   A(9,8,21)             109.7374         calculate D2E/DX2 analytically  !
 ! A22   A(20,8,21)            106.5321         calculate D2E/DX2 analytically  !
 ! A23   A(8,9,10)             132.7209         calculate D2E/DX2 analytically  !
 ! A24   A(8,9,13)             122.0847         calculate D2E/DX2 analytically  !
 ! A25   A(10,9,13)            105.1775         calculate D2E/DX2 analytically  !
 ! A26   A(9,10,11)            110.5788         calculate D2E/DX2 analytically  !
 ! A27   A(9,10,22)            128.0541         calculate D2E/DX2 analytically  !
 ! A28   A(11,10,22)           121.3671         calculate D2E/DX2 analytically  !
 ! A29   A(10,11,12)           104.9269         calculate D2E/DX2 analytically  !
 ! A30   A(11,12,13)           111.8108         calculate D2E/DX2 analytically  !
 ! A31   A(11,12,23)           126.4054         calculate D2E/DX2 analytically  !
 ! A32   A(13,12,23)           121.7836         calculate D2E/DX2 analytically  !
 ! A33   A(9,13,12)            107.5055         calculate D2E/DX2 analytically  !
 ! A34   A(9,13,24)            124.1364         calculate D2E/DX2 analytically  !
 ! A35   A(12,13,24)           128.3572         calculate D2E/DX2 analytically  !
 ! A36   A(2,14,15)            111.7542         calculate D2E/DX2 analytically  !
 ! A37   A(2,14,25)            109.6529         calculate D2E/DX2 analytically  !
 ! A38   A(2,14,26)            107.8944         calculate D2E/DX2 analytically  !
 ! A39   A(15,14,25)           110.7074         calculate D2E/DX2 analytically  !
 ! A40   A(15,14,26)           109.1835         calculate D2E/DX2 analytically  !
 ! A41   A(25,14,26)           107.513          calculate D2E/DX2 analytically  !
 ! A42   A(14,15,16)           111.9921         calculate D2E/DX2 analytically  !
 ! A43   A(14,15,27)           108.5138         calculate D2E/DX2 analytically  !
 ! A44   A(14,15,28)           109.6021         calculate D2E/DX2 analytically  !
 ! A45   A(16,15,27)           109.9929         calculate D2E/DX2 analytically  !
 ! A46   A(16,15,28)           109.4185         calculate D2E/DX2 analytically  !
 ! A47   A(27,15,28)           107.1997         calculate D2E/DX2 analytically  !
 ! A48   A(15,16,29)           111.1194         calculate D2E/DX2 analytically  !
 ! A49   A(15,16,30)           111.4892         calculate D2E/DX2 analytically  !
 ! A50   A(15,16,31)           111.8363         calculate D2E/DX2 analytically  !
 ! A51   A(29,16,30)           107.6538         calculate D2E/DX2 analytically  !
 ! A52   A(29,16,31)           107.2566         calculate D2E/DX2 analytically  !
 ! A53   A(30,16,31)           107.2547         calculate D2E/DX2 analytically  !
 ! D1    D(1,2,3,4)             -2.5603         calculate D2E/DX2 analytically  !
 ! D2    D(1,2,3,17)          -169.1118         calculate D2E/DX2 analytically  !
 ! D3    D(14,2,3,4)           176.1388         calculate D2E/DX2 analytically  !
 ! D4    D(14,2,3,17)            9.5873         calculate D2E/DX2 analytically  !
 ! D5    D(1,2,14,15)          -29.3941         calculate D2E/DX2 analytically  !
 ! D6    D(1,2,14,25)         -152.5395         calculate D2E/DX2 analytically  !
 ! D7    D(1,2,14,26)           90.647          calculate D2E/DX2 analytically  !
 ! D8    D(3,2,14,15)          151.9296         calculate D2E/DX2 analytically  !
 ! D9    D(3,2,14,25)           28.7842         calculate D2E/DX2 analytically  !
 ! D10   D(3,2,14,26)          -88.0293         calculate D2E/DX2 analytically  !
 ! D11   D(2,3,4,5)           -163.6093         calculate D2E/DX2 analytically  !
 ! D12   D(2,3,4,8)             72.96           calculate D2E/DX2 analytically  !
 ! D13   D(2,3,4,18)           -48.247          calculate D2E/DX2 analytically  !
 ! D14   D(17,3,4,5)             3.7612         calculate D2E/DX2 analytically  !
 ! D15   D(17,3,4,8)          -119.6694         calculate D2E/DX2 analytically  !
 ! D16   D(17,3,4,18)          119.1235         calculate D2E/DX2 analytically  !
 ! D17   D(3,4,5,6)            175.9687         calculate D2E/DX2 analytically  !
 ! D18   D(3,4,5,7)             -4.3549         calculate D2E/DX2 analytically  !
 ! D19   D(8,4,5,6)            -60.6569         calculate D2E/DX2 analytically  !
 ! D20   D(8,4,5,7)            119.0194         calculate D2E/DX2 analytically  !
 ! D21   D(18,4,5,6)            59.9261         calculate D2E/DX2 analytically  !
 ! D22   D(18,4,5,7)          -120.3976         calculate D2E/DX2 analytically  !
 ! D23   D(3,4,8,9)           -125.686          calculate D2E/DX2 analytically  !
 ! D24   D(3,4,8,20)           112.1914         calculate D2E/DX2 analytically  !
 ! D25   D(3,4,8,21)            -4.2648         calculate D2E/DX2 analytically  !
 ! D26   D(5,4,8,9)            113.7174         calculate D2E/DX2 analytically  !
 ! D27   D(5,4,8,20)            -8.4053         calculate D2E/DX2 analytically  !
 ! D28   D(5,4,8,21)          -124.8614         calculate D2E/DX2 analytically  !
 ! D29   D(18,4,8,9)            -5.37           calculate D2E/DX2 analytically  !
 ! D30   D(18,4,8,20)         -127.4926         calculate D2E/DX2 analytically  !
 ! D31   D(18,4,8,21)          116.0512         calculate D2E/DX2 analytically  !
 ! D32   D(4,5,6,19)            -2.5335         calculate D2E/DX2 analytically  !
 ! D33   D(7,5,6,19)           177.7816         calculate D2E/DX2 analytically  !
 ! D34   D(4,8,9,10)          -116.9921         calculate D2E/DX2 analytically  !
 ! D35   D(4,8,9,13)            61.2759         calculate D2E/DX2 analytically  !
 ! D36   D(20,8,9,10)            6.3605         calculate D2E/DX2 analytically  !
 ! D37   D(20,8,9,13)         -175.3716         calculate D2E/DX2 analytically  !
 ! D38   D(21,8,9,10)          122.517          calculate D2E/DX2 analytically  !
 ! D39   D(21,8,9,13)          -59.215          calculate D2E/DX2 analytically  !
 ! D40   D(8,9,10,11)          178.6945         calculate D2E/DX2 analytically  !
 ! D41   D(8,9,10,22)           -1.2916         calculate D2E/DX2 analytically  !
 ! D42   D(13,9,10,11)           0.2149         calculate D2E/DX2 analytically  !
 ! D43   D(13,9,10,22)        -179.7711         calculate D2E/DX2 analytically  !
 ! D44   D(8,9,13,12)         -178.8625         calculate D2E/DX2 analytically  !
 ! D45   D(8,9,13,24)            0.8159         calculate D2E/DX2 analytically  !
 ! D46   D(10,9,13,12)          -0.1809         calculate D2E/DX2 analytically  !
 ! D47   D(10,9,13,24)         179.4975         calculate D2E/DX2 analytically  !
 ! D48   D(9,10,11,12)          -0.1645         calculate D2E/DX2 analytically  !
 ! D49   D(22,10,11,12)        179.8226         calculate D2E/DX2 analytically  !
 ! D50   D(10,11,12,13)          0.0452         calculate D2E/DX2 analytically  !
 ! D51   D(10,11,12,23)        179.8721         calculate D2E/DX2 analytically  !
 ! D52   D(11,12,13,9)           0.0867         calculate D2E/DX2 analytically  !
 ! D53   D(11,12,13,24)       -179.5738         calculate D2E/DX2 analytically  !
 ! D54   D(23,12,13,9)        -179.7494         calculate D2E/DX2 analytically  !
 ! D55   D(23,12,13,24)          0.5901         calculate D2E/DX2 analytically  !
 ! D56   D(2,14,15,16)         176.1956         calculate D2E/DX2 analytically  !
 ! D57   D(2,14,15,27)          54.588          calculate D2E/DX2 analytically  !
 ! D58   D(2,14,15,28)         -62.1737         calculate D2E/DX2 analytically  !
 ! D59   D(25,14,15,16)        -61.2594         calculate D2E/DX2 analytically  !
 ! D60   D(25,14,15,27)        177.133          calculate D2E/DX2 analytically  !
 ! D61   D(25,14,15,28)         60.3713         calculate D2E/DX2 analytically  !
 ! D62   D(26,14,15,16)         56.9136         calculate D2E/DX2 analytically  !
 ! D63   D(26,14,15,27)        -64.694          calculate D2E/DX2 analytically  !
 ! D64   D(26,14,15,28)        178.5443         calculate D2E/DX2 analytically  !
 ! D65   D(14,15,16,29)        -59.739          calculate D2E/DX2 analytically  !
 ! D66   D(14,15,16,30)         60.3573         calculate D2E/DX2 analytically  !
 ! D67   D(14,15,16,31)       -179.565          calculate D2E/DX2 analytically  !
 ! D68   D(27,15,16,29)         61.0149         calculate D2E/DX2 analytically  !
 ! D69   D(27,15,16,30)       -178.8888         calculate D2E/DX2 analytically  !
 ! D70   D(27,15,16,31)        -58.8111         calculate D2E/DX2 analytically  !
 ! D71   D(28,15,16,29)        178.5249         calculate D2E/DX2 analytically  !
 ! D72   D(28,15,16,30)        -61.3788         calculate D2E/DX2 analytically  !
 ! D73   D(28,15,16,31)         58.6989         calculate D2E/DX2 analytically  !
 --------------------------------------------------------------------------------
 Trust Radius=3.00D-01 FncErr=1.00D-07 GrdErr=1.00D-06
 Number of steps in this run=    167 maximum allowed number of steps=    186.
 GradGradGradGradGradGradGradGradGradGradGradGradGradGradGradGradGradGrad

                          Input orientation:                          
 ---------------------------------------------------------------------
 Center     Atomic      Atomic             Coordinates (Angstroms)
 Number     Number       Type             X           Y           Z
 ---------------------------------------------------------------------
      1          8           0        0.488024   -1.044212   -0.128100
      2          6           0        1.123845   -0.017492   -0.373609
      3          7           0        0.490472    1.135943   -0.678403
      4          6           0       -0.952331    1.179802   -0.777899
      5          6           0       -1.313456    2.460537   -1.516985
      6          8           0       -2.628012    2.618957   -1.772967
      7          8           0       -0.510003    3.284664   -1.851898
      8          6           0       -1.638845    1.094382    0.620743
      9          6           0       -2.642701   -0.010178    0.702351
     10          6           0       -3.989868   -0.021681    0.905013
     11          7           0       -4.476793   -1.317343    0.866546
     12          6           0       -3.425194   -2.066739    0.639055
     13          7           0       -2.293636   -1.327439    0.530588
     14          6           0        2.639540    0.021364   -0.382610
     15          6           0        3.234388   -0.997902    0.573178
     16          7           0        4.720173   -1.027433    0.502220
     17          1           0        0.981373    1.940946   -1.037338
     18          1           0       -1.278962    0.340841   -1.403513
     19          1           0       -3.115548    1.846115   -1.464303
     20          1           0       -2.131516    2.034185    0.870539
     21          1           0       -0.863674    0.942566    1.369359
     22          1           0       -4.644919    0.820583    1.076687
     23          1           0       -3.413057   -3.138350    0.545338
     24          1           0       -1.352539   -1.645316    0.352137
     25          1           0        2.982476    1.027973   -0.135904
     26          1           0        2.975428   -0.200789   -1.399690
     27          1           0        2.830344   -1.978956    0.327855
     28          1           0        2.924933   -0.767636    1.592065
     29          1           0        5.038567   -1.265120   -0.437119
     30          1           0        5.124010   -0.122922    0.746146
     31          1           0        5.117207   -1.718407    1.140508
 ---------------------------------------------------------------------
                    Distance matrix (angstroms):
                    1          2          3          4          5
     1  O    0.000000
     2  C    1.232354   0.000000
     3  N    2.248537   1.350731   0.000000
     4  C    2.728204   2.430528   1.446894   0.000000
     5  C    4.178230   3.659013   2.389964   1.522151   0.000000
     6  O    5.082723   4.794319   3.622478   2.422651   1.348584
     7  O    4.765156   3.969765   2.644815   2.404075   1.198704
     8  C    3.107719   3.139658   2.494694   1.560384   2.557761
     9  C    3.400046   3.917220   3.610658   2.542547   3.577259
    10  C    4.707909   5.271143   4.890884   3.674559   4.380715
    11  N    5.070831   5.881729   5.751453   4.621879   5.473600
    12  C    4.116718   5.091037   5.227362   4.320050   5.440972
    13  N    2.872580   3.769975   3.909114   3.130095   4.416115
    14  C    2.414384   1.516220   2.438908   3.794702   4.781480
    15  C    2.834863   2.512369   3.694431   4.908809   6.083787
    16  N    4.278863   3.836747   4.895348   6.219959   7.255881
    17  H    3.159316   2.072755   1.008884   2.094244   2.401308
    18  H    2.582110   2.638672   2.070959   1.096328   2.123011
    19  H    4.808863   4.757636   3.758373   2.365298   1.904685
    20  H    4.163628   4.044089   3.175040   2.199499   2.559545
    21  H    2.831388   2.812451   2.462608   2.162142   3.292040
    22  H    5.592502   6.007027   5.436179   4.147739   4.529374
    23  H    4.478545   5.582804   5.916475   5.143206   6.325270
    24  H    1.994900   3.051065   3.492006   3.068947   4.511449
    25  H    3.242885   2.145696   2.552655   3.989726   4.734413
    26  H    2.918130   2.124806   2.912407   4.209506   5.048856
    27  H    2.562831   2.692866   4.023699   5.050650   6.346938
    28  H    2.995661   2.769568   3.834741   4.943927   6.168569
    29  H    4.566370   4.109216   5.148639   6.479555   7.442771
    30  H    4.806813   4.155272   5.008368   6.398572   7.296369
    31  H    4.846983   4.597021   5.732576   6.994225   8.116605
                    6          7          8          9         10
     6  O    0.000000
     7  O    2.221567   0.000000
     8  C    3.005433   3.490785   0.000000
     9  C    3.611062   4.682796   1.494804   0.000000
    10  C    3.999900   5.535516   2.617960   1.362374   0.000000
    11  N    5.087188   6.656113   3.732397   2.258215   1.384672
    12  C    5.330018   6.583366   3.630986   2.201305   2.138189
    13  N    4.581727   5.488997   2.510398   1.373509   2.173109
    14  C    6.035535   4.767343   4.523567   5.392607   6.753434
    15  C    7.276935   6.183997   5.303612   5.960910   7.297465
    16  N    8.512841   7.175709   6.704718   7.435508   8.777163
    17  H    3.745465   2.166400   3.214256   4.468480   5.686639
    18  H    2.673246   3.075458   2.189737   2.533310   3.579067
    19  H    0.964495   3.001420   2.663301   2.892023   3.141139
    20  H    2.752561   3.406562   1.090116   2.114005   2.771506
    21  H    3.974593   3.998376   1.088285   2.125455   3.304312
    22  H    3.927161   5.634345   3.052759   2.199811   1.080728
    23  H    6.255991   7.445105   4.590156   3.225455   3.189938
    24  H    4.932232   5.465559   2.767681   2.112070   3.146007
    25  H    6.057127   4.498300   4.683325   5.781267   7.127332
    26  H    6.284015   4.949859   5.201070   6.001524   7.338875
    27  H    7.439617   6.604161   5.431835   5.828426   7.118941
    28  H    7.323090   6.330940   5.023807   5.688926   6.988774
    29  H    8.697527   7.313601   7.160597   7.866076   9.211954
    30  H    8.599865   7.078388   6.872682   7.767653   9.115825
    31  H    9.342884   8.102513   7.336632   7.957776   9.266777
                   11         12         13         14         15
    11  N    0.000000
    12  C    1.311184   0.000000
    13  N    2.208878   1.356006   0.000000
    14  C    7.348110   6.494996   5.195135   0.000000
    15  C    7.723368   6.745130   5.538001   1.518643   0.000000
    16  N    9.208744   8.212544   7.020279   2.492375   1.487772
    17  H    6.635721   6.187864   4.885327   2.619729   4.038151
    18  H    4.257800   3.817700   2.748357   4.061892   5.105866
    19  H    4.158523   4.453136   3.837522   6.133581   7.249927
    20  H    4.090609   4.306363   3.382657   5.327739   6.170486
    21  H    4.291228   4.018786   2.810917   4.023744   4.603632
    22  H    2.154798   3.164787   3.231216   7.472058   8.102091
    23  H    2.133254   1.075771   2.129019   6.890487   6.983611
    24  H    3.183259   2.134436   1.009234   4.387980   4.637662
    25  H    7.883280   7.157936   5.816316   1.091664   2.161117
    26  H    7.868807   6.971816   5.723491   1.093903   2.143515
    27  H    7.356776   6.263889   5.169211   2.131302   1.088992
    28  H    7.457486   6.551336   5.354771   2.145533   1.089456
    29  H    9.604392   8.569481   7.396049   2.722746   2.084987
    30  H    9.675565   8.768055   7.517899   2.732673   2.089541
    31  H    9.606287   8.564194   7.446170   3.389031   2.094278
                   16         17         18         19         20
    16  N    0.000000
    17  H    5.015988   0.000000
    18  H    6.441554   2.793480   0.000000
    19  H    8.574556   4.120201   2.375414   0.000000
    20  H    7.513641   3.652227   2.960670   2.540704   0.000000
    21  H    5.984327   3.192671   2.867639   3.730547   1.745817
    22  H    9.562956   6.113876   4.208469   3.138044   2.798664
    23  H    8.402813   6.900372   4.522959   5.382570   5.338841
    24  H    6.105910   4.498784   2.651893   4.312510   3.796613
    25  H    2.766132   2.377082   4.498760   6.294434   5.308324
    26  H    2.710118   2.948658   4.288731   6.426040   6.019130
    27  H    2.123030   4.544015   5.026479   7.293602   6.404675
    28  H    2.116163   4.245892   5.279672   7.256755   5.825674
    29  H    1.019915   5.205761   6.589705   8.787746   8.000342
    30  H    1.020159   4.960021   6.770093   8.755199   7.570419
    31  H    1.021026   5.936245   7.184952   9.341794   8.166934
                   21         22         23         24         25
    21  H    0.000000
    22  H    3.794517   0.000000
    23  H    4.881828   4.180068   0.000000
    24  H    2.823271   4.176768   2.551904   0.000000
    25  H    4.131099   7.725966   7.663236   5.116348   0.000000
    26  H    4.869661   8.077459   7.295557   4.887418   1.762686
    27  H    4.823462   8.017339   6.353861   4.196238   3.046283
    28  H    4.162683   7.751820   6.847338   4.539219   2.492670
    29  H    6.555432  10.020563   8.712300   6.450869   3.094595
    30  H    6.113593   9.819951   9.056194   6.664730   2.586260
    31  H    6.550121  10.087104   8.668095   6.518013   3.705254
                   26         27         28         29         30
    26  H    0.000000
    27  H    2.483413   0.000000
    28  H    3.045401   1.753416   0.000000
    29  H    2.513143   2.443562   2.971957   0.000000
    30  H    3.037611   2.980057   2.442781   1.646825   0.000000
    31  H    3.652806   2.440909   2.431858   1.643339   1.643515
                   31
    31  H    0.000000
 Symmetry turned off by external request.
 Stoichiometry    C9H15N4O3(1+)
 Framework group  C1[X(C9H15N4O3)]
 Deg. of freedom    87
 Full point group                 C1      NOp   1
 Rotational constants (GHZ):      0.6579548      0.3092405      0.2195217
 Standard basis: 6-311G(d,p) (5D, 7F)
   378 basis functions,   632 primitive gaussians,   394 cartesian basis functions
    60 alpha electrons       60 beta electrons
       nuclear repulsion energy      1130.0178159133 Hartrees.
 NAtoms=   31 NActive=   31 NUniq=   31 SFac= 1.00D+00 NAtFMM=   60 NAOKFM=F Big=F
 Integral buffers will be    131072 words long.
 Raffenetti 2 integral format.
 Two-electron integral symmetry is turned off.
 Nuclear repulsion after empirical dispersion term =     1129.9621763981 Hartrees.
 One-electron integrals computed using PRISM.
 NBasis=   378 RedAO= T EigKep=  5.46D-04  NBF=   378
 NBsUse=   378 1.00D-06 EigRej= -1.00D+00 NBFU=   378
 ExpMin= 1.03D-01 ExpMax= 8.59D+03 ExpMxC= 1.30D+03 IAcc=3 IRadAn=         5 AccDes= 0.00D+00
 Harris functional with IExCor=  402 and IRadAn=       5 diagonalized for initial guess.
 HarFok:  IExCor=  402 AccDes= 0.00D+00 IRadAn=         5 IDoV= 1 UseB2=F ITyADJ=14
 ICtDFT=  3500011 ScaDFX=  1.000000  1.000000  1.000000  1.000000
 FoFCou: FMM=F IPFlag=           0 FMFlag=      100000 FMFlg1=           0
         NFxFlg=           0 DoJE=T BraDBF=F KetDBF=T FulRan=T
         wScrn=  0.000000 ICntrl=     500 IOpCl=  0 I1Cent=   200000004 NGrid=           0
         NMat0=    1 NMatS0=      1 NMatT0=    0 NMatD0=    1 NMtDS0=    0 NMtDT0=    0
 Symmetry not used in FoFCou.
 Requested convergence on RMS density matrix=1.00D-08 within 128 cycles.
 Requested convergence on MAX density matrix=1.00D-06.
 Requested convergence on             energy=1.00D-06.
 No special actions if energy rises.
 Integral accuracy reduced to 1.0D-05 until final iterations.
 EnCoef did     2 forward-backward iterations
 EnCoef did     2 forward-backward iterations
 Initial convergence to 1.0D-05 achieved.  Increase integral accuracy.
 SCF Done:  E(RB3LYP) =  -796.718705038     A.U. after   17 cycles
            NFock= 17  Conv=0.78D-08     -V/T= 2.0034
 DoSCS=F DFT=T ScalE2(SS,OS)=  1.000000  1.000000
 Range of M.O.s used for correlation:     1   378
 NBasis=   378 NAE=    60 NBE=    60 NFC=     0 NFV=     0
 NROrb=    378 NOA=    60 NOB=    60 NVA=   318 NVB=   318
 Symmetrizing basis deriv contribution to polar:
 IMax=3 JMax=2 DiffMx= 0.00D+00
 G2DrvN: will do    32 centers at a time, making    1 passes.
 Calling FoFCou, ICntrl=  3107 FMM=F I1Cent=   0 AccDes= 0.00D+00.
 End of G2Drv F.D. properties file   721 does not exist.
 End of G2Drv F.D. properties file   722 does not exist.
 End of G2Drv F.D. properties file   788 does not exist.
          IDoAtm=1111111111111111111111111111111
          Differentiating once with respect to nuclear coordinates.
          There are    96 degrees of freedom in the 1st order CPHF.  IDoFFX=6 NUNeed=     0.
     90 vectors produced by pass  0 Test12= 1.99D-14 1.04D-09 XBig12= 1.82D-01 8.58D-02.
 AX will form    90 AO Fock derivatives at one time.
     90 vectors produced by pass  1 Test12= 1.99D-14 1.04D-09 XBig12= 2.50D-02 3.19D-02.
     90 vectors produced by pass  2 Test12= 1.99D-14 1.04D-09 XBig12= 2.33D-04 2.26D-03.
     90 vectors produced by pass  3 Test12= 1.99D-14 1.04D-09 XBig12= 1.01D-06 1.17D-04.
     90 vectors produced by pass  4 Test12= 1.99D-14 1.04D-09 XBig12= 3.44D-09 6.26D-06.
     82 vectors produced by pass  5 Test12= 1.99D-14 1.04D-09 XBig12= 4.76D-12 1.72D-07.
     22 vectors produced by pass  6 Test12= 1.99D-14 1.04D-09 XBig12= 5.44D-15 5.82D-09.
      2 vectors produced by pass  7 Test12= 1.99D-14 1.04D-09 XBig12= 1.08D-16 1.15D-09.
 InvSVY:  IOpt=1 It=  1 EMax= 5.55D-16
 Solved reduced A of dimension   556 with    96 vectors.
 End of Minotr F.D. properties file   721 does not exist.
 End of Minotr F.D. properties file   722 does not exist.
 End of Minotr F.D. properties file   788 does not exist.

 **********************************************************************

            Population analysis using the SCF density.

 **********************************************************************

 Alpha  occ. eigenvalues --  -19.27030 -19.24142 -19.21964 -14.65908 -14.48082
 Alpha  occ. eigenvalues --  -14.43821 -14.36091 -10.43397 -10.43035 -10.41583
 Alpha  occ. eigenvalues --  -10.37307 -10.35143 -10.29943 -10.29641 -10.28658
 Alpha  occ. eigenvalues --  -10.25974  -1.23151  -1.21726  -1.19650  -1.14012
 Alpha  occ. eigenvalues --   -1.09768  -1.07420  -0.98845  -0.95020  -0.91517
 Alpha  occ. eigenvalues --   -0.87151  -0.83770  -0.81343  -0.80595  -0.77815
 Alpha  occ. eigenvalues --   -0.73911  -0.72021  -0.71776  -0.69873  -0.68430
 Alpha  occ. eigenvalues --   -0.67370  -0.66391  -0.64360  -0.62098  -0.60550
 Alpha  occ. eigenvalues --   -0.59295  -0.58650  -0.57379  -0.56382  -0.55229
 Alpha  occ. eigenvalues --   -0.54750  -0.53144  -0.51356  -0.50487  -0.49738
 Alpha  occ. eigenvalues --   -0.49434  -0.48854  -0.48469  -0.43162  -0.42263
 Alpha  occ. eigenvalues --   -0.40811  -0.39476  -0.35877  -0.34204  -0.31398
 Alpha virt. eigenvalues --   -0.20086  -0.15012  -0.13772  -0.13200  -0.11359
 Alpha virt. eigenvalues --   -0.10464  -0.08341  -0.06957  -0.06499  -0.04703
 Alpha virt. eigenvalues --   -0.04656  -0.04128  -0.02486  -0.02360  -0.01986
 Alpha virt. eigenvalues --   -0.01042  -0.00557   0.00414   0.01494   0.02667
 Alpha virt. eigenvalues --    0.03947   0.04607   0.07043   0.08135   0.08528
 Alpha virt. eigenvalues --    0.10082   0.11288   0.12539   0.12773   0.13368
 Alpha virt. eigenvalues --    0.13707   0.15586   0.15749   0.17622   0.20059
 Alpha virt. eigenvalues --    0.21407   0.22440   0.23521   0.24132   0.25002
 Alpha virt. eigenvalues --    0.26139   0.27126   0.28195   0.29344   0.30210
 Alpha virt. eigenvalues --    0.30814   0.31351   0.32189   0.33526   0.33754
 Alpha virt. eigenvalues --    0.34930   0.35736   0.36396   0.36925   0.37665
 Alpha virt. eigenvalues --    0.38412   0.38896   0.39713   0.40683   0.41140
 Alpha virt. eigenvalues --    0.41718   0.42074   0.42900   0.43112   0.44594
 Alpha virt. eigenvalues --    0.45257   0.45639   0.47196   0.47421   0.49143
 Alpha virt. eigenvalues --    0.50112   0.50645   0.51494   0.51892   0.51915
 Alpha virt. eigenvalues --    0.53626   0.53936   0.54430   0.55338   0.56694
 Alpha virt. eigenvalues --    0.59752   0.60612   0.62886   0.63295   0.64192
 Alpha virt. eigenvalues --    0.64579   0.67092   0.67553   0.68905   0.70407
 Alpha virt. eigenvalues --    0.71398   0.73057   0.73813   0.78086   0.78885
 Alpha virt. eigenvalues --    0.79646   0.79920   0.83082   0.83879   0.85950
 Alpha virt. eigenvalues --    0.86953   0.88512   0.90607   0.91164   0.93521
 Alpha virt. eigenvalues --    0.94339   0.96380   0.97728   0.99311   1.02248
 Alpha virt. eigenvalues --    1.02765   1.03745   1.05616   1.06687   1.08628
 Alpha virt. eigenvalues --    1.09288   1.11483   1.11836   1.12762   1.15381
 Alpha virt. eigenvalues --    1.18027   1.19500   1.20637   1.21944   1.22379
 Alpha virt. eigenvalues --    1.23705   1.24462   1.26104   1.27025   1.29137
 Alpha virt. eigenvalues --    1.29805   1.30745   1.32176   1.35239   1.35945
 Alpha virt. eigenvalues --    1.37003   1.38372   1.40215   1.40707   1.41572
 Alpha virt. eigenvalues --    1.44286   1.45389   1.46364   1.46850   1.47312
 Alpha virt. eigenvalues --    1.48091   1.48152   1.48766   1.49944   1.51842
 Alpha virt. eigenvalues --    1.52070   1.53868   1.55472   1.56216   1.56900
 Alpha virt. eigenvalues --    1.58152   1.59382   1.60561   1.61362   1.63074
 Alpha virt. eigenvalues --    1.63248   1.63893   1.65680   1.67968   1.69525
 Alpha virt. eigenvalues --    1.69920   1.71715   1.74803   1.76005   1.77073
 Alpha virt. eigenvalues --    1.77934   1.80286   1.80976   1.82868   1.84179
 Alpha virt. eigenvalues --    1.85873   1.87185   1.88709   1.90526   1.92243
 Alpha virt. eigenvalues --    1.94074   1.96119   1.96526   1.99205   1.99809
 Alpha virt. eigenvalues --    2.02635   2.03425   2.05794   2.07731   2.09324
 Alpha virt. eigenvalues --    2.10459   2.12707   2.15655   2.16468   2.16975
 Alpha virt. eigenvalues --    2.18040   2.20642   2.21066   2.24797   2.26350
 Alpha virt. eigenvalues --    2.28332   2.29608   2.31581   2.33036   2.34925
 Alpha virt. eigenvalues --    2.36808   2.37357   2.38203   2.39274   2.40049
 Alpha virt. eigenvalues --    2.40301   2.43195   2.44380   2.46568   2.46786
 Alpha virt. eigenvalues --    2.47998   2.48502   2.50782   2.50839   2.52089
 Alpha virt. eigenvalues --    2.53324   2.54583   2.56313   2.57712   2.59135
 Alpha virt. eigenvalues --    2.60272   2.61610   2.63664   2.64233   2.66328
 Alpha virt. eigenvalues --    2.66674   2.69244   2.71906   2.74702   2.74749
 Alpha virt. eigenvalues --    2.75965   2.76775   2.77647   2.78543   2.79162
 Alpha virt. eigenvalues --    2.80868   2.83308   2.84563   2.85608   2.86133
 Alpha virt. eigenvalues --    2.88209   2.92135   2.94229   2.95413   2.98428
 Alpha virt. eigenvalues --    3.00186   3.07538   3.07621   3.09857   3.16583
 Alpha virt. eigenvalues --    3.18167   3.19143   3.20536   3.24352   3.26082
 Alpha virt. eigenvalues --    3.29885   3.39297   3.41486   3.42935   3.46075
 Alpha virt. eigenvalues --    3.49936   3.53637   3.57906   3.59083   3.60508
 Alpha virt. eigenvalues --    3.62389   3.63888   3.71206   3.72517   3.73971
 Alpha virt. eigenvalues --    3.75297   3.75354   3.79192   3.80910   3.88403
 Alpha virt. eigenvalues --    3.91180   4.05415   4.11954   4.23576   4.34563
 Alpha virt. eigenvalues --    4.41405   4.41705   4.56232   4.68908   4.71197
 Alpha virt. eigenvalues --    4.71919   4.80717   4.81475   4.81986   4.86980
 Alpha virt. eigenvalues --    4.94797   5.04340   5.17705   5.19657   5.43590
 Alpha virt. eigenvalues --    5.54388   5.69580  23.58783  23.62477  23.64967
 Alpha virt. eigenvalues --   23.65950  23.67525  23.69665  23.81072  23.84742
 Alpha virt. eigenvalues --   24.08179  35.27463  35.44560  35.46646  35.61666
 Alpha virt. eigenvalues --   49.74381  49.85556  49.90079
          Condensed to atoms (all electrons):
               1          2          3          4          5          6
     1  O    7.954337   0.588259  -0.097593   0.004196   0.000633  -0.000001
     2  C    0.588259   4.469694   0.398971  -0.062670   0.006383  -0.000132
     3  N   -0.097593   0.398971   6.720345   0.190454  -0.011055   0.002760
     4  C    0.004196  -0.062670   0.190454   5.576071   0.228038  -0.105042
     5  C    0.000633   0.006383  -0.011055   0.228038   4.434266   0.368857
     6  O   -0.000001  -0.000132   0.002760  -0.105042   0.368857   7.743457
     7  O   -0.000008  -0.000062  -0.009307  -0.109286   0.666602  -0.067614
     8  C    0.005641  -0.008778  -0.046509   0.245655  -0.037760   0.013335
     9  C   -0.005000   0.001190   0.006576  -0.070913  -0.002301  -0.004346
    10  C    0.000058   0.000006  -0.000012  -0.001799  -0.000246  -0.000171
    11  N   -0.000009   0.000001   0.000001  -0.000208   0.000002   0.000001
    12  C    0.000052   0.000053  -0.000008   0.000194   0.000015   0.000009
    13  N   -0.009512   0.000335  -0.000078  -0.000269   0.000191   0.000009
    14  C   -0.094622   0.300634  -0.081074   0.008627  -0.000129   0.000000
    15  C    0.010076  -0.037674   0.002543  -0.000347  -0.000006   0.000000
    16  N    0.000247   0.003227  -0.000008   0.000000   0.000000   0.000000
    17  H    0.002404  -0.024878   0.354408  -0.059830  -0.007254   0.002087
    18  H    0.007023  -0.005833  -0.034499   0.408011  -0.023006   0.003164
    19  H   -0.000017   0.000107   0.000139   0.002262  -0.033359   0.309919
    20  H    0.000169   0.000226   0.002561  -0.042132  -0.003891   0.004309
    21  H   -0.000227   0.003249  -0.003072  -0.059323   0.001873   0.000306
    22  H    0.000001   0.000000   0.000001  -0.000078  -0.000021   0.000045
    23  H   -0.000067   0.000007  -0.000001   0.000013   0.000000   0.000000
    24  H    0.026918  -0.004584   0.000454   0.000480  -0.000006  -0.000004
    25  H    0.002629  -0.025892   0.007463   0.000490  -0.000074  -0.000001
    26  H    0.000510  -0.015816  -0.002159  -0.000227   0.000003   0.000000
    27  H    0.019689  -0.000393   0.001477  -0.000018  -0.000001   0.000000
    28  H    0.001659  -0.000380   0.000385  -0.000065  -0.000001   0.000000
    29  H    0.000025  -0.000029  -0.000002   0.000000   0.000000   0.000000
    30  H    0.000027   0.000047  -0.000002   0.000000   0.000000   0.000000
    31  H    0.000034  -0.000188   0.000006   0.000000   0.000000   0.000000
               7          8          9         10         11         12
     1  O   -0.000008   0.005641  -0.005000   0.000058  -0.000009   0.000052
     2  C   -0.000062  -0.008778   0.001190   0.000006   0.000001   0.000053
     3  N   -0.009307  -0.046509   0.006576  -0.000012   0.000001  -0.000008
     4  C   -0.109286   0.245655  -0.070913  -0.001799  -0.000208   0.000194
     5  C    0.666602  -0.037760  -0.002301  -0.000246   0.000002   0.000015
     6  O   -0.067614   0.013335  -0.004346  -0.000171   0.000001   0.000009
     7  O    7.781709   0.001025   0.000160   0.000000   0.000000   0.000000
     8  C    0.001025   5.126292   0.212977  -0.023689   0.007964   0.005467
     9  C    0.000160   0.212977   5.243137   0.541196  -0.094671  -0.126373
    10  C    0.000000  -0.023689   0.541196   4.851983   0.506655  -0.176032
    11  N    0.000000   0.007964  -0.094671   0.506655   6.413132   0.580132
    12  C    0.000000   0.005467  -0.126373  -0.176032   0.580132   4.727783
    13  N   -0.000001  -0.061361   0.385008  -0.071562  -0.087513   0.424522
    14  C   -0.000186  -0.001380   0.000052   0.000001   0.000000   0.000002
    15  C    0.000000   0.000212  -0.000023   0.000000   0.000000   0.000000
    16  N    0.000000   0.000000   0.000000   0.000000   0.000000   0.000000
    17  H    0.045851   0.005735  -0.000650   0.000002   0.000000   0.000000
    18  H    0.001300  -0.060978  -0.000072  -0.000342  -0.000368   0.000288
    19  H    0.003364  -0.002362   0.011999   0.006908  -0.000101  -0.000444
    20  H    0.000001   0.414454  -0.036991   0.001171   0.000164  -0.000205
    21  H   -0.000315   0.414836  -0.035747  -0.002199  -0.000285   0.000540
    22  H    0.000001   0.000213  -0.055078   0.426347  -0.022838   0.008113
    23  H    0.000000  -0.000449   0.004265   0.006511  -0.022084   0.415835
    24  H    0.000001   0.002158  -0.034420   0.006955   0.005404  -0.021697
    25  H   -0.000216  -0.000120   0.000021   0.000000   0.000000   0.000000
    26  H    0.000000  -0.000044   0.000004   0.000000   0.000000   0.000000
    27  H    0.000000   0.000009   0.000002   0.000000   0.000000  -0.000002
    28  H    0.000000   0.000025  -0.000003   0.000000   0.000000   0.000000
    29  H    0.000000   0.000000   0.000000   0.000000   0.000000   0.000000
    30  H    0.000000   0.000000   0.000000   0.000000   0.000000   0.000000
    31  H    0.000000   0.000000   0.000000   0.000000   0.000000   0.000000
              13         14         15         16         17         18
     1  O   -0.009512  -0.094622   0.010076   0.000247   0.002404   0.007023
     2  C    0.000335   0.300634  -0.037674   0.003227  -0.024878  -0.005833
     3  N   -0.000078  -0.081074   0.002543  -0.000008   0.354408  -0.034499
     4  C   -0.000269   0.008627  -0.000347   0.000000  -0.059830   0.408011
     5  C    0.000191  -0.000129  -0.000006   0.000000  -0.007254  -0.023006
     6  O    0.000009   0.000000   0.000000   0.000000   0.002087   0.003164
     7  O   -0.000001  -0.000186   0.000000   0.000000   0.045851   0.001300
     8  C   -0.061361  -0.001380   0.000212   0.000000   0.005735  -0.060978
     9  C    0.385008   0.000052  -0.000023   0.000000  -0.000650  -0.000072
    10  C   -0.071562   0.000001   0.000000   0.000000   0.000002  -0.000342
    11  N   -0.087513   0.000000   0.000000   0.000000   0.000000  -0.000368
    12  C    0.424522   0.000002   0.000000   0.000000   0.000000   0.000288
    13  N    6.455535  -0.000024  -0.000003   0.000000  -0.000003   0.008453
    14  C   -0.000024   5.164127   0.302667  -0.041532  -0.000531   0.001095
    15  C   -0.000003   0.302667   5.011046   0.220604   0.000178  -0.000147
    16  N    0.000000  -0.041532   0.220604   6.100298  -0.000023   0.000000
    17  H   -0.000003  -0.000531   0.000178  -0.000023   0.426946   0.005367
    18  H    0.008453   0.001095  -0.000147   0.000000   0.005367   0.487353
    19  H   -0.000655   0.000000   0.000000   0.000000  -0.000514   0.000382
    20  H    0.003338   0.000059  -0.000006   0.000000   0.000416   0.004695
    21  H   -0.001119  -0.000489   0.000022   0.000000  -0.000250   0.002095
    22  H    0.004070   0.000000   0.000000   0.000000  -0.000001   0.000080
    23  H   -0.037663   0.000000   0.000000   0.000000   0.000000   0.000063
    24  H    0.348458   0.000316   0.000067   0.000001  -0.000078  -0.000092
    25  H    0.000002   0.390699  -0.040377  -0.002148  -0.001428   0.000060
    26  H    0.000000   0.392246  -0.038404  -0.002301   0.000175   0.000081
    27  H   -0.000008  -0.043092   0.396141  -0.020702  -0.000103  -0.000028
    28  H    0.000001  -0.032105   0.399723  -0.021870   0.000004   0.000004
    29  H    0.000000  -0.001039  -0.029484   0.357937  -0.000001   0.000000
    30  H    0.000000  -0.002497  -0.024314   0.356274   0.000002   0.000000
    31  H    0.000000   0.005312  -0.026092   0.362125   0.000001   0.000000
              19         20         21         22         23         24
     1  O   -0.000017   0.000169  -0.000227   0.000001  -0.000067   0.026918
     2  C    0.000107   0.000226   0.003249   0.000000   0.000007  -0.004584
     3  N    0.000139   0.002561  -0.003072   0.000001  -0.000001   0.000454
     4  C    0.002262  -0.042132  -0.059323  -0.000078   0.000013   0.000480
     5  C   -0.033359  -0.003891   0.001873  -0.000021   0.000000  -0.000006
     6  O    0.309919   0.004309   0.000306   0.000045   0.000000  -0.000004
     7  O    0.003364   0.000001  -0.000315   0.000001   0.000000   0.000001
     8  C   -0.002362   0.414454   0.414836   0.000213  -0.000449   0.002158
     9  C    0.011999  -0.036991  -0.035747  -0.055078   0.004265  -0.034420
    10  C    0.006908   0.001171  -0.002199   0.426347   0.006511   0.006955
    11  N   -0.000101   0.000164  -0.000285  -0.022838  -0.022084   0.005404
    12  C   -0.000444  -0.000205   0.000540   0.008113   0.415835  -0.021697
    13  N   -0.000655   0.003338  -0.001119   0.004070  -0.037663   0.348458
    14  C    0.000000   0.000059  -0.000489   0.000000   0.000000   0.000316
    15  C    0.000000  -0.000006   0.000022   0.000000   0.000000   0.000067
    16  N    0.000000   0.000000   0.000000   0.000000   0.000000   0.000001
    17  H   -0.000514   0.000416  -0.000250  -0.000001   0.000000  -0.000078
    18  H    0.000382   0.004695   0.002095   0.000080   0.000063  -0.000092
    19  H    0.442532  -0.000720   0.001019   0.000462   0.000001  -0.000006
    20  H   -0.000720   0.497874  -0.014824   0.001946   0.000015  -0.000069
    21  H    0.001019  -0.014824   0.542507  -0.000078  -0.000005   0.000815
    22  H    0.000462   0.001946  -0.000078   0.525554  -0.000326  -0.000287
    23  H    0.000001   0.000015  -0.000005  -0.000326   0.518034  -0.002604
    24  H   -0.000006  -0.000069   0.000815  -0.000287  -0.002604   0.423336
    25  H    0.000002  -0.000010   0.000085   0.000000   0.000000  -0.000038
    26  H    0.000000   0.000003   0.000027   0.000000   0.000000  -0.000007
    27  H    0.000000  -0.000001   0.000010   0.000000   0.000000   0.000142
    28  H    0.000000   0.000001   0.000138   0.000000   0.000000   0.000019
    29  H    0.000000   0.000000   0.000000   0.000000   0.000000   0.000000
    30  H    0.000000   0.000000   0.000000   0.000000   0.000000   0.000000
    31  H    0.000000   0.000000   0.000000   0.000000   0.000000   0.000000
              25         26         27         28         29         30
     1  O    0.002629   0.000510   0.019689   0.001659   0.000025   0.000027
     2  C   -0.025892  -0.015816  -0.000393  -0.000380  -0.000029   0.000047
     3  N    0.007463  -0.002159   0.001477   0.000385  -0.000002  -0.000002
     4  C    0.000490  -0.000227  -0.000018  -0.000065   0.000000   0.000000
     5  C   -0.000074   0.000003  -0.000001  -0.000001   0.000000   0.000000
     6  O   -0.000001   0.000000   0.000000   0.000000   0.000000   0.000000
     7  O   -0.000216   0.000000   0.000000   0.000000   0.000000   0.000000
     8  C   -0.000120  -0.000044   0.000009   0.000025   0.000000   0.000000
     9  C    0.000021   0.000004   0.000002  -0.000003   0.000000   0.000000
    10  C    0.000000   0.000000   0.000000   0.000000   0.000000   0.000000
    11  N    0.000000   0.000000   0.000000   0.000000   0.000000   0.000000
    12  C    0.000000   0.000000  -0.000002   0.000000   0.000000   0.000000
    13  N    0.000002   0.000000  -0.000008   0.000001   0.000000   0.000000
    14  C    0.390699   0.392246  -0.043092  -0.032105  -0.001039  -0.002497
    15  C   -0.040377  -0.038404   0.396141   0.399723  -0.029484  -0.024314
    16  N   -0.002148  -0.002301  -0.020702  -0.021870   0.357937   0.356274
    17  H   -0.001428   0.000175  -0.000103   0.000004  -0.000001   0.000002
    18  H    0.000060   0.000081  -0.000028   0.000004   0.000000   0.000000
    19  H    0.000002   0.000000   0.000000   0.000000   0.000000   0.000000
    20  H   -0.000010   0.000003  -0.000001   0.000001   0.000000   0.000000
    21  H    0.000085   0.000027   0.000010   0.000138   0.000000   0.000000
    22  H    0.000000   0.000000   0.000000   0.000000   0.000000   0.000000
    23  H    0.000000   0.000000   0.000000   0.000000   0.000000   0.000000
    24  H   -0.000038  -0.000007   0.000142   0.000019   0.000000   0.000000
    25  H    0.529692  -0.021137   0.006926  -0.005410  -0.000461   0.004522
    26  H   -0.021137   0.511366  -0.004882   0.006366   0.005883  -0.000741
    27  H    0.006926  -0.004882   0.453864  -0.017146  -0.003907   0.004555
    28  H   -0.005410   0.006366  -0.017146   0.473459   0.005193  -0.004275
    29  H   -0.000461   0.005883  -0.003907   0.005193   0.390886  -0.016717
    30  H    0.004522  -0.000741   0.004555  -0.004275  -0.016717   0.392362
    31  H   -0.000209  -0.000210  -0.002487  -0.003408  -0.014810  -0.015211
              31
     1  O    0.000034
     2  C   -0.000188
     3  N    0.000006
     4  C    0.000000
     5  C    0.000000
     6  O    0.000000
     7  O    0.000000
     8  C    0.000000
     9  C    0.000000
    10  C    0.000000
    11  N    0.000000
    12  C    0.000000
    13  N    0.000000
    14  C    0.005312
    15  C   -0.026092
    16  N    0.362125
    17  H    0.000001
    18  H    0.000000
    19  H    0.000000
    20  H    0.000000
    21  H    0.000000
    22  H    0.000000
    23  H    0.000000
    24  H    0.000000
    25  H   -0.000209
    26  H   -0.000210
    27  H   -0.002487
    28  H   -0.003408
    29  H   -0.014810
    30  H   -0.015211
    31  H    0.379393
 Mulliken charges:
               1
     1  O   -0.417532
     2  C    0.414919
     3  N   -0.403162
     4  C   -0.152282
     5  C    0.412245
     6  O   -0.270946
     7  O   -0.313017
     8  C   -0.212566
     9  C    0.060000
    10  C   -0.071739
    11  N   -0.285377
    12  C    0.161754
    13  N   -0.360149
    14  C   -0.267138
    15  C   -0.146402
    16  N   -0.312128
    17  H    0.251969
    18  H    0.195851
    19  H    0.259082
    20  H    0.167448
    21  H    0.150409
    22  H    0.111873
    23  H    0.118453
    24  H    0.248367
    25  H    0.154928
    26  H    0.169262
    27  H    0.209955
    28  H    0.197687
    29  H    0.306525
    30  H    0.305968
    31  H    0.315744
 Sum of Mulliken charges =   1.00000
 Mulliken charges with hydrogens summed into heavy atoms:
               1
     1  O   -0.417532
     2  C    0.414919
     3  N   -0.151193
     4  C    0.043569
     5  C    0.412245
     6  O   -0.011864
     7  O   -0.313017
     8  C    0.105292
     9  C    0.060000
    10  C    0.040134
    11  N   -0.285377
    12  C    0.280207
    13  N   -0.111782
    14  C    0.057051
    15  C    0.261240
    16  N    0.616108
 APT charges:
               1
     1  O   -0.434421
     2  C    0.206041
     3  N   -0.612283
     4  C   -0.349864
     5  C   -0.731516
     6  O    0.270867
     7  O    0.378425
     8  C   -0.779639
     9  C   -0.406162
    10  C   -0.636975
    11  N    0.797102
    12  C   -0.786562
    13  N   -0.462277
    14  C   -0.811145
    15  C   -0.095008
    16  N   -1.595118
    17  H    0.635510
    18  H    0.321225
    19  H    0.246664
    20  H    0.605562
    21  H    0.169664
    22  H    0.767617
    23  H    0.665758
    24  H    0.056901
    25  H    0.383558
    26  H    0.483038
    27  H    0.216539
    28  H    0.170640
    29  H    0.673673
    30  H    0.639291
    31  H    1.012894
 Sum of APT charges =   1.00000
 APT charges with hydrogens summed into heavy atoms:
               1
     1  O   -0.434421
     2  C    0.206041
     3  N    0.023227
     4  C   -0.028639
     5  C   -0.731516
     6  O    0.517531
     7  O    0.378425
     8  C   -0.004414
     9  C   -0.406162
    10  C    0.130642
    11  N    0.797102
    12  C   -0.120803
    13  N   -0.405376
    14  C    0.055450
    15  C    0.292172
    16  N    0.730741
 Electronic spatial extent (au):  <R**2>=           4908.7164
 Charge=              1.0000 electrons
 Dipole moment (field-independent basis, Debye):
    X=             22.3861    Y=             -4.2542    Z=              1.9205  Tot=             22.8675
 Quadrupole moment (field-independent basis, Debye-Ang):
   XX=             -3.6866   YY=            -92.6678   ZZ=            -91.7302
   XY=            -24.4818   XZ=             13.0406   YZ=              5.7605
 Traceless Quadrupole moment (field-independent basis, Debye-Ang):
   XX=             59.0082   YY=            -29.9729   ZZ=            -29.0353
   XY=            -24.4818   XZ=             13.0406   YZ=              5.7605
 Octapole moment (field-independent basis, Debye-Ang**2):
  XXX=            755.9485  YYY=           -139.0050  ZZZ=             35.8844  XYY=             94.2915
  XXY=            -78.8992  XXZ=             34.9772  XZZ=             87.8629  YZZ=            -38.0048
  YYZ=             47.4510  XYZ=            -26.5077
 Hexadecapole moment (field-independent basis, Debye-Ang**3):
 XXXX=          -2295.1238 YYYY=          -1540.1625 ZZZZ=           -603.3475 XXXY=           -615.7976
 XXXZ=            407.7337 YYYX=            166.9330 YYYZ=            426.7583 ZZZX=             77.9699
 ZZZY=            357.9946 XXYY=           -776.0424 XXZZ=           -740.3809 YYZZ=           -401.9410
 XXYZ=            110.8051 YYXZ=              1.9254 ZZXY=             21.6152
 N-N= 1.129962176398D+03 E-N=-4.106446903018D+03  KE= 7.940257665214D+02
  Exact polarizability:   0.000   0.000   0.000   0.000   0.000   0.000
 Approx polarizability: 218.911  11.899 212.705  -9.937 -13.304 135.737
 Calling FoFJK, ICntrl=    100147 FMM=F ISym2X=0 I1Cent= 0 IOpClX= 0 NMat=1 NMatS=1 NMatT=0.
 -------------------------------------------------------------------
 Center     Atomic                   Forces (Hartrees/Bohr)
 Number     Number              X              Y              Z
 -------------------------------------------------------------------
      1        8           0.017200286   -0.001614458    0.003432644
      2        6          -0.026450806    0.001562870   -0.003800284
      3        7           0.013632848   -0.008217393    0.001475968
      4        6           0.000855674   -0.000289005   -0.002410127
      5        6          -0.010523579    0.004877171   -0.004092940
      6        8           0.009332029   -0.001884236    0.002270297
      7        8           0.005216844    0.000056770    0.000895084
      8        6          -0.007439523   -0.006122581    0.001355627
      9        6           0.009067596    0.010479061   -0.002551500
     10        6          -0.014707839   -0.002536186    0.000374130
     11        7          -0.000635707    0.005213081    0.000232960
     12        6          -0.004562132   -0.002903991    0.000951239
     13        7           0.007979173   -0.003128620   -0.000877152
     14        6           0.011726991    0.005297214   -0.003802036
     15        6          -0.029411095   -0.000661727    0.002484252
     16        7           0.005667718   -0.001522006    0.001032138
     17        1           0.001330134    0.006170885   -0.000447948
     18        1          -0.000754652   -0.000478715    0.003009322
     19        1          -0.005753686   -0.002307347    0.001244700
     20        1           0.000069129    0.000902679   -0.000193214
     21        1           0.003274589    0.000940021    0.000902224
     22        1           0.000392971   -0.000712085    0.000693367
     23        1          -0.001567448   -0.002628584   -0.000011332
     24        1           0.001458200   -0.000171655   -0.000664265
     25        1           0.000469207    0.001983838   -0.000291755
     26        1          -0.000955655    0.000887510   -0.002977482
     27        1           0.004437117   -0.002728986    0.000712746
     28        1           0.005711116   -0.001120729    0.002642546
     29        1           0.002019842   -0.000505946   -0.004476455
     30        1           0.002081417    0.003942364    0.000350010
     31        1           0.000839241   -0.002779215    0.002537237
 -------------------------------------------------------------------
 Cartesian Forces:  Max     0.029411095 RMS     0.006185431
 FormGI is forming the generalized inverse of G from B-inverse, IUseBI=4.

 GradGradGradGradGradGradGradGradGradGradGradGradGradGradGradGradGradGrad
 Berny optimization.
 Internal  Forces:  Max     0.021868687 RMS     0.004087435
 Search for a local minimum.
 Step number   1 out of a maximum of  167
 All quantities printed in internal units (Hartrees-Bohrs-Radians)
 Mixed Optimization -- RFO/linear search
 Second derivative matrix not updated -- analytic derivatives used.
 ITU=  0
     Eigenvalues ---    0.00043   0.00147   0.00163   0.00204   0.00374
     Eigenvalues ---    0.00481   0.00546   0.00814   0.00990   0.01280
     Eigenvalues ---    0.01588   0.02094   0.02352   0.02742   0.03325
     Eigenvalues ---    0.03782   0.03949   0.04066   0.04130   0.04206
     Eigenvalues ---    0.04331   0.04451   0.04912   0.05011   0.05322
     Eigenvalues ---    0.05407   0.06021   0.06099   0.06304   0.07468
     Eigenvalues ---    0.07854   0.08239   0.10470   0.10635   0.10914
     Eigenvalues ---    0.11343   0.11612   0.12475   0.13041   0.13274
     Eigenvalues ---    0.13698   0.15576   0.15828   0.16825   0.17285
     Eigenvalues ---    0.17975   0.19115   0.19672   0.20119   0.21862
     Eigenvalues ---    0.22790   0.22969   0.23826   0.24111   0.25152
     Eigenvalues ---    0.27023   0.29282   0.29836   0.31479   0.32103
     Eigenvalues ---    0.32807   0.33328   0.33826   0.34015   0.34236
     Eigenvalues ---    0.34324   0.34738   0.35121   0.35431   0.36671
     Eigenvalues ---    0.36967   0.37540   0.41902   0.43320   0.43500
     Eigenvalues ---    0.43781   0.44398   0.44829   0.46525   0.46750
     Eigenvalues ---    0.47286   0.48765   0.52050   0.59536   0.69384
     Eigenvalues ---    0.77977   0.90689
 RFO step:  Lambda=-9.74210805D-03 EMin= 4.25764757D-04
 Linear search not attempted -- first point.
 Iteration  1 RMS(Cart)=  0.08383115 RMS(Int)=  0.00230460
 Iteration  2 RMS(Cart)=  0.00362803 RMS(Int)=  0.00028868
 Iteration  3 RMS(Cart)=  0.00000850 RMS(Int)=  0.00028866
 Iteration  4 RMS(Cart)=  0.00000000 RMS(Int)=  0.00028866
 Variable       Old X    -DE/DX   Delta X   Delta X   Delta X     New X
                                 (Linear)    (Quad)   (Total)
    R1        2.32881  -0.00685   0.00000  -0.00671  -0.00671   2.32210
    R2        2.55251  -0.00595   0.00000  -0.02656  -0.02656   2.52595
    R3        2.86524   0.00267   0.00000   0.03171   0.03171   2.89694
    R4        2.73423   0.00818   0.00000   0.01055   0.01055   2.74478
    R5        1.90651   0.00573   0.00000   0.01259   0.01259   1.91911
    R6        2.87645   0.00088   0.00000   0.00646   0.00646   2.88291
    R7        2.94870   0.00316   0.00000   0.00859   0.00859   2.95729
    R8        2.07176  -0.00113   0.00000  -0.00458  -0.00458   2.06718
    R9        2.54845  -0.00465   0.00000  -0.02257  -0.02257   2.52588
   R10        2.26522   0.00329   0.00000   0.00589   0.00589   2.27111
   R11        1.82263   0.00516   0.00000   0.01042   0.01042   1.83305
   R12        2.82477  -0.00104   0.00000  -0.01601  -0.01601   2.80876
   R13        2.06002   0.00070   0.00000   0.00226   0.00226   2.06228
   R14        2.05656   0.00282   0.00000   0.00769   0.00769   2.06425
   R15        2.57451   0.01251   0.00000   0.02307   0.02307   2.59758
   R16        2.59556   0.00717   0.00000   0.01608   0.01609   2.61165
   R17        2.61665  -0.00399   0.00000  -0.01486  -0.01487   2.60178
   R18        2.04228  -0.00068   0.00000  -0.00147  -0.00147   2.04081
   R19        2.47778   0.00294   0.00000   0.00239   0.00238   2.48016
   R20        2.56248   0.00938   0.00000   0.02055   0.02056   2.58304
   R21        2.03291   0.00260   0.00000   0.00607   0.00607   2.03898
   R22        1.90717   0.00153   0.00000   0.00619   0.00619   1.91337
   R23        2.86982   0.00354   0.00000   0.00351   0.00351   2.87333
   R24        2.06295   0.00191   0.00000   0.00292   0.00292   2.06586
   R25        2.06718   0.00229   0.00000   0.00456   0.00456   2.07174
   R26        2.81148   0.01064   0.00000   0.05578   0.05578   2.86726
   R27        2.05790   0.00065   0.00000  -0.00115  -0.00115   2.05675
   R28        2.05877   0.00061   0.00000   0.00004   0.00004   2.05881
   R29        1.92736   0.00487   0.00000   0.00920   0.00920   1.93656
   R30        1.92782   0.00440   0.00000   0.00811   0.00811   1.93594
   R31        1.92946   0.00379   0.00000   0.00683   0.00683   1.93628
    A1        2.11118   0.02187   0.00000   0.06343   0.06338   2.17456
    A2        2.13921  -0.01538   0.00000  -0.05572  -0.05578   2.08343
    A3        2.03256  -0.00647   0.00000  -0.00732  -0.00737   2.02519
    A4        2.10480   0.01241   0.00000   0.01280   0.01271   2.11751
    A5        2.13351  -0.00436   0.00000   0.01156   0.01149   2.14501
    A6        2.02256  -0.00783   0.00000  -0.01944  -0.01956   2.00299
    A7        1.87074  -0.00585   0.00000  -0.00269  -0.00267   1.86807
    A8        1.95565   0.00897   0.00000   0.02491   0.02499   1.98064
    A9        1.88929   0.00057   0.00000   0.00486   0.00502   1.89431
   A10        1.95725  -0.00350   0.00000  -0.00935  -0.00946   1.94778
   A11        1.87142   0.00274   0.00000   0.01108   0.01087   1.88228
   A12        1.91614  -0.00305   0.00000  -0.02821  -0.02823   1.88792
   A13        2.00674  -0.00027   0.00000   0.00366   0.00365   2.01039
   A14        2.15930  -0.00456   0.00000  -0.02135  -0.02136   2.13794
   A15        2.11713   0.00483   0.00000   0.01766   0.01765   2.13478
   A16        1.91543   0.00651   0.00000   0.03388   0.03388   1.94931
   A17        1.96584   0.00269   0.00000  -0.02804  -0.02807   1.93777
   A18        1.93589  -0.00131   0.00000  -0.00557  -0.00568   1.93021
   A19        1.88687  -0.00192   0.00000   0.00040   0.00064   1.88751
   A20        1.89761  -0.00306   0.00000   0.00514   0.00479   1.90239
   A21        1.91528   0.00319   0.00000   0.02987   0.02985   1.94513
   A22        1.85934   0.00039   0.00000   0.00028   0.00012   1.85946
   A23        2.31642  -0.00350   0.00000   0.00994   0.00988   2.32629
   A24        2.13078   0.00500   0.00000  -0.00848  -0.00853   2.12225
   A25        1.83569  -0.00150   0.00000  -0.00181  -0.00181   1.83388
   A26        1.92996   0.00080   0.00000  -0.00029  -0.00032   1.92964
   A27        2.23497  -0.00022   0.00000  -0.00222  -0.00226   2.23271
   A28        2.11826  -0.00058   0.00000   0.00251   0.00247   2.12073
   A29        1.83132   0.00258   0.00000   0.01060   0.01059   1.84191
   A30        1.95147   0.00078   0.00000  -0.00136  -0.00135   1.95012
   A31        2.20619  -0.00203   0.00000  -0.01040  -0.01041   2.19578
   A32        2.12552   0.00125   0.00000   0.01176   0.01176   2.13728
   A33        1.87633  -0.00265   0.00000  -0.00714  -0.00711   1.86921
   A34        2.16659   0.00105   0.00000  -0.00123  -0.00125   2.16534
   A35        2.24026   0.00160   0.00000   0.00840   0.00838   2.24864
   A36        1.95048  -0.01304   0.00000  -0.07224  -0.07225   1.87823
   A37        1.91380   0.00462   0.00000   0.02938   0.02974   1.94354
   A38        1.88311   0.00192   0.00000  -0.00623  -0.00639   1.87673
   A39        1.93221   0.00415   0.00000   0.02266   0.02278   1.95499
   A40        1.90561   0.00492   0.00000   0.02183   0.02079   1.92640
   A41        1.87646  -0.00222   0.00000   0.00681   0.00629   1.88275
   A42        1.95463  -0.00269   0.00000  -0.01084  -0.01046   1.94417
   A43        1.89392   0.00362   0.00000   0.03117   0.03041   1.92433
   A44        1.91292   0.00432   0.00000   0.04207   0.04140   1.95432
   A45        1.91974  -0.00253   0.00000  -0.03905  -0.03900   1.88074
   A46        1.90971  -0.00284   0.00000  -0.04236  -0.04224   1.86748
   A47        1.87099   0.00032   0.00000   0.02129   0.01897   1.88996
   A48        1.93940   0.00070   0.00000   0.00074   0.00074   1.94014
   A49        1.94585   0.00053   0.00000   0.00243   0.00244   1.94829
   A50        1.95191  -0.00102   0.00000  -0.00873  -0.00873   1.94318
   A51        1.87891  -0.00081   0.00000  -0.00424  -0.00423   1.87468
   A52        1.87198   0.00023   0.00000   0.00470   0.00470   1.87668
   A53        1.87195   0.00035   0.00000   0.00545   0.00545   1.87740
    D1       -0.04469  -0.00137   0.00000  -0.04644  -0.04672  -0.09141
    D2       -2.95156  -0.00151   0.00000  -0.06939  -0.06994  -3.02150
    D3        3.07420  -0.00071   0.00000  -0.02815  -0.02760   3.04660
    D4        0.16733  -0.00085   0.00000  -0.05110  -0.05081   0.11652
    D5       -0.51302   0.00091   0.00000   0.03135   0.03057  -0.48245
    D6       -2.66232   0.00129   0.00000   0.03119   0.03101  -2.63130
    D7        1.58209   0.00035   0.00000   0.01065   0.01073   1.59282
    D8        2.65167  -0.00029   0.00000   0.01104   0.01085   2.66252
    D9        0.50238   0.00009   0.00000   0.01088   0.01129   0.51367
   D10       -1.53640  -0.00085   0.00000  -0.00966  -0.00899  -1.54539
   D11       -2.85552  -0.00070   0.00000  -0.02053  -0.02039  -2.87591
   D12        1.27339   0.00200   0.00000  -0.02284  -0.02272   1.25068
   D13       -0.84207  -0.00022   0.00000  -0.00657  -0.00657  -0.84864
   D14        0.06565  -0.00033   0.00000   0.00472   0.00468   0.07033
   D15       -2.08863   0.00237   0.00000   0.00241   0.00236  -2.08627
   D16        2.07910   0.00015   0.00000   0.01868   0.01851   2.09760
   D17        3.07123  -0.00129   0.00000   0.01606   0.01608   3.08731
   D18       -0.07601  -0.00177   0.00000   0.00829   0.00836  -0.06765
   D19       -1.05866   0.00368   0.00000   0.03947   0.03950  -1.01917
   D20        2.07728   0.00319   0.00000   0.03170   0.03178   2.10906
   D21        1.04591  -0.00040   0.00000   0.00627   0.00616   1.05207
   D22       -2.10133  -0.00088   0.00000  -0.00150  -0.00156  -2.10289
   D23       -2.19363  -0.00710   0.00000  -0.05898  -0.05887  -2.25250
   D24        1.95811  -0.00408   0.00000  -0.04156  -0.04158   1.91653
   D25       -0.07443  -0.00269   0.00000  -0.03904  -0.03895  -0.11339
   D26        1.98474  -0.00343   0.00000  -0.06659  -0.06644   1.91830
   D27       -0.14670  -0.00041   0.00000  -0.04917  -0.04915  -0.19585
   D28       -2.17924   0.00098   0.00000  -0.04665  -0.04652  -2.22577
   D29       -0.09372  -0.00259   0.00000  -0.05574  -0.05585  -0.14957
   D30       -2.22517   0.00042   0.00000  -0.03832  -0.03856  -2.26373
   D31        2.02548   0.00181   0.00000  -0.03580  -0.03593   1.98954
   D32       -0.04422   0.00044   0.00000   0.01921   0.01914  -0.02508
   D33        3.10287   0.00095   0.00000   0.02691   0.02698   3.12985
   D34       -2.04190   0.00133   0.00000   0.03938   0.03929  -2.00260
   D35        1.06947   0.00126   0.00000   0.02101   0.02090   1.09037
   D36        0.11101  -0.00074   0.00000   0.01689   0.01682   0.12783
   D37       -3.06081  -0.00081   0.00000  -0.00148  -0.00158  -3.06239
   D38        2.13833  -0.00023   0.00000   0.03667   0.03686   2.17519
   D39       -1.03350  -0.00030   0.00000   0.01830   0.01847  -1.01502
   D40        3.11881   0.00009   0.00000  -0.01625  -0.01635   3.10246
   D41       -0.02254  -0.00041   0.00000  -0.03211  -0.03216  -0.05470
   D42        0.00375   0.00006   0.00000   0.00000   0.00000   0.00375
   D43       -3.13760  -0.00044   0.00000  -0.01586  -0.01581   3.12978
   D44       -3.12174   0.00001   0.00000   0.01238   0.01228  -3.10946
   D45        0.01424  -0.00009   0.00000   0.01785   0.01774   0.03198
   D46       -0.00316  -0.00011   0.00000  -0.00138  -0.00136  -0.00451
   D47        3.13282  -0.00021   0.00000   0.00410   0.00411   3.13693
   D48       -0.00287   0.00002   0.00000   0.00141   0.00141  -0.00146
   D49        3.13850   0.00048   0.00000   0.01604   0.01604  -3.12865
   D50        0.00079  -0.00010   0.00000  -0.00234  -0.00233  -0.00154
   D51        3.13936   0.00009   0.00000  -0.00170  -0.00173   3.13763
   D52        0.00151   0.00015   0.00000   0.00243   0.00240   0.00392
   D53       -3.13415   0.00026   0.00000  -0.00330  -0.00336  -3.13752
   D54       -3.13722  -0.00003   0.00000   0.00187   0.00187  -3.13535
   D55        0.01030   0.00008   0.00000  -0.00386  -0.00389   0.00641
   D56        3.07519  -0.00110   0.00000  -0.04449  -0.04449   3.03070
   D57        0.95274   0.00135   0.00000  -0.00973  -0.00921   0.94353
   D58       -1.08514  -0.00349   0.00000  -0.07626  -0.07682  -1.16195
   D59       -1.06918  -0.00136   0.00000  -0.04131  -0.04149  -1.11067
   D60        3.09155   0.00108   0.00000  -0.00655  -0.00621   3.08534
   D61        1.05368  -0.00376   0.00000  -0.07308  -0.07381   0.97986
   D62        0.99333   0.00143   0.00000  -0.00601  -0.00579   0.98754
   D63       -1.12912   0.00387   0.00000   0.02875   0.02948  -1.09964
   D64        3.11619  -0.00097   0.00000  -0.03778  -0.03812   3.07806
   D65       -1.04264   0.00031   0.00000   0.00490   0.00489  -1.03775
   D66        1.05343   0.00012   0.00000   0.00167   0.00166   1.05510
   D67       -3.13400   0.00023   0.00000   0.00431   0.00430  -3.12970
   D68        1.06491   0.00137   0.00000   0.01037   0.01019   1.07510
   D69       -3.12220   0.00118   0.00000   0.00714   0.00697  -3.11523
   D70       -1.02645   0.00129   0.00000   0.00978   0.00960  -1.01684
   D71        3.11585  -0.00141   0.00000  -0.01183  -0.01164   3.10420
   D72       -1.07126  -0.00160   0.00000  -0.01506  -0.01487  -1.08613
   D73        1.02449  -0.00149   0.00000  -0.01242  -0.01223   1.01226
         Item               Value     Threshold  Converged?
 Maximum Force            0.021869     0.000450     NO 
 RMS     Force            0.004087     0.000300     NO 
 Maximum Displacement     0.294396     0.001800     NO 
 RMS     Displacement     0.084538     0.001200     NO 
 Predicted change in Energy=-5.357725D-03
 GradGradGradGradGradGradGradGradGradGradGradGradGradGradGradGradGradGrad

                          Input orientation:                          
 ---------------------------------------------------------------------
 Center     Atomic      Atomic             Coordinates (Angstroms)
 Number     Number       Type             X           Y           Z
 ---------------------------------------------------------------------
      1          8           0        0.629866   -1.050688    0.027688
      2          6           0        1.164078   -0.002730   -0.327775
      3          7           0        0.503840    1.111069   -0.659789
      4          6           0       -0.946596    1.135785   -0.732625
      5          6           0       -1.334458    2.401629   -1.490630
      6          8           0       -2.644144    2.554918   -1.709337
      7          8           0       -0.523499    3.211085   -1.853262
      8          6           0       -1.642520    1.066586    0.667341
      9          6           0       -2.677860    0.000552    0.696109
     10          6           0       -4.045587    0.018496    0.832044
     11          7           0       -4.557013   -1.256764    0.744052
     12          6           0       -3.520141   -2.039070    0.555896
     13          7           0       -2.352108   -1.330268    0.515022
     14          6           0        2.692928    0.070520   -0.413409
     15          6           0        3.258043   -0.925481    0.586868
     16          7           0        4.766366   -1.036630    0.465329
     17          1           0        0.963193    1.930089   -1.046491
     18          1           0       -1.279874    0.276654   -1.322072
     19          1           0       -3.155459    1.807295   -1.362161
     20          1           0       -2.109633    2.022192    0.911448
     21          1           0       -0.871823    0.895347    1.422285
     22          1           0       -4.684729    0.872546    1.000544
     23          1           0       -3.550561   -3.111974    0.445651
     24          1           0       -1.407740   -1.669765    0.380537
     25          1           0        3.053799    1.085861   -0.229136
     26          1           0        2.980229   -0.208666   -1.433910
     27          1           0        2.837252   -1.914065    0.413030
     28          1           0        3.041700   -0.637860    1.615181
     29          1           0        5.040418   -1.340438   -0.474233
     30          1           0        5.226736   -0.138997    0.643709
     31          1           0        5.145027   -1.716286    1.132087
 ---------------------------------------------------------------------
                    Distance matrix (angstroms):
                    1          2          3          4          5
     1  O    0.000000
     2  C    1.228801   0.000000
     3  N    2.271938   1.336674   0.000000
     4  C    2.800709   2.432091   1.452475   0.000000
     5  C    4.252335   3.657303   2.394825   1.525572   0.000000
     6  O    5.170763   4.790912   3.618847   2.418589   1.336640
     7  O    4.799055   3.937466   2.624856   2.396186   1.201821
     8  C    3.171079   3.163967   2.523909   1.564929   2.556185
     9  C    3.534536   3.976033   3.632482   2.515414   3.514503
    10  C    4.863126   5.337251   4.910863   3.646953   4.292361
    11  N    5.240167   5.954183   5.761045   4.576022   5.363069
    12  C    4.298658   5.183577   5.252970   4.285222   5.355865
    13  N    3.034440   3.851783   3.936591   3.100565   4.357214
    14  C    2.389121   1.532997   2.436299   3.805631   4.776434
    15  C    2.689921   2.464291   3.645178   4.865066   6.039597
    16  N    4.159610   3.830723   4.903838   6.228356   7.271001
    17  H    3.185906   2.071883   1.015548   2.092062   2.387218
    18  H    2.689014   2.653221   2.077620   1.093905   2.132349
    19  H    4.942512   4.796305   3.790584   2.392972   1.919839
    20  H    4.210520   4.043906   3.182637   2.200306   2.552420
    21  H    2.826132   2.830927   2.504800   2.169571   3.311797
    22  H    5.734997   6.061277   5.452967   4.128777   4.446162
    23  H    4.679696   5.700299   5.957706   5.119807   6.249809
    24  H    2.158610   3.145626   3.531212   3.053342   4.481394
    25  H    3.241335   2.183073   2.586192   4.032265   4.751780
    26  H    2.893005   2.136433   2.910921   4.209430   5.043152
    27  H    2.401346   2.646035   3.968273   4.993157   6.297008
    28  H    2.916763   2.775596   3.830793   4.956261   6.167279
    29  H    4.448467   4.103282   5.159928   6.484041   7.461581
    30  H    4.726720   4.179419   5.056434   6.452085   7.352514
    31  H    4.695679   4.573338   5.722357   6.979924   8.112928
                    6          7          8          9         10
     6  O    0.000000
     7  O    2.224500   0.000000
     8  C    2.977748   3.493497   0.000000
     9  C    3.508860   4.631208   1.486333   0.000000
    10  C    3.854361   5.459725   2.626852   1.374582   0.000000
    11  N    4.920072   6.555680   3.728016   2.261494   1.376802
    12  C    5.196478   6.507536   3.630838   2.211144   2.141478
    13  N    4.486394   5.438425   2.504321   1.382023   2.188044
    14  C    6.027935   4.720353   4.577803   5.484642   6.852842
    15  C    7.226448   6.112730   5.290589   6.008695   7.368461
    16  N    8.517279   7.169492   6.748196   7.519674   8.882470
    17  H    3.720572   2.121811   3.236140   4.474040   5.680753
    18  H    2.683597   3.076548   2.171007   2.470558   3.515115
    19  H    0.970008   3.023081   2.637519   2.780089   2.967602
    20  H    2.727272   3.401898   1.091314   2.110991   2.787297
    21  H    3.962620   4.026560   1.092354   2.142372   3.345150
    22  H    3.786531   5.561367   3.066546   2.209202   1.079952
    23  H    6.130190   7.377613   4.598927   3.242245   3.192834
    24  H    4.872805   5.440077   2.761340   2.121969   3.164225
    25  H    6.067592   4.466702   4.781157   5.906428   7.257180
    26  H    6.272705   4.913926   5.235583   6.049357   7.385678
    27  H    7.383898   6.534362   5.386772   5.844857   7.161273
    28  H    7.319500   6.289286   5.073998   5.828005   7.160569
[...]
 0001413,-0.00000051,0.00000596,0.00000083,0.00000189,-0.00001964,0.000
 01340,0.00000467,-0.01346855,-0.05870589,-0.06241431,0.00470616,0.0229
 8963,0.00402110,0.00063781,-0.00038054,0.00025418,-0.00079297,-0.00000
 559,0.00026558,-0.00002897,0.00001675,-0.00002838,0.00000639,-0.000021
 54,0.00002863,0.00001191,-0.00000706,0.00000790,0.00000578,0.00003891,
 -0.00002580,0.00000214,-0.00000134,0.00000435,-0.00000065,0.00000041,-
 0.00000029,0.00001351,0.00001134,-0.00000090,0.01413068,0.05918080,0.0
 6462175,-0.00140232,-0.00146155,-0.00406218,-0.00950600,0.00542691,0.0
 3318381,-0.00096802,-0.00036199,-0.00157540,-0.00005577,-0.00035589,-0
 .00136179,-0.00014202,-0.00048696,0.00019459,-0.00013562,0.00017304,-0
 .00005752,0.00005543,0.00018607,-0.00022152,0.00024230,0.00006430,-0.0
 0014236,0.00002590,0.00001278,0.00000096,0.00003347,-0.00001379,-0.000
 00663,-0.00004871,-0.00003997,-0.00001054,-0.00001645,0.00000248,0.000
 00125,-0.00001795,0.00002321,0.00000627,-0.06241580,0.01335160,0.07014
 774,0.00240943,-0.00238127,-0.01981487,0.00195388,-0.00115650,-0.00071
 547,-0.00044735,0.00030436,0.00061453,-0.00037641,0.00015265,-0.000012
 21,0.00005827,0.00000467,0.00000061,0.00000142,-0.00000352,0.00002038,
 0.00004908,0.00000671,-0.00002637,0.00000511,-0.00000262,0.00000050,-0
 .00000284,-0.00000033,0.00000164,0.00002732,0.00002962,-0.00000036,0.0
 0138120,-0.00084327,-0.00574577,0.07059703,-0.00097514,-0.00060614,-0.
 00159780,-0.00284477,-0.00027017,0.00696430,0.00125403,0.00029343,0.00
 017968,-0.00021977,0.00000954,0.00006844,0.00004711,0.00025224,-0.0001
 6108,0.00002181,-0.00007868,0.00004105,-0.00006083,-0.00013052,0.00015
 538,0.00003942,-0.00004514,0.00006818,-0.00000119,-0.00000712,-0.00002
 042,-0.00002131,0.00000796,0.00000528,0.00003022,0.00002658,0.00000823
 ,0.00001217,0.00000479,0.00000012,0.00001553,-0.00001702,-0.00001298,0
 .01341728,-0.05583972,-0.04030254,-0.00600835,0.00354857,0.02165971,-0
 .00099229,0.00108982,-0.00031639,0.00018440,-0.00005101,-0.00055622,0.
 00012421,0.00000747,0.00003897,-0.00002269,0.00000608,-0.00001088,-0.0
 0001582,0.00000690,-0.00001563,0.00000043,-0.00002480,0.00000955,-0.00
 000335,0.00000160,-0.00000152,0.00000039,-0.00000044,0.00000108,0.0000
 0192,-0.00001162,0.00001006,0.00937438,-0.00355812,-0.02931147,-0.0155
 3915,0.05629904,0.00012877,-0.00018693,0.00072522,0.00278193,0.0000108
 8,-0.00150438,-0.00044266,0.00066123,0.00047130,0.00031657,0.00003923,
 0.00011727,0.00000898,-0.00001812,0.00000045,-0.00000728,0.00000763,-0
 .00000065,-0.00001082,0.00000223,-0.00001478,-0.00010046,-0.00003171,-
 0.00002551,-0.00000704,0.00001016,0.00002722,-0.00000194,-0.00000589,-
 0.00000064,-0.00000318,-0.00000204,-0.00000143,-0.00000507,-0.00000085
 ,-0.00000057,0.00000155,0.00000325,0.00000287,0.06279132,-0.04054035,-
 0.27450350,0.00475625,-0.00284395,-0.02094232,0.00080407,-0.00106626,0
 .00206525,-0.00000277,-0.00013342,-0.00020989,-0.00000407,-0.00005330,
 -0.00003320,0.00000083,-0.00000052,0.00000161,0.00000139,0.00001137,-0
 .00000846,0.00000377,-0.00000466,-0.00002080,-0.00000056,0.00000032,-0
 .00000044,-0.00000018,0.00000009,-0.00000094,-0.00000079,-0.00000056,-
 0.00000468,0.00173896,-0.00123826,-0.00574766,-0.06918909,0.04169948,0
 .30007143,-0.00256972,-0.00333195,0.00035468,0.00129913,0.00616923,-0.
 00165091,0.00041768,-0.00289092,0.00062212,-0.00045454,-0.00003649,-0.
 00002041,-0.00014062,0.00019757,-0.00016241,0.00010615,-0.00006339,0.0
 0004796,0.00007026,-0.00019517,0.00013876,-0.00001031,0.00001379,-0.00
 000688,-0.00001399,0.00002762,-0.00002123,-0.00001664,0.00001230,0.000
 01431,0.00007760,0.00001000,-0.00000071,-0.00004509,-0.00000928,-0.000
 00181,0.00004812,-0.00003048,-0.00001932,0.00684400,0.01519009,0.00357
 326,-0.06974755,-0.07446664,-0.00764528,-0.02194068,-0.03277310,-0.002
 48829,0.00055738,0.00007301,0.00009447,-0.00002521,0.00006438,-0.00002
 900,-0.00003167,0.00000699,-0.00000688,0.00002828,-0.00002845,0.000012
 84,-0.00002692,0.00002515,0.00010607,-0.00000355,0.00000173,0.00000122
 ,-0.00000117,-0.00000141,0.00000247,-0.00007232,-0.00002385,0.00000898
 ,-0.00261686,0.00180438,-0.00279617,0.00042808,-0.00032984,-0.00016361
 ,0.08853982,-0.00245898,0.00207821,-0.00131643,-0.00185591,-0.00337144
 ,0.00077076,-0.00003948,0.00039133,0.00004176,0.00004372,0.00003044,-0
 .00000803,0.00001869,-0.00004701,0.00005502,-0.00001973,0.00000962,-0.
 00001180,0.00000318,0.00004952,-0.00002845,0.00001136,0.00000303,-0.00
 000566,0.00000731,0.00001443,0.00000381,0.00000960,-0.00000617,-0.0000
 0259,-0.00000864,-0.00001714,-0.00000141,-0.00001358,0.00000299,0.0000
 0045,-0.00000160,-0.00000188,0.00000479,-0.00155840,-0.01984034,-0.001
 18103,-0.08537522,-0.29679932,-0.03141655,0.00400851,0.00768747,0.0006
 2249,-0.00005570,0.00005575,-0.00008979,0.00002403,0.00000988,0.000011
 83,0.00000912,0.00000340,-0.00000225,-0.00000851,0.00000458,-0.0000010
 7,0.00001750,-0.00000613,-0.00002847,0.00000114,-0.00000100,-0.0000005
 9,-0.00000275,0.00000042,-0.00000119,0.00000309,0.00002455,-0.00000411
 ,0.00131696,-0.00054575,0.00296394,-0.00015631,0.00070174,0.00014591,0
 .08685477,0.31400244,0.00036345,-0.00137560,-0.00143186,0.00010971,0.0
 0153356,0.00068540,0.00029231,-0.00035585,0.00022006,-0.00009661,-0.00
 008250,0.00001730,-0.00003621,0.00006756,-0.00005574,0.00006231,-0.000
 02139,0.00001351,0.00002752,-0.00005553,0.00002712,-0.00000451,-0.0000
 2125,0.00000958,-0.00000232,-0.00000467,-0.00001384,-0.00001303,0.0000
 0687,-0.00000341,0.00001733,0.00001484,-0.00000155,0.00000627,0.000000
 62,0.00000090,0.00000668,-0.00000430,-0.00002397,0.00549084,0.02083702
 ,0.00281043,-0.01110140,-0.03444288,-0.05695697,0.00622746,0.00970575,
 -0.00007034,0.00018733,0.00008537,0.00014145,-0.00002304,-0.00001625,-
 0.00000086,-0.00002318,-0.00000838,0.00001707,0.00000395,-0.00000219,-
 0.00000287,-0.00000878,-0.00000178,0.00003790,-0.00000215,0.00000055,0
 .00000358,0.00000051,-0.00000090,0.00000500,-0.00000993,-0.00001641,0.
 00003611,-0.00239873,0.00205200,-0.00197692,0.00084763,-0.00014344,0.0
 0051829,0.00945724,0.03000194,0.05712338,-0.00063786,-0.00044481,0.000
 83917,0.00205022,0.00061666,-0.00100392,-0.00065049,0.00027883,0.00031
 783,0.00015313,0.00000782,-0.00007175,0.00007798,0.00001659,-0.0000162
 9,-0.00008566,0.00000222,0.00000737,-0.00007496,-0.00002202,0.00002669
 ,-0.00003799,0.00002817,-0.00004841,-0.00000454,-0.00000988,0.00004637
 ,-0.00000033,-0.00000528,0.00001717,0.00000410,0.00000684,-0.00000049,
 0.00000214,-0.00000152,-0.00000221,0.00000258,-0.00000086,0.00001765,0
 .00307039,-0.00530525,-0.01644760,-0.05032519,0.00074896,0.00867634,-0
 .01445446,0.01199724,0.03923779,0.00009691,-0.00011130,-0.00005610,-0.
 00002083,-0.00000336,-0.00000832,0.00002156,0.00001505,-0.00003341,-0.
 00001829,0.00001510,0.00000005,-0.00002077,-0.00003667,-0.00001756,-0.
 00000065,0.00000095,-0.00000570,0.00000066,0.00000033,-0.00000279,0.00
 000139,0.00000138,-0.00002738,0.00039754,-0.00007701,0.00075707,-0.001
 78370,0.00238640,-0.00177394,0.00306744,-0.00169349,-0.01058525,0.0634
 6022,-0.00026203,0.00020722,0.00072467,-0.00056842,0.00051645,-0.00018
 574,0.00004122,-0.00033310,-0.00032424,-0.00001830,-0.00001549,-0.0000
 0501,0.00001149,0.00001453,0.00000930,-0.00001919,-0.00000537,-0.00000
 198,-0.00000749,-0.00002317,-0.00001393,0.00000361,0.00002605,-0.00000
 011,0.00000386,0.00001279,-0.00000291,0.00000851,-0.00000013,0.0000033
 4,-0.00000013,-0.00001473,-0.00000118,-0.00001643,-0.00000233,-0.00000
 033,0.00000267,-0.00000633,0.00000663,-0.00185806,0.00596780,0.0216661
 1,0.00614745,-0.07367921,-0.07663004,-0.00087809,-0.00009092,0.0017730
 5,0.00001109,0.00004588,0.00011293,-0.00001269,0.00000417,0.00000014,0
 .00000657,0.00000859,-0.00000432,0.00001201,-0.00001249,0.00000592,-0.
 00000036,0.00002143,-0.00000485,0.00000229,-0.00000052,-0.00000093,-0.
 00000123,-0.00000008,-0.00000183,-0.00000520,0.00000796,-0.00001514,-0
 .00104417,0.00100085,-0.00016841,0.00285344,-0.00186201,0.00285406,0.0
 0383335,-0.00575350,-0.02826506,-0.00840326,0.07319065,-0.00029198,-0.
 00050266,0.00055971,0.00071169,0.00089307,-0.00046146,-0.00027074,-0.0
 0005320,0.00012044,-0.00000820,0.00001202,-0.00002306,0.00001529,-0.00
 000475,-0.00000791,-0.00002112,0.00000302,0.00000154,-0.00001752,-0.00
 000037,0.00001426,-0.00000462,0.00000483,-0.00001865,-0.00000165,-0.00
 000319,0.00001176,0.00000086,-0.00000043,0.00000362,0.00000291,0.00000
 096,-0.00000105,-0.00000085,-0.00000023,-0.00000026,0.00000195,0.00000
 104,0.00000254,0.00002086,-0.00405745,-0.01662454,0.02059777,-0.074695
 33,-0.30133584,0.00175112,-0.00101209,-0.00289079,0.00003644,-0.000072
 98,-0.00006925,-0.00001151,0.00001782,-0.00000793,0.00000513,0.0000027
 7,-0.00000800,-0.00000378,0.00000115,0.00000175,-0.00001472,-0.0000078
 2,0.00001246,-0.00000009,-0.00000016,-0.00000068,0.00000022,0.00000017
 ,-0.00000025,-0.00000352,0.00000011,-0.00000382,0.00047319,0.00000127,
 0.00116408,-0.00211702,0.00209082,-0.00044060,-0.00044673,-0.00047060,
 -0.00151534,-0.02117138,0.07764372,0.32045535,0.00050676,0.00022304,-0
 .00028221,-0.00108686,-0.00069235,-0.00012923,0.00072185,-0.00016288,0
 .00002222,-0.00022971,-0.00008214,0.00008654,-0.00017961,0.00013281,-0
 .00010658,0.00019448,-0.00004784,0.00003983,0.00011887,-0.00007477,0.0
 0005530,0.00000932,-0.00000931,0.00005110,-0.00000143,0.00000978,-0.00
 004370,-0.00002894,0.00001415,-0.00000098,0.00005701,0.00002303,0.0000
 0338,-0.00001400,-0.00000027,0.00000151,0.00003068,-0.00002726,-0.0000
 2119,0.00203580,0.00006838,0.00111828,-0.00394977,0.01137719,0.0343956
 7,-0.06397230,0.01736938,0.05156318,-0.00004095,0.00016811,-0.00003504
 ,0.00003524,0.00000489,0.00000267,-0.00004977,-0.00001665,0.00002278,0
 .00000634,-0.00000663,-0.00000383,-0.00000736,0.00000741,0.00003516,-0
 .00000624,0.00000242,0.00000432,-0.00000120,-0.00000119,0.00000290,-0.
 00003000,-0.00002087,0.00001942,0.00011106,-0.00010901,-0.00029214,-0.
 00025972,0.00047745,-0.00165937,0.00110887,-0.00071828,-0.00014439,-0.
 00702806,-0.00050591,-0.00021056,0.06605219,-0.00042405,-0.00070734,0.
 00001398,0.00108662,0.00078242,0.00014214,-0.00042342,-0.00004257,0.00
 002385,0.00014293,0.00005904,-0.00002606,0.00016183,-0.00001174,0.0000
 3455,-0.00015430,0.00000608,-0.00002135,-0.00011070,-0.00001122,-0.000
 01019,-0.00000524,-0.00000009,-0.00002739,0.00000329,0.00001835,0.0000
 2939,0.00002639,-0.00001120,0.00000327,-0.00002823,-0.00003527,-0.0000
 0582,-0.00001820,0.00000348,-0.00000089,-0.00000811,0.00000497,0.00000
 472,-0.00081336,-0.00061572,-0.00082695,0.00131938,0.00106275,0.001332
 40,0.01464603,-0.09513306,-0.09777581,0.00006752,-0.00008119,0.0000286
 5,-0.00003201,-0.00000504,0.00000002,0.00003533,0.00002474,-0.00001878
 ,0.00000149,-0.00000113,0.00000024,0.00000634,0.00000332,-0.00001596,0
 .00000534,-0.00000256,-0.00000344,-0.00000307,0.00000061,-0.00000053,0
 .00000778,0.00003026,-0.00000033,0.00014542,-0.00014305,-0.00006477,0.
 00031140,0.00028197,0.00059819,-0.00069358,0.00009157,0.00092282,-0.00
 052124,0.00053166,0.00023871,-0.01590625,0.09227540,-0.00020723,0.0002
 7287,-0.00026660,-0.00000607,0.00001772,-0.00023001,-0.00036834,0.0000
 7193,-0.00007482,0.00009270,0.00011173,0.00003019,0.00000089,-0.000090
 24,0.00008280,-0.00003270,0.00002814,-0.00003793,-0.00000221,0.0000487
 0,-0.00007065,-0.00001443,-0.00001136,0.00000334,0.00000637,0.00000346
 ,0.00000150,0.00000852,-0.00000116,-0.00000772,-0.00002035,-0.00001207
 ,-0.00000691,0.00000101,0.00000193,0.00000142,-0.00000907,0.00000773,-
 0.00000804,-0.00100706,-0.00053067,0.00295318,0.00614389,-0.00067511,-
 0.00418610,0.04208594,-0.09806738,-0.36193695,0.00001131,-0.00003912,0
 .00008627,-0.00000833,-0.00002226,0.00000928,0.00000638,-0.00000158,0.
 00001876,0.00000356,-0.00000180,-0.00000069,0.00000689,0.00000631,-0.0
 0001568,0.00000234,-0.00000154,0.00000329,-0.00000061,-0.00000047,0.00
 000341,0.00001124,0.00000665,0.00001661,0.00001678,0.00003491,-0.00031
 102,0.00028658,-0.00036861,-0.00044951,-0.00035374,0.00061279,0.000414
 83,0.00020454,0.00072929,0.00140085,-0.05037330,0.10615297,0.38262830,
 0.00008768,0.00139731,-0.00068572,-0.00215955,-0.00158095,0.00077634,0
 .00075481,0.00014110,-0.00000226,-0.00022155,-0.00011045,0.00001742,-0
 .00018195,0.00010904,-0.00009606,0.00019265,-0.00004020,0.00004246,0.0
 0012068,-0.00004849,0.00005376,0.00002108,0.00000005,0.00003293,-0.000
 00414,-0.00000277,-0.00003670,-0.00003287,0.00001473,0.00000139,0.0000
 5552,0.00003161,0.00000511,-0.00000245,0.00000071,0.00000146,0.0000278
 0,-0.00002478,-0.00001426,0.00274312,-0.00065234,-0.00034408,-0.012802
 28,-0.03215641,-0.00390276,-0.10960100,-0.12766157,-0.01596719,-0.0000
 9135,0.00015294,-0.00010748,0.00004142,0.00001699,0.00000292,-0.000047
 18,-0.00001824,0.00001591,-0.00000305,0.00000065,-0.00000329,-0.000008
 41,-0.00000733,0.00002990,-0.00000743,0.00000305,0.00000327,-0.0000000
 9,-0.00000084,0.00000177,-0.00002225,-0.00002467,0.00000892,-0.0004145
 7,0.00101806,-0.00011777,-0.00014030,0.00009273,-0.00024426,-0.0055292
 2,0.00258332,0.00216131,0.00150359,0.00013430,0.00040726,0.00244811,0.
 00691612,-0.00033519,0.11395033,0.00036577,-0.00051071,0.00027762,-0.0
 0007327,0.00010914,-0.00005622,0.00040823,-0.00032626,0.00002575,-0.00
 009151,-0.00007175,0.00001033,0.00003082,0.00015582,-0.00008494,0.0000
 0700,-0.00004965,0.00002649,-0.00002264,-0.00012064,0.00005218,0.00000
 572,0.00001241,0.00001186,-0.00000016,0.00001304,-0.00000659,-0.000003
 44,0.00000583,0.00000713,0.00002474,-0.00000516,0.00000003,-0.00001973
 ,-0.00000073,-0.00000058,0.00001619,-0.00001886,-0.00000644,0.00037981
 ,0.00260123,-0.00035432,-0.00343157,0.00611262,0.00207668,-0.11803299,
 -0.34675894,-0.03176706,0.00007221,0.00011320,0.00002524,-0.00000282,0
 .00000436,-0.00000475,-0.00000688,0.00001330,-0.00000789,0.00000957,-0
 .00000724,-0.00000242,-0.00000841,0.00000369,0.00002277,0.00000025,0.0
 0000035,-0.00000109,-0.00000187,-0.00000038,0.00000022,-0.00001965,0.0
 0000129,0.00000156,-0.00002824,-0.00066070,-0.00044038,-0.00005933,0.0
 0004224,-0.00005018,0.00150179,0.00076113,0.00000363,0.00039963,0.0003
 1205,0.00020415,-0.00324054,-0.00851631,-0.00035878,0.13108959,0.36628
 237,0.00042244,0.00013608,0.00001849,-0.00060434,0.00012105,-0.0002754
 5,0.00022625,-0.00013784,-0.00003040,-0.00010838,-0.00000944,0.0000428
 2,-0.00011429,0.00000600,-0.00001059,0.00010356,-0.00000606,0.00000197
 ,0.00008019,0.00000021,-0.00001128,-0.00000017,0.00000102,0.00002668,0
 .00000326,0.00000407,-0.00002657,-0.00001163,0.00000924,-0.00000535,0.
 00001981,0.00000760,-0.00000261,-0.00000352,-0.00000026,0.00000206,0.0
 0000982,-0.00000957,-0.00001370,-0.00007803,-0.00055220,-0.00002363,0.
 00244830,0.00836152,0.00177373,-0.01433088,-0.02970422,-0.06650794,-0.
 00004554,0.00004990,0.00001322,0.00001594,0.00000258,-0.00000320,-0.00
 002476,-0.00001343,0.00002418,0.00000796,-0.00000848,0.00000260,-0.000
 00466,0.00001144,0.00001894,-0.00000165,0.00000027,0.00000543,-0.00000
 015,-0.00000074,0.00000311,-0.00001242,-0.00001020,0.00001434,0.000004
 19,0.00003282,0.00046338,-0.00019255,-0.00029556,-0.00037448,0.0016897
 9,-0.00051004,-0.00009756,0.00042075,0.00076824,-0.00040528,-0.0159865
 7,-0.03514947,-0.00055318,0.01406654,0.03412201,0.06190139,0.00043376,
 -0.00095467,0.00057500,0.00062562,0.00318725,-0.00153160,-0.00080392,-
 0.00056436,0.00009138,0.00003270,0.00018865,-0.00000405,-0.00010561,-0
 .00005104,0.00001865,0.00000763,0.00001920,-0.00001028,0.00003304,0.00
 000552,0.00000058,-0.00002986,0.00000124,-0.00002377,-0.00000872,0.000
 01952,0.00001886,0.00000101,-0.00000300,0.00000748,0.00002080,-0.00000
 679,-0.00000289,-0.00002694,0.00000007,-0.00000089,0.00001892,-0.00001
 050,0.00000169,-0.00669498,-0.00214195,0.00296936,-0.01408710,0.019989
 13,-0.02041571,-0.13761735,0.10643564,-0.10711673,0.00002061,-0.000053
 38,0.00000989,-0.00000091,-0.00000087,-0.00000275,0.00000435,0.0000054
 8,-0.00000802,-0.00000314,0.00000109,0.00000202,-0.00000527,-0.0000014
 2,0.00000641,-0.00000184,0.00000060,-0.00000120,-0.00000232,-0.0000002
 7,-0.00000064,-0.00001780,0.00000437,-0.00000663,0.00007233,0.00009623
 ,0.00019487,0.00045107,-0.00044538,0.00028271,0.00065324,-0.00094574,-
 0.00081232,0.00123396,0.00052909,0.00057130,0.00344933,-0.00574145,0.0
 0384967,0.00932287,-0.00926826,0.01200075,0.14302450,-0.00025065,0.000
 07330,-0.00010288,-0.00015167,0.00004404,0.00009007,-0.00024051,0.0000
 1721,-0.00001907,0.00007243,0.00002003,0.00000156,0.00012673,0.0000049
 6,0.00002273,-0.00010616,-0.00000106,-0.00001208,-0.00007771,-0.000010
 93,-0.00001119,-0.00000240,0.00000577,-0.00002089,0.00000344,0.0000143
 2,0.00001936,0.00002080,-0.00000707,0.00000220,-0.00002076,-0.00002949
 ,-0.00000352,-0.00001577,0.00000255,-0.00000059,-0.00000578,0.00000222
 ,0.00000670,-0.00009716,0.00031326,0.00020328,0.00143314,0.00247475,-0
 .00347325,0.10026264,-0.19461592,0.13036064,0.00005073,-0.00006467,0.0
 0004057,-0.00001555,-0.00000342,-0.00000367,0.00002480,0.00001853,-0.0
 0001436,0.00000442,-0.00000431,0.00000204,0.00000781,0.00000559,-0.000
 00911,0.00000447,-0.00000204,-0.00000250,-0.00000250,0.00000075,-0.000
 00178,0.00000434,0.00002462,-0.00000667,-0.00026740,0.00015516,-0.0000
 1183,-0.00004078,-0.00007746,0.00013298,-0.00091157,0.00046717,-0.0004
 1416,0.00011380,-0.00006869,-0.00023437,-0.00825588,0.01014089,-0.0079
 2499,0.01862673,-0.01949673,0.02277345,-0.11029401,0.20059667,0.000249
 86,-0.00007873,-0.00008388,-0.00011526,-0.00019586,0.00071228,0.000443
 03,-0.00008155,-0.00002687,-0.00010871,-0.00007674,-0.00004186,-0.0001
 1492,0.00003748,-0.00004520,0.00011514,-0.00001493,0.00001454,0.000077
 96,-0.00001981,0.00001424,0.00002321,-0.00000506,0.00004188,0.00000409
 ,-0.00000023,-0.00003336,-0.00001778,0.00001085,-0.00000513,0.00002732
 ,0.00001589,-0.00000121,0.00000123,0.00000076,0.00000222,0.00001237,-0
 .00001192,-0.00001842,0.00191873,0.00072025,-0.00105585,0.00180317,-0.
 00768042,0.00829550,-0.09987066,0.12862204,-0.19044003,-0.00004132,0.0
 0010461,-0.00000935,0.00000498,0.00001027,0.00000035,-0.00002926,-0.00
 001449,0.00002238,0.00000457,-0.00000574,0.00000017,-0.00000994,0.0000
 0546,0.00002401,-0.00000298,0.00000063,0.00000535,0.00000002,-0.000000
 86,0.00000445,-0.00001301,-0.00001370,0.00002101,-0.00013001,0.0000772
 7,0.00000142,-0.00005485,0.00011420,0.00028353,-0.00031078,-0.00015543
 ,0.00006931,0.00070370,-0.00067139,0.00006635,-0.01813515,0.02442185,-
 0.01949824,0.00422835,-0.00372600,0.00402890,0.10933688,-0.14138868,0.
 19765149\\-0.00000529,0.00000323,-0.00000643,-0.00000076,0.00000063,0.
 00000017,-0.00000103,0.00000255,0.00000555,-0.00000179,-0.00000420,0.0
 0000253,-0.00000181,-0.00000141,0.00000112,0.00000585,0.00000574,-0.00
 000231,0.00000161,0.00000083,0.00000071,0.00000212,0.00000467,-0.00000
 386,0.00000348,-0.00000795,-0.00000280,-0.00000351,0.00000003,-0.00000
 444,0.00000027,0.00000123,0.00000142,0.00000256,0.00000310,0.00000015,
 0.00000104,0.00000464,-0.00000180,-0.00000077,-0.00000428,0.00000184,0
 .00000233,0.00000106,-0.00000010,0.00000441,0.00000061,0.00000007,-0.0
 0000064,-0.00000272,-0.00000207,0.00000179,-0.00000190,0.00000057,-0.0
 0000482,-0.00000831,0.00000466,0.00000164,0.00000140,-0.00000060,-0.00
 000337,-0.00000138,-0.00000027,-0.00000054,0.00000060,0.00000256,0.000
 00022,0.00000059,-0.00000054,-0.00000141,0.00000054,0.00000355,-0.0000
 0007,-0.00000015,-0.00000102,0.00000015,0.00000118,-0.00000020,-0.0000
 0145,0.00000096,0.00000039,-0.00000035,-0.00000040,0.00000059,-0.00000
 013,-0.00000024,0.00000051,0.00000012,-0.00000063,0.00000015,0.0000001
 6,-0.00000003,-0.00000011\\\@


 If fifty million people say a stupid thing,
 it is still a stupid thing.
                   -- Anatole France
 Job cpu time:       0 days  2 hours  8 minutes 45.4 seconds.
 File lengths (MBytes):  RWF=    458 Int=      0 D2E=      0 Chk=     13 Scr=      1
 Normal termination of Gaussian 09 at Sat Jul 24 02:15:32 2021.
