 Entering Gaussian System, Link 0=g09
 Input=opt_freq-conf-301.com
 Output=opt_freq-conf-301.log
 Initial command:
 /aerosol/software/g09/l1.exe "/scratch/nicole/10490/Gau-72620.inp" -scrdir="/scratch/nicole/10490/"
 Entering Link 1 = /aerosol/software/g09/l1.exe PID=     72628.
  
 Copyright (c) 1988,1990,1992,1993,1995,1998,2003,2009,2013,
            Gaussian, Inc.  All Rights Reserved.
  
 This is part of the Gaussian(R) 09 program.  It is based on
 the Gaussian(R) 03 system (copyright 2003, Gaussian, Inc.),
 the Gaussian(R) 98 system (copyright 1998, Gaussian, Inc.),
 the Gaussian(R) 94 system (copyright 1995, Gaussian, Inc.),
 the Gaussian 92(TM) system (copyright 1992, Gaussian, Inc.),
 the Gaussian 90(TM) system (copyright 1990, Gaussian, Inc.),
 the Gaussian 88(TM) system (copyright 1988, Gaussian, Inc.),
 the Gaussian 86(TM) system (copyright 1986, Carnegie Mellon
 University), and the Gaussian 82(TM) system (copyright 1983,
 Carnegie Mellon University). Gaussian is a federally registered
 trademark of Gaussian, Inc.
  
 This software contains proprietary and confidential information,
 including trade secrets, belonging to Gaussian, Inc.
  
 This software is provided under written license and may be
 used, copied, transmitted, or stored only in accord with that
 written license.
  
 The following legend is applicable only to US Government
 contracts under FAR:
  
                    RESTRICTED RIGHTS LEGEND
  
 Use, reproduction and disclosure by the US Government is
 subject to restrictions as set forth in subparagraphs (a)
 and (c) of the Commercial Computer Software - Restricted
 Rights clause in FAR 52.227-19.
  
 Gaussian, Inc.
 340 Quinnipiac St., Bldg. 40, Wallingford CT 06492
  
  
 ---------------------------------------------------------------
 Warning -- This program may not be used in any manner that
 competes with the business of Gaussian, Inc. or will provide
 assistance to any competitor of Gaussian, Inc.  The licensee
 of this program is prohibited from giving any competitor of
 Gaussian, Inc. access to this program.  By using this program,
 the user acknowledges that Gaussian, Inc. is engaged in the
 business of creating and licensing software in the field of
 computational chemistry and represents and warrants to the
 licensee that it is not a competitor of Gaussian, Inc. and that
 it will not use this program in any manner prohibited above.
 ---------------------------------------------------------------
  

 Cite this work as:
 Gaussian 09, Revision D.01,
 M. J. Frisch, G. W. Trucks, H. B. Schlegel, G. E. Scuseria, 
 M. A. Robb, J. R. Cheeseman, G. Scalmani, V. Barone, B. Mennucci, 
 G. A. Petersson, H. Nakatsuji, M. Caricato, X. Li, H. P. Hratchian, 
 A. F. Izmaylov, J. Bloino, G. Zheng, J. L. Sonnenberg, M. Hada, 
 M. Ehara, K. Toyota, R. Fukuda, J. Hasegawa, M. Ishida, T. Nakajima, 
 Y. Honda, O. Kitao, H. Nakai, T. Vreven, J. A. Montgomery, Jr., 
 J. E. Peralta, F. Ogliaro, M. Bearpark, J. J. Heyd, E. Brothers, 
 K. N. Kudin, V. N. Staroverov, T. Keith, R. Kobayashi, J. Normand, 
 K. Raghavachari, A. Rendell, J. C. Burant, S. S. Iyengar, J. Tomasi, 
 M. Cossi, N. Rega, J. M. Millam, M. Klene, J. E. Knox, J. B. Cross, 
 V. Bakken, C. Adamo, J. Jaramillo, R. Gomperts, R. E. Stratmann, 
 O. Yazyev, A. J. Austin, R. Cammi, C. Pomelli, J. W. Ochterski, 
 R. L. Martin, K. Morokuma, V. G. Zakrzewski, G. A. Voth, 
 P. Salvador, J. J. Dannenberg, S. Dapprich, A. D. Daniels, 
 O. Farkas, J. B. Foresman, J. V. Ortiz, J. Cioslowski, 
 and D. J. Fox, Gaussian, Inc., Wallingford CT, 2013.
 
 ******************************************
 Gaussian 09:  ES64L-G09RevD.01 24-Apr-2013
                24-Jul-2021 
 ******************************************
 %mem=2gb
 %nproc=4
 Will use up to    4 processors via shared memory.
 %chk=conf-301.chk
 ----------------------------------------------------------------------
 # B3LYP/6-311G(d,p) EmpiricalDispersion=GD3BJ opt=calcfc freq=noraman 
 nosymm integral(ultrafinegrid)
 ----------------------------------------------------------------------
 1/10=4,14=-1,18=20,19=15,26=4,38=1/1,3;
 2/9=110,12=2,15=1,17=6,18=5,40=1/2;
 3/5=4,6=6,7=101,11=2,16=1,25=1,30=1,71=2,74=-5,75=-5,124=41,140=1/1,2,3;
 4//1;
 5/5=2,38=5/2;
 8/6=4,10=90,11=11/1;
 11/6=1,8=1,9=11,15=111,16=1,31=1/1,2,10;
 10/6=1,13=1,31=1/2;
 6/7=2,8=2,9=2,10=2,28=1/1;
 7/10=1,18=20,25=1,30=1/1,2,3,16;
 1/10=4,14=-1,18=20,19=15,26=4/3(2);
 2/9=110,15=1/2;
 99//99;
 2/9=110,15=1/2;
 3/5=4,6=6,7=101,11=2,16=1,25=1,30=1,71=1,74=-5,75=-5,124=41/1,2,3;
 4/5=5,16=3,69=1/1;
 5/5=2,38=5/2;
 7/30=1/1,2,3,16;
 1/14=-1,18=20,19=15,26=4/3(-5);
 2/9=110,15=1/2;
 6/7=2,8=2,9=2,10=2,19=2,28=1/1;
 99/9=1/99;
 ------------------------------------------------------------
 Candidate Structure: Conf:301 OPT and FREQ calc in gas phase
 ------------------------------------------------------------
 Symbolic Z-matrix:
 Charge =  1 Multiplicity = 1
 O                    -0.13881  -0.14864  -1.76768 
 C                     0.37704   0.73199  -1.08592 
 N                    -0.36807   1.54339  -0.28954 
 C                    -1.69978   1.15699   0.11336 
 C                    -2.48703   2.41612   0.39823 
 O                    -3.81375   2.17874   0.4095 
 O                    -2.00478   3.49354   0.62806 
 C                    -1.71407   0.28347   1.39749 
 C                    -0.86229  -0.9459    1.29263 
 C                     0.37799  -1.24597   1.78407 
 N                     0.81292  -2.47088   1.32067 
 C                    -0.17136  -2.92931   0.59162 
 N                    -1.20497  -2.04884   0.5375 
 C                     1.87632   0.99424  -1.03538 
 C                     2.70492   0.02335  -1.85939 
 N                     2.44095  -1.38529  -1.47797 
 H                     0.06396   2.28836   0.23028 
 H                    -2.15378   0.60536  -0.70847 
 H                    -4.23228   3.02183   0.6253 
 H                    -1.3464    0.87479   2.23745 
 H                    -2.74758   0.01572   1.61236 
 H                     0.99944  -0.61957   2.41458 
 H                    -0.1819   -3.87674   0.07388 
 H                    -2.04603  -2.15826  -0.00986 
 H                     2.19196   0.9501    0.01525 
 H                     2.05996   2.0183   -1.37188 
 H                     2.46431   0.1559   -2.91485 
 H                     3.76406   0.2522   -1.73145 
 H                     3.06624  -2.03948  -1.94956 
 H                     1.47923  -1.59914  -1.75807 
 H                     2.49377  -1.5368   -0.46652 
 

 GradGradGradGradGradGradGradGradGradGradGradGradGradGradGradGradGradGrad
 Berny optimization.
 Initialization pass.
                           ----------------------------
                           !    Initial Parameters    !
                           ! (Angstroms and Degrees)  !
 --------------------------                            --------------------------
 ! Name  Definition              Value          Derivative Info.                !
 --------------------------------------------------------------------------------
 ! R1    R(1,2)                  1.2274         calculate D2E/DX2 analytically  !
 ! R2    R(2,3)                  1.3593         calculate D2E/DX2 analytically  !
 ! R3    R(2,14)                 1.5229         calculate D2E/DX2 analytically  !
 ! R4    R(3,4)                  1.444          calculate D2E/DX2 analytically  !
 ! R5    R(3,17)                 1.0059         calculate D2E/DX2 analytically  !
 ! R6    R(4,5)                  1.5121         calculate D2E/DX2 analytically  !
 ! R7    R(4,8)                  1.5531         calculate D2E/DX2 analytically  !
 ! R8    R(4,18)                 1.089          calculate D2E/DX2 analytically  !
 ! R9    R(5,6)                  1.3478         calculate D2E/DX2 analytically  !
 ! R10   R(5,7)                  1.2026         calculate D2E/DX2 analytically  !
 ! R11   R(6,19)                 0.9657         calculate D2E/DX2 analytically  !
 ! R12   R(8,9)                  1.4993         calculate D2E/DX2 analytically  !
 ! R13   R(8,20)                 1.091          calculate D2E/DX2 analytically  !
 ! R14   R(8,21)                 1.089          calculate D2E/DX2 analytically  !
 ! R15   R(9,10)                 1.3674         calculate D2E/DX2 analytically  !
 ! R16   R(9,13)                 1.3799         calculate D2E/DX2 analytically  !
 ! R17   R(10,11)                1.38           calculate D2E/DX2 analytically  !
 ! R18   R(10,22)                1.0845         calculate D2E/DX2 analytically  !
 ! R19   R(11,12)                1.3079         calculate D2E/DX2 analytically  !
 ! R20   R(12,13)                1.3589         calculate D2E/DX2 analytically  !
 ! R21   R(12,23)                1.0797         calculate D2E/DX2 analytically  !
 ! R22   R(13,24)                1.0094         calculate D2E/DX2 analytically  !
 ! R23   R(14,15)                1.5193         calculate D2E/DX2 analytically  !
 ! R24   R(14,25)                1.0979         calculate D2E/DX2 analytically  !
 ! R25   R(14,26)                1.0935         calculate D2E/DX2 analytically  !
 ! R26   R(15,16)                1.483          calculate D2E/DX2 analytically  !
 ! R27   R(15,27)                1.0906         calculate D2E/DX2 analytically  !
 ! R28   R(15,28)                1.0911         calculate D2E/DX2 analytically  !
 ! R29   R(16,29)                1.0205         calculate D2E/DX2 analytically  !
 ! R30   R(16,30)                1.0243         calculate D2E/DX2 analytically  !
 ! R31   R(16,31)                1.0241         calculate D2E/DX2 analytically  !
 ! A1    A(1,2,3)              121.5556         calculate D2E/DX2 analytically  !
 ! A2    A(1,2,14)             123.764          calculate D2E/DX2 analytically  !
 ! A3    A(3,2,14)             114.6718         calculate D2E/DX2 analytically  !
 ! A4    A(2,3,4)              120.6148         calculate D2E/DX2 analytically  !
 ! A5    A(2,3,17)             120.6239         calculate D2E/DX2 analytically  !
 ! A6    A(4,3,17)             116.7494         calculate D2E/DX2 analytically  !
 ! A7    A(3,4,5)              108.0534         calculate D2E/DX2 analytically  !
 ! A8    A(3,4,8)              112.9349         calculate D2E/DX2 analytically  !
 ! A9    A(3,4,18)             108.0278         calculate D2E/DX2 analytically  !
 ! A10   A(5,4,8)              107.9259         calculate D2E/DX2 analytically  !
 ! A11   A(5,4,18)             110.3004         calculate D2E/DX2 analytically  !
 ! A12   A(8,4,18)             109.5873         calculate D2E/DX2 analytically  !
 ! A13   A(4,5,6)              111.5559         calculate D2E/DX2 analytically  !
 ! A14   A(4,5,7)              124.9785         calculate D2E/DX2 analytically  !
 ! A15   A(6,5,7)              123.4302         calculate D2E/DX2 analytically  !
 ! A16   A(5,6,19)             105.9456         calculate D2E/DX2 analytically  !
 ! A17   A(4,8,9)              113.4602         calculate D2E/DX2 analytically  !
 ! A18   A(4,8,20)             109.1842         calculate D2E/DX2 analytically  !
 ! A19   A(4,8,21)             108.0677         calculate D2E/DX2 analytically  !
 ! A20   A(9,8,20)             107.8662         calculate D2E/DX2 analytically  !
 ! A21   A(9,8,21)             110.5699         calculate D2E/DX2 analytically  !
 ! A22   A(20,8,21)            107.5279         calculate D2E/DX2 analytically  !
 ! A23   A(8,9,10)             132.0744         calculate D2E/DX2 analytically  !
 ! A24   A(8,9,13)             123.5444         calculate D2E/DX2 analytically  !
 ! A25   A(10,9,13)            104.2715         calculate D2E/DX2 analytically  !
 ! A26   A(9,10,11)            111.0983         calculate D2E/DX2 analytically  !
 ! A27   A(9,10,22)            127.0102         calculate D2E/DX2 analytically  !
 ! A28   A(11,10,22)           121.8242         calculate D2E/DX2 analytically  !
 ! A29   A(10,11,12)           105.1373         calculate D2E/DX2 analytically  !
 ! A30   A(11,12,13)           111.5634         calculate D2E/DX2 analytically  !
 ! A31   A(11,12,23)           125.6073         calculate D2E/DX2 analytically  !
 ! A32   A(13,12,23)           122.8225         calculate D2E/DX2 analytically  !
 ! A33   A(9,13,12)            107.8912         calculate D2E/DX2 analytically  !
 ! A34   A(9,13,24)            126.1768         calculate D2E/DX2 analytically  !
 ! A35   A(12,13,24)           125.8125         calculate D2E/DX2 analytically  !
 ! A36   A(2,14,15)            114.1355         calculate D2E/DX2 analytically  !
 ! A37   A(2,14,25)            107.9306         calculate D2E/DX2 analytically  !
 ! A38   A(2,14,26)            108.4455         calculate D2E/DX2 analytically  !
 ! A39   A(15,14,25)           109.6656         calculate D2E/DX2 analytically  !
 ! A40   A(15,14,26)           109.8762         calculate D2E/DX2 analytically  !
 ! A41   A(25,14,26)           106.4904         calculate D2E/DX2 analytically  !
 ! A42   A(14,15,16)           111.7413         calculate D2E/DX2 analytically  !
 ! A43   A(14,15,27)           109.08           calculate D2E/DX2 analytically  !
 ! A44   A(14,15,28)           109.3767         calculate D2E/DX2 analytically  !
 ! A45   A(16,15,27)           108.97           calculate D2E/DX2 analytically  !
 ! A46   A(16,15,28)           109.9886         calculate D2E/DX2 analytically  !
 ! A47   A(27,15,28)           107.5867         calculate D2E/DX2 analytically  !
 ! A48   A(15,16,29)           112.3948         calculate D2E/DX2 analytically  !
 ! A49   A(15,16,30)           107.1637         calculate D2E/DX2 analytically  !
 ! A50   A(15,16,31)           112.6662         calculate D2E/DX2 analytically  !
 ! A51   A(29,16,30)           108.3673         calculate D2E/DX2 analytically  !
 ! A52   A(29,16,31)           109.2679         calculate D2E/DX2 analytically  !
 ! A53   A(30,16,31)           106.7156         calculate D2E/DX2 analytically  !
 ! D1    D(1,2,3,4)             19.5353         calculate D2E/DX2 analytically  !
 ! D2    D(1,2,3,17)          -177.1208         calculate D2E/DX2 analytically  !
 ! D3    D(14,2,3,4)          -159.4324         calculate D2E/DX2 analytically  !
 ! D4    D(14,2,3,17)            3.9116         calculate D2E/DX2 analytically  !
 ! D5    D(1,2,14,15)           -2.7105         calculate D2E/DX2 analytically  !
 ! D6    D(1,2,14,25)         -124.8903         calculate D2E/DX2 analytically  !
 ! D7    D(1,2,14,26)          120.1217         calculate D2E/DX2 analytically  !
 ! D8    D(3,2,14,15)          176.2313         calculate D2E/DX2 analytically  !
 ! D9    D(3,2,14,25)           54.0516         calculate D2E/DX2 analytically  !
 ! D10   D(3,2,14,26)          -60.9365         calculate D2E/DX2 analytically  !
 ! D11   D(2,3,4,5)           -153.9324         calculate D2E/DX2 analytically  !
 ! D12   D(2,3,4,8)             86.7643         calculate D2E/DX2 analytically  !
 ! D13   D(2,3,4,18)           -34.6031         calculate D2E/DX2 analytically  !
 ! D14   D(17,3,4,5)            42.1016         calculate D2E/DX2 analytically  !
 ! D15   D(17,3,4,8)           -77.2016         calculate D2E/DX2 analytically  !
 ! D16   D(17,3,4,18)          161.431          calculate D2E/DX2 analytically  !
 ! D17   D(3,4,5,6)            162.512          calculate D2E/DX2 analytically  !
 ! D18   D(3,4,5,7)            -19.5962         calculate D2E/DX2 analytically  !
 ! D19   D(8,4,5,6)            -75.0616         calculate D2E/DX2 analytically  !
 ! D20   D(8,4,5,7)            102.8302         calculate D2E/DX2 analytically  !
 ! D21   D(18,4,5,6)            44.631          calculate D2E/DX2 analytically  !
 ! D22   D(18,4,5,7)          -137.4772         calculate D2E/DX2 analytically  !
 ! D23   D(3,4,8,9)            -55.4448         calculate D2E/DX2 analytically  !
 ! D24   D(3,4,8,20)            64.8933         calculate D2E/DX2 analytically  !
 ! D25   D(3,4,8,21)          -178.4322         calculate D2E/DX2 analytically  !
 ! D26   D(5,4,8,9)           -174.8217         calculate D2E/DX2 analytically  !
 ! D27   D(5,4,8,20)           -54.4836         calculate D2E/DX2 analytically  !
 ! D28   D(5,4,8,21)            62.1909         calculate D2E/DX2 analytically  !
 ! D29   D(18,4,8,9)            65.036          calculate D2E/DX2 analytically  !
 ! D30   D(18,4,8,20)         -174.6259         calculate D2E/DX2 analytically  !
 ! D31   D(18,4,8,21)          -57.9514         calculate D2E/DX2 analytically  !
 ! D32   D(4,5,6,19)           178.1955         calculate D2E/DX2 analytically  !
 ! D33   D(7,5,6,19)             0.2653         calculate D2E/DX2 analytically  !
 ! D34   D(4,8,9,10)           102.3333         calculate D2E/DX2 analytically  !
 ! D35   D(4,8,9,13)           -73.2285         calculate D2E/DX2 analytically  !
 ! D36   D(20,8,9,10)          -18.7483         calculate D2E/DX2 analytically  !
 ! D37   D(20,8,9,13)          165.6898         calculate D2E/DX2 analytically  !
 ! D38   D(21,8,9,10)         -136.0673         calculate D2E/DX2 analytically  !
 ! D39   D(21,8,9,13)           48.3708         calculate D2E/DX2 analytically  !
 ! D40   D(8,9,10,11)         -174.3606         calculate D2E/DX2 analytically  !
 ! D41   D(8,9,10,22)            2.6761         calculate D2E/DX2 analytically  !
 ! D42   D(13,9,10,11)           1.8236         calculate D2E/DX2 analytically  !
 ! D43   D(13,9,10,22)         178.8603         calculate D2E/DX2 analytically  !
 ! D44   D(8,9,13,12)          175.669          calculate D2E/DX2 analytically  !
 ! D45   D(8,9,13,24)           -0.5304         calculate D2E/DX2 analytically  !
 ! D46   D(10,9,13,12)          -0.9332         calculate D2E/DX2 analytically  !
 ! D47   D(10,9,13,24)        -177.1326         calculate D2E/DX2 analytically  !
 ! D48   D(9,10,11,12)          -2.0211         calculate D2E/DX2 analytically  !
 ! D49   D(22,10,11,12)       -179.2363         calculate D2E/DX2 analytically  !
 ! D50   D(10,11,12,13)          1.3885         calculate D2E/DX2 analytically  !
 ! D51   D(10,11,12,23)       -179.5397         calculate D2E/DX2 analytically  !
 ! D52   D(11,12,13,9)          -0.3003         calculate D2E/DX2 analytically  !
 ! D53   D(11,12,13,24)        175.9167         calculate D2E/DX2 analytically  !
 ! D54   D(23,12,13,9)        -179.4022         calculate D2E/DX2 analytically  !
 ! D55   D(23,12,13,24)         -3.1853         calculate D2E/DX2 analytically  !
 ! D56   D(2,14,15,16)         -55.3687         calculate D2E/DX2 analytically  !
 ! D57   D(2,14,15,27)          65.1784         calculate D2E/DX2 analytically  !
 ! D58   D(2,14,15,28)        -177.3984         calculate D2E/DX2 analytically  !
 ! D59   D(25,14,15,16)         65.8549         calculate D2E/DX2 analytically  !
 ! D60   D(25,14,15,27)       -173.598          calculate D2E/DX2 analytically  !
 ! D61   D(25,14,15,28)        -56.1748         calculate D2E/DX2 analytically  !
 ! D62   D(26,14,15,16)       -177.4187         calculate D2E/DX2 analytically  !
 ! D63   D(26,14,15,27)        -56.8716         calculate D2E/DX2 analytically  !
 ! D64   D(26,14,15,28)         60.5516         calculate D2E/DX2 analytically  !
 ! D65   D(14,15,16,29)       -173.5573         calculate D2E/DX2 analytically  !
 ! D66   D(14,15,16,30)         67.498          calculate D2E/DX2 analytically  !
 ! D67   D(14,15,16,31)        -49.5803         calculate D2E/DX2 analytically  !
 ! D68   D(27,15,16,29)         65.8315         calculate D2E/DX2 analytically  !
 ! D69   D(27,15,16,30)        -53.1132         calculate D2E/DX2 analytically  !
 ! D70   D(27,15,16,31)       -170.1915         calculate D2E/DX2 analytically  !
 ! D71   D(28,15,16,29)        -51.8798         calculate D2E/DX2 analytically  !
 ! D72   D(28,15,16,30)       -170.8245         calculate D2E/DX2 analytically  !
 ! D73   D(28,15,16,31)         72.0972         calculate D2E/DX2 analytically  !
 --------------------------------------------------------------------------------
 Trust Radius=3.00D-01 FncErr=1.00D-07 GrdErr=1.00D-06
 Number of steps in this run=    167 maximum allowed number of steps=    186.
 GradGradGradGradGradGradGradGradGradGradGradGradGradGradGradGradGradGrad

                          Input orientation:                          
 ---------------------------------------------------------------------
 Center     Atomic      Atomic             Coordinates (Angstroms)
 Number     Number       Type             X           Y           Z
 ---------------------------------------------------------------------
      1          8           0       -0.138812   -0.148640   -1.767677
      2          6           0        0.377043    0.731988   -1.085918
      3          7           0       -0.368072    1.543392   -0.289539
      4          6           0       -1.699776    1.156991    0.113364
      5          6           0       -2.487034    2.416121    0.398227
      6          8           0       -3.813746    2.178739    0.409500
      7          8           0       -2.004782    3.493543    0.628056
      8          6           0       -1.714069    0.283474    1.397493
      9          6           0       -0.862288   -0.945898    1.292630
     10          6           0        0.377987   -1.245966    1.784068
     11          7           0        0.812918   -2.470876    1.320671
     12          6           0       -0.171359   -2.929311    0.591616
     13          7           0       -1.204965   -2.048844    0.537500
     14          6           0        1.876321    0.994236   -1.035383
     15          6           0        2.704922    0.023349   -1.859393
     16          7           0        2.440955   -1.385286   -1.477965
     17          1           0        0.063956    2.288359    0.230280
     18          1           0       -2.153784    0.605359   -0.708473
     19          1           0       -4.232284    3.021834    0.625295
     20          1           0       -1.346396    0.874791    2.237450
     21          1           0       -2.747575    0.015717    1.612359
     22          1           0        0.999445   -0.619573    2.414576
     23          1           0       -0.181899   -3.876737    0.073880
     24          1           0       -2.046031   -2.158257   -0.009859
     25          1           0        2.191957    0.950096    0.015249
     26          1           0        2.059958    2.018302   -1.371880
     27          1           0        2.464305    0.155904   -2.914855
     28          1           0        3.764060    0.252198   -1.731446
     29          1           0        3.066242   -2.039480   -1.949563
     30          1           0        1.479227   -1.599140   -1.758067
     31          1           0        2.493767   -1.536799   -0.466521
 ---------------------------------------------------------------------
                    Distance matrix (angstroms):
                    1          2          3          4          5
     1  O    0.000000
     2  C    1.227358   0.000000
     3  N    2.258412   1.359335   0.000000
     4  C    2.771208   2.435586   1.443978   0.000000
     5  C    4.096741   3.638946   2.392630   1.512062   0.000000
     6  O    4.864353   4.678897   3.572813   2.366545   1.347828
     7  O    4.742033   4.029514   2.706268   2.411931   1.202591
     8  C    3.561805   3.277384   2.499035   1.553133   2.478748
     9  C    3.244152   3.163659   2.990665   2.552292   3.839652
    10  C    3.753145   3.485559   3.554851   3.589227   4.851781
    11  N    3.979506   4.029888   4.483510   4.575220   5.968528
    12  C    3.646841   4.064477   4.562916   4.388923   5.828670
    13  N    3.171955   3.587654   3.780019   3.271407   4.647474
    14  C    2.429646   1.522879   2.427994   3.759598   4.807896
    15  C    2.850406   2.553322   3.770711   4.957648   6.146431
    16  N    2.875487   2.982664   4.228492   5.112841   6.500451
    17  H    3.157833   2.062205   1.005900   2.098669   2.559703
    18  H    2.398028   2.561949   2.060141   1.088961   2.148186
    19  H    5.703922   5.423794   4.237316   3.186426   1.861275
    20  H    4.306589   3.746386   2.791024   2.171694   2.656971
    21  H    4.272856   4.190105   3.407791   2.155777   2.702580
    22  H    4.359891   3.803625   3.723004   3.967058   5.043475
    23  H    4.158353   4.785175   5.435489   5.257749   6.709614
    24  H    3.281153   3.922079   4.073815   3.335557   4.613670
    25  H    3.133454   2.134023   2.645495   3.898464   4.918217
    26  H    3.112376   2.137424   2.700432   4.133208   4.895577
    27  H    2.860941   2.834351   4.103628   5.245174   6.371880
    28  H    3.923569   3.481205   4.562980   5.837420   6.949406
    29  H    3.725685   3.957109   5.233274   6.098197   7.496891
    30  H    2.173038   2.664723   3.929961   4.604841   6.041784
    31  H    3.248148   3.164106   4.208209   5.017825   6.417301
                    6          7          8          9         10
     6  O    0.000000
     7  O    2.246959   0.000000
     8  C    2.996131   3.313772   0.000000
     9  C    4.387981   4.632017   1.499294   0.000000
    10  C    5.584681   5.429263   2.620177   1.367419   0.000000
    11  N    6.622324   6.632755   3.738718   2.265538   1.379967
    12  C    6.276330   6.679507   3.653954   2.214212   2.134801
    13  N    4.969364   5.600532   2.537417   1.379906   2.168936
    14  C    5.988956   4.906783   4.394880   4.084574   3.900361
    15  C    7.230948   6.356962   5.495676   4.857950   4.505618
    16  N    7.442182   6.928410   5.321395   4.333668   3.862138
    17  H    3.883389   2.427009   2.922896   3.528021   3.873542
    18  H    2.545754   3.185925   2.175328   2.842318   4.006248
    19  H    0.965687   2.276902   3.799514   5.248343   6.388385
    20  H    3.336090   3.143482   1.091039   2.107594   2.770678
    21  H    2.694857   3.689968   1.089034   2.140382   3.374976
    22  H    5.917574   5.397662   3.035311   2.198022   1.084490
    23  H    7.069069   7.612558   4.626755   3.246244   3.187346
    24  H    4.702149   5.687836   2.837761   2.137180   3.150605
    25  H    6.142757   4.945430   4.196668   3.815090   3.352894
    26  H    6.139988   4.764262   4.992228   4.942229   4.841951
    27  H    7.386279   6.607934   6.005949   5.475685   5.328962
    28  H    8.106685   7.025176   6.308814   5.655402   5.105764
    29  H    8.407900   7.935600   6.280945   5.209711   4.668659
    30  H    6.854653   6.615687   4.868155   3.900791   3.726149
    31  H    7.372744   6.836620   4.949124   3.834956   3.102622
                   11         12         13         14         15
    11  N    0.000000
    12  C    1.307856   0.000000
    13  N    2.205294   1.358857   0.000000
    14  C    4.323056   4.715330   4.607453   0.000000
    15  C    4.462470   4.795689   5.032524   1.519274   0.000000
    16  N    3.414876   3.673059   4.218429   2.485320   1.483043
    17  H    4.939657   5.235457   4.529445   2.561507   4.058534
    18  H    4.730958   4.256070   3.081801   4.061999   5.026965
    19  H    7.490492   7.204746   5.906280   6.647109   7.955464
    20  H    4.086148   4.308210   3.384889   4.594737   5.824281
    21  H    4.352624   4.043760   2.792379   5.417421   6.463965
    22  H    2.158412   3.166837   3.228878   3.908390   4.646377
    23  H    2.126169   1.079712   2.145414   5.403065   5.223213
    24  H    3.168854   2.114401   1.009438   5.135635   5.545424
    25  H    3.912662   4.579002   4.561301   1.097909   2.153202
    26  H    5.381232   5.771739   5.554020   1.093464   2.152553
    27  H    5.250403   5.362892   5.499383   2.140313   1.090626
    28  H    5.043787   5.568316   5.927404   2.144454   1.091108
    29  H    3.994746   4.210872   4.942548   3.384534   2.096174
    30  H    3.268412   3.164617   3.560442   2.721314   2.035943
    31  H    2.625226   3.187733   3.866636   2.666642   2.102080
                   16         17         18         19         20
    16  N    0.000000
    17  H    4.697221   0.000000
    18  H    5.066202   2.938046   0.000000
    19  H    8.269131   4.376266   3.455206   0.000000
    20  H    5.766826   2.831254   3.066419   3.941723   0.000000
    21  H    6.199496   3.870368   2.467088   3.495052   1.758422
    22  H    4.220918   3.755311   4.603992   6.620601   2.787017
    23  H    3.936359   6.171978   4.958789   8.018725   5.349215
    24  H    4.783917   4.927687   2.852585   5.658309   3.839175
    25  H    2.783109   2.523009   4.419059   6.777546   4.178970
    26  H    3.426488   2.573688   4.493566   6.677432   5.092949
    27  H    2.107240   4.494542   5.137789   8.098798   6.448603
    28  H    2.120427   4.656725   6.015985   8.784454   6.500501
    29  H    1.020469   5.700493   5.981985   9.247447   6.745029
    30  H    1.024261   4.590115   4.377240   7.723676   5.483487
    31  H    1.024093   4.584903   5.123193   8.198351   5.279590
                   21         22         23         24         25
    21  H    0.000000
    22  H    3.884238   0.000000
    23  H    4.909258   4.181334   0.000000
    24  H    2.801770   4.185732   2.536765   0.000000
    25  H    5.274732   3.105273   5.379308   5.255762   0.000000
    26  H    6.002367   4.735011   6.470521   6.013143   1.755738
    27  H    6.904999   5.581220   5.674251   5.842728   3.048020
    28  H    7.323820   5.058911   5.989817   6.521603   2.451431
    29  H    7.121207   5.033239   4.245027   5.469177   3.682720
    30  H    5.642108   4.312852   3.361967   3.974454   3.186101
    31  H    5.848394   3.372688   3.595350   4.604837   2.551046
                   26         27         28         29         30
    26  H    0.000000
    27  H    2.452100   0.000000
    28  H    2.480398   1.760423   0.000000
    29  H    4.220417   2.472615   2.405476   0.000000
    30  H    3.684057   2.321360   2.940854   1.658067   0.000000
    31  H    3.694131   2.976650   2.532625   1.667282   1.643554
                   31
    31  H    0.000000
 Symmetry turned off by external request.
 Stoichiometry    C9H15N4O3(1+)
 Framework group  C1[X(C9H15N4O3)]
 Deg. of freedom    87
 Full point group                 C1      NOp   1
 Rotational constants (GHZ):      0.7464841      0.3985491      0.2973763
 Standard basis: 6-311G(d,p) (5D, 7F)
   378 basis functions,   632 primitive gaussians,   394 cartesian basis functions
    60 alpha electrons       60 beta electrons
       nuclear repulsion energy      1185.4331447700 Hartrees.
 NAtoms=   31 NActive=   31 NUniq=   31 SFac= 1.00D+00 NAtFMM=   60 NAOKFM=F Big=F
 Integral buffers will be    131072 words long.
 Raffenetti 2 integral format.
 Two-electron integral symmetry is turned off.
 Nuclear repulsion after empirical dispersion term =     1185.3729858217 Hartrees.
 One-electron integrals computed using PRISM.
 NBasis=   378 RedAO= T EigKep=  4.95D-04  NBF=   378
 NBsUse=   378 1.00D-06 EigRej= -1.00D+00 NBFU=   378
 ExpMin= 1.03D-01 ExpMax= 8.59D+03 ExpMxC= 1.30D+03 IAcc=3 IRadAn=         5 AccDes= 0.00D+00
 Harris functional with IExCor=  402 and IRadAn=       5 diagonalized for initial guess.
 HarFok:  IExCor=  402 AccDes= 0.00D+00 IRadAn=         5 IDoV= 1 UseB2=F ITyADJ=14
 ICtDFT=  3500011 ScaDFX=  1.000000  1.000000  1.000000  1.000000
 FoFCou: FMM=F IPFlag=           0 FMFlag=      100000 FMFlg1=           0
         NFxFlg=           0 DoJE=T BraDBF=F KetDBF=T FulRan=T
         wScrn=  0.000000 ICntrl=     500 IOpCl=  0 I1Cent=   200000004 NGrid=           0
         NMat0=    1 NMatS0=      1 NMatT0=    0 NMatD0=    1 NMtDS0=    0 NMtDT0=    0
 Symmetry not used in FoFCou.
 Requested convergence on RMS density matrix=1.00D-08 within 128 cycles.
 Requested convergence on MAX density matrix=1.00D-06.
 Requested convergence on             energy=1.00D-06.
 No special actions if energy rises.
 Integral accuracy reduced to 1.0D-05 until final iterations.
 Initial convergence to 1.0D-05 achieved.  Increase integral accuracy.
 SCF Done:  E(RB3LYP) =  -796.761972501     A.U. after   14 cycles
            NFock= 14  Conv=0.62D-08     -V/T= 2.0035
 DoSCS=F DFT=T ScalE2(SS,OS)=  1.000000  1.000000
 Range of M.O.s used for correlation:     1   378
 NBasis=   378 NAE=    60 NBE=    60 NFC=     0 NFV=     0
 NROrb=    378 NOA=    60 NOB=    60 NVA=   318 NVB=   318
 Symmetrizing basis deriv contribution to polar:
 IMax=3 JMax=2 DiffMx= 0.00D+00
 G2DrvN: will do    32 centers at a time, making    1 passes.
 Calling FoFCou, ICntrl=  3107 FMM=F I1Cent=   0 AccDes= 0.00D+00.
 End of G2Drv F.D. properties file   721 does not exist.
 End of G2Drv F.D. properties file   722 does not exist.
 End of G2Drv F.D. properties file   788 does not exist.
          IDoAtm=1111111111111111111111111111111
          Differentiating once with respect to nuclear coordinates.
          There are    96 degrees of freedom in the 1st order CPHF.  IDoFFX=6 NUNeed=     0.
     90 vectors produced by pass  0 Test12= 1.99D-14 1.04D-09 XBig12= 1.53D-01 1.00D-01.
 AX will form    90 AO Fock derivatives at one time.
     90 vectors produced by pass  1 Test12= 1.99D-14 1.04D-09 XBig12= 1.41D-02 2.40D-02.
     90 vectors produced by pass  2 Test12= 1.99D-14 1.04D-09 XBig12= 1.46D-04 1.91D-03.
     90 vectors produced by pass  3 Test12= 1.99D-14 1.04D-09 XBig12= 6.70D-07 8.38D-05.
     90 vectors produced by pass  4 Test12= 1.99D-14 1.04D-09 XBig12= 1.67D-09 3.14D-06.
     80 vectors produced by pass  5 Test12= 1.99D-14 1.04D-09 XBig12= 2.27D-12 1.50D-07.
     19 vectors produced by pass  6 Test12= 1.99D-14 1.04D-09 XBig12= 2.18D-15 4.71D-09.
 InvSVY:  IOpt=1 It=  1 EMax= 3.89D-16
 Solved reduced A of dimension   549 with    96 vectors.
 End of Minotr F.D. properties file   721 does not exist.
 End of Minotr F.D. properties file   722 does not exist.
 End of Minotr F.D. properties file   788 does not exist.

 **********************************************************************

            Population analysis using the SCF density.

 **********************************************************************

 Alpha  occ. eigenvalues --  -19.28150 -19.24177 -19.23034 -14.60585 -14.49039
 Alpha  occ. eigenvalues --  -14.47697 -14.41806 -10.42767 -10.42386 -10.40400
 Alpha  occ. eigenvalues --  -10.35735 -10.35259 -10.34787 -10.33114 -10.31742
 Alpha  occ. eigenvalues --  -10.30539  -1.23161  -1.19930  -1.18007  -1.14585
 Alpha  occ. eigenvalues --   -1.14357  -1.07512  -1.00052  -0.96312  -0.92930
 Alpha  occ. eigenvalues --   -0.87997  -0.84001  -0.80262  -0.76683  -0.76265
 Alpha  occ. eigenvalues --   -0.74383  -0.73971  -0.72852  -0.71779  -0.68705
 Alpha  occ. eigenvalues --   -0.66841  -0.65493  -0.62811  -0.61817  -0.61339
 Alpha  occ. eigenvalues --   -0.60024  -0.59149  -0.57980  -0.57254  -0.56479
 Alpha  occ. eigenvalues --   -0.55975  -0.54807  -0.53723  -0.53492  -0.53360
 Alpha  occ. eigenvalues --   -0.52502  -0.50822  -0.49941  -0.44260  -0.42305
 Alpha  occ. eigenvalues --   -0.41835  -0.40546  -0.39993  -0.39861  -0.35807
 Alpha virt. eigenvalues --   -0.15043  -0.14088  -0.12293  -0.10587  -0.09807
 Alpha virt. eigenvalues --   -0.08646  -0.07711  -0.07598  -0.07030  -0.06523
 Alpha virt. eigenvalues --   -0.05214  -0.03969  -0.03649  -0.02775  -0.01927
 Alpha virt. eigenvalues --   -0.00847  -0.00531   0.00126   0.00573   0.02194
 Alpha virt. eigenvalues --    0.02265   0.05178   0.06616   0.07745   0.08454
 Alpha virt. eigenvalues --    0.09484   0.09900   0.10437   0.11549   0.13777
 Alpha virt. eigenvalues --    0.14097   0.14705   0.15920   0.17814   0.18494
 Alpha virt. eigenvalues --    0.19652   0.20651   0.21441   0.22147   0.24753
 Alpha virt. eigenvalues --    0.25268   0.25804   0.26037   0.28239   0.28403
 Alpha virt. eigenvalues --    0.28834   0.30225   0.30642   0.31199   0.33269
 Alpha virt. eigenvalues --    0.34386   0.35628   0.36830   0.37856   0.38501
 Alpha virt. eigenvalues --    0.38906   0.39537   0.40109   0.40414   0.41392
 Alpha virt. eigenvalues --    0.42549   0.43443   0.43814   0.45625   0.45949
 Alpha virt. eigenvalues --    0.46097   0.46770   0.47840   0.48470   0.48853
 Alpha virt. eigenvalues --    0.50143   0.50628   0.51094   0.51542   0.51923
 Alpha virt. eigenvalues --    0.52819   0.53972   0.55309   0.55428   0.57310
 Alpha virt. eigenvalues --    0.58560   0.59410   0.59665   0.61065   0.63837
 Alpha virt. eigenvalues --    0.64123   0.64998   0.68572   0.68911   0.69902
 Alpha virt. eigenvalues --    0.70505   0.71559   0.73779   0.76445   0.77475
 Alpha virt. eigenvalues --    0.79266   0.80716   0.82425   0.82761   0.84803
 Alpha virt. eigenvalues --    0.85636   0.87117   0.88945   0.92190   0.92939
 Alpha virt. eigenvalues --    0.94508   0.95073   0.95971   0.96336   0.99738
 Alpha virt. eigenvalues --    1.00600   1.02448   1.03753   1.05731   1.06872
 Alpha virt. eigenvalues --    1.07853   1.09957   1.11979   1.13131   1.15305
 Alpha virt. eigenvalues --    1.16942   1.17494   1.18596   1.20073   1.21986
 Alpha virt. eigenvalues --    1.26233   1.27185   1.29554   1.30466   1.31049
 Alpha virt. eigenvalues --    1.32598   1.32906   1.33526   1.34349   1.35063
 Alpha virt. eigenvalues --    1.37244   1.38099   1.39016   1.40147   1.41097
 Alpha virt. eigenvalues --    1.42435   1.43439   1.44426   1.45190   1.48036
 Alpha virt. eigenvalues --    1.48453   1.49970   1.51253   1.53141   1.53316
 Alpha virt. eigenvalues --    1.53962   1.54534   1.56499   1.57121   1.57387
 Alpha virt. eigenvalues --    1.58706   1.59848   1.60303   1.61198   1.61474
 Alpha virt. eigenvalues --    1.62080   1.64051   1.65478   1.66602   1.68358
 Alpha virt. eigenvalues --    1.69393   1.70359   1.72616   1.74046   1.75143
 Alpha virt. eigenvalues --    1.77003   1.78334   1.79256   1.82287   1.83740
 Alpha virt. eigenvalues --    1.87144   1.88260   1.88848   1.91853   1.92342
 Alpha virt. eigenvalues --    1.94325   1.96391   1.97668   1.99407   1.99907
 Alpha virt. eigenvalues --    2.00847   2.05177   2.05369   2.06923   2.08168
 Alpha virt. eigenvalues --    2.09616   2.11344   2.12418   2.13771   2.16164
 Alpha virt. eigenvalues --    2.19249   2.21239   2.24229   2.25212   2.25889
 Alpha virt. eigenvalues --    2.28307   2.31234   2.31707   2.32830   2.34492
 Alpha virt. eigenvalues --    2.34882   2.36818   2.38231   2.39342   2.40948
 Alpha virt. eigenvalues --    2.42315   2.43419   2.43769   2.44962   2.45778
 Alpha virt. eigenvalues --    2.46896   2.49251   2.51168   2.51679   2.53329
 Alpha virt. eigenvalues --    2.54862   2.56678   2.56940   2.58663   2.59182
 Alpha virt. eigenvalues --    2.61196   2.62035   2.66655   2.66997   2.68336
 Alpha virt. eigenvalues --    2.69198   2.71635   2.72351   2.72853   2.73640
 Alpha virt. eigenvalues --    2.75081   2.76891   2.77238   2.78076   2.78990
 Alpha virt. eigenvalues --    2.80455   2.82358   2.83605   2.85836   2.86725
 Alpha virt. eigenvalues --    2.87692   2.89527   2.90619   2.94169   2.95718
 Alpha virt. eigenvalues --    3.01547   3.03736   3.04691   3.12622   3.14514
 Alpha virt. eigenvalues --    3.16517   3.20482   3.24030   3.24551   3.26195
 Alpha virt. eigenvalues --    3.27386   3.36942   3.42013   3.43422   3.45403
 Alpha virt. eigenvalues --    3.47652   3.52683   3.54707   3.55834   3.60773
 Alpha virt. eigenvalues --    3.61593   3.64320   3.66354   3.67559   3.68676
 Alpha virt. eigenvalues --    3.71932   3.76705   3.77329   3.81932   3.87286
 Alpha virt. eigenvalues --    3.95723   4.05820   4.07871   4.15931   4.30705
 Alpha virt. eigenvalues --    4.46028   4.48924   4.60330   4.63388   4.69036
 Alpha virt. eigenvalues --    4.72450   4.79329   4.79844   4.81841   4.86331
 Alpha virt. eigenvalues --    4.93980   5.01856   5.13223   5.15955   5.45978
 Alpha virt. eigenvalues --    5.52978   5.62338  23.60059  23.61835  23.66091
 Alpha virt. eigenvalues --   23.66858  23.68461  23.71056  23.76141  23.79654
 Alpha virt. eigenvalues --   24.01830  35.31838  35.40313  35.48063  35.56788
 Alpha virt. eigenvalues --   49.74244  49.86490  49.87967
          Condensed to atoms (all electrons):
               1          2          3          4          5          6
     1  O    7.934174   0.593568  -0.093741   0.002840  -0.000220   0.000001
     2  C    0.593568   4.515120   0.411094  -0.062430   0.006976  -0.000098
     3  N   -0.093741   0.411094   6.680182   0.220286  -0.034679   0.001771
     4  C    0.002840  -0.062430   0.220286   5.338770   0.266331  -0.103254
     5  C   -0.000220   0.006976  -0.034679   0.266331   4.493443   0.355030
     6  O    0.000001  -0.000098   0.001771  -0.103254   0.355030   7.805674
     7  O   -0.000004   0.000340  -0.001318  -0.094214   0.655064  -0.076176
     8  C   -0.002195  -0.008243  -0.053239   0.323694  -0.058184   0.004106
     9  C   -0.001618   0.001416  -0.009999  -0.076474   0.002162  -0.000031
    10  C   -0.002067   0.001659   0.005695  -0.010351  -0.000232  -0.000005
    11  N   -0.000199  -0.000507   0.000077  -0.000113   0.000001   0.000000
    12  C    0.002673   0.000425  -0.000391   0.000970   0.000000   0.000000
    13  N   -0.000142  -0.001458  -0.000111   0.003115   0.000085   0.000003
    14  C   -0.105401   0.270792  -0.093226   0.010822  -0.000503   0.000000
    15  C    0.027658  -0.059399   0.007583  -0.000589   0.000009   0.000000
    16  N   -0.018285  -0.003632  -0.000485   0.000007   0.000000   0.000000
    17  H    0.002683  -0.031794   0.364073  -0.043785  -0.005924   0.001132
    18  H    0.017671  -0.011657  -0.028688   0.383257  -0.016939   0.007322
    19  H    0.000000   0.000028  -0.000466   0.016759  -0.029910   0.309196
    20  H   -0.000114  -0.000720   0.000233  -0.038611   0.000023  -0.000784
    21  H   -0.000321   0.000518   0.006355  -0.052099  -0.003184   0.009357
    22  H   -0.000040   0.000107   0.000430  -0.000294  -0.000014   0.000000
    23  H    0.000128   0.000022  -0.000010   0.000016  -0.000001   0.000000
    24  H    0.001492   0.000038  -0.000202   0.000511  -0.000032  -0.000036
    25  H    0.001405  -0.032446   0.001240  -0.001541  -0.000011  -0.000001
    26  H    0.000972  -0.015220   0.000102  -0.000116  -0.000003   0.000000
    27  H    0.005474  -0.004671   0.000338  -0.000040   0.000001   0.000000
    28  H    0.000574   0.006199  -0.000031   0.000010   0.000000   0.000000
    29  H   -0.000162   0.000031   0.000004  -0.000002   0.000000   0.000000
    30  H    0.043336   0.002224   0.001075   0.000275   0.000001   0.000000
    31  H    0.000799  -0.000858  -0.000339   0.000028  -0.000003   0.000000
               7          8          9         10         11         12
     1  O   -0.000004  -0.002195  -0.001618  -0.002067  -0.000199   0.002673
     2  C    0.000340  -0.008243   0.001416   0.001659  -0.000507   0.000425
     3  N   -0.001318  -0.053239  -0.009999   0.005695   0.000077  -0.000391
     4  C   -0.094214   0.323694  -0.076474  -0.010351  -0.000113   0.000970
     5  C    0.655064  -0.058184   0.002162  -0.000232   0.000001   0.000000
     6  O   -0.076176   0.004106  -0.000031  -0.000005   0.000000   0.000000
     7  O    7.795503  -0.002944  -0.000292  -0.000003   0.000000   0.000000
     8  C   -0.002944   4.911174   0.335813  -0.033755   0.006061   0.006090
     9  C   -0.000292   0.335813   5.137032   0.533778  -0.098087  -0.126386
    10  C   -0.000003  -0.033755   0.533778   4.933833   0.474176  -0.178766
    11  N    0.000000   0.006061  -0.098087   0.474176   6.494888   0.554698
    12  C    0.000000   0.006090  -0.126386  -0.178766   0.554698   4.783285
    13  N    0.000000  -0.050567   0.380259  -0.080370  -0.085571   0.413776
    14  C   -0.000139  -0.001088  -0.000075  -0.000411   0.000427   0.000007
    15  C    0.000000   0.000059  -0.000142  -0.000870  -0.000213   0.000039
    16  N    0.000000   0.000003   0.000113  -0.000062  -0.003750  -0.000170
    17  H    0.024954   0.001520  -0.000705   0.000585  -0.000010  -0.000032
    18  H    0.002264  -0.028826  -0.011012  -0.000163   0.000029  -0.000111
    19  H    0.008599  -0.000898   0.000095   0.000001   0.000000   0.000000
    20  H    0.003792   0.410058  -0.045078  -0.000660   0.000217  -0.000325
    21  H    0.000038   0.398587  -0.023149   0.002780  -0.000244  -0.000229
    22  H   -0.000006   0.000153  -0.051098   0.427757  -0.027450   0.007917
    23  H    0.000000  -0.000298   0.003625   0.006067  -0.025768   0.417992
    24  H    0.000000   0.001594  -0.035394   0.007886   0.005519  -0.021853
    25  H   -0.000049   0.000448   0.000303   0.004825  -0.000241  -0.000363
    26  H   -0.000038   0.000015   0.000087   0.000172   0.000001  -0.000006
    27  H    0.000000   0.000005   0.000011   0.000021  -0.000024  -0.000046
    28  H    0.000000   0.000000   0.000001   0.000002  -0.000045  -0.000016
    29  H    0.000000   0.000001  -0.000015   0.000026  -0.000087   0.000102
    30  H    0.000000   0.000061  -0.001049  -0.001429   0.000430   0.005198
    31  H    0.000000  -0.000161   0.001788   0.000093   0.029369   0.000675
              13         14         15         16         17         18
     1  O   -0.000142  -0.105401   0.027658  -0.018285   0.002683   0.017671
     2  C   -0.001458   0.270792  -0.059399  -0.003632  -0.031794  -0.011657
     3  N   -0.000111  -0.093226   0.007583  -0.000485   0.364073  -0.028688
     4  C    0.003115   0.010822  -0.000589   0.000007  -0.043785   0.383257
     5  C    0.000085  -0.000503   0.000009   0.000000  -0.005924  -0.016939
     6  O    0.000003   0.000000   0.000000   0.000000   0.001132   0.007322
     7  O    0.000000  -0.000139   0.000000   0.000000   0.024954   0.002264
     8  C   -0.050567  -0.001088   0.000059   0.000003   0.001520  -0.028826
     9  C    0.380259  -0.000075  -0.000142   0.000113  -0.000705  -0.011012
    10  C   -0.080370  -0.000411  -0.000870  -0.000062   0.000585  -0.000163
    11  N   -0.085571   0.000427  -0.000213  -0.003750  -0.000010   0.000029
    12  C    0.413776   0.000007   0.000039  -0.000170  -0.000032  -0.000111
    13  N    6.421000  -0.000300   0.000075  -0.000138  -0.000024   0.002960
    14  C   -0.000300   5.253028   0.315487  -0.035303  -0.000009   0.002703
    15  C    0.000075   0.315487   4.915332   0.236261   0.000056  -0.000098
    16  N   -0.000138  -0.035303   0.236261   6.153851   0.000019   0.000027
    17  H   -0.000024  -0.000009   0.000056   0.000019   0.430670   0.006079
    18  H    0.002960   0.002703  -0.000098   0.000027   0.006079   0.490648
    19  H   -0.000001   0.000000   0.000000   0.000000  -0.000242  -0.000911
    20  H    0.003863  -0.000045   0.000006   0.000000   0.003618   0.006950
    21  H   -0.002836  -0.000016   0.000000   0.000000  -0.000132  -0.002410
    22  H    0.004164  -0.000199   0.000020   0.000018   0.000003  -0.000020
    23  H   -0.035588   0.000016  -0.000014   0.000071   0.000000   0.000015
    24  H    0.358741   0.000078  -0.000009   0.000014   0.000003   0.000744
    25  H   -0.000078   0.385947  -0.029191  -0.003578  -0.000108  -0.000138
    26  H   -0.000010   0.385760  -0.020314   0.003498   0.000612  -0.000146
    27  H    0.000005  -0.037144   0.408917  -0.024351  -0.000029  -0.000021
    28  H    0.000002  -0.031967   0.410941  -0.023748  -0.000031   0.000000
    29  H   -0.000019   0.005972  -0.023246   0.356188   0.000002   0.000000
    30  H    0.000620  -0.015533  -0.019101   0.328734  -0.000147  -0.000122
    31  H   -0.000273  -0.002599  -0.027040   0.338510   0.000017  -0.000034
              19         20         21         22         23         24
     1  O    0.000000  -0.000114  -0.000321  -0.000040   0.000128   0.001492
     2  C    0.000028  -0.000720   0.000518   0.000107   0.000022   0.000038
     3  N   -0.000466   0.000233   0.006355   0.000430  -0.000010  -0.000202
     4  C    0.016759  -0.038611  -0.052099  -0.000294   0.000016   0.000511
     5  C   -0.029910   0.000023  -0.003184  -0.000014  -0.000001  -0.000032
     6  O    0.309196  -0.000784   0.009357   0.000000   0.000000  -0.000036
     7  O    0.008599   0.003792   0.000038  -0.000006   0.000000   0.000000
     8  C   -0.000898   0.410058   0.398587   0.000153  -0.000298   0.001594
     9  C    0.000095  -0.045078  -0.023149  -0.051098   0.003625  -0.035394
    10  C    0.000001  -0.000660   0.002780   0.427757   0.006067   0.007886
    11  N    0.000000   0.000217  -0.000244  -0.027450  -0.025768   0.005519
    12  C    0.000000  -0.000325  -0.000229   0.007917   0.417992  -0.021853
    13  N   -0.000001   0.003863  -0.002836   0.004164  -0.035588   0.358741
    14  C    0.000000  -0.000045  -0.000016  -0.000199   0.000016   0.000078
    15  C    0.000000   0.000006   0.000000   0.000020  -0.000014  -0.000009
    16  N    0.000000   0.000000   0.000000   0.000018   0.000071   0.000014
    17  H   -0.000242   0.003618  -0.000132   0.000003   0.000000   0.000003
    18  H   -0.000911   0.006950  -0.002410  -0.000020   0.000015   0.000744
    19  H    0.420495  -0.000222  -0.000133   0.000000   0.000000  -0.000001
    20  H   -0.000222   0.522687  -0.015111   0.001612   0.000013  -0.000067
    21  H   -0.000133  -0.015111   0.508480   0.000053  -0.000019   0.001185
    22  H    0.000000   0.001612   0.000053   0.524570  -0.000294  -0.000260
    23  H    0.000000   0.000013  -0.000019  -0.000294   0.502431  -0.001730
    24  H   -0.000001  -0.000067   0.001185  -0.000260  -0.001730   0.433946
    25  H    0.000000   0.000054   0.000024   0.001245  -0.000006  -0.000010
    26  H    0.000000  -0.000007   0.000002   0.000001   0.000000   0.000000
    27  H    0.000000   0.000000   0.000000   0.000002  -0.000002  -0.000001
    28  H    0.000000   0.000000   0.000000   0.000003   0.000000   0.000000
    29  H    0.000000   0.000000   0.000000   0.000004   0.000017   0.000002
    30  H    0.000000  -0.000003  -0.000015  -0.000002   0.000242   0.000042
    31  H    0.000000  -0.000026   0.000003  -0.000797  -0.000152  -0.000147
              25         26         27         28         29         30
     1  O    0.001405   0.000972   0.005474   0.000574  -0.000162   0.043336
     2  C   -0.032446  -0.015220  -0.004671   0.006199   0.000031   0.002224
     3  N    0.001240   0.000102   0.000338  -0.000031   0.000004   0.001075
     4  C   -0.001541  -0.000116  -0.000040   0.000010  -0.000002   0.000275
     5  C   -0.000011  -0.000003   0.000001   0.000000   0.000000   0.000001
     6  O   -0.000001   0.000000   0.000000   0.000000   0.000000   0.000000
     7  O   -0.000049  -0.000038   0.000000   0.000000   0.000000   0.000000
     8  C    0.000448   0.000015   0.000005   0.000000   0.000001   0.000061
     9  C    0.000303   0.000087   0.000011   0.000001  -0.000015  -0.001049
    10  C    0.004825   0.000172   0.000021   0.000002   0.000026  -0.001429
    11  N   -0.000241   0.000001  -0.000024  -0.000045  -0.000087   0.000430
    12  C   -0.000363  -0.000006  -0.000046  -0.000016   0.000102   0.005198
    13  N   -0.000078  -0.000010   0.000005   0.000002  -0.000019   0.000620
    14  C    0.385947   0.385760  -0.037144  -0.031967   0.005972  -0.015533
    15  C   -0.029191  -0.020314   0.408917   0.410941  -0.023246  -0.019101
    16  N   -0.003578   0.003498  -0.024351  -0.023748   0.356188   0.328734
    17  H   -0.000108   0.000612  -0.000029  -0.000031   0.000002  -0.000147
    18  H   -0.000138  -0.000146  -0.000021   0.000000   0.000000  -0.000122
    19  H    0.000000   0.000000   0.000000   0.000000   0.000000   0.000000
    20  H    0.000054  -0.000007   0.000000   0.000000   0.000000  -0.000003
    21  H    0.000024   0.000002   0.000000   0.000000   0.000000  -0.000015
    22  H    0.001245   0.000001   0.000002   0.000003   0.000004  -0.000002
    23  H   -0.000006   0.000000  -0.000002   0.000000   0.000017   0.000242
    24  H   -0.000010   0.000000  -0.000001   0.000000   0.000002   0.000042
    25  H    0.515358  -0.013253   0.006931  -0.004464  -0.000228  -0.000718
    26  H   -0.013253   0.468339  -0.003532  -0.002186  -0.000188   0.000183
    27  H    0.006931  -0.003532   0.477054  -0.018960  -0.002691  -0.004822
    28  H   -0.004464  -0.002186  -0.018960   0.477688  -0.004151   0.005002
    29  H   -0.000228  -0.000188  -0.002691  -0.004151   0.395178  -0.010601
    30  H   -0.000718   0.000183  -0.004822   0.005002  -0.010601   0.381064
    31  H    0.003471   0.000151   0.004360  -0.003286  -0.013977  -0.016225
              31
     1  O    0.000799
     2  C   -0.000858
     3  N   -0.000339
     4  C    0.000028
     5  C   -0.000003
     6  O    0.000000
     7  O    0.000000
     8  C   -0.000161
     9  C    0.001788
    10  C    0.000093
    11  N    0.029369
    12  C    0.000675
    13  N   -0.000273
    14  C   -0.002599
    15  C   -0.027040
    16  N    0.338510
    17  H    0.000017
    18  H   -0.000034
    19  H    0.000000
    20  H   -0.000026
    21  H    0.000003
    22  H   -0.000797
    23  H   -0.000152
    24  H   -0.000147
    25  H    0.003471
    26  H    0.000151
    27  H    0.004360
    28  H   -0.003286
    29  H   -0.013977
    30  H   -0.016225
    31  H    0.395886
 Mulliken charges:
               1
     1  O   -0.410939
     2  C    0.422574
     3  N   -0.383611
     4  C   -0.083778
     5  C    0.370712
     6  O   -0.313207
     7  O   -0.315372
     8  C   -0.159044
     9  C    0.084123
    10  C   -0.090212
    11  N   -0.323584
    12  C    0.134846
    13  N   -0.331184
    14  C   -0.307084
    15  C   -0.142219
    16  N   -0.303813
    17  H    0.246947
    18  H    0.180626
    19  H    0.277611
    20  H    0.148646
    21  H    0.172519
    22  H    0.112414
    23  H    0.133229
    24  H    0.247946
    25  H    0.165171
    26  H    0.195123
    27  H    0.193213
    28  H    0.188463
    29  H    0.297840
    30  H    0.301278
    31  H    0.290767
 Sum of Mulliken charges =   1.00000
 Mulliken charges with hydrogens summed into heavy atoms:
               1
     1  O   -0.410939
     2  C    0.422574
     3  N   -0.136664
     4  C    0.096848
     5  C    0.370712
     6  O   -0.035596
     7  O   -0.315372
     8  C    0.162121
     9  C    0.084123
    10  C    0.022202
    11  N   -0.323584
    12  C    0.268075
    13  N   -0.083238
    14  C    0.053210
    15  C    0.239456
    16  N    0.586071
 APT charges:
               1
     1  O   -0.284066
     2  C    0.113750
     3  N   -0.447825
     4  C   -0.435125
     5  C   -0.637664
     6  O   -0.761202
     7  O    0.358936
     8  C   -0.912314
     9  C   -0.059534
    10  C   -0.379118
    11  N   -0.162035
    12  C   -0.428639
    13  N   -0.643501
    14  C   -0.691146
    15  C   -1.122056
    16  N   -0.777291
    17  H    0.545085
    18  H    0.322459
    19  H    1.180273
    20  H    0.392972
    21  H    0.583131
    22  H    0.370440
    23  H    0.728599
    24  H    0.607663
    25  H    0.225448
    26  H    0.588583
    27  H    0.525290
    28  H    0.746053
    29  H    1.073628
    30  H    0.172876
    31  H    0.206330
 Sum of APT charges =   1.00000
 APT charges with hydrogens summed into heavy atoms:
               1
     1  O   -0.284066
     2  C    0.113750
     3  N    0.097261
     4  C   -0.112666
     5  C   -0.637664
     6  O    0.419071
     7  O    0.358936
     8  C    0.063789
     9  C   -0.059534
    10  C   -0.008679
    11  N   -0.162035
    12  C    0.299961
    13  N   -0.035839
    14  C    0.122884
    15  C    0.149287
    16  N    0.675543
 Electronic spatial extent (au):  <R**2>=           3773.1060
 Charge=              1.0000 electrons
 Dipole moment (field-independent basis, Debye):
    X=              5.2271    Y=             -2.1604    Z=             -4.7345  Tot=              7.3760
 Quadrupole moment (field-independent basis, Debye-Ang):
   XX=            -46.9083   YY=            -78.5076   ZZ=            -83.5227
   XY=             -7.4982   XZ=            -21.5881   YZ=             11.6406
 Traceless Quadrupole moment (field-independent basis, Debye-Ang):
   XX=             22.7379   YY=             -8.8614   ZZ=            -13.8765
   XY=             -7.4982   XZ=            -21.5881   YZ=             11.6406
 Octapole moment (field-independent basis, Debye-Ang**2):
  XXX=            101.8117  YYY=            -66.5090  ZZZ=            -29.2548  XYY=             14.4716
  XXY=              4.7438  XXZ=            -42.9611  XZZ=             58.5592  YZZ=             -5.2897
  YYZ=            -41.1925  XYZ=             15.8156
 Hexadecapole moment (field-independent basis, Debye-Ang**3):
 XXXX=          -1430.8943 YYYY=          -1848.3693 ZZZZ=           -825.0744 XXXY=            125.1695
 XXXZ=            121.2009 YYYX=            376.2679 YYYZ=            133.8060 ZZZX=            241.4198
 ZZZY=            113.1159 XXYY=           -399.9607 XXZZ=           -366.6019 YYZZ=           -452.5217
 XXYZ=            119.9487 YYXZ=             29.5607 ZZXY=            102.4810
 N-N= 1.185372985822D+03 E-N=-4.216041609013D+03  KE= 7.939597159719D+02
  Exact polarizability:   0.000   0.000   0.000   0.000   0.000   0.000
 Approx polarizability: 201.989  -5.922 206.570   8.951  27.947 160.518
 Calling FoFJK, ICntrl=    100147 FMM=F ISym2X=0 I1Cent= 0 IOpClX= 0 NMat=1 NMatS=1 NMatT=0.
 -------------------------------------------------------------------
 Center     Atomic                   Forces (Hartrees/Bohr)
 Number     Number              X              Y              Z
 -------------------------------------------------------------------
      1        8           0.013206371   -0.010506993   -0.002051254
      2        6          -0.013375718    0.008371863    0.007328380
      3        7           0.009426175   -0.011648159   -0.003299250
      4        6          -0.003460002    0.002647766   -0.001181427
      5        6          -0.011665368    0.004702192   -0.002046894
      6        8           0.008341068   -0.003167003   -0.000969089
      7        8           0.004897247   -0.002026508   -0.000080094
      8        6           0.006409094   -0.009139978    0.001879851
      9        6          -0.008476934    0.004466718   -0.002019500
     10        6           0.011322443    0.009569669    0.001117125
     11        7           0.010087857    0.004899392    0.003074964
     12        6          -0.003253351   -0.006637322   -0.010199787
     13        7          -0.005255691    0.000266031   -0.001986569
     14        6          -0.001066262   -0.000601312    0.008075801
     15        6           0.004088226    0.024449515   -0.008557816
     16        7          -0.002818136   -0.006138216   -0.001992981
     17        1           0.001149294    0.004122540    0.002499390
     18        1          -0.000845784    0.001441477   -0.000294155
     19        1          -0.005023766    0.002981487    0.001472074
     20        1          -0.000405312    0.001167313    0.000629607
     21        1          -0.002529233    0.000580651    0.000934838
     22        1          -0.002277878   -0.003428884   -0.000034029
     23        1          -0.001363772   -0.000406487    0.000779901
     24        1          -0.000269830   -0.000237375    0.001431860
     25        1          -0.000753250    0.001217211   -0.001404580
     26        1           0.003080504   -0.001166698   -0.001442625
     27        1          -0.000322020   -0.006587618   -0.000353403
     28        1          -0.000262702   -0.004578626    0.001224564
     29        1           0.001956110   -0.001031588    0.000946850
     30        1          -0.009143155    0.000454551    0.001213963
     31        1          -0.001396226   -0.004035609    0.005304284
 -------------------------------------------------------------------
 Cartesian Forces:  Max     0.024449515 RMS     0.005687889
 FormGI is forming the generalized inverse of G from B-inverse, IUseBI=4.
 GSVD:  received Info=                   1 from GESDD.

 GradGradGradGradGradGradGradGradGradGradGradGradGradGradGradGradGradGrad
 Berny optimization.
 Internal  Forces:  Max     0.040029889 RMS     0.007681010
 Search for a local minimum.
 Step number   1 out of a maximum of  167
 All quantities printed in internal units (Hartrees-Bohrs-Radians)
 Mixed Optimization -- RFO/linear search
 Second derivative matrix not updated -- analytic derivatives used.
 ITU=  0
     Eigenvalues ---   -0.00969   0.00186   0.00256   0.00319   0.00336
     Eigenvalues ---    0.00546   0.00710   0.00744   0.00842   0.01292
     Eigenvalues ---    0.01750   0.02041   0.02142   0.02517   0.02912
     Eigenvalues ---    0.03737   0.03767   0.03950   0.03981   0.04047
     Eigenvalues ---    0.04266   0.04625   0.04791   0.05105   0.05200
     Eigenvalues ---    0.05537   0.05815   0.05988   0.06371   0.07848
     Eigenvalues ---    0.08241   0.08422   0.10390   0.10924   0.10990
     Eigenvalues ---    0.11595   0.11673   0.12032   0.12360   0.13386
     Eigenvalues ---    0.14302   0.14749   0.15274   0.15832   0.17227
     Eigenvalues ---    0.18505   0.20079   0.20117   0.21738   0.22855
     Eigenvalues ---    0.23314   0.23965   0.24420   0.24963   0.25893
     Eigenvalues ---    0.27892   0.28632   0.32106   0.32337   0.32756
     Eigenvalues ---    0.33474   0.33733   0.33793   0.33819   0.34203
     Eigenvalues ---    0.34478   0.34745   0.35103   0.35566   0.36094
     Eigenvalues ---    0.36755   0.37435   0.41169   0.41503   0.41924
     Eigenvalues ---    0.42322   0.43806   0.44055   0.45701   0.47044
     Eigenvalues ---    0.47567   0.48015   0.48820   0.52644   0.60084
     Eigenvalues ---    0.78999   0.88998
 RFO step:  Lambda=-4.55293180D-02 EMin=-9.68611256D-03
 Linear search not attempted -- first point.
 Maximum step size (   0.300) exceeded in Quadratic search.
    -- Step size scaled by   0.684
 Iteration  1 RMS(Cart)=  0.37788789 RMS(Int)=  0.02838782
 Iteration  2 RMS(Cart)=  0.21446452 RMS(Int)=  0.00670399
 Iteration  3 RMS(Cart)=  0.01111434 RMS(Int)=  0.00128993
 Iteration  4 RMS(Cart)=  0.00004520 RMS(Int)=  0.00128962
 Iteration  5 RMS(Cart)=  0.00000010 RMS(Int)=  0.00128962
 Variable       Old X    -DE/DX   Delta X   Delta X   Delta X     New X
                                 (Linear)    (Quad)   (Total)
    R1        2.31937   0.00313   0.00000  -0.00217  -0.00217   2.31720
    R2        2.56877  -0.00850   0.00000   0.00938   0.00938   2.57816
    R3        2.87782  -0.00609   0.00000   0.00182   0.00182   2.87964
    R4        2.72872  -0.00067   0.00000   0.01195   0.01195   2.74067
    R5        1.90088   0.00484   0.00000   0.00506   0.00506   1.90593
    R6        2.85738   0.00356   0.00000  -0.00055  -0.00055   2.85683
    R7        2.93500  -0.00428   0.00000   0.03004   0.03004   2.96504
    R8        2.05784  -0.00016   0.00000  -0.00209  -0.00209   2.05574
    R9        2.54703  -0.00323   0.00000  -0.00748  -0.00748   2.53954
   R10        2.27257   0.00013   0.00000  -0.00332  -0.00332   2.26925
   R11        1.82488   0.00511   0.00000   0.00602   0.00602   1.83090
   R12        2.83326  -0.00612   0.00000  -0.00549  -0.00549   2.82776
   R13        2.06176   0.00098   0.00000   0.00022   0.00022   2.06198
   R14        2.05798   0.00244   0.00000   0.00101   0.00101   2.05898
   R15        2.58405   0.00708   0.00000   0.00608   0.00634   2.59039
   R16        2.60764   0.00290   0.00000  -0.00647  -0.00621   2.60143
   R17        2.60776   0.00248   0.00000   0.01294   0.01276   2.62052
   R18        2.04939  -0.00331   0.00000  -0.00722  -0.00722   2.04216
   R19        2.47149   0.01265   0.00000   0.03507   0.03479   2.50628
   R20        2.56787   0.00400   0.00000  -0.01184  -0.01189   2.55597
   R21        2.04036   0.00000   0.00000  -0.00058  -0.00058   2.03978
   R22        1.90756  -0.00053   0.00000   0.00166   0.00166   1.90922
   R23        2.87101  -0.00473   0.00000   0.00606   0.00606   2.87707
   R24        2.07475  -0.00161   0.00000  -0.00796  -0.00796   2.06679
   R25        2.06635  -0.00013   0.00000   0.00001   0.00001   2.06635
   R26        2.80254   0.01365   0.00000   0.02760   0.02760   2.83014
   R27        2.06099  -0.00039   0.00000  -0.00069  -0.00069   2.06029
   R28        2.06189  -0.00107   0.00000  -0.00241  -0.00241   2.05949
   R29        1.92841   0.00142   0.00000  -0.00188  -0.00188   1.92653
   R30        1.93557   0.00816   0.00000   0.00020   0.00020   1.93577
   R31        1.93525   0.00576   0.00000   0.05392   0.05392   1.98917
    A1        2.12155   0.01327   0.00000   0.01444   0.01263   2.13418
    A2        2.16009  -0.02249   0.00000  -0.01784  -0.01944   2.14065
    A3        2.00140   0.00907   0.00000   0.00165  -0.00005   2.00135
    A4        2.10513  -0.01335   0.00000  -0.04307  -0.04868   2.05645
    A5        2.10528   0.00562   0.00000  -0.00317  -0.00918   2.09610
    A6        2.03766   0.00545   0.00000  -0.00161  -0.00750   2.03016
    A7        1.88589   0.01043   0.00000   0.04436   0.04571   1.93159
    A8        1.97109  -0.02956   0.00000  -0.12419  -0.12446   1.84663
    A9        1.88544   0.00672   0.00000   0.02130   0.01946   1.90490
   A10        1.88366   0.01681   0.00000   0.04833   0.04935   1.93301
   A11        1.92510  -0.00651   0.00000   0.00015  -0.00118   1.92392
   A12        1.91266   0.00205   0.00000   0.01104   0.00963   1.92229
   A13        1.94702  -0.00095   0.00000  -0.01178  -0.01180   1.93522
   A14        2.18129  -0.00555   0.00000  -0.01051  -0.01052   2.17076
   A15        2.15426   0.00646   0.00000   0.02197   0.02196   2.17622
   A16        1.84910   0.00575   0.00000   0.02133   0.02133   1.87043
   A17        1.98025  -0.04003   0.00000  -0.12912  -0.12993   1.85033
   A18        1.90562   0.00791   0.00000  -0.02334  -0.02661   1.87901
   A19        1.88614   0.01358   0.00000   0.08356   0.08563   1.97176
   A20        1.88262   0.01126   0.00000   0.01524   0.00935   1.89197
   A21        1.92981   0.01408   0.00000   0.05142   0.05412   1.98392
   A22        1.87672  -0.00545   0.00000   0.00687   0.00636   1.88307
   A23        2.30513  -0.00373   0.00000  -0.04483  -0.04605   2.25908
   A24        2.15626   0.00024   0.00000   0.03230   0.02987   2.18612
   A25        1.81988   0.00328   0.00000   0.00667   0.00575   1.82563
   A26        1.93903  -0.00211   0.00000  -0.01038  -0.01044   1.92859
   A27        2.21675   0.00188   0.00000   0.00926   0.00855   2.22530
   A28        2.12623   0.00017   0.00000  -0.00146  -0.00200   2.12423
   A29        1.83499   0.00063   0.00000   0.00110   0.00070   1.83569
   A30        1.94715  -0.00132   0.00000  -0.01168  -0.01183   1.93532
   A31        2.19226   0.00158   0.00000   0.00671   0.00677   2.19903
   A32        2.14366  -0.00024   0.00000   0.00489   0.00496   2.14861
   A33        1.88306  -0.00052   0.00000   0.01241   0.01259   1.89565
   A34        2.20220   0.00005   0.00000  -0.00444  -0.00468   2.19752
   A35        2.19584   0.00041   0.00000  -0.00994  -0.01039   2.18545
   A36        1.99204  -0.03079   0.00000  -0.01356  -0.01417   1.97786
   A37        1.88374   0.00707   0.00000  -0.02634  -0.02700   1.85675
   A38        1.89273   0.01437   0.00000   0.04359   0.04358   1.93631
   A39        1.91403   0.00757   0.00000  -0.02037  -0.02108   1.89294
   A40        1.91770   0.00733   0.00000   0.01421   0.01405   1.93175
   A41        1.85861  -0.00390   0.00000   0.00346   0.00388   1.86249
   A42        1.95025  -0.01925   0.00000  -0.00368  -0.00363   1.94662
   A43        1.90380   0.00908   0.00000   0.02870   0.02864   1.93244
   A44        1.90898   0.00794   0.00000  -0.00210  -0.00216   1.90683
   A45        1.90189  -0.00076   0.00000  -0.02837  -0.02831   1.87358
   A46        1.91966   0.00547   0.00000   0.00057   0.00055   1.92021
   A47        1.87774  -0.00185   0.00000   0.00543   0.00523   1.88297
   A48        1.96166   0.00030   0.00000  -0.01813  -0.01920   1.94246
   A49        1.87036  -0.00202   0.00000  -0.01575  -0.01535   1.85501
   A50        1.96640   0.00428   0.00000   0.11189   0.11142   2.07782
   A51        1.89137   0.00204   0.00000   0.00336   0.00312   1.89448
   A52        1.90708  -0.00231   0.00000  -0.01467  -0.01608   1.89100
   A53        1.86254  -0.00246   0.00000  -0.07352  -0.07262   1.78992
    D1        0.34095   0.00137   0.00000   0.17538   0.17425   0.51521
    D2       -3.09134  -0.00696   0.00000  -0.01837  -0.01847  -3.10981
    D3       -2.78262   0.01041   0.00000   0.28006   0.28016  -2.50246
    D4        0.06827   0.00208   0.00000   0.08631   0.08744   0.15571
    D5       -0.04731   0.00076   0.00000  -0.04051  -0.04087  -0.08818
    D6       -2.17975   0.00632   0.00000   0.01391   0.01312  -2.16663
    D7        2.09652  -0.00014   0.00000   0.00118   0.00091   2.09743
    D8        3.07582  -0.00808   0.00000  -0.14743  -0.14684   2.92897
    D9        0.94338  -0.00252   0.00000  -0.09301  -0.09286   0.85052
   D10       -1.06354  -0.00898   0.00000  -0.10574  -0.10506  -1.16860
   D11       -2.68663  -0.00671   0.00000  -0.14442  -0.14464  -2.83127
   D12        1.51432  -0.01656   0.00000  -0.15838  -0.15727   1.35705
   D13       -0.60394  -0.00492   0.00000  -0.10770  -0.10706  -0.71100
   D14        0.73481   0.00112   0.00000   0.04200   0.04077   0.77558
   D15       -1.34742  -0.00873   0.00000   0.02805   0.02814  -1.31928
   D16        2.81750   0.00291   0.00000   0.07872   0.07834   2.89584
   D17        2.83637   0.01054   0.00000   0.05047   0.05012   2.88648
   D18       -0.34202   0.00975   0.00000   0.04152   0.04121  -0.30081
   D19       -1.31007  -0.00901   0.00000  -0.04452  -0.04429  -1.35436
   D20        1.79473  -0.00981   0.00000  -0.05348  -0.05320   1.74153
   D21        0.77896  -0.00005   0.00000  -0.00153  -0.00148   0.77748
   D22       -2.39943  -0.00084   0.00000  -0.01049  -0.01039  -2.40982
   D23       -0.96769   0.00880   0.00000   0.07435   0.07136  -0.89634
   D24        1.13260   0.00242   0.00000  -0.00760  -0.00693   1.12567
   D25       -3.11423   0.00773   0.00000   0.03420   0.03405  -3.08018
   D26       -3.05121   0.00261   0.00000   0.06252   0.06095  -2.99027
   D27       -0.95092  -0.00378   0.00000  -0.01942  -0.01735  -0.96827
   D28        1.08544   0.00153   0.00000   0.02237   0.02364   1.10908
   D29        1.13509  -0.00078   0.00000   0.02696   0.02503   1.16012
   D30       -3.04780  -0.00717   0.00000  -0.05498  -0.05326  -3.10106
   D31       -1.01144  -0.00186   0.00000  -0.01318  -0.01227  -1.02372
   D32        3.11010  -0.00099   0.00000  -0.00440  -0.00448   3.10561
   D33        0.00463   0.00008   0.00000   0.00518   0.00526   0.00989
   D34        1.78605  -0.00677   0.00000  -0.22949  -0.22844   1.55761
   D35       -1.27808  -0.00266   0.00000  -0.11159  -0.11105  -1.38913
   D36       -0.32722   0.00088   0.00000  -0.12832  -0.12837  -0.45559
   D37        2.89183   0.00499   0.00000  -0.01042  -0.01097   2.88086
   D38       -2.37482  -0.00702   0.00000  -0.17418  -0.17442  -2.54924
   D39        0.84423  -0.00291   0.00000  -0.05628  -0.05703   0.78720
   D40       -3.04317   0.00493   0.00000   0.14881   0.14614  -2.89702
   D41        0.04671   0.00372   0.00000   0.09198   0.09021   0.13691
   D42        0.03183   0.00136   0.00000   0.04882   0.04862   0.08045
   D43        3.12170   0.00014   0.00000  -0.00802  -0.00732   3.11439
   D44        3.06600  -0.00452   0.00000  -0.12402  -0.12706   2.93894
   D45       -0.00926  -0.00352   0.00000  -0.09254  -0.09485  -0.10410
   D46       -0.01629  -0.00112   0.00000  -0.03133  -0.03122  -0.04750
   D47       -3.09155  -0.00013   0.00000   0.00015   0.00100  -3.09054
   D48       -0.03527  -0.00098   0.00000  -0.04760  -0.04755  -0.08282
   D49       -3.12826   0.00010   0.00000   0.00542   0.00422  -3.12405
   D50        0.02423   0.00030   0.00000   0.02672   0.02714   0.05138
   D51       -3.13356   0.00100   0.00000   0.02108   0.02086  -3.11270
   D52       -0.00524   0.00056   0.00000   0.00288   0.00245  -0.00279
   D53        3.07033  -0.00045   0.00000  -0.02820  -0.02923   3.04110
   D54       -3.13116  -0.00014   0.00000   0.00831   0.00849  -3.12267
   D55       -0.05559  -0.00114   0.00000  -0.02277  -0.02318  -0.07878
   D56       -0.96637   0.00694   0.00000   0.07901   0.07890  -0.88747
   D57        1.13758  -0.00021   0.00000   0.06033   0.06012   1.19770
   D58       -3.09619   0.00733   0.00000   0.08219   0.08208  -3.01410
   D59        1.14939   0.00048   0.00000   0.02046   0.02067   1.17006
   D60       -3.02986  -0.00668   0.00000   0.00178   0.00189  -3.02797
   D61       -0.98044   0.00086   0.00000   0.02364   0.02385  -0.95658
   D62       -3.09654   0.00444   0.00000   0.02103   0.02102  -3.07552
   D63       -0.99260  -0.00271   0.00000   0.00234   0.00224  -0.99036
   D64        1.05682   0.00482   0.00000   0.02420   0.02421   1.08103
   D65       -3.02915  -0.00076   0.00000   0.02020   0.01996  -3.00919
   D66        1.17806  -0.00214   0.00000   0.03670   0.03641   1.21448
   D67       -0.86534  -0.00028   0.00000   0.07356   0.07413  -0.79121
   D68        1.14898   0.00063   0.00000   0.00557   0.00532   1.15430
   D69       -0.92700  -0.00076   0.00000   0.02208   0.02178  -0.90522
   D70       -2.97040   0.00111   0.00000   0.05894   0.05950  -2.91091
   D71       -0.90547   0.00014   0.00000   0.01544   0.01517  -0.89031
   D72       -2.98145  -0.00124   0.00000   0.03195   0.03162  -2.94983
   D73        1.25833   0.00062   0.00000   0.06880   0.06934   1.32767
         Item               Value     Threshold  Converged?
 Maximum Force            0.040030     0.000450     NO 
 RMS     Force            0.007681     0.000300     NO 
 Maximum Displacement     2.073698     0.001800     NO 
 RMS     Displacement     0.580479     0.001200     NO 
 Predicted change in Energy=-3.369453D-02
 GradGradGradGradGradGradGradGradGradGradGradGradGradGradGradGradGradGrad

                          Input orientation:                          
 ---------------------------------------------------------------------
 Center     Atomic      Atomic             Coordinates (Angstroms)
 Number     Number       Type             X           Y           Z
 ---------------------------------------------------------------------
      1          8           0       -0.248142   -0.143313   -1.752259
      2          6           0        0.261323    0.727077   -1.054792
      3          7           0       -0.485101    1.624798   -0.348912
      4          6           0       -1.794934    1.203807    0.109865
      5          6           0       -2.643129    2.401071    0.473977
      6          8           0       -3.935987    2.053951    0.592327
      7          8           0       -2.209594    3.502011    0.678865
      8          6           0       -1.537605    0.301606    1.367511
      9          6           0       -0.525853   -0.716748    0.945034
     10          6           0        0.842774   -0.655824    0.991689
     11          7           0        1.400362   -1.666608    0.223317
     12          6           0        0.372005   -2.391959   -0.195399
     13          7           0       -0.798019   -1.852346    0.216048
     14          6           0        1.758058    0.784594   -0.774492
     15          6           0        2.523432   -0.403539   -1.340615
     16          7           0        1.897232   -1.703086   -0.938131
     17          1           0       -0.031579    2.344592    0.192790
     18          1           0       -2.278323    0.624687   -0.673959
     19          1           0       -4.422432    2.848877    0.857227
     20          1           0       -1.091852    0.930086    2.140125
     21          1           0       -2.450894   -0.131673    1.774119
     22          1           0        1.451915    0.106647    1.455828
     23          1           0        0.429329   -3.283239   -0.801573
     24          1           0       -1.716077   -2.180540   -0.048899
     25          1           0        1.868508    0.780993    0.313608
     26          1           0        2.186573    1.725332   -1.130942
     27          1           0        2.534269   -0.371619   -2.430355
     28          1           0        3.556018   -0.363866   -0.994308
     29          1           0        2.478388   -2.494634   -1.212061
     30          1           0        1.007773   -1.761831   -1.442847
     31          1           0        1.601754   -1.839720    0.062889
 ---------------------------------------------------------------------
                    Distance matrix (angstroms):
                    1          2          3          4          5
     1  O    0.000000
     2  C    1.226211   0.000000
     3  N    2.269747   1.364301   0.000000
     4  C    2.770344   2.410787   1.450301   0.000000
     5  C    4.143185   3.684459   2.436562   1.511772   0.000000
     6  O    4.891345   4.700107   3.602599   2.353640   1.343868
     7  O    4.800630   4.100154   2.748478   2.403632   1.200833
     8  C    3.404943   3.047084   2.409296   1.569031   2.535417
     9  C    2.771524   2.589128   2.675593   2.448797   3.798099
    10  C    2.997001   2.537436   2.960016   3.345645   4.665206
    11  N    2.990133   2.942907   3.836114   4.296751   5.740964
    12  C    2.804426   3.237158   4.110052   4.209316   5.701950
    13  N    2.664093   3.064419   3.536612   3.216393   4.643545
    14  C    2.416997   1.523841   2.432863   3.685319   4.852022
    15  C    2.814034   2.545019   3.761501   4.830707   6.152392
    16  N    2.774586   2.931808   4.134912   4.814604   6.281165
    17  H    3.165404   2.063639   1.008576   2.101829   2.627251
    18  H    2.423673   2.570082   2.078827   1.087853   2.146248
    19  H    5.760843   5.485929   4.296012   3.188816   1.874388
    20  H    4.124886   3.475599   2.654444   2.165919   2.710407
    21  H    4.157836   4.012021   3.384788   2.232383   2.853439
    22  H    3.639299   2.847043   3.051868   3.682039   4.795602
    23  H    3.349911   4.021813   5.012974   5.090348   6.586228
    24  H    3.034232   3.657345   4.010724   3.388986   4.703614
    25  H    3.098767   2.111508   2.586583   3.693385   4.796378
    26  H    3.131406   2.170000   2.785592   4.202855   5.134045
    27  H    2.872933   2.874993   4.175485   5.260863   6.551977
    28  H    3.885198   3.471142   4.549940   5.684143   6.944793
    29  H    3.640672   3.914017   5.147525   5.804070   7.282897
    30  H    2.071874   2.627249   3.859355   4.365901   5.859442
    31  H    3.097527   3.103935   4.065394   4.561004   6.014344
                    6          7          8          9         10
     6  O    0.000000
     7  O    2.254950   0.000000
     8  C    3.069830   3.341915   0.000000
     9  C    4.407969   4.550139   1.496387   0.000000
    10  C    5.508078   5.167436   2.593090   1.370776   0.000000
    11  N    6.515777   6.320912   3.716813   2.265703   1.386717
    12  C    6.240626   6.493679   3.653024   2.216543   2.155218
    13  N    5.024697   5.556607   2.551933   1.376618   2.173818
    14  C    5.991795   5.023830   3.960157   3.229093   2.456001
    15  C    7.176323   6.460120   4.931855   3.823667   2.885810
    16  N    7.105214   6.824495   4.597051   3.223432   2.435743
    17  H    3.935543   2.513889   2.796761   3.190922   3.225713
    18  H    2.528661   3.180228   2.195596   2.737104   3.762357
    19  H    0.968870   2.314097   3.882165   5.282492   6.326405
    20  H    3.427514   3.162187   1.091153   2.112028   2.752597
    21  H    2.894665   3.802823   1.089567   2.176115   3.425664
    22  H    5.793713   5.053595   2.997172   2.202375   1.080667
    23  H    7.034524   7.429349   4.628700   3.248058   3.207808
    24  H    4.823907   5.750181   2.863410   2.132421   3.155202
    25  H    5.948972   4.916124   3.597517   2.893941   1.891129
    26  H    6.368940   5.075262   4.705185   4.198891   3.461396
    27  H    7.542162   6.868515   5.608670   4.569104   3.827834
[...]
 127,-0.00031286,-0.00003591,0.00021380,0.00000163,-0.00006982,0.000057
 77,0.00039089,0.00012170,-0.07168897,-0.00393539,-0.28838770,-0.002162
 98,0.00015298,-0.01578974,-0.00011855,-0.00019759,0.00087102,-0.000231
 85,0.00049019,-0.00013892,0.00015337,0.00001636,-0.00000775,-0.0000113
 9,0.00000506,-0.00000858,0.00000773,0.00000639,-0.00003910,0.00002374,
 0.00000943,-0.00004499,0.00035557,0.00044346,-0.00015788,-0.00000194,0
 .00000836,-0.00000672,-0.00002527,-0.00001585,0.00001438,0.07461430,0.
 00558796,0.31476598,-0.00487283,0.00092928,-0.00310611,-0.00140996,-0.
 03249733,0.01326181,-0.00017623,0.00252030,-0.00114339,-0.00030963,0.0
 0028622,-0.00016534,-0.00017295,-0.00032396,-0.00009706,-0.00002254,0.
 00010437,0.00003809,0.00005431,0.00016335,-0.00002895,0.00000400,0.000
 22523,-0.00018117,0.00022621,0.00001754,-0.00001087,-0.00017168,0.0000
 3563,0.00004224,0.00019252,0.00011651,-0.00012853,-0.00012669,-0.00004
 286,-0.00009657,0.00013541,0.00000306,0.00000600,-0.05548203,-0.044890
 23,0.02178191,0.00419964,0.01544703,-0.00764051,-0.00201978,0.00362389
 ,0.00234290,-0.00048507,-0.00009782,0.00078359,0.00008403,0.00004016,-
 0.00000304,-0.00002584,-0.00000405,0.00002323,0.00000058,-0.00001139,0
 .00002473,-0.00000319,-0.00000561,0.00001633,-0.00000702,0.00002310,0.
 00003129,-0.00000709,-0.00000165,0.00000928,0.00000328,0.00000007,0.00
 000123,0.00167918,0.00919952,-0.00347201,0.05853362,-0.00090603,0.0008
 3160,0.00040323,-0.00335681,-0.00541413,0.00048228,0.00139276,0.000006
 66,-0.00060829,-0.00078970,0.00021991,-0.00026180,-0.00008690,0.000095
 27,0.00003029,0.00004878,-0.00003175,-0.00001644,0.00003160,-0.0000695
 3,-0.00001367,0.00028910,0.00002694,-0.00001942,0.00005212,-0.00003289
 ,0.00005631,-0.00002714,-0.00007084,-0.00002794,-0.00010801,0.00001113
 ,0.00011669,0.00005164,0.00003699,0.00004844,-0.00005571,-0.00000446,-
 0.00005644,-0.04020889,-0.26303325,0.09038889,-0.00421833,-0.01940258,
 0.00800058,0.00314570,-0.00191397,-0.00252389,0.00009146,0.00009227,0.
 00048207,0.00002052,0.00002391,0.00001484,-0.00000165,0.00000452,0.000
 00355,-0.00000963,-0.00000022,0.00000806,-0.00000131,0.00005420,-0.000
 07130,0.00002239,0.00001408,-0.00000826,0.00000404,0.00000577,-0.00000
 270,0.00000717,-0.00000341,-0.00000364,0.00043903,0.00125052,0.0001733
 9,0.04464999,0.28639372,-0.00157688,-0.00012742,-0.00129247,-0.0013428
 4,-0.00387931,0.00061939,0.00090305,-0.00019991,0.00044501,0.00006890,
 -0.00001743,-0.00045048,0.00011665,0.00027144,0.00011537,-0.00007299,-
 0.00007051,-0.00001942,-0.00012637,-0.00016073,-0.00005947,0.00013945,
 -0.00010547,0.00010603,-0.00043543,0.00005249,-0.00013418,0.00031446,0
 .00015293,-0.00043583,-0.00008401,-0.00023770,0.00004595,0.00028202,0.
 00003939,0.00008998,0.00006009,0.00026713,0.00018582,0.01961306,0.0925
 8140,-0.08110449,-0.00421225,-0.01585483,0.00581287,0.00246689,-0.0045
 0235,-0.00159758,0.00070214,0.00010040,-0.00024612,-0.00004969,-0.0000
 3385,0.00002631,0.00001404,0.00000253,0.00000260,0.00001090,0.00000386
 ,-0.00002437,0.00001111,-0.00000182,-0.00003647,0.00004623,0.00005129,
 0.00029866,0.00001767,0.00001432,-0.00000970,-0.00002846,0.00000934,0.
 00000593,0.00583140,0.02899323,-0.01126165,-0.02203773,-0.09668596,0.0
 8803228,-0.00021943,-0.00041491,-0.00115440,0.00080919,0.00046194,0.00
 167106,-0.00005998,-0.00017553,-0.00045296,-0.00015797,0.00000947,-0.0
 0008617,-0.00007168,0.00004576,0.00000229,0.00004905,-0.00001431,-0.00
 001246,0.00003671,-0.00002890,-0.00001917,0.00007101,-0.00003121,0.000
 00973,-0.00001536,0.00003279,-0.00000694,0.00003019,-0.00016190,-0.000
 01793,-0.00031948,-0.00001941,0.00038311,0.00017063,0.00002812,0.00011
 896,-0.00013176,0.00005346,-0.00008647,0.00224015,-0.00201893,0.019243
 67,-0.05577537,0.00506071,-0.02972319,0.00006978,-0.00630770,0.0145658
 1,0.00013858,-0.00007522,0.00008907,-0.00004498,0.00000062,0.00002303,
 -0.00000989,0.00000485,0.00000836,-0.00000279,0.00000508,-0.00000534,-
 0.00000413,0.00002356,-0.00001961,-0.00000205,0.00002850,-0.00002457,-
 0.00000129,-0.00001284,0.00000659,-0.00000716,-0.00001095,0.00001672,-
 0.00172811,0.00226354,0.00165635,0.00120336,-0.00061851,-0.00064151,0.
 05338121,0.00031258,0.00097770,0.00010049,-0.00137280,-0.00056013,-0.0
 0047725,0.00055608,-0.00009880,0.00014122,-0.00013369,-0.00003021,0.00
 012878,-0.00005154,0.00000707,-0.00003806,0.00006842,-0.00001181,-0.00
 000619,0.00006060,0.00000874,0.00001901,0.00004507,-0.00008071,-0.0000
 1562,-0.00025967,0.00002603,-0.00006444,0.00005223,-0.00045131,-0.0002
 8517,-0.00091971,-0.00031357,0.00118480,0.00061979,0.00025320,0.000336
 03,-0.00034652,0.00027489,-0.00001171,-0.00207159,0.00185881,-0.023428
 26,0.00219787,-0.05240701,0.03043627,-0.00169132,-0.01755219,0.0403643
 1,-0.00016651,0.00019638,-0.00005684,0.00004705,0.00001339,-0.00000873
 ,-0.00000213,0.00000072,-0.00000178,-0.00001179,0.00001661,0.00000638,
 -0.00000228,0.00002582,-0.00001436,0.00001665,0.00000076,0.00016200,0.
 00000041,-0.00000819,0.00001933,0.00000002,0.00003952,0.00000389,0.003
 54290,-0.00231846,-0.00217080,-0.00030128,0.00085183,-0.00025343,-0.00
 204397,0.07094146,0.00007720,0.00062077,0.00106224,-0.00091873,-0.0010
 1157,-0.00087539,0.00016203,0.00017421,0.00020586,0.00000622,-0.000035
 75,0.00006660,-0.00001987,0.00000657,-0.00000316,0.00002163,-0.0000053
 2,0.00000072,0.00001414,-0.00000255,0.00000762,-0.00002021,0.00000967,
 -0.00000408,-0.00001419,0.00000443,-0.00002081,-0.00005816,-0.00001858
 ,-0.00003028,0.00001808,-0.00006084,0.00001821,0.00000797,0.00001193,0
 .00001834,0.00004336,0.00003861,0.00002284,-0.00109907,-0.00070754,-0.
 01469678,-0.02439154,0.04031985,-0.31394876,0.00022841,0.00257654,-0.0
 0220513,-0.00010796,0.00013077,-0.00006179,0.00002597,0.00001865,-0.00
 000081,-0.00000228,0.00000076,-0.00000296,-0.00000431,-0.00000015,0.00
 000599,0.00000288,-0.00000271,0.00000420,-0.00000556,-0.00000892,0.000
 06565,0.00000448,0.00000433,-0.00000313,-0.00000554,0.00000319,-0.0000
 0784,0.00190456,-0.00193258,0.00021785,-0.00006332,-0.00008952,0.00076
 360,0.02511386,-0.04141549,0.33425961,0.00049389,0.00007236,0.00000098
 ,0.00060171,0.00256519,0.00123754,-0.00105506,-0.00037747,0.00016225,0
 .00014674,0.00019832,0.00007986,0.00003807,-0.00014844,0.00000466,-0.0
 0007829,0.00005040,0.00001487,-0.00002956,0.00005907,0.00001662,-0.000
 07617,0.00001712,-0.00001834,0.00000825,0.00004067,0.00000496,-0.00006
 702,-0.00000824,-0.00001430,0.00003806,-0.00001762,0.00005482,-0.00001
 825,-0.00001507,0.00000467,0.00007425,-0.00000701,0.00003525,-0.014805
 89,-0.00000364,-0.00382184,-0.30284440,-0.01796011,-0.07099574,-0.0062
 8602,-0.00284812,-0.00129612,-0.00000190,-0.00006554,-0.00008811,0.000
 00073,-0.00000172,0.00000248,0.00000277,-0.00000484,-0.00000507,0.0000
 0217,-0.00000117,0.00000226,0.00000319,-0.00001951,0.00002323,-0.00002
 936,0.00001514,0.00001790,0.00000486,0.00001380,-0.00001080,0.00000647
 ,0.00000950,-0.00000645,0.00090978,-0.00057332,0.00018031,-0.00008137,
 0.00029876,-0.00001377,-0.00046794,0.00069334,-0.00075691,0.32286735,-
 0.00021979,0.00148347,0.00040795,-0.00030973,-0.00448600,-0.00283418,0
 .00193073,0.00079681,-0.00015812,-0.00021012,-0.00041987,-0.00008769,-
 0.00002999,0.00022178,-0.00002180,0.00014504,-0.00008688,-0.00002682,0
 .00005856,-0.00006997,-0.00001958,0.00008589,-0.00001557,-0.00000616,0
 .00003088,0.00002388,0.00002753,-0.00002716,-0.00005628,-0.00005704,-0
 .00020941,-0.00015443,0.00023710,0.00017048,0.00006090,0.00020515,-0.0
 0005991,-0.00000617,-0.00006793,0.02170178,0.00364017,0.00564397,-0.00
 791713,-0.05104833,-0.00083916,-0.03906167,-0.01033391,-0.00957829,-0.
 00002248,0.00013085,0.00011381,0.00000430,0.00000738,-0.00000390,0.000
 00045,0.00000556,0.00000866,-0.00001027,0.00001118,-0.00000023,-0.0000
 0425,0.00003698,-0.00003293,0.00001011,0.00000963,0.00004013,0.0000101
 4,0.00004864,-0.00003677,0.00000804,-0.00001040,-0.00000126,-0.0004308
 2,0.00089054,0.00004977,-0.00042463,0.00020201,0.00049745,0.00526212,0
 .00140360,0.00044200,0.01934844,0.06229420,-0.00044887,0.00061283,0.00
 082352,0.00060132,-0.00446851,-0.00204937,0.00132990,0.00057789,-0.000
 21183,-0.00006376,-0.00020872,-0.00018051,0.00000711,0.00012024,-0.000
 01337,0.00005706,-0.00004464,-0.00000991,0.00001403,-0.00003814,-0.000
 01245,0.00008720,-0.00002778,0.00002148,0.00002275,-0.00004584,0.00001
 216,0.00004519,0.00000081,0.00002601,-0.00007017,-0.00001169,-0.000025
 43,0.00000341,0.00004096,0.00000277,-0.00011480,-0.00000826,-0.0000416
 8,0.01951549,0.00069201,0.00385980,-0.07505242,-0.00427593,-0.07259577
 ,0.00939017,0.00232640,0.00246910,0.00001772,0.00005038,0.00007857,0.0
 0000123,0.00000981,0.00000459,0.00000587,0.00000004,0.00000436,0.00000
 117,0.00000047,-0.00000296,-0.00000650,0.00002360,-0.00002535,0.000041
 71,-0.00001161,-0.00003257,-0.00000744,-0.00001363,0.00000969,0.000001
 35,-0.00000351,-0.00000145,0.00023539,0.00076070,0.00081687,-0.0005157
 6,0.00015399,0.00034004,-0.03060936,-0.00254334,-0.00618072,0.07504309
 ,0.00553433,0.07250060,-0.00270769,0.00354493,-0.00002119,-0.00163593,
 -0.00191843,-0.00156458,0.00004384,0.00036878,0.00053968,0.00011098,-0
 .00001692,-0.00001267,-0.00002423,0.00006575,0.00005360,0.00002893,-0.
 00001889,-0.00000683,0.00000108,-0.00003519,-0.00002360,-0.00005525,0.
 00003165,0.00001571,-0.00008931,-0.00011700,-0.00013272,0.00021993,-0.
 00006400,-0.00006187,0.00005082,0.00001064,-0.00005632,-0.00000750,0.0
 0007110,0.00003290,0.00002299,0.00009750,-0.00000919,-0.00097471,-0.00
 354111,0.00119425,0.01046375,-0.00834782,-0.00958762,-0.17268811,0.133
 15755,0.10090316,-0.00004297,0.00003987,0.00009055,0.00003535,-0.00000
 044,-0.00001679,-0.00001143,0.00000688,0.00000180,0.00000283,-0.000014
 51,0.00000103,0.00000712,-0.00001738,0.00001014,0.00000117,-0.00002510
 ,0.00002431,-0.00007281,-0.00012619,0.00011003,-0.00003690,0.00000330,
 0.00003914,0.00002487,0.00013127,-0.00002597,0.00058215,-0.00077236,-0
 .00048980,0.00030057,0.00047675,0.00001682,0.00010881,-0.00048499,-0.0
 0065958,0.17592439,-0.00059351,0.00166696,0.00026836,-0.00073065,-0.00
 071833,-0.00046427,-0.00018147,0.00033223,0.00030285,0.00009685,0.0000
 7916,-0.00001585,0.00011363,-0.00010281,-0.00002256,-0.00009352,0.0000
 3341,0.00001297,-0.00005136,0.00006149,0.00001921,-0.00001528,-0.00002
 309,-0.00001238,0.00005924,-0.00008823,-0.00009246,0.00017153,-0.00032
 406,-0.00007356,-0.00069899,-0.00099679,0.00093456,0.00027922,0.000330
 05,0.00027707,-0.00038432,0.00006171,-0.00015350,-0.00322037,-0.004554
 92,0.00302294,0.01832289,-0.01922076,-0.01614562,0.13379817,-0.2110820
 3,-0.11627387,-0.00007926,-0.00004147,0.00005053,0.00002301,-0.0000087
 9,-0.00000986,0.00001739,-0.00000652,-0.00000260,0.00000527,0.00000320
 ,0.00000009,-0.00001087,-0.00000224,0.00000626,0.00000584,-0.00000412,
 -0.00002844,-0.00012933,-0.00003768,0.00010525,0.00002557,0.00007599,-
 0.00001155,-0.00020121,0.00004711,0.00003482,0.00102698,-0.00077039,-0
 .00104323,0.00066933,0.00093863,0.00063472,-0.00035539,0.00128039,-0.0
 0071963,-0.14207780,0.22252985,-0.00202638,0.00185277,0.00009396,-0.00
 005579,-0.00066165,-0.00082677,-0.00028477,0.00019033,0.00037703,0.000
 14670,0.00008062,-0.00000503,0.00014697,-0.00009199,-0.00001149,-0.000
 11681,0.00003284,0.00000534,-0.00007348,0.00005173,0.00000976,-0.00004
 218,-0.00001111,-0.00002559,-0.00004786,0.00019790,0.00014215,-0.00037
 203,0.00018675,0.00005165,0.00068252,0.00133107,-0.00099193,-0.0001394
 9,0.00001847,-0.00025901,0.00026573,-0.00017391,0.00009097,0.00041401,
 0.00112406,-0.00015425,-0.00566563,0.00386385,0.00430271,0.10193216,-0
 .11727900,-0.14900112,0.00003060,-0.00004070,0.00000689,0.00001853,-0.
 00001230,-0.00000411,0.00001784,-0.00000784,0.00000437,0.00000713,-0.0
 0000454,-0.00000589,-0.00001079,-0.00001274,0.00002005,0.00002086,-0.0
 0002623,0.00000017,0.00009458,0.00005946,-0.00004641,-0.00000465,-0.00
 000899,0.00004964,-0.00002182,0.00021133,0.00007304,-0.00011056,0.0002
 9497,0.00031357,-0.00047222,0.00076915,0.00002321,-0.00010581,-0.00032
 374,0.00007521,-0.11117064,0.12422032,0.14784980,-0.01036828,-0.017831
 88,-0.00812715,0.01200547,0.01680899,0.01393565,0.00051520,-0.00685527
 ,-0.00655411,-0.00204791,-0.00027117,0.00037201,-0.00112579,0.00078393
 ,-0.00000772,0.00081563,-0.00026307,-0.00012620,0.00060832,-0.00053920
 ,-0.00012583,0.00059171,-0.00025527,0.00018205,-0.00069811,-0.00000751
 ,0.00013020,0.00073410,-0.00128430,-0.00059616,-0.00274980,-0.00071480
 ,0.00278659,0.00204420,-0.00000799,0.00088032,-0.00185443,0.00094292,-
 0.00057765,-0.00052345,-0.00097344,-0.00150968,-0.01183505,-0.01426502
 ,-0.00256924,-0.30123076,-0.00965652,-0.08581341,0.00087738,0.00038274
 ,-0.00053417,-0.00024025,0.00014856,0.00014309,-0.00011719,0.00005605,
 0.00003540,-0.00005992,0.00002722,0.00001014,0.00001150,0.00025942,-0.
 00019522,0.00012753,-0.00001842,0.00005703,0.00007398,-0.00019427,0.00
 016449,-0.00017781,-0.00010792,0.00024419,-0.00070240,-0.00000652,0.00
 001180,-0.00118108,0.00036344,0.00032470,0.00069891,0.00159168,0.00003
 961,0.00092988,0.00049414,0.00037512,-0.00923505,0.00016161,-0.0030975
 9,0.31766993,-0.00325610,0.00959089,0.00619265,-0.00298639,-0.01580505
 ,-0.01185695,-0.00145112,0.00438610,0.00452118,0.00173780,0.00028467,-
 0.00030358,0.00088786,-0.00041688,0.00014338,-0.00066929,0.00016117,0.
 00008992,-0.00053455,0.00026524,0.00006168,-0.00056812,0.00024740,-0.0
 0007695,-0.00008877,-0.00042713,-0.00036145,0.00019770,-0.00004869,0.0
 0038484,0.00101262,0.00059348,-0.00057307,-0.00106696,-0.00013423,-0.0
 0095485,0.00024309,0.00022220,0.00042322,0.00042146,0.00105535,-0.0003
 5511,-0.03627790,-0.00420977,-0.01142249,-0.01501025,-0.05387007,-0.00
 951569,-0.00048620,-0.00012811,0.00010676,0.00027211,-0.00008499,-0.00
 009451,0.00008092,-0.00002951,-0.00003566,0.00006612,-0.00007096,-0.00
 000387,0.00000778,-0.00021757,0.00016414,-0.00005855,-0.00001966,-0.00
 021711,-0.00013311,-0.00046041,0.00039739,-0.00004739,0.00015381,-0.00
 002574,0.00035747,0.00014996,0.00017243,0.00053109,0.00020065,0.000236
 72,0.00015254,0.00086301,0.00034091,-0.00087569,-0.00707614,0.00179149
 ,0.02159250,0.00127405,0.01046882,0.02870919,0.06332721,-0.00167323,0.
 00004632,-0.00686927,0.00289897,-0.00151938,-0.00023753,-0.00055837,-0
 .00085065,-0.00005287,-0.00021739,0.00014010,0.00023779,0.00016154,-0.
 00026893,-0.00015135,-0.00011227,0.00007453,-0.00000627,0.00002012,0.0
 0016053,0.00003539,0.00008085,-0.00015942,-0.00010624,0.00018434,0.000
 28842,0.00010154,-0.00006049,-0.00077049,-0.00044344,-0.00063013,-0.00
 042826,0.00092175,0.00152585,0.00085049,0.00077056,-0.00022039,-0.0001
 1022,-0.00040816,-0.00107385,-0.00048565,-0.00067207,0.00631184,0.0004
 9108,0.00356695,-0.09166450,-0.00723957,-0.09498440,0.00021067,-0.0002
 6051,0.00008340,-0.00001605,-0.00002426,-0.00000715,0.00002729,-0.0000
 1690,0.00002473,-0.00001870,0.00005291,-0.00001072,-0.00004334,0.00004
 210,-0.00000043,-0.00001845,0.00005786,0.00007053,-0.00001215,0.000154
 83,-0.00008575,0.00011071,0.00003221,0.00014955,-0.00011107,-0.0002399
 8,-0.00010646,0.00008299,0.00013998,0.00009978,0.00122792,0.00065414,-
 0.00006623,0.00030124,0.00169392,0.00005163,0.02148564,0.00372330,0.00
 831221,0.09673306,0.00525422,0.10286341,-0.00193040,0.00052648,0.00217
 170,0.00117934,0.00058977,-0.00122796,-0.00081371,0.00018231,0.0008606
 4,0.00072958,-0.00015895,-0.00031793,-0.00026343,0.00062521,0.00037727
 ,0.00012234,-0.00015308,-0.00000240,-0.00007459,-0.00046563,-0.0001317
 8,-0.00038842,0.00037738,0.00028626,0.00140938,0.00039928,0.00063382,-
 0.00189786,0.00351864,0.00209082,0.00059195,0.00258765,-0.00531137,-0.
 00708148,-0.00175960,-0.00136792,0.00288105,-0.00233862,0.00042675,0.0
 0045868,0.00082608,-0.00097711,-0.00128569,-0.00367406,0.00981453,-0.0
 5787914,0.00274770,0.00485002,0.00004747,0.00005106,-0.00007596,-0.000
 02092,0.00003259,-0.00006186,-0.00006434,0.00004500,-0.00003149,0.0000
 4003,-0.00013468,-0.00000823,0.00006396,-0.00011922,0.00008038,0.00020
 167,-0.00013655,-0.00057539,0.00026900,0.00012880,-0.00045849,-0.00026
 819,-0.00032772,-0.00002040,0.00026524,-0.00000765,-0.00008682,-0.0003
 4328,0.00025252,0.00018898,-0.00017994,-0.00090666,-0.00021956,-0.0003
 9575,0.00016126,0.00075237,-0.00034769,-0.00595321,0.02004085,0.006443
 50,0.00724016,-0.03493265,0.05853162,-0.00114297,0.00094674,0.00074353
 ,0.00222989,-0.00162287,-0.00123073,-0.00095290,0.00042042,0.00089806,
 0.00078121,-0.00002533,-0.00021773,0.00011522,0.00016880,0.00019422,-0
 .00015130,-0.00002307,0.00002993,-0.00017993,-0.00016485,-0.00004213,-
 0.00015858,0.00024810,0.00029501,0.00214758,-0.00069171,0.00015972,0.0
 0210786,0.00225597,0.00043803,0.00117343,-0.00346473,-0.00533329,-0.00
 415274,-0.00131026,-0.00016529,0.00141343,-0.00164960,-0.00027102,0.00
 061022,0.00129933,0.00012587,0.00079310,-0.00575924,0.02948372,0.00147
 780,-0.08210295,0.06205877,0.00003748,-0.00010979,-0.00007906,-0.00000
 133,-0.00000922,-0.00003849,-0.00000309,0.00001207,-0.00002583,0.00001
 954,-0.00005641,-0.00000358,0.00004600,-0.00013851,0.00008752,0.000049
 00,-0.00011475,-0.00078848,-0.00003622,0.00006342,-0.00017036,0.000112
 54,-0.00012170,-0.00015058,-0.00007152,-0.00043865,-0.00064629,-0.0003
 4252,0.00042546,-0.00009997,-0.00216809,-0.00486578,-0.00004640,-0.000
 09919,0.00121595,-0.00027472,-0.00202036,0.00926800,-0.02629970,0.0025
 2270,0.00022398,-0.00148271,-0.00415627,0.08612121,0.00296244,-0.00364
 212,-0.00220969,-0.00243843,0.00271295,0.00385262,0.00203616,-0.000878
 64,-0.00245569,-0.00144384,-0.00000369,0.00049025,0.00006491,-0.000641
 10,-0.00045662,0.00010072,0.00013206,-0.00006076,0.00027131,0.00052737
 ,0.00010629,0.00041839,-0.00073384,-0.00016961,-0.00234733,-0.00060844
 ,-0.00080506,0.00265507,-0.00507436,-0.00386373,-0.00628899,-0.0086795
 2,0.00420121,0.00565334,0.00496812,0.00415476,-0.00693450,0.00271672,-
 0.00121392,-0.00030306,0.00039345,0.00210788,0.00234648,0.00837696,0.0
 0724873,0.00847541,0.05566244,-0.30368152,-0.00001147,0.00003622,0.000
 24591,0.00000689,-0.00002052,0.00010577,0.00006106,-0.00005042,0.00006
 731,-0.00002559,0.00016532,0.00000050,-0.00011089,0.00030979,-0.000190
 95,0.00011478,0.00002128,0.00074515,-0.00057755,-0.00080744,0.00085208
 ,-0.00001104,0.00078041,0.00000829,-0.00013379,-0.00026965,-0.00053253
 ,0.00035529,-0.00040831,-0.00063099,-0.00080424,-0.00353433,0.00136535
 ,-0.00005371,-0.00080613,0.00028695,-0.00067941,0.00145615,-0.01047012
 ,-0.00659134,0.00504727,-0.01308087,0.00323291,-0.05714802,0.31398302\
 \0.00000961,-0.00000036,-0.00000111,-0.00000735,-0.00000387,-0.0000039
 4,0.00000460,0.00000131,0.00000084,0.00000081,-0.00000558,-0.00000473,
 0.00000224,0.00000069,-0.00000007,-0.00000098,-0.00000054,-0.00000032,
 0.00000011,0.00000043,-0.00000084,0.00000318,0.00000345,0.00000250,-0.
 00000352,-0.00000032,0.00000266,-0.00000323,0.00000031,0.00000142,0.00
 000302,0.00000417,-0.00000281,-0.00000187,0.00000022,-0.00000201,0.000
 00072,-0.00000040,0.00000023,0.00000207,0.00000226,0.00000556,-0.00000
 197,-0.00000183,0.00000220,-0.00002353,0.00000979,-0.00000848,-0.00000
 125,-0.00000191,0.,0.00000057,0.00000002,-0.00000082,0.00000011,0.0000
 0076,-0.00000091,-0.00000005,-0.00000067,0.00000002,-0.00000036,0.0000
 0061,-0.00000036,-0.00000043,0.00000047,0.00000033,-0.00000006,-0.0000
 0010,0.00000050,-0.00000011,0.00000077,0.00000029,-0.00000048,0.000001
 00,-0.00000090,0.00000030,-0.00000112,-0.00000209,0.00000048,-0.000000
 12,0.00000045,0.00000066,-0.00000094,-0.00000058,0.00000008,-0.0000016
 7,0.00000148,0.00001234,-0.00000082,0.00000528,0.00000432,-0.00000598,
 0.00000623\\\@


 LENDING MONEY TO FRIENDS CAUSES THEM TO LOSE THEIR MEMORIES.

    --  PETER'S THEORY OF RECIPROCAL INHIBITION OF FISCAL RECALL
 Job cpu time:       0 days  2 hours 41 minutes 50.4 seconds.
 File lengths (MBytes):  RWF=    458 Int=      0 D2E=      0 Chk=     13 Scr=      1
 Normal termination of Gaussian 09 at Sat Jul 24 02:44:08 2021.
