 Entering Gaussian System, Link 0=g09
 Input=opt_freq-conf-580.com
 Output=opt_freq-conf-580.log
 Initial command:
 /aerosol/software/g09/l1.exe "/scratch/nicole/10493/Gau-72622.inp" -scrdir="/scratch/nicole/10493/"
 Entering Link 1 = /aerosol/software/g09/l1.exe PID=     72627.
  
 Copyright (c) 1988,1990,1992,1993,1995,1998,2003,2009,2013,
            Gaussian, Inc.  All Rights Reserved.
  
 This is part of the Gaussian(R) 09 program.  It is based on
 the Gaussian(R) 03 system (copyright 2003, Gaussian, Inc.),
 the Gaussian(R) 98 system (copyright 1998, Gaussian, Inc.),
 the Gaussian(R) 94 system (copyright 1995, Gaussian, Inc.),
 the Gaussian 92(TM) system (copyright 1992, Gaussian, Inc.),
 the Gaussian 90(TM) system (copyright 1990, Gaussian, Inc.),
 the Gaussian 88(TM) system (copyright 1988, Gaussian, Inc.),
 the Gaussian 86(TM) system (copyright 1986, Carnegie Mellon
 University), and the Gaussian 82(TM) system (copyright 1983,
 Carnegie Mellon University). Gaussian is a federally registered
 trademark of Gaussian, Inc.
  
 This software contains proprietary and confidential information,
 including trade secrets, belonging to Gaussian, Inc.
  
 This software is provided under written license and may be
 used, copied, transmitted, or stored only in accord with that
 written license.
  
 The following legend is applicable only to US Government
 contracts under FAR:
  
                    RESTRICTED RIGHTS LEGEND
  
 Use, reproduction and disclosure by the US Government is
 subject to restrictions as set forth in subparagraphs (a)
 and (c) of the Commercial Computer Software - Restricted
 Rights clause in FAR 52.227-19.
  
 Gaussian, Inc.
 340 Quinnipiac St., Bldg. 40, Wallingford CT 06492
  
  
 ---------------------------------------------------------------
 Warning -- This program may not be used in any manner that
 competes with the business of Gaussian, Inc. or will provide
 assistance to any competitor of Gaussian, Inc.  The licensee
 of this program is prohibited from giving any competitor of
 Gaussian, Inc. access to this program.  By using this program,
 the user acknowledges that Gaussian, Inc. is engaged in the
 business of creating and licensing software in the field of
 computational chemistry and represents and warrants to the
 licensee that it is not a competitor of Gaussian, Inc. and that
 it will not use this program in any manner prohibited above.
 ---------------------------------------------------------------
  

 Cite this work as:
 Gaussian 09, Revision D.01,
 M. J. Frisch, G. W. Trucks, H. B. Schlegel, G. E. Scuseria, 
 M. A. Robb, J. R. Cheeseman, G. Scalmani, V. Barone, B. Mennucci, 
 G. A. Petersson, H. Nakatsuji, M. Caricato, X. Li, H. P. Hratchian, 
 A. F. Izmaylov, J. Bloino, G. Zheng, J. L. Sonnenberg, M. Hada, 
 M. Ehara, K. Toyota, R. Fukuda, J. Hasegawa, M. Ishida, T. Nakajima, 
 Y. Honda, O. Kitao, H. Nakai, T. Vreven, J. A. Montgomery, Jr., 
 J. E. Peralta, F. Ogliaro, M. Bearpark, J. J. Heyd, E. Brothers, 
 K. N. Kudin, V. N. Staroverov, T. Keith, R. Kobayashi, J. Normand, 
 K. Raghavachari, A. Rendell, J. C. Burant, S. S. Iyengar, J. Tomasi, 
 M. Cossi, N. Rega, J. M. Millam, M. Klene, J. E. Knox, J. B. Cross, 
 V. Bakken, C. Adamo, J. Jaramillo, R. Gomperts, R. E. Stratmann, 
 O. Yazyev, A. J. Austin, R. Cammi, C. Pomelli, J. W. Ochterski, 
 R. L. Martin, K. Morokuma, V. G. Zakrzewski, G. A. Voth, 
 P. Salvador, J. J. Dannenberg, S. Dapprich, A. D. Daniels, 
 O. Farkas, J. B. Foresman, J. V. Ortiz, J. Cioslowski, 
 and D. J. Fox, Gaussian, Inc., Wallingford CT, 2013.
 
 ******************************************
 Gaussian 09:  ES64L-G09RevD.01 24-Apr-2013
                24-Jul-2021 
 ******************************************
 %mem=2gb
 %nproc=4
 Will use up to    4 processors via shared memory.
 %chk=conf-580.chk
 ----------------------------------------------------------------------
 # B3LYP/6-311G(d,p) EmpiricalDispersion=GD3BJ opt=calcfc freq=noraman 
 nosymm integral(ultrafinegrid)
 ----------------------------------------------------------------------
 1/10=4,14=-1,18=20,19=15,26=4,38=1/1,3;
 2/9=110,12=2,15=1,17=6,18=5,40=1/2;
 3/5=4,6=6,7=101,11=2,16=1,25=1,30=1,71=2,74=-5,75=-5,124=41,140=1/1,2,3;
 4//1;
 5/5=2,38=5/2;
 8/6=4,10=90,11=11/1;
 11/6=1,8=1,9=11,15=111,16=1,31=1/1,2,10;
 10/6=1,13=1,31=1/2;
 6/7=2,8=2,9=2,10=2,28=1/1;
 7/10=1,18=20,25=1,30=1/1,2,3,16;
 1/10=4,14=-1,18=20,19=15,26=4/3(2);
 2/9=110,15=1/2;
 99//99;
 2/9=110,15=1/2;
 3/5=4,6=6,7=101,11=2,16=1,25=1,30=1,71=1,74=-5,75=-5,124=41/1,2,3;
 4/5=5,16=3,69=1/1;
 5/5=2,38=5/2;
 7/30=1/1,2,3,16;
 1/14=-1,18=20,19=15,26=4/3(-5);
 2/9=110,15=1/2;
 6/7=2,8=2,9=2,10=2,19=2,28=1/1;
 99/9=1/99;
 ------------------------------------------------------------
 Candidate Structure: Conf:580 OPT and FREQ calc in gas phase
 ------------------------------------------------------------
 Symbolic Z-matrix:
 Charge =  1 Multiplicity = 1
 O                     1.1626    0.47867  -1.24083 
 C                     1.43062   0.39643  -0.04924 
 N                     0.44893   0.32097   0.88846 
 C                    -0.95542   0.32737   0.51041 
 C                    -1.72354   0.76875   1.73533 
 O                    -2.59503   1.76808   1.49955 
 O                    -1.57563   0.26701   2.82237 
 C                    -1.39558  -1.08541   0.07214 
 C                    -2.827    -1.1616   -0.34837 
 C                    -3.94651  -1.63385   0.27999 
 N                    -5.07043  -1.45394  -0.50815 
 C                    -4.63104  -0.88057  -1.60483 
 N                    -3.28184  -0.68161  -1.55821 
 C                     2.85113   0.35726   0.49446 
 C                     3.88925   0.67519  -0.5716 
 N                     5.27509   0.60883  -0.03633 
 H                     0.66614   0.21415   1.86708 
 H                    -1.09215   1.03096  -0.31002 
 H                    -3.03128   1.94422   2.34426 
 H                    -1.24299  -1.76764   0.90622 
 H                    -0.73868  -1.39207  -0.73967 
 H                    -4.00148  -2.07935   1.265 
 H                    -5.22149  -0.59048  -2.45542 
 H                    -2.71356  -0.26592  -2.27903 
 H                     3.04083  -0.64193   0.90267 
 H                     2.93715   1.06208   1.32718 
 H                     3.77607  -0.02889  -1.39457 
 H                     3.69767   1.66864  -0.97572 
 H                     5.96943   0.81982  -0.75442 
 H                     5.41211   1.27593   0.72291 
 H                     5.48682  -0.32092   0.32558 
 

 GradGradGradGradGradGradGradGradGradGradGradGradGradGradGradGradGradGrad
 Berny optimization.
 Initialization pass.
                           ----------------------------
                           !    Initial Parameters    !
                           ! (Angstroms and Degrees)  !
 --------------------------                            --------------------------
 ! Name  Definition              Value          Derivative Info.                !
 --------------------------------------------------------------------------------
 ! R1    R(1,2)                  1.2241         calculate D2E/DX2 analytically  !
 ! R2    R(2,3)                  1.3597         calculate D2E/DX2 analytically  !
 ! R3    R(2,14)                 1.5215         calculate D2E/DX2 analytically  !
 ! R4    R(3,4)                  1.4544         calculate D2E/DX2 analytically  !
 ! R5    R(3,17)                 1.0081         calculate D2E/DX2 analytically  !
 ! R6    R(4,5)                  1.5117         calculate D2E/DX2 analytically  !
 ! R7    R(4,8)                  1.5433         calculate D2E/DX2 analytically  !
 ! R8    R(4,18)                 1.0894         calculate D2E/DX2 analytically  !
 ! R9    R(5,6)                  1.3468         calculate D2E/DX2 analytically  !
 ! R10   R(5,7)                  1.2064         calculate D2E/DX2 analytically  !
 ! R11   R(6,19)                 0.9669         calculate D2E/DX2 analytically  !
 ! R12   R(8,9)                  1.4938         calculate D2E/DX2 analytically  !
 ! R13   R(8,20)                 1.0883         calculate D2E/DX2 analytically  !
 ! R14   R(8,21)                 1.0884         calculate D2E/DX2 analytically  !
 ! R15   R(9,10)                 1.3679         calculate D2E/DX2 analytically  !
 ! R16   R(9,13)                 1.3788         calculate D2E/DX2 analytically  !
 ! R17   R(10,11)                1.3845         calculate D2E/DX2 analytically  !
 ! R18   R(10,22)                1.0825         calculate D2E/DX2 analytically  !
 ! R19   R(11,12)                1.3132         calculate D2E/DX2 analytically  !
 ! R20   R(12,13)                1.3646         calculate D2E/DX2 analytically  !
 ! R21   R(12,23)                1.0753         calculate D2E/DX2 analytically  !
 ! R22   R(13,24)                1.0076         calculate D2E/DX2 analytically  !
 ! R23   R(14,15)                1.5216         calculate D2E/DX2 analytically  !
 ! R24   R(14,25)                1.0959         calculate D2E/DX2 analytically  !
 ! R25   R(14,26)                1.0943         calculate D2E/DX2 analytically  !
 ! R26   R(15,16)                1.4871         calculate D2E/DX2 analytically  !
 ! R27   R(15,27)                1.089          calculate D2E/DX2 analytically  !
 ! R28   R(15,28)                1.0895         calculate D2E/DX2 analytically  !
 ! R29   R(16,29)                1.0209         calculate D2E/DX2 analytically  !
 ! R30   R(16,30)                1.0199         calculate D2E/DX2 analytically  !
 ! R31   R(16,31)                1.0199         calculate D2E/DX2 analytically  !
 ! A1    A(1,2,3)              121.1297         calculate D2E/DX2 analytically  !
 ! A2    A(1,2,14)             123.6408         calculate D2E/DX2 analytically  !
 ! A3    A(3,2,14)             115.227          calculate D2E/DX2 analytically  !
 ! A4    A(2,3,4)              121.176          calculate D2E/DX2 analytically  !
 ! A5    A(2,3,17)             121.3189         calculate D2E/DX2 analytically  !
 ! A6    A(4,3,17)             117.442          calculate D2E/DX2 analytically  !
 ! A7    A(3,4,5)              106.3383         calculate D2E/DX2 analytically  !
 ! A8    A(3,4,8)              110.1931         calculate D2E/DX2 analytically  !
 ! A9    A(3,4,18)             108.6502         calculate D2E/DX2 analytically  !
 ! A10   A(5,4,8)              110.6385         calculate D2E/DX2 analytically  !
 ! A11   A(5,4,18)             110.9702         calculate D2E/DX2 analytically  !
 ! A12   A(8,4,18)             109.9717         calculate D2E/DX2 analytically  !
 ! A13   A(4,5,6)              113.8036         calculate D2E/DX2 analytically  !
 ! A14   A(4,5,7)              123.1211         calculate D2E/DX2 analytically  !
 ! A15   A(6,5,7)              123.0739         calculate D2E/DX2 analytically  !
 ! A16   A(5,6,19)             105.914          calculate D2E/DX2 analytically  !
 ! A17   A(4,8,9)              113.5732         calculate D2E/DX2 analytically  !
 ! A18   A(4,8,20)             108.435          calculate D2E/DX2 analytically  !
 ! A19   A(4,8,21)             107.3141         calculate D2E/DX2 analytically  !
 ! A20   A(9,8,20)             108.5493         calculate D2E/DX2 analytically  !
 ! A21   A(9,8,21)             110.7317         calculate D2E/DX2 analytically  !
 ! A22   A(20,8,21)            108.0823         calculate D2E/DX2 analytically  !
 ! A23   A(8,9,10)             132.2612         calculate D2E/DX2 analytically  !
 ! A24   A(8,9,13)             123.049          calculate D2E/DX2 analytically  !
 ! A25   A(10,9,13)            104.6715         calculate D2E/DX2 analytically  !
 ! A26   A(9,10,11)            110.9795         calculate D2E/DX2 analytically  !
 ! A27   A(9,10,22)            126.988          calculate D2E/DX2 analytically  !
 ! A28   A(11,10,22)           122.0242         calculate D2E/DX2 analytically  !
 ! A29   A(10,11,12)           105.1009         calculate D2E/DX2 analytically  !
 ! A30   A(11,12,13)           111.4658         calculate D2E/DX2 analytically  !
 ! A31   A(11,12,23)           126.488          calculate D2E/DX2 analytically  !
 ! A32   A(13,12,23)           122.046          calculate D2E/DX2 analytically  !
 ! A33   A(9,13,12)            107.782          calculate D2E/DX2 analytically  !
 ! A34   A(9,13,24)            125.8228         calculate D2E/DX2 analytically  !
 ! A35   A(12,13,24)           126.3934         calculate D2E/DX2 analytically  !
 ! A36   A(2,14,15)            112.4095         calculate D2E/DX2 analytically  !
 ! A37   A(2,14,25)            108.5535         calculate D2E/DX2 analytically  !
 ! A38   A(2,14,26)            109.1908         calculate D2E/DX2 analytically  !
 ! A39   A(15,14,25)           109.474          calculate D2E/DX2 analytically  !
 ! A40   A(15,14,26)           110.1769         calculate D2E/DX2 analytically  !
 ! A41   A(25,14,26)           106.8689         calculate D2E/DX2 analytically  !
 ! A42   A(14,15,16)           111.9807         calculate D2E/DX2 analytically  !
 ! A43   A(14,15,27)           108.8738         calculate D2E/DX2 analytically  !
 ! A44   A(14,15,28)           109.2953         calculate D2E/DX2 analytically  !
 ! A45   A(16,15,27)           109.8784         calculate D2E/DX2 analytically  !
 ! A46   A(16,15,28)           109.7596         calculate D2E/DX2 analytically  !
 ! A47   A(27,15,28)           106.9165         calculate D2E/DX2 analytically  !
 ! A48   A(15,16,29)           111.8023         calculate D2E/DX2 analytically  !
 ! A49   A(15,16,30)           111.3432         calculate D2E/DX2 analytically  !
 ! A50   A(15,16,31)           111.2144         calculate D2E/DX2 analytically  !
 ! A51   A(29,16,30)           107.2805         calculate D2E/DX2 analytically  !
 ! A52   A(29,16,31)           107.266          calculate D2E/DX2 analytically  !
 ! A53   A(30,16,31)           107.7099         calculate D2E/DX2 analytically  !
 ! D1    D(1,2,3,4)              0.3576         calculate D2E/DX2 analytically  !
 ! D2    D(1,2,3,17)           177.3943         calculate D2E/DX2 analytically  !
 ! D3    D(14,2,3,4)          -179.0877         calculate D2E/DX2 analytically  !
 ! D4    D(14,2,3,17)           -2.0511         calculate D2E/DX2 analytically  !
 ! D5    D(1,2,14,15)           10.0468         calculate D2E/DX2 analytically  !
 ! D6    D(1,2,14,25)         -111.2039         calculate D2E/DX2 analytically  !
 ! D7    D(1,2,14,26)          132.6334         calculate D2E/DX2 analytically  !
 ! D8    D(3,2,14,15)         -170.5235         calculate D2E/DX2 analytically  !
 ! D9    D(3,2,14,25)           68.2258         calculate D2E/DX2 analytically  !
 ! D10   D(3,2,14,26)          -47.9369         calculate D2E/DX2 analytically  !
 ! D11   D(2,3,4,5)           -158.491          calculate D2E/DX2 analytically  !
 ! D12   D(2,3,4,8)             81.5636         calculate D2E/DX2 analytically  !
 ! D13   D(2,3,4,18)           -38.9825         calculate D2E/DX2 analytically  !
 ! D14   D(17,3,4,5)            24.3615         calculate D2E/DX2 analytically  !
 ! D15   D(17,3,4,8)           -95.584          calculate D2E/DX2 analytically  !
 ! D16   D(17,3,4,18)          143.87           calculate D2E/DX2 analytically  !
 ! D17   D(3,4,5,6)            129.6372         calculate D2E/DX2 analytically  !
 ! D18   D(3,4,5,7)            -50.781          calculate D2E/DX2 analytically  !
 ! D19   D(8,4,5,6)           -110.7067         calculate D2E/DX2 analytically  !
 ! D20   D(8,4,5,7)             68.875          calculate D2E/DX2 analytically  !
 ! D21   D(18,4,5,6)            11.6523         calculate D2E/DX2 analytically  !
 ! D22   D(18,4,5,7)          -168.7659         calculate D2E/DX2 analytically  !
 ! D23   D(3,4,8,9)           -179.3492         calculate D2E/DX2 analytically  !
 ! D24   D(3,4,8,20)            59.9            calculate D2E/DX2 analytically  !
 ! D25   D(3,4,8,21)           -56.6265         calculate D2E/DX2 analytically  !
 ! D26   D(5,4,8,9)             63.3402         calculate D2E/DX2 analytically  !
 ! D27   D(5,4,8,20)           -57.4105         calculate D2E/DX2 analytically  !
 ! D28   D(5,4,8,21)          -173.9371         calculate D2E/DX2 analytically  !
 ! D29   D(18,4,8,9)           -59.6006         calculate D2E/DX2 analytically  !
 ! D30   D(18,4,8,20)          179.6487         calculate D2E/DX2 analytically  !
 ! D31   D(18,4,8,21)           63.1221         calculate D2E/DX2 analytically  !
 ! D32   D(4,5,6,19)           178.8089         calculate D2E/DX2 analytically  !
 ! D33   D(7,5,6,19)            -0.7731         calculate D2E/DX2 analytically  !
 ! D34   D(4,8,9,10)          -102.7806         calculate D2E/DX2 analytically  !
 ! D35   D(4,8,9,13)            75.411          calculate D2E/DX2 analytically  !
 ! D36   D(20,8,9,10)           17.9057         calculate D2E/DX2 analytically  !
 ! D37   D(20,8,9,13)         -163.9026         calculate D2E/DX2 analytically  !
 ! D38   D(21,8,9,10)          136.3996         calculate D2E/DX2 analytically  !
 ! D39   D(21,8,9,13)          -45.4088         calculate D2E/DX2 analytically  !
 ! D40   D(8,9,10,11)          178.3004         calculate D2E/DX2 analytically  !
 ! D41   D(8,9,10,22)           -0.6592         calculate D2E/DX2 analytically  !
 ! D42   D(13,9,10,11)          -0.1328         calculate D2E/DX2 analytically  !
 ! D43   D(13,9,10,22)        -179.0924         calculate D2E/DX2 analytically  !
 ! D44   D(8,9,13,12)         -178.5556         calculate D2E/DX2 analytically  !
 ! D45   D(8,9,13,24)            1.9074         calculate D2E/DX2 analytically  !
 ! D46   D(10,9,13,12)           0.0611         calculate D2E/DX2 analytically  !
 ! D47   D(10,9,13,24)        -179.4759         calculate D2E/DX2 analytically  !
 ! D48   D(9,10,11,12)           0.1538         calculate D2E/DX2 analytically  !
 ! D49   D(22,10,11,12)        179.1736         calculate D2E/DX2 analytically  !
 ! D50   D(10,11,12,13)         -0.1125         calculate D2E/DX2 analytically  !
 ! D51   D(10,11,12,23)        179.7345         calculate D2E/DX2 analytically  !
 ! D52   D(11,12,13,9)           0.034          calculate D2E/DX2 analytically  !
 ! D53   D(11,12,13,24)        179.5676         calculate D2E/DX2 analytically  !
 ! D54   D(23,12,13,9)        -179.821          calculate D2E/DX2 analytically  !
 ! D55   D(23,12,13,24)         -0.2873         calculate D2E/DX2 analytically  !
 ! D56   D(2,14,15,16)        -178.9104         calculate D2E/DX2 analytically  !
 ! D57   D(2,14,15,27)         -57.2083         calculate D2E/DX2 analytically  !
 ! D58   D(2,14,15,28)          59.2471         calculate D2E/DX2 analytically  !
 ! D59   D(25,14,15,16)        -58.188          calculate D2E/DX2 analytically  !
 ! D60   D(25,14,15,27)         63.5141         calculate D2E/DX2 analytically  !
 ! D61   D(25,14,15,28)        179.9695         calculate D2E/DX2 analytically  !
 ! D62   D(26,14,15,16)         59.0607         calculate D2E/DX2 analytically  !
 ! D63   D(26,14,15,27)       -179.2371         calculate D2E/DX2 analytically  !
 ! D64   D(26,14,15,28)        -62.7818         calculate D2E/DX2 analytically  !
 ! D65   D(14,15,16,29)        179.8294         calculate D2E/DX2 analytically  !
 ! D66   D(14,15,16,30)        -60.1839         calculate D2E/DX2 analytically  !
 ! D67   D(14,15,16,31)         59.9494         calculate D2E/DX2 analytically  !
 ! D68   D(27,15,16,29)         58.7058         calculate D2E/DX2 analytically  !
 ! D69   D(27,15,16,30)        178.6925         calculate D2E/DX2 analytically  !
 ! D70   D(27,15,16,31)        -61.1741         calculate D2E/DX2 analytically  !
 ! D71   D(28,15,16,29)        -58.5946         calculate D2E/DX2 analytically  !
 ! D72   D(28,15,16,30)         61.3921         calculate D2E/DX2 analytically  !
 ! D73   D(28,15,16,31)       -178.4746         calculate D2E/DX2 analytically  !
 --------------------------------------------------------------------------------
 Trust Radius=3.00D-01 FncErr=1.00D-07 GrdErr=1.00D-06
 Number of steps in this run=    167 maximum allowed number of steps=    186.
 GradGradGradGradGradGradGradGradGradGradGradGradGradGradGradGradGradGrad

                          Input orientation:                          
 ---------------------------------------------------------------------
 Center     Atomic      Atomic             Coordinates (Angstroms)
 Number     Number       Type             X           Y           Z
 ---------------------------------------------------------------------
      1          8           0        1.162603    0.478671   -1.240831
      2          6           0        1.430616    0.396434   -0.049241
      3          7           0        0.448932    0.320965    0.888456
      4          6           0       -0.955423    0.327373    0.510414
      5          6           0       -1.723545    0.768751    1.735326
      6          8           0       -2.595029    1.768084    1.499553
      7          8           0       -1.575633    0.267005    2.822369
      8          6           0       -1.395584   -1.085407    0.072144
      9          6           0       -2.826998   -1.161603   -0.348369
     10          6           0       -3.946509   -1.633854    0.279987
     11          7           0       -5.070431   -1.453941   -0.508152
     12          6           0       -4.631038   -0.880572   -1.604833
     13          7           0       -3.281841   -0.681612   -1.558207
     14          6           0        2.851131    0.357259    0.494464
     15          6           0        3.889249    0.675187   -0.571600
     16          7           0        5.275090    0.608825   -0.036333
     17          1           0        0.666139    0.214146    1.867082
     18          1           0       -1.092150    1.030957   -0.310017
     19          1           0       -3.031278    1.944219    2.344257
     20          1           0       -1.242985   -1.767641    0.906216
     21          1           0       -0.738682   -1.392072   -0.739669
     22          1           0       -4.001481   -2.079351    1.264996
     23          1           0       -5.221486   -0.590477   -2.455421
     24          1           0       -2.713556   -0.265923   -2.279028
     25          1           0        3.040831   -0.641932    0.902672
     26          1           0        2.937152    1.062081    1.327175
     27          1           0        3.776071   -0.028894   -1.394566
     28          1           0        3.697671    1.668637   -0.975717
     29          1           0        5.969430    0.819825   -0.754425
     30          1           0        5.412113    1.275928    0.722911
     31          1           0        5.486815   -0.320917    0.325582
 ---------------------------------------------------------------------
                    Distance matrix (angstroms):
                    1          2          3          4          5
     1  O    0.000000
     2  C    1.224125   0.000000
     3  N    2.251236   1.359660   0.000000
     4  C    2.752414   2.451768   1.454363   0.000000
     5  C    4.155900   3.643080   2.374312   1.511700   0.000000
     6  O    4.826188   4.526147   3.425389   2.396321   1.346752
     7  O    4.904318   4.159378   2.800320   2.394461   1.206354
     8  C    3.273311   3.193430   2.458961   1.543298   2.512297
     9  C    4.404986   4.543592   3.802560   2.541131   3.047238
    10  C    5.733993   5.757076   4.848861   3.584145   3.582191
    11  N    6.566774   6.774813   5.963571   4.598244   4.601652
    12  C    5.962073   6.387038   5.785004   4.409483   4.725510
    13  N    4.604353   5.064228   4.572744   3.272531   3.921632
    14  C    2.424277   1.521517   2.434566   3.806705   4.757807
    15  C    2.814443   2.528921   3.754067   4.976201   6.069112
    16  N    4.287226   3.850358   4.922388   6.260786   7.221166
    17  H    3.158413   2.071219   1.008116   2.117270   2.456732
    18  H    2.501068   2.614377   2.077344   1.089418   2.156580
    19  H    5.708706   5.294617   4.106844   3.207233   1.860830
    20  H    3.929705   3.569910   2.687969   2.151380   2.711392
    21  H    2.713987   2.895047   2.644942   2.136860   3.429972
    22  H    6.284140   6.112643   5.070452   3.954767   3.677213
    23  H    6.585962   7.142419   6.645742   5.276165   5.625429
    24  H    4.081284   4.752350   4.514280   3.350226   4.262125
    25  H    3.062369   2.139424   2.765016   4.130795   5.038116
    26  H    3.175539   2.146453   2.633052   4.044631   4.687720
    27  H    2.666734   2.737145   4.050240   5.113014   6.377949
    28  H    2.812983   2.759782   3.980662   5.065458   6.127734
    29  H    4.843404   4.612741   5.781334   7.056622   8.085996
    30  H    4.748710   4.149946   5.056929   6.441307   7.224945
    31  H    4.668169   4.136163   5.109708   6.477413   7.427251
                    6          7          8          9         10
     6  O    0.000000
     7  O    2.245495   0.000000
     8  C    3.408604   3.070045   0.000000
     9  C    3.471554   3.695999   1.493848   0.000000
    10  C    3.858370   3.962073   2.617481   1.367902   0.000000
    11  N    4.532101   5.125196   3.738591   2.268035   1.384461
    12  C    4.560474   5.500231   3.649982   2.216357   2.142092
    13  N    3.977766   4.795880   2.525680   1.378761   2.174283
    14  C    5.715006   5.002353   4.504912   5.937883   7.086497
    15  C    6.894198   6.445974   5.607456   6.966463   8.213158
    16  N    8.101951   7.431112   6.883320   8.299133   9.495660
    17  H    3.631118   2.437398   3.026771   4.359233   5.216368
    18  H    2.465065   3.260248   2.171892   2.796156   3.949264
    19  H    0.966882   2.271682   4.125121   4.115591   4.231012
    20  H    3.831635   2.814620   1.088304   2.109588   2.778327
    21  H    4.294965   4.017603   1.088395   2.137123   3.374657
    22  H    4.103156   3.716926   3.033400   2.196501   1.082466
    23  H    5.301218   6.471676   4.612057   3.240282   3.193221
    24  H    4.292891   5.253869   2.817200   2.131328   3.152771
    25  H    6.158520   5.081648   4.535221   6.022174   7.084812
    26  H    5.579712   4.820060   4.995939   6.401378   7.466555
    27  H    7.224678   6.819885   5.478456   6.780713   8.063390
    28  H    6.762760   6.648140   5.884218   7.139687   8.421207
    29  H    8.906715   8.368216   7.652226   9.025967  10.267248
    30  H    8.059760   7.365749   7.234926   8.658646   9.810546
    31  H    8.429611   7.513839   6.929365   8.383344   9.524363
                   11         12         13         14         15
    11  N    0.000000
    12  C    1.313212   0.000000
    13  N    2.213179   1.364585   0.000000
    14  C    8.187603   7.869061   6.550272   0.000000
    15  C    9.209402   8.722571   7.364701   1.521597   0.000000
    16  N   10.559708  10.139520   8.786489   2.494115   1.487101
    17  H    6.429035   6.427494   5.302974   2.584329   4.067944
    18  H    4.694752   4.225425   3.047231   4.080505   5.000933
    19  H    4.882814   5.112141   4.710307   6.367332   7.616190
    20  H    4.092455   4.309426   3.377835   4.631040   5.872919
    21  H    4.338373   4.020021   2.764492   4.179713   5.071445
    22  H    2.162833   3.173221   3.231413   7.313623   8.557113
    23  H    2.135473   1.075307   2.139047   8.646802   9.389152
    24  H    3.178403   2.123457   1.007635   6.248709   6.884623
    25  H    8.272990   8.074782   6.784813   1.095903   2.151300
    26  H    8.591867   8.345542   7.074021   1.094341   2.159056
    27  H    9.004281   8.452753   7.089918   2.138472   1.088950
    28  H    9.319266   8.732791   7.387594   2.144242   1.089475
    29  H   11.274271  10.769608   9.406721   3.390793   2.093203
    30  H   10.901901  10.532510   9.198930   2.730342   2.087047
    31  H   10.650555  10.315555   8.975973   2.726770   2.085516
                   16         17         18         19         20
    16  N    0.000000
    17  H    5.002119   0.000000
    18  H    6.387084   2.915222   0.000000
    19  H    8.743354   4.109956   3.411662   0.000000
    20  H    7.001521   2.914704   3.055180   4.363927   0.000000
    21  H    6.376812   3.368770   2.486083   5.088952   1.761905
    22  H    9.745487   5.235391   4.540803   4.277291   2.799140
    23  H   10.838285   7.348168   4.927801   5.853085   5.339924
    24  H    8.343460   5.370571   2.861444   5.134242   3.816217
    25  H    2.727277   2.702243   4.620682   6.755505   4.429257
    26  H    2.744185   2.483544   4.349326   6.118396   5.065380
    27  H    2.120976   4.513213   5.098931   8.013237   5.788589
    28  H    2.119881   4.403094   4.877722   7.508457   6.305534
    29  H    1.020923   5.946768   7.078699   9.585345   7.840385
    30  H    1.019928   4.996077   6.590325   8.623586   7.320331
    31  H    1.019917   5.089346   6.746431   9.042334   6.907993
                   21         22         23         24         25
    21  H    0.000000
    22  H    3.890616   0.000000
    23  H    4.866404   4.188873   0.000000
    24  H    2.745535   4.184182   2.534988   0.000000
    25  H    4.188641   7.196639   8.918819   6.586165   0.000000
    26  H    4.879187   7.616895   9.143432   6.833652   1.759151
    27  H    4.761317   8.471597   9.077269   6.553908   2.488714
    28  H    5.394895   8.851280   9.319039   6.822388   3.049347
    29  H    7.063390  10.578391  11.406969   8.882427   3.668705
    30  H    6.862190  10.008372  11.254275   8.798605   3.055074
    31  H    6.406165   9.695482  11.066814   8.604250   2.533559
                   26         27         28         29         30
    26  H    0.000000
    27  H    3.049900   0.000000
    28  H    2.499923   1.750198   0.000000
    29  H    3.685981   2.437402   2.435230   0.000000
    30  H    2.556619   2.977063   2.445173   1.643519   0.000000
    31  H    3.068657   2.443529   2.975356   1.643357   1.647229
                   31
    31  H    0.000000
 Symmetry turned off by external request.
 Stoichiometry    C9H15N4O3(1+)
 Framework group  C1[X(C9H15N4O3)]
 Deg. of freedom    87
 Full point group                 C1      NOp   1
 Rotational constants (GHZ):      1.0449480      0.2251058      0.2000292
 Standard basis: 6-311G(d,p) (5D, 7F)
   378 basis functions,   632 primitive gaussians,   394 cartesian basis functions
    60 alpha electrons       60 beta electrons
       nuclear repulsion energy      1111.5256414978 Hartrees.
 NAtoms=   31 NActive=   31 NUniq=   31 SFac= 1.00D+00 NAtFMM=   60 NAOKFM=F Big=F
 Integral buffers will be    131072 words long.
 Raffenetti 2 integral format.
 Two-electron integral symmetry is turned off.
 Nuclear repulsion after empirical dispersion term =     1111.4717372650 Hartrees.
 One-electron integrals computed using PRISM.
 NBasis=   378 RedAO= T EigKep=  5.25D-04  NBF=   378
 NBsUse=   378 1.00D-06 EigRej= -1.00D+00 NBFU=   378
 ExpMin= 1.03D-01 ExpMax= 8.59D+03 ExpMxC= 1.30D+03 IAcc=3 IRadAn=         5 AccDes= 0.00D+00
 Harris functional with IExCor=  402 and IRadAn=       5 diagonalized for initial guess.
 HarFok:  IExCor=  402 AccDes= 0.00D+00 IRadAn=         5 IDoV= 1 UseB2=F ITyADJ=14
 ICtDFT=  3500011 ScaDFX=  1.000000  1.000000  1.000000  1.000000
 FoFCou: FMM=F IPFlag=           0 FMFlag=      100000 FMFlg1=           0
         NFxFlg=           0 DoJE=T BraDBF=F KetDBF=T FulRan=T
         wScrn=  0.000000 ICntrl=     500 IOpCl=  0 I1Cent=   200000004 NGrid=           0
         NMat0=    1 NMatS0=      1 NMatT0=    0 NMatD0=    1 NMtDS0=    0 NMtDT0=    0
 Symmetry not used in FoFCou.
 Requested convergence on RMS density matrix=1.00D-08 within 128 cycles.
 Requested convergence on MAX density matrix=1.00D-06.
 Requested convergence on             energy=1.00D-06.
 No special actions if energy rises.
 Integral accuracy reduced to 1.0D-05 until final iterations.
 EnCoef did     2 forward-backward iterations
 EnCoef did     2 forward-backward iterations
 Initial convergence to 1.0D-05 achieved.  Increase integral accuracy.
 SCF Done:  E(RB3LYP) =  -796.721367668     A.U. after   17 cycles
            NFock= 17  Conv=0.62D-08     -V/T= 2.0035
 DoSCS=F DFT=T ScalE2(SS,OS)=  1.000000  1.000000
 Range of M.O.s used for correlation:     1   378
 NBasis=   378 NAE=    60 NBE=    60 NFC=     0 NFV=     0
 NROrb=    378 NOA=    60 NOB=    60 NVA=   318 NVB=   318
 Symmetrizing basis deriv contribution to polar:
 IMax=3 JMax=2 DiffMx= 0.00D+00
 G2DrvN: will do    32 centers at a time, making    1 passes.
 Calling FoFCou, ICntrl=  3107 FMM=F I1Cent=   0 AccDes= 0.00D+00.
 End of G2Drv F.D. properties file   721 does not exist.
 End of G2Drv F.D. properties file   722 does not exist.
 End of G2Drv F.D. properties file   788 does not exist.
          IDoAtm=1111111111111111111111111111111
          Differentiating once with respect to nuclear coordinates.
          There are    96 degrees of freedom in the 1st order CPHF.  IDoFFX=6 NUNeed=     0.
     90 vectors produced by pass  0 Test12= 1.99D-14 1.04D-09 XBig12= 1.52D-01 9.94D-02.
 AX will form    90 AO Fock derivatives at one time.
     90 vectors produced by pass  1 Test12= 1.99D-14 1.04D-09 XBig12= 1.42D-02 3.59D-02.
     90 vectors produced by pass  2 Test12= 1.99D-14 1.04D-09 XBig12= 1.70D-04 2.15D-03.
     90 vectors produced by pass  3 Test12= 1.99D-14 1.04D-09 XBig12= 5.46D-07 1.12D-04.
     90 vectors produced by pass  4 Test12= 1.99D-14 1.04D-09 XBig12= 1.12D-09 3.81D-06.
     82 vectors produced by pass  5 Test12= 1.99D-14 1.04D-09 XBig12= 1.53D-12 1.82D-07.
     24 vectors produced by pass  6 Test12= 1.99D-14 1.04D-09 XBig12= 1.86D-15 5.30D-09.
 InvSVY:  IOpt=1 It=  1 EMax= 6.11D-16
 Solved reduced A of dimension   556 with    96 vectors.
 End of Minotr F.D. properties file   721 does not exist.
 End of Minotr F.D. properties file   722 does not exist.
 End of Minotr F.D. properties file   788 does not exist.

 **********************************************************************

            Population analysis using the SCF density.

 **********************************************************************

 Alpha  occ. eigenvalues --  -19.26694 -19.22483 -19.21461 -14.65339 -14.46915
 Alpha  occ. eigenvalues --  -14.43720 -14.35362 -10.42238 -10.41920 -10.40922
 Alpha  occ. eigenvalues --  -10.36511 -10.33692 -10.28893 -10.28319 -10.27738
 Alpha  occ. eigenvalues --  -10.24918  -1.22572  -1.21568  -1.18206  -1.12714
 Alpha  occ. eigenvalues --   -1.08709  -1.06111  -0.97863  -0.94150  -0.90781
 Alpha  occ. eigenvalues --   -0.86184  -0.82893  -0.80783  -0.79960  -0.77260
 Alpha  occ. eigenvalues --   -0.73285  -0.71161  -0.70857  -0.68524  -0.66477
 Alpha  occ. eigenvalues --   -0.65569  -0.65233  -0.61833  -0.60645  -0.59999
 Alpha  occ. eigenvalues --   -0.58322  -0.57699  -0.57373  -0.55632  -0.54428
 Alpha  occ. eigenvalues --   -0.53417  -0.52353  -0.50946  -0.50317  -0.49349
 Alpha  occ. eigenvalues --   -0.48268  -0.47692  -0.46975  -0.42611  -0.40575
 Alpha  occ. eigenvalues --   -0.39547  -0.38480  -0.35130  -0.33417  -0.30154
 Alpha virt. eigenvalues --   -0.19622  -0.14056  -0.13300  -0.12135  -0.10677
 Alpha virt. eigenvalues --   -0.10223  -0.07864  -0.05834  -0.05338  -0.04432
 Alpha virt. eigenvalues --   -0.04303  -0.03874  -0.02341  -0.02151  -0.01246
 Alpha virt. eigenvalues --    0.00121   0.00532   0.01577   0.02824   0.02971
 Alpha virt. eigenvalues --    0.03939   0.05090   0.07680   0.08845   0.09789
 Alpha virt. eigenvalues --    0.10939   0.12408   0.13129   0.13638   0.13882
 Alpha virt. eigenvalues --    0.14356   0.16542   0.17008   0.17661   0.18170
 Alpha virt. eigenvalues --    0.20274   0.21707   0.23358   0.25322   0.26403
 Alpha virt. eigenvalues --    0.26900   0.27894   0.28247   0.29393   0.29853
 Alpha virt. eigenvalues --    0.31175   0.31802   0.33310   0.33482   0.35234
 Alpha virt. eigenvalues --    0.35952   0.36536   0.37042   0.37471   0.37752
 Alpha virt. eigenvalues --    0.39294   0.39443   0.40607   0.41711   0.42955
 Alpha virt. eigenvalues --    0.43406   0.43658   0.44708   0.45670   0.46039
 Alpha virt. eigenvalues --    0.47051   0.47868   0.48173   0.49169   0.49706
 Alpha virt. eigenvalues --    0.50541   0.50883   0.52276   0.53216   0.54728
 Alpha virt. eigenvalues --    0.55386   0.56342   0.56910   0.58534   0.59373
 Alpha virt. eigenvalues --    0.59711   0.62062   0.62281   0.63783   0.64293
 Alpha virt. eigenvalues --    0.66380   0.66856   0.67445   0.69765   0.70707
 Alpha virt. eigenvalues --    0.71833   0.72643   0.75470   0.75865   0.77432
 Alpha virt. eigenvalues --    0.80422   0.80942   0.82317   0.84030   0.84766
 Alpha virt. eigenvalues --    0.86357   0.87948   0.89535   0.91785   0.92548
 Alpha virt. eigenvalues --    0.93619   0.96753   0.96977   0.99449   1.02091
 Alpha virt. eigenvalues --    1.03577   1.04311   1.04971   1.05276   1.09958
 Alpha virt. eigenvalues --    1.10243   1.10894   1.12199   1.14597   1.15203
 Alpha virt. eigenvalues --    1.16625   1.21594   1.22317   1.22507   1.23012
 Alpha virt. eigenvalues --    1.23672   1.24547   1.25836   1.27761   1.28836
 Alpha virt. eigenvalues --    1.29979   1.31033   1.33144   1.33798   1.35738
 Alpha virt. eigenvalues --    1.38398   1.40418   1.41628   1.43268   1.44471
 Alpha virt. eigenvalues --    1.45101   1.45711   1.46504   1.47359   1.47982
 Alpha virt. eigenvalues --    1.49498   1.49929   1.51263   1.51816   1.52674
 Alpha virt. eigenvalues --    1.53162   1.54404   1.56029   1.56844   1.57981
 Alpha virt. eigenvalues --    1.58327   1.60135   1.61055   1.62259   1.64783
 Alpha virt. eigenvalues --    1.65113   1.65436   1.66852   1.67643   1.68999
 Alpha virt. eigenvalues --    1.70977   1.71978   1.73389   1.76214   1.76690
 Alpha virt. eigenvalues --    1.78170   1.79278   1.80916   1.82375   1.83290
 Alpha virt. eigenvalues --    1.85335   1.87467   1.89096   1.91821   1.92637
 Alpha virt. eigenvalues --    1.95396   1.96930   1.97346   2.00417   2.01764
 Alpha virt. eigenvalues --    2.03041   2.07255   2.08038   2.08923   2.10732
 Alpha virt. eigenvalues --    2.11640   2.13708   2.15983   2.16771   2.17298
 Alpha virt. eigenvalues --    2.17463   2.19276   2.20712   2.24186   2.27282
 Alpha virt. eigenvalues --    2.28964   2.30823   2.33013   2.33610   2.35185
 Alpha virt. eigenvalues --    2.35909   2.37165   2.37515   2.38929   2.40719
 Alpha virt. eigenvalues --    2.41451   2.42914   2.43949   2.45962   2.47095
 Alpha virt. eigenvalues --    2.48442   2.49459   2.49946   2.50572   2.51340
 Alpha virt. eigenvalues --    2.54142   2.55096   2.57187   2.60611   2.61651
 Alpha virt. eigenvalues --    2.62629   2.63252   2.64937   2.66187   2.67087
 Alpha virt. eigenvalues --    2.69078   2.70642   2.71155   2.74973   2.75401
 Alpha virt. eigenvalues --    2.76845   2.77301   2.77979   2.79385   2.79531
 Alpha virt. eigenvalues --    2.80769   2.81475   2.82475   2.85247   2.85812
 Alpha virt. eigenvalues --    2.87772   2.91504   2.94584   2.96595   2.99502
 Alpha virt. eigenvalues --    3.01194   3.05546   3.06918   3.09503   3.14350
 Alpha virt. eigenvalues --    3.19081   3.20578   3.23233   3.26571   3.27894
 Alpha virt. eigenvalues --    3.30896   3.39838   3.43285   3.44463   3.48871
 Alpha virt. eigenvalues --    3.50793   3.53190   3.58003   3.59239   3.59676
 Alpha virt. eigenvalues --    3.61797   3.62923   3.66062   3.70166   3.70594
 Alpha virt. eigenvalues --    3.72845   3.76881   3.78657   3.82853   3.87799
 Alpha virt. eigenvalues --    3.99900   4.04739   4.10937   4.21737   4.34874
 Alpha virt. eigenvalues --    4.41985   4.42234   4.56896   4.68193   4.71324
 Alpha virt. eigenvalues --    4.72867   4.79961   4.80937   4.84704   4.85824
 Alpha virt. eigenvalues --    4.93397   5.00383   5.15454   5.18206   5.46847
 Alpha virt. eigenvalues --    5.51956   5.66434  23.59880  23.62645  23.65947
 Alpha virt. eigenvalues --   23.68296  23.68805  23.71376  23.82254  23.85152
 Alpha virt. eigenvalues --   24.07095  35.28062  35.44863  35.47626  35.61472
 Alpha virt. eigenvalues --   49.74348  49.87391  49.91325
          Condensed to atoms (all electrons):
               1          2          3          4          5          6
     1  O    7.874424   0.639260  -0.098381   0.001325   0.000366   0.000001
     2  C    0.639260   4.449872   0.420715  -0.065564   0.008643  -0.000203
     3  N   -0.098381   0.420715   6.728716   0.211989  -0.020263   0.000513
     4  C    0.001325  -0.065564   0.211989   5.307455   0.244255  -0.081298
     5  C    0.000366   0.008643  -0.020263   0.244255   4.533546   0.363365
     6  O    0.000001  -0.000203   0.000513  -0.081298   0.363365   7.770596
     7  O   -0.000004  -0.000138  -0.006340  -0.094196   0.617498  -0.077149
     8  C   -0.003924  -0.004149  -0.048604   0.312986  -0.056891  -0.002303
     9  C   -0.000805   0.000079   0.006713  -0.085948  -0.003091   0.003152
    10  C   -0.000006  -0.000021  -0.000068  -0.008176   0.004632  -0.000396
    11  N    0.000000   0.000000   0.000000  -0.000239  -0.000018  -0.000050
    12  C   -0.000001   0.000000   0.000002   0.000435  -0.000086   0.000251
    13  N    0.000022   0.000000  -0.000014   0.003327  -0.000887  -0.000324
    14  C   -0.106687   0.251979  -0.099636   0.009683  -0.000166   0.000000
    15  C    0.020347  -0.041016   0.005364  -0.000362  -0.000001   0.000000
    16  N    0.000305   0.003626   0.000000   0.000001   0.000000   0.000000
    17  H    0.003047  -0.030090   0.354600  -0.036739  -0.008894   0.001220
    18  H    0.014039  -0.009224  -0.030686   0.393205  -0.029764   0.009390
    19  H    0.000002   0.000041  -0.000475   0.016793  -0.033080   0.309893
    20  H   -0.000085  -0.000272   0.003352  -0.040408  -0.006804   0.000402
    21  H    0.008224   0.002650  -0.008122  -0.051702   0.007470  -0.000229
    22  H    0.000000   0.000000  -0.000017   0.000029   0.000483  -0.000052
    23  H    0.000000   0.000000   0.000000   0.000004   0.000001   0.000009
    24  H    0.000214   0.000021  -0.000060  -0.000037   0.000073  -0.000045
    25  H    0.000302  -0.013079   0.000101  -0.000335  -0.000001   0.000000
    26  H    0.001508  -0.017442   0.004213   0.000043  -0.000051  -0.000001
    27  H    0.012269   0.001195   0.000913   0.000018   0.000000   0.000000
    28  H    0.005560   0.000434   0.000400  -0.000014   0.000000   0.000000
    29  H    0.000043  -0.000117   0.000006   0.000000   0.000000   0.000000
    30  H    0.000036   0.000038  -0.000002   0.000000   0.000000   0.000000
    31  H    0.000036   0.000031   0.000000   0.000000   0.000000   0.000000
               7          8          9         10         11         12
     1  O   -0.000004  -0.003924  -0.000805  -0.000006   0.000000  -0.000001
     2  C   -0.000138  -0.004149   0.000079  -0.000021   0.000000   0.000000
     3  N   -0.006340  -0.048604   0.006713  -0.000068   0.000000   0.000002
     4  C   -0.094196   0.312986  -0.085948  -0.008176  -0.000239   0.000435
     5  C    0.617498  -0.056891  -0.003091   0.004632  -0.000018  -0.000086
     6  O   -0.077149  -0.002303   0.003152  -0.000396  -0.000050   0.000251
     7  O    7.850116   0.004810  -0.004166   0.000596   0.000004  -0.000003
     8  C    0.004810   4.953555   0.304904  -0.027752   0.008010   0.005080
     9  C   -0.004166   0.304904   5.174212   0.546960  -0.094103  -0.119965
    10  C    0.000596  -0.027752   0.546960   4.838977   0.501860  -0.174003
    11  N    0.000004   0.008010  -0.094103   0.501860   6.416989   0.578045
    12  C   -0.000003   0.005080  -0.119965  -0.174003   0.578045   4.728777
    13  N    0.000001  -0.053062   0.370525  -0.073455  -0.083880   0.416944
    14  C   -0.000095  -0.001516  -0.000025  -0.000001   0.000000   0.000000
    15  C    0.000000   0.000028   0.000000   0.000000   0.000000   0.000000
    16  N    0.000000   0.000000   0.000000   0.000000   0.000000   0.000000
    17  H    0.024055   0.001695  -0.000089   0.000006   0.000000   0.000000
    18  H    0.004112  -0.032806  -0.003700  -0.000272   0.000040  -0.000007
    19  H    0.007786  -0.001152   0.000830   0.000432  -0.000009  -0.000047
    20  H    0.009509   0.401216  -0.033758  -0.001280   0.000330  -0.000248
    21  H   -0.000158   0.410276  -0.026083   0.001614  -0.000317   0.000075
    22  H    0.000449   0.000185  -0.052718   0.424551  -0.023522   0.007931
    23  H    0.000000  -0.000383   0.004046   0.006268  -0.021869   0.414723
    24  H   -0.000004   0.003248  -0.038257   0.007439   0.006714  -0.021853
    25  H   -0.000019   0.000219  -0.000001   0.000000   0.000000   0.000000
    26  H   -0.000047   0.000067   0.000000   0.000000   0.000000   0.000000
    27  H    0.000000   0.000000   0.000001   0.000000   0.000000   0.000000
    28  H    0.000000   0.000006   0.000000   0.000000   0.000000   0.000000
    29  H    0.000000   0.000000   0.000000   0.000000   0.000000   0.000000
    30  H    0.000000   0.000000   0.000000   0.000000   0.000000   0.000000
    31  H    0.000000   0.000000   0.000000   0.000000   0.000000   0.000000
              13         14         15         16         17         18
     1  O    0.000022  -0.106687   0.020347   0.000305   0.003047   0.014039
     2  C    0.000000   0.251979  -0.041016   0.003626  -0.030090  -0.009224
     3  N   -0.000014  -0.099636   0.005364   0.000000   0.354600  -0.030686
     4  C    0.003327   0.009683  -0.000362   0.000001  -0.036739   0.393205
     5  C   -0.000887  -0.000166  -0.000001   0.000000  -0.008894  -0.029764
     6  O   -0.000324   0.000000   0.000000   0.000000   0.001220   0.009390
     7  O    0.000001  -0.000095   0.000000   0.000000   0.024055   0.004112
     8  C   -0.053062  -0.001516   0.000028   0.000000   0.001695  -0.032806
     9  C    0.370525  -0.000025   0.000000   0.000000  -0.000089  -0.003700
    10  C   -0.073455  -0.000001   0.000000   0.000000   0.000006  -0.000272
    11  N   -0.083880   0.000000   0.000000   0.000000   0.000000   0.000040
    12  C    0.416944   0.000000   0.000000   0.000000   0.000000  -0.000007
    13  N    6.463462   0.000000   0.000000   0.000000  -0.000006   0.004366
    14  C    0.000000   5.262150   0.314930  -0.042534   0.001657   0.002260
    15  C    0.000000   0.314930   4.967047   0.216044  -0.000033  -0.000016
    16  N    0.000000  -0.042534   0.216044   6.104881  -0.000033   0.000000
    17  H   -0.000006   0.001657  -0.000033  -0.000033   0.439014   0.005367
    18  H    0.004366   0.002260  -0.000016   0.000000   0.005367   0.501619
    19  H    0.000006   0.000001   0.000000   0.000000  -0.000415  -0.001185
    20  H    0.003764   0.000061  -0.000001   0.000000   0.003223   0.007638
    21  H   -0.001761   0.000671  -0.000018   0.000000  -0.001007  -0.006645
    22  H    0.004087   0.000000   0.000000   0.000000  -0.000007  -0.000025
    23  H   -0.036649   0.000000   0.000000   0.000000   0.000000   0.000012
    24  H    0.351036   0.000003   0.000000   0.000000   0.000004   0.000912
    25  H    0.000000   0.384771  -0.033244  -0.002041   0.000091  -0.000041
    26  H    0.000000   0.385455  -0.037167  -0.001971   0.000074  -0.000245
    27  H    0.000000  -0.040572   0.402999  -0.021114  -0.000085  -0.000036
    28  H    0.000000  -0.036439   0.404869  -0.021667  -0.000060  -0.000011
    29  H    0.000000   0.005320  -0.027714   0.363211   0.000001   0.000000
    30  H    0.000000  -0.002251  -0.025508   0.356255  -0.000002   0.000000
    31  H    0.000000  -0.001414  -0.027588   0.356670   0.000000   0.000000
              19         20         21         22         23         24
     1  O    0.000002  -0.000085   0.008224   0.000000   0.000000   0.000214
     2  C    0.000041  -0.000272   0.002650   0.000000   0.000000   0.000021
     3  N   -0.000475   0.003352  -0.008122  -0.000017   0.000000  -0.000060
     4  C    0.016793  -0.040408  -0.051702   0.000029   0.000004  -0.000037
     5  C   -0.033080  -0.006804   0.007470   0.000483   0.000001   0.000073
     6  O    0.309893   0.000402  -0.000229  -0.000052   0.000009  -0.000045
     7  O    0.007786   0.009509  -0.000158   0.000449   0.000000  -0.000004
     8  C   -0.001152   0.401216   0.410276   0.000185  -0.000383   0.003248
     9  C    0.000830  -0.033758  -0.026083  -0.052718   0.004046  -0.038257
    10  C    0.000432  -0.001280   0.001614   0.424551   0.006268   0.007439
    11  N   -0.000009   0.000330  -0.000317  -0.023522  -0.021869   0.006714
    12  C   -0.000047  -0.000248   0.000075   0.007931   0.414723  -0.021853
    13  N    0.000006   0.003764  -0.001761   0.004087  -0.036649   0.351036
    14  C    0.000001   0.000061   0.000671   0.000000   0.000000   0.000003
    15  C    0.000000  -0.000001  -0.000018   0.000000   0.000000   0.000000
    16  N    0.000000   0.000000   0.000000   0.000000   0.000000   0.000000
    17  H   -0.000415   0.003223  -0.001007  -0.000007   0.000000   0.000004
    18  H   -0.001185   0.007638  -0.006645  -0.000025   0.000012   0.000912
    19  H    0.430307  -0.000113   0.000061   0.000050   0.000000   0.000004
    20  H   -0.000113   0.529877  -0.021253   0.001425   0.000014  -0.000031
    21  H    0.000061  -0.021253   0.536624   0.000067  -0.000010   0.001765
    22  H    0.000050   0.001425   0.000067   0.529260  -0.000322  -0.000308
    23  H    0.000000   0.000014  -0.000010  -0.000322   0.513909  -0.002019
    24  H    0.000004  -0.000031   0.001765  -0.000308  -0.002019   0.460485
    25  H    0.000000  -0.000015  -0.000092   0.000000   0.000000   0.000000
    26  H    0.000000  -0.000026   0.000014   0.000000   0.000000   0.000000
    27  H    0.000000  -0.000001   0.000015   0.000000   0.000000   0.000000
    28  H    0.000000   0.000000  -0.000006   0.000000   0.000000   0.000000
    29  H    0.000000   0.000000   0.000000   0.000000   0.000000   0.000000
    30  H    0.000000   0.000000   0.000000   0.000000   0.000000   0.000000
    31  H    0.000000   0.000000   0.000000   0.000000   0.000000   0.000000
              25         26         27         28         29         30
     1  O    0.000302   0.001508   0.012269   0.005560   0.000043   0.000036
     2  C   -0.013079  -0.017442   0.001195   0.000434  -0.000117   0.000038
     3  N    0.000101   0.004213   0.000913   0.000400   0.000006  -0.000002
     4  C   -0.000335   0.000043   0.000018  -0.000014   0.000000   0.000000
     5  C   -0.000001  -0.000051   0.000000   0.000000   0.000000   0.000000
     6  O    0.000000  -0.000001   0.000000   0.000000   0.000000   0.000000
     7  O   -0.000019  -0.000047   0.000000   0.000000   0.000000   0.000000
     8  C    0.000219   0.000067   0.000000   0.000006   0.000000   0.000000
     9  C   -0.000001   0.000000   0.000001   0.000000   0.000000   0.000000
    10  C    0.000000   0.000000   0.000000   0.000000   0.000000   0.000000
    11  N    0.000000   0.000000   0.000000   0.000000   0.000000   0.000000
    12  C    0.000000   0.000000   0.000000   0.000000   0.000000   0.000000
    13  N    0.000000   0.000000   0.000000   0.000000   0.000000   0.000000
    14  C    0.384771   0.385455  -0.040572  -0.036439   0.005320  -0.002251
    15  C   -0.033244  -0.037167   0.402999   0.404869  -0.027714  -0.025508
    16  N   -0.002041  -0.001971  -0.021114  -0.021667   0.363211   0.356255
    17  H    0.000091   0.000074  -0.000085  -0.000060   0.000001  -0.000002
    18  H   -0.000041  -0.000245  -0.000036  -0.000011   0.000000   0.000000
    19  H    0.000000   0.000000   0.000000   0.000000   0.000000   0.000000
    20  H   -0.000015  -0.000026  -0.000001   0.000000   0.000000   0.000000
    21  H   -0.000092   0.000014   0.000015  -0.000006   0.000000   0.000000
    22  H    0.000000   0.000000   0.000000   0.000000   0.000000   0.000000
    23  H    0.000000   0.000000   0.000000   0.000000   0.000000   0.000000
    24  H    0.000000   0.000000   0.000000   0.000000   0.000000   0.000000
    25  H    0.522531  -0.025346  -0.006300   0.006651  -0.000195  -0.000624
    26  H   -0.025346   0.531773   0.007004  -0.006296  -0.000203   0.005052
    27  H   -0.006300   0.007004   0.457876  -0.017716  -0.002768   0.004784
    28  H    0.006651  -0.006296  -0.017716   0.465477  -0.003149  -0.004255
    29  H   -0.000195  -0.000203  -0.002768  -0.003149   0.381224  -0.015293
    30  H   -0.000624   0.005052   0.004784  -0.004255  -0.015293   0.394665
    31  H    0.005619  -0.000470  -0.004108   0.005034  -0.015132  -0.017329
              31
     1  O    0.000036
     2  C    0.000031
     3  N    0.000000
     4  C    0.000000
     5  C    0.000000
     6  O    0.000000
     7  O    0.000000
     8  C    0.000000
     9  C    0.000000
    10  C    0.000000
    11  N    0.000000
    12  C    0.000000
    13  N    0.000000
    14  C   -0.001414
    15  C   -0.027588
    16  N    0.356670
    17  H    0.000000
    18  H    0.000000
    19  H    0.000000
    20  H    0.000000
    21  H    0.000000
    22  H    0.000000
    23  H    0.000000
    24  H    0.000000
    25  H    0.005619
    26  H   -0.000470
    27  H   -0.004108
    28  H    0.005034
    29  H   -0.015132
    30  H   -0.017329
    31  H    0.393978
 Mulliken charges:
               1
     1  O   -0.371435
     2  C    0.402728
     3  N   -0.424926
     4  C   -0.036530
     5  C    0.379665
     6  O   -0.296744
     7  O   -0.336617
     8  C   -0.173744
     9  C    0.051285
    10  C   -0.047906
    11  N   -0.287984
    12  C    0.163950
    13  N   -0.367502
    14  C   -0.287607
    15  C   -0.138960
    16  N   -0.311632
    17  H    0.243408
    18  H    0.171704
    19  H    0.270268
    20  H    0.143486
    21  H    0.147879
    22  H    0.108455
    23  H    0.122266
    24  H    0.230696
    25  H    0.161049
    26  H    0.154062
    27  H    0.205625
    28  H    0.201183
    29  H    0.314768
    30  H    0.304436
    31  H    0.304674
 Sum of Mulliken charges =   1.00000
 Mulliken charges with hydrogens summed into heavy atoms:
               1
     1  O   -0.371435
     2  C    0.402728
     3  N   -0.181518
     4  C    0.135174
     5  C    0.379665
     6  O   -0.026476
     7  O   -0.336617
     8  C    0.117622
     9  C    0.051285
    10  C    0.060549
    11  N   -0.287984
    12  C    0.286216
    13  N   -0.136806
    14  C    0.027505
    15  C    0.267848
    16  N    0.612245
 APT charges:
               1
     1  O   -0.289662
     2  C    0.126003
     3  N   -0.651004
     4  C   -0.208525
     5  C   -0.543509
     6  O   -0.628766
     7  O    0.242936
     8  C   -0.647382
     9  C   -0.523588
    10  C   -0.492740
    11  N    0.806464
    12  C   -0.881685
    13  N   -0.542128
    14  C   -0.670636
    15  C   -0.182944
    16  N   -1.625933
    17  H    0.564541
    18  H    0.299133
    19  H    0.999552
    20  H    0.372176
    21  H    0.218223
    22  H    0.499879
    23  H    0.975474
    24  H    0.207071
    25  H    0.341512
    26  H    0.399283
    27  H    0.198352
    28  H    0.283160
    29  H    1.187064
    30  H    0.637625
    31  H    0.530055
 Sum of APT charges =   1.00000
 APT charges with hydrogens summed into heavy atoms:
               1
     1  O   -0.289662
     2  C    0.126003
     3  N   -0.086463
     4  C    0.090608
     5  C   -0.543509
     6  O    0.370786
     7  O    0.242936
     8  C   -0.056983
     9  C   -0.523588
    10  C    0.007139
    11  N    0.806464
    12  C    0.093789
    13  N   -0.335057
    14  C    0.070159
    15  C    0.298567
    16  N    0.728810
 Electronic spatial extent (au):  <R**2>=           5471.6002
 Charge=              1.0000 electrons
 Dipole moment (field-independent basis, Debye):
    X=             23.5926    Y=              4.3282    Z=              0.3550  Tot=             23.9890
 Quadrupole moment (field-independent basis, Debye-Ang):
   XX=             19.0093   YY=            -88.3878   ZZ=            -84.8001
   XY=              2.9302   XZ=              6.1960   YZ=              3.5891
 Traceless Quadrupole moment (field-independent basis, Debye-Ang):
   XX=             70.4022   YY=            -36.9949   ZZ=            -33.4072
   XY=              2.9302   XZ=              6.1960   YZ=              3.5891
 Octapole moment (field-independent basis, Debye-Ang**2):
  XXX=            972.7572  YYY=             32.9967  ZZZ=            -65.7142  XYY=            100.4224
  XXY=            138.4478  XXZ=            -25.5712  XZZ=             41.9683  YZZ=             17.4682
  YYZ=              3.8858  XYZ=             -6.5455
 Hexadecapole moment (field-independent basis, Debye-Ang**3):
 XXXX=          -2489.5812 YYYY=           -610.0356 ZZZZ=           -894.7723 XXXY=           -373.0635
 XXXZ=            -32.3948 YYYX=           -484.4813 YYYZ=           -117.4461 ZZZX=             45.1531
 ZZZY=            -81.2252 XXYY=           -963.1608 XXZZ=           -802.2367 YYZZ=           -213.4087
 XXYZ=            -26.3761 YYXZ=            -65.0802 ZZXY=           -174.6894
 N-N= 1.111471737265D+03 E-N=-4.070551348323D+03  KE= 7.939434511902D+02
  Exact polarizability:   0.000   0.000   0.000   0.000   0.000   0.000
 Approx polarizability: 209.999   3.465 146.067   1.074 -23.185 209.408
 Calling FoFJK, ICntrl=    100147 FMM=F ISym2X=0 I1Cent= 0 IOpClX= 0 NMat=1 NMatS=1 NMatT=0.
 -------------------------------------------------------------------
 Center     Atomic                   Forces (Hartrees/Bohr)
 Number     Number              X              Y              Z
 -------------------------------------------------------------------
      1        8           0.015365817    0.001009781    0.001134628
      2        6          -0.025934592   -0.000897723   -0.003978571
      3        7           0.017819683    0.003873133   -0.002588224
      4        6           0.000188410   -0.000845286   -0.003286659
      5        6          -0.012848329    0.006700491    0.005536930
      6        8           0.009073685   -0.007580765   -0.004156659
      7        8           0.005228073   -0.000388954   -0.001315454
      8        6          -0.009056449   -0.001634303   -0.001168006
      9        6           0.005860896    0.000222062    0.001304014
     10        6          -0.007334898   -0.000716029    0.003544933
     11        7           0.005626966   -0.000200887    0.002007491
     12        6          -0.000953507   -0.001694745    0.003617233
     13        7           0.002590613    0.003745070   -0.005084571
     14        6           0.011454871   -0.002202921    0.010475124
     15        6          -0.030346016    0.001550037   -0.012005958
     16        7           0.005987360    0.000212091    0.000457715
     17        1          -0.001273627   -0.001496656    0.003013246
     18        1          -0.000081856    0.000618558    0.001341057
     19        1          -0.004312124    0.001411313    0.002125264
     20        1           0.001053968   -0.000792607    0.002022516
     21        1           0.002353667   -0.000799968   -0.002026876
     22        1          -0.001036643    0.000072011   -0.002443751
     23        1          -0.002241350    0.000289219   -0.001690059
     24        1          -0.000158170   -0.000204944   -0.000867112
     25        1          -0.001714390   -0.000913746    0.000916705
     26        1          -0.000904507    0.000489148    0.001160665
     27        1           0.005440535   -0.000485064   -0.001008370
     28        1           0.006063961    0.001387360   -0.000185460
     29        1           0.002036543    0.000860256   -0.003143336
     30        1           0.000871601    0.002271758    0.003870294
     31        1           0.001179808   -0.003857690    0.002421252
 -------------------------------------------------------------------
 Cartesian Forces:  Max     0.030346016 RMS     0.006177926
 FormGI is forming the generalized inverse of G from B-inverse, IUseBI=4.

 GradGradGradGradGradGradGradGradGradGradGradGradGradGradGradGradGradGrad
 Berny optimization.
 Internal  Forces:  Max     0.018044899 RMS     0.003415173
 Search for a local minimum.
 Step number   1 out of a maximum of  167
 All quantities printed in internal units (Hartrees-Bohrs-Radians)
 Mixed Optimization -- RFO/linear search
 Second derivative matrix not updated -- analytic derivatives used.
 ITU=  0
     Eigenvalues ---   -0.00105   0.00031   0.00154   0.00190   0.00202
     Eigenvalues ---    0.00265   0.00373   0.00464   0.00483   0.00861
     Eigenvalues ---    0.01800   0.02027   0.02204   0.02515   0.03191
     Eigenvalues ---    0.03765   0.03800   0.03877   0.04061   0.04228
     Eigenvalues ---    0.04280   0.04452   0.04563   0.04900   0.05013
     Eigenvalues ---    0.05145   0.05212   0.05576   0.06167   0.07420
     Eigenvalues ---    0.07891   0.08198   0.10117   0.10607   0.10707
     Eigenvalues ---    0.10866   0.11517   0.11842   0.13018   0.13206
     Eigenvalues ---    0.13632   0.14480   0.14971   0.15656   0.15802
     Eigenvalues ---    0.15997   0.16058   0.18038   0.19041   0.19686
     Eigenvalues ---    0.20969   0.22548   0.22770   0.24024   0.24523
     Eigenvalues ---    0.24871   0.26717   0.29510   0.31241   0.32033
     Eigenvalues ---    0.32609   0.33160   0.33454   0.33594   0.34156
     Eigenvalues ---    0.34205   0.34266   0.34700   0.34942   0.35112
     Eigenvalues ---    0.36311   0.37023   0.37619   0.40742   0.41089
     Eigenvalues ---    0.43343   0.43529   0.44422   0.44808   0.46014
     Eigenvalues ---    0.47040   0.47151   0.47834   0.52183   0.58386
     Eigenvalues ---    0.80038   0.87447
 RFO step:  Lambda=-1.02410166D-02 EMin=-1.05145860D-03
 Linear search not attempted -- first point.
 Iteration  1 RMS(Cart)=  0.15842918 RMS(Int)=  0.01907587
 Iteration  2 RMS(Cart)=  0.03629039 RMS(Int)=  0.00071073
 Iteration  3 RMS(Cart)=  0.00119484 RMS(Int)=  0.00038552
 Iteration  4 RMS(Cart)=  0.00000184 RMS(Int)=  0.00038552
 Iteration  5 RMS(Cart)=  0.00000000 RMS(Int)=  0.00038552
 Variable       Old X    -DE/DX   Delta X   Delta X   Delta X     New X
                                 (Linear)    (Quad)   (Total)
    R1        2.31326  -0.00440   0.00000  -0.00344  -0.00344   2.30982
    R2        2.56938  -0.00769   0.00000  -0.03440  -0.03440   2.53499
    R3        2.87525   0.00114   0.00000   0.02785   0.02785   2.90310
    R4        2.74835   0.00597   0.00000   0.01159   0.01159   2.75994
    R5        1.90506   0.00281   0.00000   0.00719   0.00719   1.91225
    R6        2.85670   0.00327   0.00000   0.01601   0.01601   2.87271
    R7        2.91641   0.00273   0.00000   0.01559   0.01559   2.93200
    R8        2.05870  -0.00060   0.00000  -0.00191  -0.00191   2.05680
    R9        2.54499  -0.00730   0.00000  -0.02735  -0.02735   2.51764
   R10        2.27968  -0.00038   0.00000  -0.00001  -0.00001   2.27967
   R11        1.82714   0.00406   0.00000   0.00767   0.00767   1.83481
   R12        2.82296  -0.00244   0.00000  -0.01047  -0.01047   2.81249
   R13        2.05660   0.00219   0.00000   0.00661   0.00661   2.06320
   R14        2.05677   0.00316   0.00000   0.01016   0.01016   2.06693
   R15        2.58496   0.00471   0.00000   0.01023   0.01023   2.59519
   R16        2.60548   0.00490   0.00000   0.01080   0.01081   2.61629
   R17        2.61625  -0.00566   0.00000  -0.01727  -0.01728   2.59897
   R18        2.04556  -0.00220   0.00000  -0.00560  -0.00560   2.03996
   R19        2.48161  -0.00072   0.00000  -0.00330  -0.00331   2.47830
   R20        2.57869   0.00278   0.00000   0.00718   0.00718   2.58587
   R21        2.03204   0.00265   0.00000   0.00673   0.00673   2.03877
   R22        1.90415   0.00045   0.00000   0.00052   0.00052   1.90467
   R23        2.87540   0.00115   0.00000  -0.00294  -0.00294   2.87246
   R24        2.07096   0.00088   0.00000   0.00245   0.00245   2.07341
   R25        2.06800   0.00113   0.00000  -0.00243  -0.00243   2.06557
   R26        2.81021   0.01071   0.00000   0.05735   0.05735   2.86757
   R27        2.05782   0.00051   0.00000  -0.00105  -0.00105   2.05677
   R28        2.05881   0.00027   0.00000  -0.00133  -0.00133   2.05748
   R29        1.92927   0.00377   0.00000   0.00668   0.00668   1.93594
   R30        1.92739   0.00448   0.00000   0.00797   0.00797   1.93536
   R31        1.92736   0.00462   0.00000   0.00872   0.00872   1.93608
    A1        2.11411   0.01804   0.00000   0.06267   0.06266   2.17678
    A2        2.15794  -0.01611   0.00000  -0.07349  -0.07349   2.08444
    A3        2.01109  -0.00193   0.00000   0.01080   0.01080   2.02189
    A4        2.11492   0.00229   0.00000   0.01641   0.01609   2.13101
    A5        2.11741   0.00071   0.00000   0.00855   0.00820   2.12561
    A6        2.04975  -0.00303   0.00000  -0.02704  -0.02734   2.02241
    A7        1.85595   0.00049   0.00000   0.00390   0.00403   1.85998
    A8        1.92323   0.00286   0.00000   0.01614   0.01614   1.93938
    A9        1.89630  -0.00060   0.00000   0.00753   0.00748   1.90378
   A10        1.93101  -0.00285   0.00000  -0.01925  -0.01932   1.91169
   A11        1.93680   0.00000   0.00000  -0.00722  -0.00732   1.92947
   A12        1.91937   0.00019   0.00000  -0.00022  -0.00047   1.91890
   A13        1.98625  -0.00511   0.00000  -0.02048  -0.02049   1.96576
   A14        2.14887  -0.00239   0.00000  -0.01461  -0.01462   2.13425
   A15        2.14804   0.00750   0.00000   0.03504   0.03503   2.18307
   A16        1.84855   0.00447   0.00000   0.03764   0.03764   1.88619
   A17        1.98223  -0.00303   0.00000  -0.01389  -0.01390   1.96833
   A18        1.89255  -0.00009   0.00000  -0.00715  -0.00718   1.88537
   A19        1.87298   0.00082   0.00000   0.00194   0.00201   1.87499
   A20        1.89454   0.00138   0.00000   0.00498   0.00486   1.89940
   A21        1.93263   0.00137   0.00000   0.01688   0.01688   1.94951
   A22        1.88639  -0.00041   0.00000  -0.00291  -0.00297   1.88342
   A23        2.30839  -0.00138   0.00000  -0.01152  -0.01159   2.29680
   A24        2.14761   0.00135   0.00000   0.01100   0.01091   2.15852
   A25        1.82686   0.00003   0.00000   0.00004   0.00001   1.82688
   A26        1.93696  -0.00054   0.00000  -0.00103  -0.00105   1.93591
   A27        2.21636   0.00158   0.00000   0.00802   0.00797   2.22433
   A28        2.12972  -0.00103   0.00000  -0.00675  -0.00679   2.12294
   A29        1.83436   0.00286   0.00000   0.00798   0.00798   1.84234
   A30        1.94545   0.00079   0.00000   0.00108   0.00109   1.94654
   A31        2.20763  -0.00139   0.00000  -0.00693  -0.00694   2.20070
   A32        2.13010   0.00060   0.00000   0.00584   0.00583   2.13593
   A33        1.88115  -0.00313   0.00000  -0.00806  -0.00804   1.87311
   A34        2.19602   0.00213   0.00000   0.00890   0.00886   2.20488
   A35        2.20598   0.00100   0.00000  -0.00093  -0.00097   2.20501
   A36        1.96192  -0.01654   0.00000  -0.10010  -0.10041   1.86151
   A37        1.89462   0.00356   0.00000  -0.01172  -0.01288   1.88173
   A38        1.90574   0.00491   0.00000   0.04758   0.04847   1.95421
   A39        1.91068   0.00587   0.00000   0.02083   0.01831   1.92899
   A40        1.92295   0.00531   0.00000   0.03301   0.03367   1.95662
   A41        1.86521  -0.00244   0.00000   0.01553   0.01472   1.87994
   A42        1.95443  -0.00316   0.00000  -0.00901  -0.00863   1.94580
   A43        1.90021   0.00403   0.00000   0.02243   0.02173   1.92194
   A44        1.90756   0.00439   0.00000   0.04985   0.04930   1.95686
   A45        1.91774  -0.00245   0.00000  -0.03279  -0.03284   1.88491
   A46        1.91567  -0.00275   0.00000  -0.04840  -0.04827   1.86740
   A47        1.86604   0.00017   0.00000   0.02022   0.01799   1.88403
   A48        1.95132  -0.00107   0.00000  -0.00914  -0.00914   1.94218
   A49        1.94330   0.00067   0.00000   0.00561   0.00562   1.94893
   A50        1.94106   0.00066   0.00000  -0.00162  -0.00163   1.93943
   A51        1.87240   0.00031   0.00000   0.00551   0.00552   1.87792
   A52        1.87215   0.00030   0.00000   0.00478   0.00477   1.87691
   A53        1.87989  -0.00090   0.00000  -0.00482  -0.00482   1.87507
    D1        0.00624   0.00095   0.00000   0.05275   0.05292   0.05917
    D2        3.09611   0.00021   0.00000   0.00311   0.00277   3.09889
    D3       -3.12567   0.00077   0.00000   0.05655   0.05689  -3.06878
    D4       -0.03580   0.00003   0.00000   0.00691   0.00674  -0.02906
    D5        0.17535  -0.00024   0.00000   0.21764   0.21876   0.39411
    D6       -1.94087   0.00057   0.00000   0.26383   0.26294  -1.67794
    D7        2.31489  -0.00116   0.00000   0.22589   0.22549   2.54038
    D8       -2.97620   0.00016   0.00000   0.21460   0.21583  -2.76036
    D9        1.19077   0.00098   0.00000   0.26079   0.26001   1.45078
   D10       -0.83666  -0.00075   0.00000   0.22285   0.22257  -0.61409
   D11       -2.76619  -0.00039   0.00000  -0.00292  -0.00272  -2.76890
   D12        1.42355   0.00116   0.00000   0.00897   0.00917   1.43273
   D13       -0.68037  -0.00044   0.00000  -0.00531  -0.00515  -0.68552
   D14        0.42519   0.00022   0.00000   0.04390   0.04372   0.46891
   D15       -1.66826   0.00177   0.00000   0.05579   0.05561  -1.61264
   D16        2.51100   0.00017   0.00000   0.04151   0.04129   2.55229
   D17        2.26260   0.00040   0.00000   0.12382   0.12378   2.38638
   D18       -0.88630   0.00065   0.00000   0.11626   0.11629  -0.77001
   D19       -1.93220   0.00256   0.00000   0.13495   0.13487  -1.79733
   D20        1.20210   0.00281   0.00000   0.12739   0.12737   1.32947
   D21        0.20337   0.00083   0.00000   0.11638   0.11640   0.31977
   D22       -2.94552   0.00108   0.00000   0.10882   0.10891  -2.83661
   D23       -3.13023  -0.00053   0.00000  -0.03257  -0.03259   3.12036
   D24        1.04545  -0.00025   0.00000  -0.02484  -0.02492   1.02053
   D25       -0.98832  -0.00016   0.00000  -0.01877  -0.01881  -1.00713
   D26        1.10549  -0.00115   0.00000  -0.03556  -0.03548   1.07002
   D27       -1.00200  -0.00088   0.00000  -0.02783  -0.02781  -1.02981
   D28       -3.03578  -0.00079   0.00000  -0.02176  -0.02170  -3.05748
   D29       -1.04023   0.00065   0.00000  -0.01325  -0.01323  -1.05345
   D30        3.13546   0.00092   0.00000  -0.00552  -0.00556   3.12990
   D31        1.10169   0.00101   0.00000   0.00055   0.00055   1.10224
   D32        3.12080  -0.00132   0.00000  -0.05602  -0.05612   3.06469
   D33       -0.01349  -0.00153   0.00000  -0.04823  -0.04813  -0.06162
   D34       -1.79386   0.00060   0.00000   0.02316   0.02313  -1.77073
   D35        1.31617   0.00030   0.00000  -0.00077  -0.00077   1.31540
   D36        0.31251  -0.00051   0.00000   0.00858   0.00852   0.32104
   D37       -2.86064  -0.00080   0.00000  -0.01535  -0.01538  -2.87602
   D38        2.38062   0.00065   0.00000   0.01799   0.01803   2.39865
   D39       -0.79253   0.00035   0.00000  -0.00594  -0.00587  -0.79841
   D40        3.11193  -0.00005   0.00000  -0.01691  -0.01673   3.09520
   D41       -0.01151  -0.00057   0.00000  -0.03180  -0.03173  -0.04323
   D42       -0.00232   0.00018   0.00000   0.00362   0.00363   0.00131
   D43       -3.12575  -0.00034   0.00000  -0.01127  -0.01137  -3.13712
   D44       -3.11638   0.00012   0.00000   0.01524   0.01540  -3.10098
   D45        0.03329   0.00038   0.00000   0.02686   0.02703   0.06032
   D46        0.00107  -0.00013   0.00000  -0.00331  -0.00332  -0.00226
   D47       -3.13245   0.00013   0.00000   0.00830   0.00830  -3.12414
   D48        0.00268  -0.00016   0.00000  -0.00250  -0.00249   0.00019
   D49        3.12717   0.00036   0.00000   0.01170   0.01167   3.13884
   D50       -0.00196   0.00007   0.00000   0.00030   0.00027  -0.00170
   D51        3.13696  -0.00007   0.00000  -0.00328  -0.00324   3.13372
   D52        0.00059   0.00004   0.00000   0.00193   0.00197   0.00256
   D53        3.13405  -0.00022   0.00000  -0.00971  -0.00960   3.12444
   D54       -3.13847   0.00018   0.00000   0.00535   0.00534  -3.13313
   D55       -0.00501  -0.00008   0.00000  -0.00629  -0.00623  -0.01124
   D56       -3.12258   0.00045   0.00000   0.18677   0.18652  -2.93606
   D57       -0.99847  -0.00193   0.00000   0.15497   0.15429  -0.84418
   D58        1.03406   0.00298   0.00000   0.21947   0.21978   1.25383
   D59       -1.01557  -0.00186   0.00000   0.12059   0.12043  -0.89515
   D60        1.10853  -0.00424   0.00000   0.08880   0.08820   1.19673
   D61        3.14106   0.00067   0.00000   0.15330   0.15369  -2.98844
   D62        1.03080   0.00178   0.00000   0.17125   0.17155   1.20235
   D63       -3.12828  -0.00060   0.00000   0.13946   0.13932  -2.98896
   D64       -1.09575   0.00430   0.00000   0.20396   0.20481  -0.89094
   D65        3.13861  -0.00009   0.00000  -0.00425  -0.00423   3.13438
   D66       -1.05041   0.00004   0.00000   0.00040   0.00040  -1.05000
   D67        1.04631  -0.00020   0.00000  -0.00302  -0.00302   1.04329
   D68        1.02461  -0.00140   0.00000  -0.00405  -0.00384   1.02077
   D69        3.11877  -0.00128   0.00000   0.00059   0.00079   3.11956
   D70       -1.06769  -0.00152   0.00000  -0.00283  -0.00264  -1.07033
   D71       -1.02267   0.00147   0.00000   0.01939   0.01919  -1.00348
   D72        1.07149   0.00160   0.00000   0.02404   0.02383   1.09532
   D73       -3.11497   0.00135   0.00000   0.02061   0.02040  -3.09457
         Item               Value     Threshold  Converged?
 Maximum Force            0.018045     0.000450     NO 
 RMS     Force            0.003415     0.000300     NO 
 Maximum Displacement     0.846343     0.001800     NO 
 RMS     Displacement     0.179316     0.001200     NO 
 Predicted change in Energy=-6.500011D-03
 GradGradGradGradGradGradGradGradGradGradGradGradGradGradGradGradGradGrad

                          Input orientation:                          
 ---------------------------------------------------------------------
 Center     Atomic      Atomic             Coordinates (Angstroms)
 Number     Number       Type             X           Y           Z
 ---------------------------------------------------------------------
      1          8           0        1.338445    0.432760   -1.222408
      2          6           0        1.476583    0.362043   -0.009995
      3          7           0        0.467762    0.339190    0.873896
      4          6           0       -0.931198    0.325300    0.454645
      5          6           0       -1.742780    0.832448    1.635772
      6          8           0       -2.691323    1.694969    1.273430
      7          8           0       -1.536829    0.462548    2.765389
      8          6           0       -1.390618   -1.110563    0.087859
      9          6           0       -2.821297   -1.171820   -0.317675
     10          6           0       -3.945562   -1.570544    0.362801
     11          7           0       -5.072427   -1.397264   -0.406386
     12          6           0       -4.649036   -0.899627   -1.543497
     13          7           0       -3.290105   -0.739087   -1.546395
     14          6           0        2.890264    0.273635    0.584789
     15          6           0        3.837042    0.852156   -0.454174
     16          7           0        5.285832    0.561533   -0.108916
     17          1           0        0.631909    0.243112    1.867779
     18          1           0       -1.052094    0.984283   -0.403120
     19          1           0       -3.210541    1.920556    2.062256
     20          1           0       -1.245162   -1.745888    0.963778
     21          1           0       -0.729791   -1.473606   -0.704507
     22          1           0       -3.999580   -1.969314    1.364493
     23          1           0       -5.262963   -0.642906   -2.392703
     24          1           0       -2.731779   -0.388330   -2.308711
     25          1           0        3.114315   -0.785753    0.761842
     26          1           0        2.963864    0.793818    1.543307
     27          1           0        3.630740    0.418972   -1.431107
     28          1           0        3.740961    1.933316   -0.539514
     29          1           0        5.920694    0.946866   -0.814593
     30          1           0        5.547111    0.964474    0.795656
     31          1           0        5.457756   -0.447125   -0.056798
 ---------------------------------------------------------------------
                    Distance matrix (angstroms):
                    1          2          3          4          5
     1  O    0.000000
     2  C    1.222304   0.000000
     3  N    2.271857   1.341456   0.000000
     4  C    2.824063   2.452478   1.460497   0.000000
     5  C    4.221716   3.646111   2.389613   1.520173   0.000000
     6  O    4.905243   4.560188   3.460865   2.375804   1.332280
     7  O    4.916361   4.097988   2.758867   2.392731   1.206348
     8  C    3.398004   3.224745   2.484595   1.551548   2.509052
     9  C    4.549360   4.573748   3.810630   2.531862   2.999374
    10  C    5.869143   5.768321   4.835879   3.562169   3.499582
    11  N    6.716708   6.792777   5.945426   4.567098   4.497619
    12  C    6.142335   6.439460   5.793106   4.394922   4.642646
    13  N    4.785569   5.127799   4.598049   3.271319   3.871709
    14  C    2.387347   1.536255   2.440573   3.824027   4.783506
    15  C    2.647464   2.451382   3.657725   4.882586   5.958412
    16  N    4.103451   3.815752   4.922312   6.246988   7.246979
    17  H    3.175597   2.062439   1.011919   2.108793   2.457700
    18  H    2.586520   2.633616   2.087313   1.088409   2.158050
    19  H    5.804811   5.356521   4.176462   3.213201   1.876218
    20  H    4.025039   3.577639   2.699951   2.155831   2.710537
    21  H    2.860079   2.952970   2.685463   2.149479   3.438158
    22  H    6.399729   6.108420   5.052427   3.938026   3.607854
    23  H    6.790083   7.218635   6.669061   5.273424   5.549501
    24  H    4.291965   4.853603   4.571141   3.374536   4.245864
    25  H    2.928436   2.143673   2.877897   4.206540   5.193620
    26  H    3.228239   2.193441   2.623990   4.071388   4.707710
    27  H    2.301818   2.581316   3.914567   4.937217   6.200921
    28  H    2.913777   2.806546   3.905483   5.040152   6.001266
    29  H    4.628999   4.554067   5.740622   6.996123   8.046503
    30  H    4.697677   4.192994   5.118290   6.518690   7.339328
    31  H    4.370534   4.062842   5.136587   6.455768   7.506651
                    6          7          8          9         10
     6  O    0.000000
     7  O    2.253366   0.000000
     8  C    3.311861   3.108893   0.000000
     9  C    3.281309   3.718373   1.488306   0.000000
    10  C    3.614683   3.963317   2.610540   1.373317   0.000000
    11  N    4.248923   5.100932   3.725882   2.264129   1.375317
    12  C    4.301122   5.487062   3.650083   2.217512   2.139854
    13  N    3.772875   4.807222   2.533148   1.384483   2.183111
    14  C    5.800736   4.938609   4.526466   5.960346   7.083700
    15  C    6.805476   6.276613   5.610213   6.960503   8.191816
    16  N    8.174996   7.404061   6.885463   8.292987   9.486143
    17  H    3.674917   2.357388   3.015156   4.324682   5.148548
    18  H    2.450095   3.247556   2.178082   2.790370   3.935217
    19  H    0.970939   2.328411   4.049450   3.921527   3.951731
    20  H    3.745232   2.864971   1.091800   2.110895   2.772018
    21  H    4.218970   4.054648   1.093772   2.148282   3.389651
    22  H    3.891889   3.733845   3.028850   2.203187   1.079501
    23  H    5.051685   6.458483   4.622440   3.247648   3.191999
    24  H    4.144093   5.281892   2.839698   2.141517   3.163522
    25  H    6.334125   5.215898   4.566636   6.045320   7.114562
    26  H    5.732892   4.675410   4.970564   6.387103   7.397565
    27  H    6.993653   6.657045   5.464501   6.737889   8.035959
    28  H    6.687141   6.398485   5.999325   7.263217   8.495519
[...]
 3666,0.00004464,0.00000151,0.00001159,0.00000031,-0.00001253,-0.000010
 74,0.00001510,0.00002479,-0.00000193,0.00001155,0.00001352,0.00000163,
 -0.00000086,-0.00000018,0.00001127,-0.00002193,-0.00574664,0.04218760,
 -0.05535874,-0.00506249,0.02308676,-0.00438107,-0.00108763,-0.00058816
 ,0.00125277,-0.00000813,-0.00037071,0.00014622,0.00008006,-0.00000870,
 -0.00002979,-0.00000357,-0.00000120,0.00000554,-0.00000389,0.00000085,
 0.00001759,-0.00000581,0.00004270,-0.00002731,-0.00000046,-0.00000034,
 0.00000073,0.00000046,0.00000037,-0.00000025,-0.00000195,0.00000447,-0
 .00000663,0.00665759,-0.04805177,0.05706872,-0.00669064,0.00241532,-0.
 00417201,0.00716663,-0.01667470,-0.02538134,0.00000165,0.00124276,0.00
 161889,0.00005539,-0.00002740,0.00005569,-0.00013306,0.00002152,-0.000
 39008,0.00010383,-0.00004715,0.00010616,0.00013158,0.00007164,0.000252
 17,0.00010247,0.00004015,0.00001703,-0.00001283,0.00002640,0.00000514,
 0.00000303,0.00001330,-0.00000247,-0.00001984,-0.00000286,-0.00000176,
 0.00000699,-0.00000290,0.00000096,-0.00000542,-0.00000396,0.00000842,-
 0.04975233,-0.00659606,-0.00544339,-0.00006555,0.01192231,0.02246472,0
 .00112587,0.00022203,0.00031039,-0.00168941,-0.00053640,0.00009169,0.0
 0016179,-0.00003670,0.00003385,-0.00003553,-0.00000611,0.00000080,-0.0
 0001029,-0.00001243,0.00000576,0.00002899,0.00008258,0.00001235,0.0000
 0044,-0.00000484,-0.00000017,0.00000006,-0.00000005,0.00000007,0.00002
 365,-0.00000226,-0.00000190,-0.00011976,0.00348946,0.00652059,0.052944
 55,0.00053287,0.00087320,0.00098418,0.00182653,0.00004907,0.00219307,-
 0.00041226,-0.00005047,0.00030981,-0.00006649,0.00001854,0.00023041,-0
 .00003111,0.00000361,-0.00023573,0.00002159,-0.00001226,0.00006953,0.0
 0002405,-0.00004427,0.00015868,0.00001368,-0.00000221,-0.00002742,-0.0
 0001330,0.00000727,0.00000751,0.00000470,0.00001112,-0.00001171,-0.000
 02195,-0.00000539,-0.00000048,0.00000477,0.00000098,-0.00000074,-0.000
 00450,-0.00001212,0.00001683,-0.00631231,-0.11551658,-0.11606128,0.000
 68627,0.00716485,0.01460416,0.00067838,0.00007529,-0.00011406,-0.00062
 573,0.00040329,0.00002105,0.00007315,0.00000159,0.00003010,-0.00000077
 ,0.00001085,-0.00000701,0.00000006,-0.00001632,-0.00000740,0.00000967,
 0.00001392,0.00003103,0.00000047,-0.00000156,-0.00000017,0.00000031,0.
 00000048,0.00000059,0.00001153,0.00000138,0.00000364,-0.00134540,-0.01
 436394,-0.02680758,0.00647329,0.12057955,-0.00338520,0.00031481,-0.000
 02678,0.00213287,-0.00540802,-0.01236811,0.00164547,0.00079611,0.00123
 506,-0.00053547,0.00058786,-0.00002368,-0.00009870,-0.00002153,-0.0000
 2179,0.00003803,-0.00000650,0.00000183,0.00005393,0.00002227,0.0000128
 4,0.00022260,-0.00005871,0.00002757,0.00000530,0.00007843,0.00000415,-
 0.00001715,0.00000433,0.00001597,0.00001364,-0.00001606,0.00001884,0.0
 0003272,0.00000663,-0.00000584,-0.00001553,0.00000685,-0.00000898,-0.0
 0488887,-0.11369423,-0.24301090,-0.00185240,-0.00921473,-0.01791398,0.
 00027823,0.00005465,0.00069455,-0.00019370,-0.00052273,0.00089927,0.00
 003312,-0.00005262,0.00004802,-0.00001129,-0.00000734,0.00000322,-0.00
 000917,-0.00001063,0.00000499,0.00000524,0.00003164,0.00000471,-0.0000
 0093,-0.00000164,0.00000035,0.00000118,-0.00000070,-0.00000046,0.00001
 358,-0.00000232,-0.00000852,0.00004572,0.00288146,0.00648862,0.0034851
 2,0.12286133,0.26480285,-0.00152714,-0.00062547,-0.00428628,0.00005485
 ,0.00046267,0.00776288,0.00104447,-0.00028018,-0.00308534,-0.00040881,
 0.00003896,-0.00011931,-0.00021625,0.00017145,0.00024686,0.00013571,-0
 .00007783,-0.00006569,0.00012289,-0.00009629,-0.00022378,-0.00001502,-
 0.00003018,0.00003058,0.00000030,0.00000651,0.00000781,-0.00002800,-0.
 00001651,0.00002815,0.00007983,0.00000416,0.00002129,0.00000277,-0.000
 00145,0.00000004,0.00001771,0.00003566,-0.00003779,0.00466504,0.009326
 40,0.01878970,-0.05183499,-0.01463830,-0.03799475,-0.01670055,-0.01086
 985,-0.03340499,0.00063134,0.00005067,0.00009402,-0.00006279,0.0000383
 0,0.00003341,-0.00001495,0.00001971,0.00001054,0.00000596,-0.00000948,
 -0.00001367,-0.00001190,-0.00008439,-0.00002280,-0.00000466,-0.0000029
 1,0.00000010,0.00000171,-0.00000142,-0.00000058,-0.00003660,-0.0000029
 9,-0.00002257,0.00053506,-0.00029176,-0.00025589,-0.00362280,-0.002459
 41,0.00238387,0.06880160,-0.00030426,-0.00198276,-0.00013276,-0.000443
 99,0.00102812,-0.00002833,0.00038010,0.00018223,-0.00021545,-0.0000941
 2,-0.00000508,-0.00013416,-0.00006034,0.00004942,0.00005740,0.00005191
 ,-0.00003192,-0.00001517,0.00003283,-0.00002420,-0.00004192,-0.0000065
 4,-0.00000544,0.00001861,-0.00000556,-0.00000269,-0.00001252,-0.000010
 29,-0.00000801,0.00000896,0.00002381,-0.00000324,0.00001312,0.00000986
 ,0.00000153,-0.00000052,0.00000565,0.00000215,-0.00001089,0.00264226,0
 .00576014,0.01247173,-0.02053783,-0.09353737,-0.09789090,0.00626186,0.
 00379323,0.01398254,0.00014982,0.00012740,0.00006272,-0.00002312,0.000
 00262,0.00002478,-0.00000531,0.00000644,0.00000218,-0.00000467,-0.0000
 0255,0.00000608,-0.00001180,-0.00000620,-0.00001517,-0.00000268,-0.000
 00021,0.00000208,0.00000134,0.00000131,0.00000046,-0.00000671,0.000013
 54,-0.00000917,0.00073991,0.00047749,0.00004320,-0.00211844,-0.0002322
 0,0.00149903,0.01827309,0.09341815,-0.00338577,-0.00010529,0.00125645,
 -0.00110522,-0.00058140,-0.00273940,-0.00000430,0.00003813,-0.00018007
 ,-0.00001852,-0.00000372,0.00005894,0.00000385,-0.00002855,-0.00003647
 ,-0.00000852,0.00000627,0.00000753,0.00000885,0.00001163,0.00003035,-0
 .00000160,0.00000789,0.00000449,0.00000468,-0.00000077,0.00001814,0.00
 000593,0.00000326,-0.00000538,-0.00000363,0.00000516,-0.00001346,-0.00
 001847,-0.00000416,0.00000218,0.00000438,-0.00000143,-0.00000393,0.001
 64769,-0.00761802,-0.02085084,-0.04721565,-0.09327829,-0.27725195,-0.0
 0152381,-0.00002503,-0.00127342,-0.00000968,-0.00005002,0.00009718,0.0
 0002926,-0.00000541,0.00000997,-0.00000071,0.00000051,0.00000105,-0.00
 000113,-0.00000208,-0.00000384,0.00001280,0.00001902,0.00001324,0.0000
 0080,0.00000053,-0.00000107,-0.00000194,0.00000026,0.00000034,-0.00000
 550,-0.00000094,0.00001187,-0.00039532,0.00017007,0.00053726,0.0017690
 5,0.00243560,-0.00136156,0.04899497,0.09784442,0.29708897,-0.00047752,
 0.00057378,-0.00079476,0.00195096,-0.00078318,0.00122800,-0.00067257,0
 .00045970,0.00005615,0.00008548,-0.00005624,0.00009727,0.00005041,-0.0
 0006759,-0.00002204,-0.00005725,0.00004887,0.00000336,-0.00004065,0.00
 004077,0.00000664,-0.00002631,0.00000245,-0.00001663,0.00000429,-0.000
 00635,0.00001232,0.00000922,0.00000517,-0.00000357,-0.00001596,0.00000
 752,-0.00001462,-0.00001736,-0.00000285,-0.00000108,-0.00000274,0.0000
 0487,0.00000504,0.00221271,-0.02217056,0.00049716,-0.04928074,-0.00591
 785,-0.00147208,-0.01167441,0.04049311,-0.00212335,0.00008919,-0.00014
 073,-0.00005105,-0.00003655,-0.00002174,-0.00003724,-0.00000349,-0.000
 01310,0.00000135,0.00001941,0.00001093,-0.00001372,0.00000702,-0.00000
 115,0.00002303,0.00000323,-0.00000046,-0.00000250,-0.00000141,-0.00000
 170,-0.00000095,0.00000171,-0.00001325,0.00000450,-0.00298182,-0.00118
 320,0.00284670,0.00069336,0.00073652,-0.00037144,0.00187489,-0.0064637
 9,0.00145240,0.06225442,-0.00026087,0.00053350,-0.00059604,0.00017630,
 -0.00016245,0.00105505,-0.00021486,-0.00004213,-0.00018704,-0.00000063
 ,-0.00001253,0.00004079,0.00000444,-0.00000826,-0.00000240,-0.00001354
 ,0.00000637,0.00000128,-0.00000751,0.00000428,-0.00000172,-0.00001264,
 0.00001221,0.00000089,-0.00000015,-0.00000475,0.00000483,0.00000375,0.
 00000046,-0.00000239,-0.00000390,0.00000269,-0.00000487,-0.00000587,-0
 .00000101,0.00000005,-0.00000022,0.00000006,0.00000039,-0.00119272,-0.
 00859055,0.00055817,0.00656674,-0.32503613,0.00470170,0.00194337,-0.00
 467380,0.00003686,0.00003477,-0.00005351,-0.00002439,-0.00000641,0.000
 00118,-0.00001308,0.00000097,0.00000046,-0.00000013,0.00000597,0.00000
 270,-0.00000379,0.00000351,-0.00000329,0.00000346,0.00000082,0.0000002
 4,-0.00000063,-0.00000046,-0.00000011,-0.00000003,-0.00000163,-0.00000
 232,0.00000287,-0.00121727,0.00092374,0.00087384,0.00016559,0.00108300
 ,0.00000888,-0.00005297,-0.00948302,0.00082320,-0.00696401,0.34429099,
 -0.00034901,0.00073496,0.00000485,-0.00043380,-0.00003569,0.00020640,0
 .00000079,-0.00035276,-0.00009157,0.00002604,-0.00002236,0.00000205,0.
 00004606,0.00000793,0.00006014,-0.00003076,0.00000823,-0.00001618,-0.0
 0002890,-0.00002380,-0.00004316,-0.00000405,0.00002691,-0.00000904,0.0
 0000058,-0.00001310,0.00000659,0.00000470,-0.00000008,-0.00000409,-0.0
 0000276,0.00000307,-0.00000800,-0.00000866,-0.00000198,0.00000292,0.00
 000344,0.00000013,-0.00000062,0.00016599,0.02300100,-0.00106026,0.0001
 0473,0.00038151,-0.05101525,-0.00319147,0.00965299,-0.00114287,0.00003
 605,0.00011829,-0.00000101,0.00000119,-0.00000264,0.00000527,0.0000098
 1,0.00000312,0.00000174,-0.00000505,-0.00000135,0.00000367,0.00000314,
 -0.00000295,-0.00000243,0.00000054,0.00000190,-0.00000038,-0.00000095,
 0.,0.00000023,-0.00000143,-0.00000456,0.00000652,0.00349713,0.00169473
 ,-0.00200323,-0.00122707,-0.00001945,0.00080171,0.00232328,-0.02855257
 ,0.00356613,-0.00012897,-0.00751372,0.05043338,0.00069766,0.00024009,-
 0.00101677,-0.00001588,-0.00041621,0.00351291,-0.00061783,-0.00003479,
 -0.00069337,-0.00000628,0.00005187,0.00017941,-0.00009680,0.00000874,-
 0.00007610,0.00002469,-0.00000482,0.00002447,0.00004405,-0.00000531,0.
 00001397,-0.00001802,0.00000582,0.00000046,0.00000059,-0.00001330,0.00
 000423,-0.00000357,-0.00000291,0.00000227,0.00002148,0.00000594,-0.000
 00002,-0.00001179,-0.00000402,0.00000373,0.00001142,0.00000885,-0.0000
 0970,-0.00567907,0.00230263,-0.00384412,-0.01830621,-0.01168472,0.0204
 7012,-0.19311198,-0.08525598,0.15150621,0.00001542,-0.00001533,-0.0000
 3293,-0.00001580,0.00000092,-0.00000157,-0.00001619,0.00000645,0.00000
 148,-0.00000163,-0.00000236,0.00000121,-0.00000024,-0.00001226,-0.0000
 0686,-0.00000259,-0.00000147,0.00000054,-0.00000074,-0.00000070,0.0000
 0005,-0.00001140,-0.00000208,-0.00000258,0.00054192,0.00014436,-0.0004
 0401,0.00007187,0.00019336,0.00004345,0.00080026,-0.00105514,-0.000634
 92,0.00123684,0.00065264,0.00048582,0.20212183,0.00012720,-0.00012906,
 0.00006238,-0.00007452,0.00063152,-0.00058986,0.00038242,-0.00004672,0
 .00005153,-0.00005670,-0.00005706,-0.00008700,-0.00007073,0.00006416,0
 .00006481,0.00007375,-0.00004754,-0.00001704,0.00004650,-0.00003081,-0
 .00003001,-0.00000845,-0.00000772,0.00000177,-0.00000445,0.00000145,-0
 .00000327,-0.00000862,-0.00000483,0.00000492,0.00002161,-0.00000423,0.
 00000960,0.00000613,0.00000069,0.00000025,0.00000483,0.00000190,-0.000
 00969,0.00188276,-0.00088624,0.00155061,0.00475267,0.00517388,-0.00893
 320,-0.07985219,-0.11042590,0.08522942,-0.00003108,0.00004391,0.000056
 11,0.00001981,0.00000733,0.00000637,-0.00000470,0.00001127,0.00000227,
 -0.00000485,-0.00000217,0.00000485,-0.00000243,-0.00000359,-0.00000823
 ,-0.00000275,0.00000003,0.00000206,0.00000074,0.00000171,0.00000087,-0
 .00000716,0.00000862,-0.00000658,-0.00009029,0.00032197,0.00000124,-0.
 00022580,0.00003934,0.00005717,-0.00060013,0.00002216,-0.00006318,0.00
 072578,-0.00027592,-0.00052779,0.08740086,0.11044420,-0.00022265,0.000
 00080,-0.00011487,-0.00014161,-0.00016833,0.00068817,-0.00045160,-0.00
 001049,-0.00015558,0.00008532,0.00001765,0.00007857,0.00010736,-0.0000
 6435,0.00000274,-0.00010379,0.00004780,0.00000018,-0.00007558,0.000017
 25,-0.00001420,-0.00000212,0.00003157,0.00001207,0.00000730,-0.0000153
 0,0.00000849,0.00001661,0.00000153,-0.00001083,-0.00002670,0.00000568,
 -0.00002335,-0.00002062,-0.00000292,0.00000219,-0.00000036,-0.00001174
 ,0.00000460,-0.00159232,0.00096986,-0.00080062,-0.00357137,-0.00622675
 ,0.00977270,0.14353277,0.08651483,-0.21905741,0.00007749,-0.00001394,-
 0.00007858,-0.00002001,-0.00000113,-0.00000454,0.00001559,-0.00000248,
 -0.00000068,0.00000639,0.00000337,-0.00000599,0.00000526,0.00000556,0.
 00000892,0.00000331,0.00000446,-0.00000134,-0.00000264,0.00000118,0.00
 000065,0.00000239,0.00000290,0.00002101,0.00009160,0.00002533,-0.00019
 044,-0.00023202,0.00006646,0.00008639,-0.00074783,-0.00038628,0.000364
 75,0.00006454,-0.00007520,0.00026815,-0.15706829,-0.09490761,0.2286997
 1,-0.00028951,-0.00022866,0.00163237,-0.00183087,0.00025878,-0.0021527
 0,0.00065519,0.00004912,0.00031250,-0.00018413,-0.00000200,-0.00013104
 ,-0.00018051,0.00010620,0.00004807,0.00016615,-0.00007699,-0.00001435,
 0.00012680,-0.00002919,-0.00001379,0.00001842,-0.00004617,-0.00000980,
 -0.00000602,0.00002088,0.00000106,-0.00002636,-0.00000427,0.00002141,0
 .00005537,-0.00000283,0.00002239,0.00001217,-0.00000107,0.00000152,0.0
 0001022,0.00002496,-0.00002363,0.00275776,-0.00070040,-0.00040929,-0.0
 0734550,-0.01254245,-0.03082904,-0.08073679,-0.03511730,-0.08395839,-0
 .00013098,-0.00001549,0.00012917,0.00002750,0.00000375,0.00001532,-0.0
 0002804,0.00000743,0.00000844,-0.00000908,-0.00000476,0.00000558,-0.00
 000334,-0.00001254,-0.00001112,-0.00000561,-0.00000565,0.00000120,0.00
 000132,-0.00000123,-0.00000020,-0.00001331,-0.00000461,-0.00002184,-0.
 00019040,-0.00025615,0.00010986,-0.00055617,0.00034347,0.00092413,-0.0
 0550760,0.00306684,0.00075090,0.00144925,0.00028816,0.00031429,0.00859
 501,0.01120816,0.02266949,0.08262720,0.00052716,0.00010274,-0.00006072
 ,-0.00052727,-0.00022258,0.00022878,0.00031252,-0.00008256,-0.00015046
 ,-0.00009540,0.00003519,-0.00006291,-0.00009257,0.00008401,0.00007541,
 0.00007361,-0.00005077,-0.00001706,0.00005053,-0.00005155,-0.00005016,
 0.00001784,-0.00000831,0.00000167,-0.00000412,0.00000651,-0.00000398,-
 0.00001168,-0.00000519,0.00000646,0.00002821,-0.00000537,0.00001195,0.
 00000770,0.00000093,0.00000068,0.00000591,0.00000486,-0.00001074,-0.00
 017390,0.00001316,0.00028120,0.00049137,0.00569251,0.01043108,-0.03113
 461,-0.10331126,-0.10427155,-0.00001943,0.00005711,0.00004832,0.000007
 14,0.00000994,0.00001313,-0.00000457,0.00001655,0.00000390,-0.00000701
 ,-0.00000397,0.00000475,-0.00000445,-0.00001737,-0.00001198,-0.0000035
 5,0.00000037,0.00000216,0.00000081,0.00000125,0.00000092,-0.00000934,0
 .00000602,-0.00000768,-0.00017868,-0.00042380,-0.00017992,0.00009258,0
 .00021402,-0.00029851,0.00232542,-0.00044680,0.00006985,0.00027567,-0.
 00011149,0.00094391,0.00613958,0.00640719,0.01480726,0.03270469,0.1025
 6776,0.00030007,0.00005024,-0.00026095,-0.00022960,0.00008059,-0.00027
 848,0.00048684,-0.00002663,-0.00014944,-0.00007631,-0.00002733,-0.0000
 8868,-0.00002123,0.00004693,0.00018811,0.00002559,-0.00001734,-0.00005
 187,0.00000952,-0.00002698,-0.00013055,0.00000436,-0.00001394,0.000012
 41,0.00000011,0.00000126,0.00000642,-0.00000570,-0.00000775,0.00001114
 ,0.00002604,0.00000307,-0.00000241,-0.00000675,-0.00000216,0.00000294,
 0.00000829,0.00001248,-0.00001960,0.00039799,0.00034922,0.00255640,-0.
 00560862,0.00044661,-0.00317891,-0.07530735,-0.10751903,-0.33903835,0.
 00005302,0.00002881,0.00009905,-0.00000028,0.00000635,0.00000393,0.000
 00110,0.00000329,0.00000894,-0.00000167,0.00000249,-0.00000054,-0.0000
 0440,-0.00001612,-0.00001010,-0.00000113,0.00000145,0.00000024,-0.0000
 0072,0.00000025,0.00000012,-0.00001175,-0.00000037,-0.00000075,-0.0000
 5048,0.00006960,0.00013787,-0.00007174,-0.00067319,-0.00027910,-0.0001
 7813,0.00076108,0.00111474,0.00052839,0.00036188,0.00006784,-0.0076335
 8,-0.00964986,-0.02116918,0.08598721,0.11514287,0.35713768,0.00044610,
 -0.00017611,0.00047211,-0.00105418,-0.00037152,-0.00088349,0.00073376,
 -0.00000327,0.00000102,-0.00019462,0.00008259,-0.00015206,-0.00020328,
 0.00014089,0.00011201,0.00017353,-0.00009001,-0.00002795,0.00012713,-0
 .00005617,-0.00006728,0.00002984,-0.00005177,0.00000265,-0.00000446,0.
 00001936,-0.00000446,-0.00003282,-0.00000996,0.00002608,0.00006980,-0.
 00000465,0.00002882,0.00001685,0.00000008,0.00000193,0.00001411,0.0000
 2665,-0.00003033,0.00207994,0.00137791,0.00000935,-0.00178058,0.035127
 22,0.00029474,-0.06005766,0.03719254,0.00155696,-0.00006699,0.00004624
 ,0.00013691,0.00002134,0.00000769,0.00002132,-0.00002470,0.00001451,0.
 00000927,-0.00001456,-0.00000750,0.00001033,-0.00001070,-0.00002162,-0
 .00002535,-0.00000698,-0.00000455,0.00000224,0.00000178,-0.00000074,0.
 00000008,-0.00001895,0.00000182,-0.00002320,-0.00050520,-0.00154626,0.
 00084955,0.00009149,-0.00034145,0.00002166,0.00121765,-0.00048469,-0.0
 0035085,-0.00665362,0.00010864,-0.00161069,0.00373299,-0.02560834,-0.0
 0240590,0.00054185,-0.01079416,0.00138091,0.06133112,-0.00036099,-0.00
 021597,0.00005152,0.00030663,-0.00008147,0.00038447,-0.00052523,-0.000
 03954,-0.00002723,0.00013314,0.00004663,0.00010191,0.00006354,-0.00005
 061,-0.00004906,-0.00007885,0.00002606,0.00001744,-0.00006212,-0.00000
 094,0.00002308,-0.00000754,0.00004133,0.00000728,0.00000075,-0.0000225
 0,-0.00001155,0.00000932,-0.00000125,-0.00001563,-0.00002333,-0.000006
 43,-0.00000563,-0.00000188,0.00000257,-0.00000006,-0.00000141,-0.00002
 354,0.00001210,-0.00096260,0.00224634,-0.00161956,0.00597447,-0.005819
 94,0.00176956,0.02748746,-0.39833813,-0.00091029,0.00004793,0.00004645
 ,-0.00006890,-0.00000913,-0.00000804,-0.00000191,0.00001403,0.00000906
 ,-0.00000460,-0.00000674,0.00000282,0.00001308,0.00000323,0.00002365,-
 0.00000767,-0.00000012,0.00000626,0.00000326,-0.00000067,0.00000343,0.
 00000167,0.00000680,0.00001721,0.00001205,0.00041784,-0.00026601,-0.00
 015128,0.00001915,-0.00029405,0.00010484,-0.00061152,0.00088578,0.0003
 3251,0.00042260,0.00159936,0.00049612,0.00134928,-0.01125951,-0.000636
 95,0.00096932,-0.01047911,0.00061226,-0.03457335,0.42195007,-0.0001108
 3,-0.00018498,-0.00073662,0.00073772,0.00033592,0.00073129,-0.00014371
 ,0.00001280,-0.00014591,0.00006403,-0.00003313,0.00002069,0.00007726,-
 0.00003965,0.00005063,-0.00006865,0.00002929,-0.00001368,-0.00005266,0
 .00001627,-0.00004303,-0.00001792,0.00002344,0.00002393,0.00000483,-0.
 00001634,0.00000805,0.00001276,-0.00000298,-0.00000548,-0.00001369,0.0
 0000646,-0.00001921,-0.00001920,-0.00000300,0.00000200,0.00000236,-0.0
 0000752,-0.00000429,-0.00020247,-0.00149481,-0.00001516,-0.00079569,0.
 00892093,0.00040904,0.00176234,0.00102696,-0.06267025,0.00005576,-0.00
 002816,-0.00002268,-0.00001037,0.00000107,-0.00000557,0.00001152,-0.00
 000281,0.00000089,0.00000603,0.00000355,-0.00000464,0.00000139,0.00000
 770,0.00000323,0.00000248,0.00000388,-0.00000069,-0.00000218,0.0000015
 7,0.00000054,-0.00000240,0.00000715,0.00001625,0.00013871,0.00052983,0
 .00031208,0.00016507,-0.00005776,-0.00012121,-0.00026810,0.00064740,-0
 .00046218,-0.00177284,-0.00004871,-0.00003947,-0.00482550,0.02772707,0
 .00160834,0.00462031,-0.03694863,0.00331109,0.00064364,-0.00043283,0.0
 5781202\\-0.00000099,0.00000045,0.00000126,-0.00000094,-0.00000116,-0.
 00000037,0.00000124,-0.00000298,-0.00000149,0.00000017,0.00000177,-0.0
 0000140,0.00000145,0.00000185,0.00000124,0.00000007,-0.00000176,-0.000
 00151,-0.00000282,0.00000092,0.00000121,-0.00000073,-0.00000027,0.0000
 0105,0.00000132,0.00000075,0.00000260,-0.00000155,-0.00000092,-0.00000
 077,0.00000141,-0.00000018,0.00000057,-0.00000127,-0.00000081,0.000000
 62,-0.00000003,0.00000190,-0.00000090,-0.00000116,-0.00000142,-0.00000
 011,-0.00000087,0.00000039,-0.00000149,0.00000033,-0.00000126,-0.00000
 050,0.00000112,0.00000290,-0.00000159,0.00000017,-0.00000027,-0.000000
 34,0.00000077,0.00000201,0.,-0.00000059,0.00000022,0.00000074,-0.00000
 039,-0.00000049,0.00000046,-0.00000022,0.00000172,0.00000057,-0.000000
 15,-0.00000006,0.00000011,0.00000012,-0.00000064,-0.00000049,0.0000001
 1,0.00000058,0.00000082,0.00000027,0.00000020,0.00000018,0.00000254,-0
 .00000049,0.00000043,0.00000030,-0.00000098,-0.00000085,0.00000031,-0.
 00000086,-0.00000035,0.,-0.00000019,0.00000012,-0.00000002,-0.00000091
 ,0.00000022\\\@


 ONE THORN OF EXPERIENCE IS WORTH A WHOLE WILDERNESS OF
 WARNING....  LOWELL - AMONG MY BOOKS
 Job cpu time:       0 days  2 hours  6 minutes 58.7 seconds.
 File lengths (MBytes):  RWF=    458 Int=      0 D2E=      0 Chk=     13 Scr=      1
 Normal termination of Gaussian 09 at Sat Jul 24 02:04:18 2021.
