 Entering Gaussian System, Link 0=g09
 Input=opt_freq-conf-628.com
 Output=opt_freq-conf-628.log
 Initial command:
 /aerosol/software/g09/l1.exe "/scratch/nicole/10495/Gau-76017.inp" -scrdir="/scratch/nicole/10495/"
 Entering Link 1 = /aerosol/software/g09/l1.exe PID=     76023.
  
 Copyright (c) 1988,1990,1992,1993,1995,1998,2003,2009,2013,
            Gaussian, Inc.  All Rights Reserved.
  
 This is part of the Gaussian(R) 09 program.  It is based on
 the Gaussian(R) 03 system (copyright 2003, Gaussian, Inc.),
 the Gaussian(R) 98 system (copyright 1998, Gaussian, Inc.),
 the Gaussian(R) 94 system (copyright 1995, Gaussian, Inc.),
 the Gaussian 92(TM) system (copyright 1992, Gaussian, Inc.),
 the Gaussian 90(TM) system (copyright 1990, Gaussian, Inc.),
 the Gaussian 88(TM) system (copyright 1988, Gaussian, Inc.),
 the Gaussian 86(TM) system (copyright 1986, Carnegie Mellon
 University), and the Gaussian 82(TM) system (copyright 1983,
 Carnegie Mellon University). Gaussian is a federally registered
 trademark of Gaussian, Inc.
  
 This software contains proprietary and confidential information,
 including trade secrets, belonging to Gaussian, Inc.
  
 This software is provided under written license and may be
 used, copied, transmitted, or stored only in accord with that
 written license.
  
 The following legend is applicable only to US Government
 contracts under FAR:
  
                    RESTRICTED RIGHTS LEGEND
  
 Use, reproduction and disclosure by the US Government is
 subject to restrictions as set forth in subparagraphs (a)
 and (c) of the Commercial Computer Software - Restricted
 Rights clause in FAR 52.227-19.
  
 Gaussian, Inc.
 340 Quinnipiac St., Bldg. 40, Wallingford CT 06492
  
  
 ---------------------------------------------------------------
 Warning -- This program may not be used in any manner that
 competes with the business of Gaussian, Inc. or will provide
 assistance to any competitor of Gaussian, Inc.  The licensee
 of this program is prohibited from giving any competitor of
 Gaussian, Inc. access to this program.  By using this program,
 the user acknowledges that Gaussian, Inc. is engaged in the
 business of creating and licensing software in the field of
 computational chemistry and represents and warrants to the
 licensee that it is not a competitor of Gaussian, Inc. and that
 it will not use this program in any manner prohibited above.
 ---------------------------------------------------------------
  

 Cite this work as:
 Gaussian 09, Revision D.01,
 M. J. Frisch, G. W. Trucks, H. B. Schlegel, G. E. Scuseria, 
 M. A. Robb, J. R. Cheeseman, G. Scalmani, V. Barone, B. Mennucci, 
 G. A. Petersson, H. Nakatsuji, M. Caricato, X. Li, H. P. Hratchian, 
 A. F. Izmaylov, J. Bloino, G. Zheng, J. L. Sonnenberg, M. Hada, 
 M. Ehara, K. Toyota, R. Fukuda, J. Hasegawa, M. Ishida, T. Nakajima, 
 Y. Honda, O. Kitao, H. Nakai, T. Vreven, J. A. Montgomery, Jr., 
 J. E. Peralta, F. Ogliaro, M. Bearpark, J. J. Heyd, E. Brothers, 
 K. N. Kudin, V. N. Staroverov, T. Keith, R. Kobayashi, J. Normand, 
 K. Raghavachari, A. Rendell, J. C. Burant, S. S. Iyengar, J. Tomasi, 
 M. Cossi, N. Rega, J. M. Millam, M. Klene, J. E. Knox, J. B. Cross, 
 V. Bakken, C. Adamo, J. Jaramillo, R. Gomperts, R. E. Stratmann, 
 O. Yazyev, A. J. Austin, R. Cammi, C. Pomelli, J. W. Ochterski, 
 R. L. Martin, K. Morokuma, V. G. Zakrzewski, G. A. Voth, 
 P. Salvador, J. J. Dannenberg, S. Dapprich, A. D. Daniels, 
 O. Farkas, J. B. Foresman, J. V. Ortiz, J. Cioslowski, 
 and D. J. Fox, Gaussian, Inc., Wallingford CT, 2013.
 
 ******************************************
 Gaussian 09:  ES64L-G09RevD.01 24-Apr-2013
                24-Jul-2021 
 ******************************************
 %mem=2gb
 %nproc=4
 Will use up to    4 processors via shared memory.
 %chk=conf-628.chk
 ----------------------------------------------------------------------
 # B3LYP/6-311G(d,p) EmpiricalDispersion=GD3BJ opt=calcfc freq=noraman 
 nosymm integral(ultrafinegrid)
 ----------------------------------------------------------------------
 1/10=4,14=-1,18=20,19=15,26=4,38=1/1,3;
 2/9=110,12=2,15=1,17=6,18=5,40=1/2;
 3/5=4,6=6,7=101,11=2,16=1,25=1,30=1,71=2,74=-5,75=-5,124=41,140=1/1,2,3;
 4//1;
 5/5=2,38=5/2;
 8/6=4,10=90,11=11/1;
 11/6=1,8=1,9=11,15=111,16=1,31=1/1,2,10;
 10/6=1,13=1,31=1/2;
 6/7=2,8=2,9=2,10=2,28=1/1;
 7/10=1,18=20,25=1,30=1/1,2,3,16;
 1/10=4,14=-1,18=20,19=15,26=4/3(2);
 2/9=110,15=1/2;
 99//99;
 2/9=110,15=1/2;
 3/5=4,6=6,7=101,11=2,16=1,25=1,30=1,71=1,74=-5,75=-5,124=41/1,2,3;
 4/5=5,16=3,69=1/1;
 5/5=2,38=5/2;
 7/30=1/1,2,3,16;
 1/14=-1,18=20,19=15,26=4/3(-5);
 2/9=110,15=1/2;
 6/7=2,8=2,9=2,10=2,19=2,28=1/1;
 99/9=1/99;
 ------------------------------------------------------------
 Candidate Structure: Conf:628 OPT and FREQ calc in gas phase
 ------------------------------------------------------------
 Symbolic Z-matrix:
 Charge =  1 Multiplicity = 1
 O                    -1.23346   0.12207  -0.84287 
 C                    -1.46356  -0.06705   0.34931 
 N                    -0.46101  -0.24379   1.22995 
 C                     0.90694  -0.33709   0.75078 
 C                     1.71594  -0.95986   1.86883 
 O                     3.00756  -1.162     1.5238 
 O                     1.28005  -1.2415    2.95329 
 C                     1.44827   1.05177   0.32468 
 C                     2.3268    0.99156  -0.87917 
 C                     2.2344    1.60899  -2.09359 
 N                     3.28424   1.23058  -2.91301 
 C                     3.98976   0.38949  -2.19678 
 N                     3.44646   0.20531  -0.96361 
 C                    -2.87106  -0.07869   0.92827 
 C                    -3.8502   -0.83512   0.0418 
 N                    -3.94724  -0.19776  -1.29196 
 H                    -0.63042  -0.51316   2.1862 
 H                     0.91497  -1.01819  -0.10778 
 H                     3.43321  -1.56793   2.29421 
 H                     0.60119   1.68663   0.07355 
 H                     1.95518   1.52679   1.16546 
 H                     1.47839   2.30342  -2.43091 
 H                     4.89002  -0.11398  -2.50001 
 H                     3.77118  -0.40044  -0.22689 
 H                    -2.85146  -0.51082   1.9302 
 H                    -3.19337   0.96164   1.02586 
 H                    -3.51778  -1.86885  -0.07297 
 H                    -4.83409  -0.86052   0.51303 
 H                    -4.44019   0.69304  -1.23969 
 H                    -2.9845    0.00017  -1.59919 
 H                    -4.40624  -0.79443  -1.97939 
 

 GradGradGradGradGradGradGradGradGradGradGradGradGradGradGradGradGradGrad
 Berny optimization.
 Initialization pass.
                           ----------------------------
                           !    Initial Parameters    !
                           ! (Angstroms and Degrees)  !
 --------------------------                            --------------------------
 ! Name  Definition              Value          Derivative Info.                !
 --------------------------------------------------------------------------------
 ! R1    R(1,2)                  1.2288         calculate D2E/DX2 analytically  !
 ! R2    R(2,3)                  1.3461         calculate D2E/DX2 analytically  !
 ! R3    R(2,14)                 1.522          calculate D2E/DX2 analytically  !
 ! R4    R(3,4)                  1.4524         calculate D2E/DX2 analytically  !
 ! R5    R(3,17)                 1.0078         calculate D2E/DX2 analytically  !
 ! R6    R(4,5)                  1.514          calculate D2E/DX2 analytically  !
 ! R7    R(4,8)                  1.5503         calculate D2E/DX2 analytically  !
 ! R8    R(4,18)                 1.0959         calculate D2E/DX2 analytically  !
 ! R9    R(5,6)                  1.3521         calculate D2E/DX2 analytically  !
 ! R10   R(5,7)                  1.2022         calculate D2E/DX2 analytically  !
 ! R11   R(6,19)                 0.9693         calculate D2E/DX2 analytically  !
 ! R12   R(8,9)                  1.4915         calculate D2E/DX2 analytically  !
 ! R13   R(8,20)                 1.088          calculate D2E/DX2 analytically  !
 ! R14   R(8,21)                 1.0906         calculate D2E/DX2 analytically  !
 ! R15   R(9,10)                 1.3655         calculate D2E/DX2 analytically  !
 ! R16   R(9,13)                 1.3708         calculate D2E/DX2 analytically  !
 ! R17   R(10,11)                1.3845         calculate D2E/DX2 analytically  !
 ! R18   R(10,22)                1.0805         calculate D2E/DX2 analytically  !
 ! R19   R(11,12)                1.3108         calculate D2E/DX2 analytically  !
 ! R20   R(12,13)                1.3601         calculate D2E/DX2 analytically  !
 ! R21   R(12,23)                1.0751         calculate D2E/DX2 analytically  !
 ! R22   R(13,24)                1.0075         calculate D2E/DX2 analytically  !
 ! R23   R(14,15)                1.5221         calculate D2E/DX2 analytically  !
 ! R24   R(14,25)                1.0913         calculate D2E/DX2 analytically  !
 ! R25   R(14,26)                1.0935         calculate D2E/DX2 analytically  !
 ! R26   R(15,16)                1.4814         calculate D2E/DX2 analytically  !
 ! R27   R(15,27)                1.0919         calculate D2E/DX2 analytically  !
 ! R28   R(15,28)                1.0912         calculate D2E/DX2 analytically  !
 ! R29   R(16,29)                1.0194         calculate D2E/DX2 analytically  !
 ! R30   R(16,30)                1.0298         calculate D2E/DX2 analytically  !
 ! R31   R(16,31)                1.0194         calculate D2E/DX2 analytically  !
 ! A1    A(1,2,3)              121.0287         calculate D2E/DX2 analytically  !
 ! A2    A(1,2,14)             122.9159         calculate D2E/DX2 analytically  !
 ! A3    A(3,2,14)             116.0343         calculate D2E/DX2 analytically  !
 ! A4    A(2,3,4)              119.6091         calculate D2E/DX2 analytically  !
 ! A5    A(2,3,17)             122.0502         calculate D2E/DX2 analytically  !
 ! A6    A(4,3,17)             117.0118         calculate D2E/DX2 analytically  !
 ! A7    A(3,4,5)              106.6215         calculate D2E/DX2 analytically  !
 ! A8    A(3,4,8)              111.2221         calculate D2E/DX2 analytically  !
 ! A9    A(3,4,18)             107.7743         calculate D2E/DX2 analytically  !
 ! A10   A(5,4,8)              112.6361         calculate D2E/DX2 analytically  !
 ! A11   A(5,4,18)             108.6            calculate D2E/DX2 analytically  !
 ! A12   A(8,4,18)             109.8079         calculate D2E/DX2 analytically  !
 ! A13   A(4,5,6)              112.5496         calculate D2E/DX2 analytically  !
 ! A14   A(4,5,7)              124.6622         calculate D2E/DX2 analytically  !
 ! A15   A(6,5,7)              122.786          calculate D2E/DX2 analytically  !
 ! A16   A(5,6,19)             106.2178         calculate D2E/DX2 analytically  !
 ! A17   A(4,8,9)              113.0376         calculate D2E/DX2 analytically  !
 ! A18   A(4,8,20)             108.3203         calculate D2E/DX2 analytically  !
 ! A19   A(4,8,21)             109.9119         calculate D2E/DX2 analytically  !
 ! A20   A(9,8,20)             107.2092         calculate D2E/DX2 analytically  !
 ! A21   A(9,8,21)             111.4708         calculate D2E/DX2 analytically  !
 ! A22   A(20,8,21)            106.5992         calculate D2E/DX2 analytically  !
 ! A23   A(8,9,10)             131.2776         calculate D2E/DX2 analytically  !
 ! A24   A(8,9,13)             123.6415         calculate D2E/DX2 analytically  !
 ! A25   A(10,9,13)            105.0607         calculate D2E/DX2 analytically  !
 ! A26   A(9,10,11)            110.5777         calculate D2E/DX2 analytically  !
 ! A27   A(9,10,22)            127.9938         calculate D2E/DX2 analytically  !
 ! A28   A(11,10,22)           121.4286         calculate D2E/DX2 analytically  !
 ! A29   A(10,11,12)           105.0775         calculate D2E/DX2 analytically  !
 ! A30   A(11,12,13)           111.5502         calculate D2E/DX2 analytically  !
 ! A31   A(11,12,23)           126.6602         calculate D2E/DX2 analytically  !
 ! A32   A(13,12,23)           121.7894         calculate D2E/DX2 analytically  !
 ! A33   A(9,13,12)            107.7261         calculate D2E/DX2 analytically  !
 ! A34   A(9,13,24)            124.2674         calculate D2E/DX2 analytically  !
 ! A35   A(12,13,24)           128.0001         calculate D2E/DX2 analytically  !
 ! A36   A(2,14,15)            112.158          calculate D2E/DX2 analytically  !
 ! A37   A(2,14,25)            109.6131         calculate D2E/DX2 analytically  !
 ! A38   A(2,14,26)            107.4131         calculate D2E/DX2 analytically  !
 ! A39   A(15,14,25)           110.4549         calculate D2E/DX2 analytically  !
 ! A40   A(15,14,26)           109.5831         calculate D2E/DX2 analytically  !
 ! A41   A(25,14,26)           107.4625         calculate D2E/DX2 analytically  !
 ! A42   A(14,15,16)           110.6517         calculate D2E/DX2 analytically  !
 ! A43   A(14,15,27)           109.625          calculate D2E/DX2 analytically  !
 ! A44   A(14,15,28)           109.8824         calculate D2E/DX2 analytically  !
 ! A45   A(16,15,27)           109.4274         calculate D2E/DX2 analytically  !
 ! A46   A(16,15,28)           109.862          calculate D2E/DX2 analytically  !
 ! A47   A(27,15,28)           107.3284         calculate D2E/DX2 analytically  !
 ! A48   A(15,16,29)           111.1897         calculate D2E/DX2 analytically  !
 ! A49   A(15,16,30)           106.8621         calculate D2E/DX2 analytically  !
 ! A50   A(15,16,31)           112.6314         calculate D2E/DX2 analytically  !
 ! A51   A(29,16,30)           107.4223         calculate D2E/DX2 analytically  !
 ! A52   A(29,16,31)           109.1651         calculate D2E/DX2 analytically  !
 ! A53   A(30,16,31)           109.4057         calculate D2E/DX2 analytically  !
 ! D1    D(1,2,3,4)             -5.7833         calculate D2E/DX2 analytically  !
 ! D2    D(1,2,3,17)          -172.2233         calculate D2E/DX2 analytically  !
 ! D3    D(14,2,3,4)           175.8395         calculate D2E/DX2 analytically  !
 ! D4    D(14,2,3,17)            9.3995         calculate D2E/DX2 analytically  !
 ! D5    D(1,2,14,15)           42.5179         calculate D2E/DX2 analytically  !
 ! D6    D(1,2,14,25)          165.59           calculate D2E/DX2 analytically  !
 ! D7    D(1,2,14,26)          -77.9467         calculate D2E/DX2 analytically  !
 ! D8    D(3,2,14,15)         -139.1387         calculate D2E/DX2 analytically  !
 ! D9    D(3,2,14,25)          -16.0665         calculate D2E/DX2 analytically  !
 ! D10   D(3,2,14,26)          100.3967         calculate D2E/DX2 analytically  !
 ! D11   D(2,3,4,5)           -162.3258         calculate D2E/DX2 analytically  !
 ! D12   D(2,3,4,8)             74.5263         calculate D2E/DX2 analytically  !
 ! D13   D(2,3,4,18)           -45.8863         calculate D2E/DX2 analytically  !
 ! D14   D(17,3,4,5)             4.7854         calculate D2E/DX2 analytically  !
 ! D15   D(17,3,4,8)          -118.3625         calculate D2E/DX2 analytically  !
 ! D16   D(17,3,4,18)          121.2248         calculate D2E/DX2 analytically  !
 ! D17   D(3,4,5,6)            177.0537         calculate D2E/DX2 analytically  !
 ! D18   D(3,4,5,7)             -3.4817         calculate D2E/DX2 analytically  !
 ! D19   D(8,4,5,6)            -60.685          calculate D2E/DX2 analytically  !
 ! D20   D(8,4,5,7)            118.7796         calculate D2E/DX2 analytically  !
 ! D21   D(18,4,5,6)            61.1665         calculate D2E/DX2 analytically  !
 ! D22   D(18,4,5,7)          -119.3689         calculate D2E/DX2 analytically  !
 ! D23   D(3,4,8,9)           -142.6518         calculate D2E/DX2 analytically  !
 ! D24   D(3,4,8,20)           -24.0009         calculate D2E/DX2 analytically  !
 ! D25   D(3,4,8,21)            92.103          calculate D2E/DX2 analytically  !
 ! D26   D(5,4,8,9)             97.7181         calculate D2E/DX2 analytically  !
 ! D27   D(5,4,8,20)          -143.631          calculate D2E/DX2 analytically  !
 ! D28   D(5,4,8,21)           -27.5271         calculate D2E/DX2 analytically  !
 ! D29   D(18,4,8,9)           -23.4471         calculate D2E/DX2 analytically  !
 ! D30   D(18,4,8,20)           95.2039         calculate D2E/DX2 analytically  !
 ! D31   D(18,4,8,21)         -148.6922         calculate D2E/DX2 analytically  !
 ! D32   D(4,5,6,19)          -179.4098         calculate D2E/DX2 analytically  !
 ! D33   D(7,5,6,19)             1.114          calculate D2E/DX2 analytically  !
 ! D34   D(4,8,9,10)           122.1202         calculate D2E/DX2 analytically  !
 ! D35   D(4,8,9,13)           -55.9913         calculate D2E/DX2 analytically  !
 ! D36   D(20,8,9,10)            2.8264         calculate D2E/DX2 analytically  !
 ! D37   D(20,8,9,13)         -175.2851         calculate D2E/DX2 analytically  !
 ! D38   D(21,8,9,10)         -113.4811         calculate D2E/DX2 analytically  !
 ! D39   D(21,8,9,13)           68.4074         calculate D2E/DX2 analytically  !
 ! D40   D(8,9,10,11)         -179.1727         calculate D2E/DX2 analytically  !
 ! D41   D(8,9,10,22)            0.8717         calculate D2E/DX2 analytically  !
 ! D42   D(13,9,10,11)          -0.8008         calculate D2E/DX2 analytically  !
 ! D43   D(13,9,10,22)         179.2437         calculate D2E/DX2 analytically  !
 ! D44   D(8,9,13,12)          179.4127         calculate D2E/DX2 analytically  !
 ! D45   D(8,9,13,24)            0.2674         calculate D2E/DX2 analytically  !
 ! D46   D(10,9,13,12)           0.8823         calculate D2E/DX2 analytically  !
 ! D47   D(10,9,13,24)        -178.263          calculate D2E/DX2 analytically  !
 ! D48   D(9,10,11,12)           0.4004         calculate D2E/DX2 analytically  !
 ! D49   D(22,10,11,12)       -179.6406         calculate D2E/DX2 analytically  !
 ! D50   D(10,11,12,13)          0.1804         calculate D2E/DX2 analytically  !
 ! D51   D(10,11,12,23)       -179.6957         calculate D2E/DX2 analytically  !
 ! D52   D(11,12,13,9)          -0.6868         calculate D2E/DX2 analytically  !
 ! D53   D(11,12,13,24)        178.4169         calculate D2E/DX2 analytically  !
 ! D54   D(23,12,13,9)         179.1963         calculate D2E/DX2 analytically  !
 ! D55   D(23,12,13,24)         -1.7            calculate D2E/DX2 analytically  !
 ! D56   D(2,14,15,16)         -61.1453         calculate D2E/DX2 analytically  !
 ! D57   D(2,14,15,27)          59.6366         calculate D2E/DX2 analytically  !
 ! D58   D(2,14,15,28)         177.3607         calculate D2E/DX2 analytically  !
 ! D59   D(25,14,15,16)        176.2583         calculate D2E/DX2 analytically  !
 ! D60   D(25,14,15,27)        -62.9598         calculate D2E/DX2 analytically  !
 ! D61   D(25,14,15,28)         54.7643         calculate D2E/DX2 analytically  !
 ! D62   D(26,14,15,16)         58.0532         calculate D2E/DX2 analytically  !
 ! D63   D(26,14,15,27)        178.835          calculate D2E/DX2 analytically  !
 ! D64   D(26,14,15,28)        -63.4408         calculate D2E/DX2 analytically  !
 ! D65   D(14,15,16,29)        -71.244          calculate D2E/DX2 analytically  !
 ! D66   D(14,15,16,30)         45.6958         calculate D2E/DX2 analytically  !
 ! D67   D(14,15,16,31)        165.8619         calculate D2E/DX2 analytically  !
 ! D68   D(27,15,16,29)        167.8569         calculate D2E/DX2 analytically  !
 ! D69   D(27,15,16,30)        -75.2034         calculate D2E/DX2 analytically  !
 ! D70   D(27,15,16,31)         44.9627         calculate D2E/DX2 analytically  !
 ! D71   D(28,15,16,29)         50.2621         calculate D2E/DX2 analytically  !
 ! D72   D(28,15,16,30)        167.2018         calculate D2E/DX2 analytically  !
 ! D73   D(28,15,16,31)        -72.632          calculate D2E/DX2 analytically  !
 --------------------------------------------------------------------------------
 Trust Radius=3.00D-01 FncErr=1.00D-07 GrdErr=1.00D-06
 Number of steps in this run=    167 maximum allowed number of steps=    186.
 GradGradGradGradGradGradGradGradGradGradGradGradGradGradGradGradGradGrad

                          Input orientation:                          
 ---------------------------------------------------------------------
 Center     Atomic      Atomic             Coordinates (Angstroms)
 Number     Number       Type             X           Y           Z
 ---------------------------------------------------------------------
      1          8           0       -1.233463    0.122074   -0.842866
      2          6           0       -1.463560   -0.067049    0.349309
      3          7           0       -0.461006   -0.243787    1.229948
      4          6           0        0.906943   -0.337087    0.750784
      5          6           0        1.715938   -0.959856    1.868830
      6          8           0        3.007560   -1.161999    1.523802
      7          8           0        1.280047   -1.241497    2.953289
      8          6           0        1.448272    1.051775    0.324677
      9          6           0        2.326805    0.991563   -0.879167
     10          6           0        2.234402    1.608991   -2.093590
     11          7           0        3.284242    1.230580   -2.913009
     12          6           0        3.989758    0.389487   -2.196781
     13          7           0        3.446464    0.205306   -0.963613
     14          6           0       -2.871056   -0.078694    0.928273
     15          6           0       -3.850202   -0.835119    0.041802
     16          7           0       -3.947238   -0.197765   -1.291964
     17          1           0       -0.630415   -0.513162    2.186204
     18          1           0        0.914972   -1.018186   -0.107783
     19          1           0        3.433214   -1.567928    2.294215
     20          1           0        0.601188    1.686628    0.073553
     21          1           0        1.955185    1.526786    1.165459
     22          1           0        1.478392    2.303420   -2.430909
     23          1           0        4.890020   -0.113984   -2.500014
     24          1           0        3.771180   -0.400440   -0.226888
     25          1           0       -2.851456   -0.510823    1.930199
     26          1           0       -3.193370    0.961642    1.025863
     27          1           0       -3.517783   -1.868848   -0.072974
     28          1           0       -4.834088   -0.860524    0.513026
     29          1           0       -4.440189    0.693039   -1.239695
     30          1           0       -2.984500    0.000168   -1.599192
     31          1           0       -4.406235   -0.794427   -1.979392
 ---------------------------------------------------------------------
                    Distance matrix (angstroms):
                    1          2          3          4          5
     1  O    0.000000
     2  C    1.228818   0.000000
     3  N    2.242121   1.346060   0.000000
     4  C    2.707746   2.419378   1.452442   0.000000
     5  C    4.150040   3.635280   2.379077   1.514048   0.000000
     6  O    5.023568   4.750712   3.600057   2.385504   1.352107
     7  O    4.752668   3.960736   2.645108   2.410020   1.202238
     8  C    3.069071   3.119477   2.478576   1.550336   2.550041
     9  C    3.665083   4.122703   3.707606   2.537333   3.425300
    10  C    3.975087   4.738332   4.663038   3.693214   4.750637
    11  N    5.091555   5.904929   5.776221   4.640313   5.488494
    12  C    5.402465   6.035700   5.652681   4.326638   4.849760
    13  N    4.682224   5.089821   4.503523   3.111674   3.517819
    14  C    2.420527   1.521965   2.434462   3.790982   4.764620
    15  C    2.923385   2.525975   3.639782   4.835403   5.859651
    16  N    2.769217   2.979852   4.303019   5.268330   6.530158
    17  H    3.153167   2.065752   1.007813   2.110665   2.409489
    18  H    2.540927   2.602117   2.069428   1.095946   2.133529
    19  H    5.871563   5.478476   4.248642   3.206118   1.870759
    20  H    2.579457   2.722978   2.488375   2.155818   3.386674
    21  H    4.021699   3.859304   2.996175   2.178253   2.595256
    22  H    3.825481   4.690822   4.863271   4.173967   5.403068
    23  H    6.348141   6.963392   6.524028   5.146102   5.465994
    24  H    5.069408   5.276898   4.478650   3.027161   2.988143
    25  H    3.272362   2.149978   2.505177   3.942939   4.589824
    26  H    2.835183   2.123245   2.993413   4.309864   5.338918
    27  H    3.126439   2.764893   3.698961   4.754268   5.655855
    28  H    3.970950   3.466535   4.474169   5.769745   6.689612
    29  H    3.281245   3.458754   4.776053   5.797843   7.091748
    30  H    1.911288   2.472737   3.798891   4.558449   5.919708
    31  H    3.492585   3.822468   5.115457   5.991067   7.233062
                    6          7          8          9         10
     6  O    0.000000
     7  O    2.243669   0.000000
     8  C    2.961431   3.492421   0.000000
     9  C    3.297805   4.557410   1.491538   0.000000
    10  C    4.621871   5.874272   2.603172   1.365496   0.000000
    11  N    5.048394   6.673936   3.726307   2.260603   1.384487
    12  C    4.149044   6.043663   3.640814   2.205451   2.139886
    13  N    2.872176   4.704118   2.523682   1.370754   2.171699
    14  C    6.007190   4.762821   4.505428   5.606250   6.168115
    15  C    7.023680   5.912813   5.631537   6.506947   6.896085
    16  N    7.564886   6.814401   5.769437   6.399102   6.489965
    17  H    3.754281   2.183749   3.199258   4.517283   5.570220
    18  H    2.657382   3.090843   2.180863   2.574372   3.547730
    19  H    0.969276   2.275316   3.831699   4.224392   5.548225
    20  H    4.001065   4.162649   1.087958   2.090106   2.714761
    21  H    2.909548   3.363858   1.090647   2.145941   3.272021
    22  H    5.476059   6.449447   3.026677   2.201971   1.080540
    23  H    4.564328   6.636392   4.602554   3.227917   3.191572
    24  H    2.056211   4.126336   2.794468   2.109350   3.143895
    25  H    5.909082   4.318555   4.848409   6.079809   6.822789
    26  H    6.573380   5.346051   4.695170   5.839723   6.293708
    27  H    6.754955   5.707102   5.774934   6.556760   7.018966
    28  H    7.912269   6.594140   6.569658   7.526407   7.928209
    29  H    8.157637   7.351507   6.103271   6.783163   6.791044
    30  H    6.856275   6.360282   4.945362   5.450803   5.483582
    31  H    8.208035   7.540890   6.556862   7.052239   7.063110
                   11         12         13         14         15
    11  N    0.000000
    12  C    1.310791   0.000000
    13  N    2.208539   1.360071   0.000000
    14  C    7.372743   7.553537   6.600829   0.000000
    15  C    7.993642   8.244749   7.438728   1.522083   0.000000
    16  N    7.547334   8.009960   7.411957   2.470182   1.481407
    17  H    6.660867   6.432055   5.201778   2.606074   3.881899
    18  H    4.305773   3.974891   2.939018   4.036095   4.771035
    19  H    5.913461   4.930543   3.709175   6.620229   7.658885
    20  H    4.040583   4.280117   3.371294   3.987905   5.116160
    21  H    4.299771   4.091160   2.916020   5.091800   6.367395
    22  H    2.155110   3.166214   3.229295   5.989680   6.660228
    23  H    2.134699   1.075130   2.132212   8.484615   9.130846
    24  H    3.180028   2.133598   1.007538   6.749608   7.638495
    25  H    8.008491   8.040194   6.967839   1.091319   2.160719
    26  H    7.585940   7.893676   6.972622   1.093485   2.151315
    27  H    7.996236   8.122425   7.320934   2.150675   1.091912
    28  H    9.056363   9.314818   8.478443   2.153412   1.091205
    29  H    7.921853   8.489532   7.906541   2.785289   2.079804
    30  H    6.522051   7.010631   6.465550   2.531239   2.034701
    31  H    8.007230   8.481840   7.980987   3.365050   2.096677
                   16         17         18         19         20
    16  N    0.000000
    17  H    4.816476   0.000000
    18  H    5.071140   2.811699   0.000000
    19  H    8.319200   4.199676   3.523259   0.000000
    20  H    5.109184   3.289258   2.728985   4.852200   0.000000
    21  H    6.622054   3.447990   3.029863   3.610528   1.746744
    22  H    6.081988   5.804992   4.092361   6.413693   2.724381
    23  H    8.919839   7.252254   4.726664   5.217362   5.315969
    24  H    7.794192   5.020932   2.924674   2.798787   3.807225
    25  H    3.417760   2.235747   4.312397   6.383341   4.494071
    26  H    2.699049   3.176503   4.699292   7.205488   3.978840
    27  H    2.112555   3.908793   4.513774   7.349183   5.443235
    28  H    2.117485   4.537736   5.784631   8.486539   6.018584
    29  H    1.019443   5.263656   5.734742   8.921377   5.303520
    30  H    1.029773   4.487142   4.297351   7.668415   4.301091
    31  H    1.019432   5.629220   5.645196   8.962086   5.953529
                   21         22         23         24         25
    21  H    0.000000
    22  H    3.710034   0.000000
    23  H    4.974040   4.181844   0.000000
    24  H    2.991767   4.174379   2.549698   0.000000
    25  H    5.276407   6.759202   8.928309   6.965953   0.000000
    26  H    5.181360   5.964478   8.884254   7.206220   1.761501
    27  H    6.558767   6.923109   8.925313   7.436994   2.510164
    28  H    7.226282   7.650144  10.207546   8.649265   2.462012
    29  H    6.883364   6.248353   9.449470   8.345540   3.744541
    30  H    5.862964   5.090592   7.926700   6.905281   3.568672
    31  H    7.466310   6.665535   9.335652   8.372372   4.216951
                   26         27         28         29         30
    26  H    0.000000
    27  H    3.053582   0.000000
    28  H    2.505045   1.758628   0.000000
    29  H    2.599896   2.962319   2.375024   0.000000
    30  H    2.803386   2.471225   2.936534   1.651768   0.000000
    31  H    3.685971   2.361813   2.529738   1.661583   1.672503
                   31
    31  H    0.000000
 Symmetry turned off by external request.
 Stoichiometry    C9H15N4O3(1+)
 Framework group  C1[X(C9H15N4O3)]
 Deg. of freedom    87
 Full point group                 C1      NOp   1
 Rotational constants (GHZ):      0.7088180      0.3127596      0.2291588
 Standard basis: 6-311G(d,p) (5D, 7F)
   378 basis functions,   632 primitive gaussians,   394 cartesian basis functions
    60 alpha electrons       60 beta electrons
       nuclear repulsion energy      1138.6918025008 Hartrees.
 NAtoms=   31 NActive=   31 NUniq=   31 SFac= 1.00D+00 NAtFMM=   60 NAOKFM=F Big=F
 Integral buffers will be    131072 words long.
 Raffenetti 2 integral format.
 Two-electron integral symmetry is turned off.
 Nuclear repulsion after empirical dispersion term =     1138.6360523558 Hartrees.
 One-electron integrals computed using PRISM.
 NBasis=   378 RedAO= T EigKep=  5.54D-04  NBF=   378
 NBsUse=   378 1.00D-06 EigRej= -1.00D+00 NBFU=   378
 ExpMin= 1.03D-01 ExpMax= 8.59D+03 ExpMxC= 1.30D+03 IAcc=3 IRadAn=         5 AccDes= 0.00D+00
 Harris functional with IExCor=  402 and IRadAn=       5 diagonalized for initial guess.
 HarFok:  IExCor=  402 AccDes= 0.00D+00 IRadAn=         5 IDoV= 1 UseB2=F ITyADJ=14
 ICtDFT=  3500011 ScaDFX=  1.000000  1.000000  1.000000  1.000000
 FoFCou: FMM=F IPFlag=           0 FMFlag=      100000 FMFlg1=           0
         NFxFlg=           0 DoJE=T BraDBF=F KetDBF=T FulRan=T
         wScrn=  0.000000 ICntrl=     500 IOpCl=  0 I1Cent=   200000004 NGrid=           0
         NMat0=    1 NMatS0=      1 NMatT0=    0 NMatD0=    1 NMtDS0=    0 NMtDT0=    0
 Symmetry not used in FoFCou.
 Requested convergence on RMS density matrix=1.00D-08 within 128 cycles.
 Requested convergence on MAX density matrix=1.00D-06.
 Requested convergence on             energy=1.00D-06.
 No special actions if energy rises.
 Integral accuracy reduced to 1.0D-05 until final iterations.
 Initial convergence to 1.0D-05 achieved.  Increase integral accuracy.
 SCF Done:  E(RB3LYP) =  -796.745308894     A.U. after   14 cycles
            NFock= 14  Conv=0.47D-08     -V/T= 2.0034
 DoSCS=F DFT=T ScalE2(SS,OS)=  1.000000  1.000000
 Range of M.O.s used for correlation:     1   378
 NBasis=   378 NAE=    60 NBE=    60 NFC=     0 NFV=     0
 NROrb=    378 NOA=    60 NOB=    60 NVA=   318 NVB=   318
 Symmetrizing basis deriv contribution to polar:
 IMax=3 JMax=2 DiffMx= 0.00D+00
 G2DrvN: will do    32 centers at a time, making    1 passes.
 Calling FoFCou, ICntrl=  3107 FMM=F I1Cent=   0 AccDes= 0.00D+00.
 End of G2Drv F.D. properties file   721 does not exist.
 End of G2Drv F.D. properties file   722 does not exist.
 End of G2Drv F.D. properties file   788 does not exist.
          IDoAtm=1111111111111111111111111111111
          Differentiating once with respect to nuclear coordinates.
          There are    96 degrees of freedom in the 1st order CPHF.  IDoFFX=6 NUNeed=     0.
     90 vectors produced by pass  0 Test12= 1.99D-14 1.04D-09 XBig12= 1.54D-01 8.86D-02.
 AX will form    90 AO Fock derivatives at one time.
     90 vectors produced by pass  1 Test12= 1.99D-14 1.04D-09 XBig12= 1.32D-02 3.22D-02.
     90 vectors produced by pass  2 Test12= 1.99D-14 1.04D-09 XBig12= 1.43D-04 2.73D-03.
     90 vectors produced by pass  3 Test12= 1.99D-14 1.04D-09 XBig12= 4.54D-07 8.57D-05.
     90 vectors produced by pass  4 Test12= 1.99D-14 1.04D-09 XBig12= 7.31D-10 4.56D-06.
     81 vectors produced by pass  5 Test12= 1.99D-14 1.04D-09 XBig12= 1.11D-12 1.71D-07.
     23 vectors produced by pass  6 Test12= 1.99D-14 1.04D-09 XBig12= 1.17D-15 4.89D-09.
 InvSVY:  IOpt=1 It=  1 EMax= 6.11D-16
 Solved reduced A of dimension   554 with    96 vectors.
 End of Minotr F.D. properties file   721 does not exist.
 End of Minotr F.D. properties file   722 does not exist.
 End of Minotr F.D. properties file   788 does not exist.

 **********************************************************************

            Population analysis using the SCF density.

 **********************************************************************

 Alpha  occ. eigenvalues --  -19.30149 -19.25198 -19.24686 -14.61696 -14.48732
 Alpha  occ. eigenvalues --  -14.43686 -14.35746 -10.43977 -10.43452 -10.41827
 Alpha  occ. eigenvalues --  -10.36374 -10.35893 -10.29773 -10.29162 -10.28178
 Alpha  occ. eigenvalues --  -10.25380  -1.24855  -1.21333  -1.19252  -1.16113
 Alpha  occ. eigenvalues --   -1.09372  -1.08249  -0.97494  -0.94741  -0.91948
 Alpha  occ. eigenvalues --   -0.86000  -0.83909  -0.78357  -0.78283  -0.77684
 Alpha  occ. eigenvalues --   -0.75526  -0.73066  -0.69865  -0.69327  -0.67482
 Alpha  occ. eigenvalues --   -0.66831  -0.64574  -0.62691  -0.62015  -0.61913
 Alpha  occ. eigenvalues --   -0.60553  -0.59318  -0.58513  -0.57252  -0.56232
 Alpha  occ. eigenvalues --   -0.55418  -0.54649  -0.52447  -0.51419  -0.50262
 Alpha  occ. eigenvalues --   -0.49341  -0.49129  -0.48169  -0.46090  -0.43075
 Alpha  occ. eigenvalues --   -0.41772  -0.41624  -0.35588  -0.33905  -0.30652
 Alpha virt. eigenvalues --   -0.16838  -0.14446  -0.12734  -0.11516  -0.10468
 Alpha virt. eigenvalues --   -0.08173  -0.07226  -0.06662  -0.05814  -0.05457
 Alpha virt. eigenvalues --   -0.04228  -0.02758  -0.02097  -0.01684  -0.01452
 Alpha virt. eigenvalues --   -0.00957  -0.00128   0.00994   0.01425   0.03361
 Alpha virt. eigenvalues --    0.04242   0.05097   0.07465   0.07802   0.09783
 Alpha virt. eigenvalues --    0.10450   0.11103   0.12499   0.13107   0.13490
 Alpha virt. eigenvalues --    0.14181   0.15135   0.17288   0.17635   0.19080
 Alpha virt. eigenvalues --    0.21149   0.21508   0.22295   0.24569   0.24882
 Alpha virt. eigenvalues --    0.25939   0.26778   0.27714   0.29197   0.30166
 Alpha virt. eigenvalues --    0.30360   0.30658   0.31251   0.32740   0.33778
 Alpha virt. eigenvalues --    0.34103   0.34877   0.36571   0.38412   0.38608
 Alpha virt. eigenvalues --    0.38930   0.39713   0.40570   0.41021   0.41382
 Alpha virt. eigenvalues --    0.42546   0.42822   0.44010   0.44664   0.45137
 Alpha virt. eigenvalues --    0.46671   0.47098   0.47769   0.48333   0.49246
 Alpha virt. eigenvalues --    0.49571   0.50143   0.51712   0.52101   0.53305
 Alpha virt. eigenvalues --    0.53970   0.54730   0.55263   0.55881   0.56677
 Alpha virt. eigenvalues --    0.57982   0.59769   0.61941   0.63808   0.64100
 Alpha virt. eigenvalues --    0.65009   0.66566   0.67141   0.67842   0.69449
 Alpha virt. eigenvalues --    0.72025   0.72720   0.74127   0.75217   0.77869
 Alpha virt. eigenvalues --    0.79309   0.80435   0.81289   0.83898   0.85141
 Alpha virt. eigenvalues --    0.87025   0.88750   0.89796   0.91556   0.92014
 Alpha virt. eigenvalues --    0.94990   0.95348   0.97496   0.99665   1.00104
 Alpha virt. eigenvalues --    1.01876   1.03344   1.05735   1.09265   1.11392
 Alpha virt. eigenvalues --    1.12052   1.12441   1.13042   1.14918   1.17797
 Alpha virt. eigenvalues --    1.18389   1.19679   1.22365   1.22589   1.23825
 Alpha virt. eigenvalues --    1.25012   1.26850   1.27292   1.29250   1.29764
 Alpha virt. eigenvalues --    1.30856   1.31765   1.32510   1.33798   1.35987
 Alpha virt. eigenvalues --    1.36255   1.37823   1.38533   1.40518   1.42353
 Alpha virt. eigenvalues --    1.43288   1.44291   1.46044   1.47365   1.48563
 Alpha virt. eigenvalues --    1.49317   1.49812   1.51047   1.51471   1.52509
 Alpha virt. eigenvalues --    1.54405   1.55669   1.56097   1.56889   1.57530
 Alpha virt. eigenvalues --    1.58527   1.59671   1.61094   1.61952   1.63121
 Alpha virt. eigenvalues --    1.63623   1.64620   1.65406   1.67114   1.67879
 Alpha virt. eigenvalues --    1.68481   1.70532   1.74264   1.76054   1.76920
 Alpha virt. eigenvalues --    1.77966   1.79135   1.80088   1.83268   1.84001
 Alpha virt. eigenvalues --    1.86204   1.87955   1.91291   1.92725   1.94022
 Alpha virt. eigenvalues --    1.95020   1.96482   1.97433   1.99741   2.01288
 Alpha virt. eigenvalues --    2.01931   2.02885   2.06075   2.08244   2.10199
 Alpha virt. eigenvalues --    2.11830   2.14316   2.16687   2.17414   2.19407
 Alpha virt. eigenvalues --    2.19963   2.20394   2.22386   2.24444   2.26699
 Alpha virt. eigenvalues --    2.27955   2.30781   2.32911   2.34536   2.36386
 Alpha virt. eigenvalues --    2.36800   2.37831   2.39374   2.41181   2.41948
 Alpha virt. eigenvalues --    2.42727   2.44325   2.45787   2.46806   2.48183
 Alpha virt. eigenvalues --    2.48830   2.49627   2.52233   2.52973   2.54192
 Alpha virt. eigenvalues --    2.55357   2.55726   2.56575   2.58207   2.58657
 Alpha virt. eigenvalues --    2.60213   2.61032   2.62685   2.63943   2.66038
 Alpha virt. eigenvalues --    2.67286   2.68601   2.72998   2.73156   2.74582
 Alpha virt. eigenvalues --    2.75643   2.76482   2.78311   2.78825   2.80145
 Alpha virt. eigenvalues --    2.81184   2.83895   2.85616   2.86178   2.87824
 Alpha virt. eigenvalues --    2.90217   2.91535   2.92584   2.94819   2.98562
 Alpha virt. eigenvalues --    3.00914   3.01757   3.07516   3.10989   3.11183
 Alpha virt. eigenvalues --    3.17604   3.19479   3.21230   3.22226   3.24367
 Alpha virt. eigenvalues --    3.30101   3.38591   3.41844   3.43745   3.47966
 Alpha virt. eigenvalues --    3.50761   3.53988   3.58291   3.59107   3.59585
 Alpha virt. eigenvalues --    3.64441   3.65031   3.66191   3.70857   3.71941
 Alpha virt. eigenvalues --    3.72643   3.76345   3.78279   3.80738   3.89150
 Alpha virt. eigenvalues --    3.91886   4.03768   4.11254   4.24317   4.34536
 Alpha virt. eigenvalues --    4.45890   4.47970   4.59037   4.68694   4.69482
 Alpha virt. eigenvalues --    4.70480   4.78770   4.79317   4.81460   4.86291
 Alpha virt. eigenvalues --    4.95173   5.05371   5.18330   5.21534   5.44609
 Alpha virt. eigenvalues --    5.52995   5.62606  23.59603  23.62563  23.63733
 Alpha virt. eigenvalues --   23.66392  23.68517  23.71332  23.81675  23.85325
 Alpha virt. eigenvalues --   24.07668  35.30758  35.44954  35.46021  35.61891
 Alpha virt. eigenvalues --   49.71413  49.85308  49.86974
          Condensed to atoms (all electrons):
               1          2          3          4          5          6
     1  O    7.968545   0.557352  -0.096969   0.000934   0.000432   0.000000
     2  C    0.557352   4.562887   0.398803  -0.069686   0.008483  -0.000127
     3  N   -0.096969   0.398803   6.689779   0.226188  -0.026518   0.001725
     4  C    0.000934  -0.069686   0.226188   5.335107   0.270730  -0.099195
     5  C    0.000432   0.008483  -0.026518   0.270730   4.478557   0.338309
     6  O    0.000000  -0.000127   0.001725  -0.099195   0.338309   7.838286
     7  O   -0.000007  -0.000074  -0.008356  -0.092393   0.647442  -0.074538
     8  C   -0.003971  -0.007400  -0.043358   0.302377  -0.052640   0.011258
     9  C   -0.001568   0.000565   0.006852  -0.085901   0.003019  -0.002919
    10  C    0.000344   0.000048  -0.000116  -0.001459   0.000161   0.000110
    11  N    0.000000   0.000002   0.000000  -0.000151  -0.000005  -0.000008
    12  C    0.000002  -0.000002   0.000002   0.000246  -0.000025  -0.000144
    13  N   -0.000014  -0.000010   0.000143   0.002247  -0.001846  -0.009614
    14  C   -0.084050   0.292319  -0.066799   0.009266  -0.000239   0.000000
    15  C    0.010985  -0.060809  -0.001420  -0.000535   0.000013   0.000000
    16  N   -0.032906  -0.002900  -0.000138   0.000011   0.000000   0.000000
    17  H    0.002207  -0.023755   0.353228  -0.042921  -0.012985   0.001735
    18  H    0.010698  -0.007223  -0.034927   0.403128  -0.026012   0.003171
    19  H    0.000001   0.000037  -0.000333   0.015268  -0.027020   0.308355
    20  H    0.004298   0.001718  -0.010614  -0.028656   0.002997   0.000109
    21  H    0.000182   0.000044   0.004064  -0.062032  -0.000578   0.001105
    22  H    0.000474  -0.000020  -0.000020  -0.000004   0.000005   0.000003
    23  H    0.000000   0.000000   0.000000  -0.000005   0.000007  -0.000050
    24  H   -0.000010  -0.000002   0.000000  -0.000317  -0.001422   0.023210
    25  H    0.003085  -0.024188   0.003800   0.000471  -0.000142  -0.000002
    26  H    0.001766  -0.035035  -0.001381  -0.000249  -0.000014   0.000000
    27  H    0.001080  -0.004640   0.000881  -0.000073  -0.000001   0.000000
    28  H    0.000043   0.006733  -0.000239   0.000014   0.000000   0.000000
    29  H    0.001482  -0.000133   0.000036  -0.000004   0.000000   0.000000
    30  H    0.075898  -0.003565   0.002418   0.000106   0.000002   0.000000
    31  H    0.000412  -0.000134   0.000003  -0.000003   0.000000   0.000000
               7          8          9         10         11         12
     1  O   -0.000007  -0.003971  -0.001568   0.000344   0.000000   0.000002
     2  C   -0.000074  -0.007400   0.000565   0.000048   0.000002  -0.000002
     3  N   -0.008356  -0.043358   0.006852  -0.000116   0.000000   0.000002
     4  C   -0.092393   0.302377  -0.085901  -0.001459  -0.000151   0.000246
     5  C    0.647442  -0.052640   0.003019   0.000161  -0.000005  -0.000025
     6  O   -0.074538   0.011258  -0.002919   0.000110  -0.000008  -0.000144
     7  O    7.795368  -0.001047   0.000387   0.000003   0.000000   0.000000
     8  C   -0.001047   5.012529   0.260498  -0.031515   0.007625   0.005778
     9  C    0.000387   0.260498   5.155400   0.552444  -0.091550  -0.125508
    10  C    0.000003  -0.031515   0.552444   4.837655   0.506354  -0.175465
    11  N    0.000000   0.007625  -0.091550   0.506354   6.417134   0.581280
    12  C    0.000000   0.005778  -0.125508  -0.175465   0.581280   4.728035
    13  N   -0.000028  -0.052925   0.382073  -0.070716  -0.088311   0.423836
    14  C   -0.000125  -0.001170  -0.000014   0.000002   0.000000   0.000000
    15  C    0.000000  -0.000027   0.000006   0.000000   0.000000   0.000000
    16  N    0.000000  -0.000001   0.000000   0.000000   0.000000   0.000000
    17  H    0.039912   0.004986  -0.000503   0.000000   0.000000   0.000000
    18  H    0.001155  -0.050539   0.008955   0.001618  -0.000416  -0.000343
    19  H    0.008049  -0.000686  -0.000093  -0.000016   0.000003   0.000009
    20  H   -0.000328   0.419709  -0.038743  -0.000303   0.000232  -0.000240
    21  H    0.000657   0.397088  -0.025811  -0.001920  -0.000257   0.000511
    22  H    0.000000  -0.000679  -0.054881   0.424391  -0.024696   0.008404
    23  H    0.000000  -0.000389   0.004254   0.006355  -0.021981   0.415913
    24  H    0.000333   0.000480  -0.034820   0.007990   0.005503  -0.021002
    25  H   -0.000323   0.000038  -0.000001   0.000000   0.000000   0.000000
    26  H   -0.000004   0.000214  -0.000020  -0.000001   0.000000   0.000000
    27  H    0.000000   0.000009  -0.000001   0.000000   0.000000   0.000000
    28  H    0.000000   0.000000   0.000000   0.000000   0.000000   0.000000
    29  H    0.000000   0.000002   0.000000   0.000000   0.000000   0.000000
    30  H    0.000000   0.000031   0.000003   0.000012   0.000000   0.000000
    31  H    0.000000   0.000000   0.000000   0.000000   0.000000   0.000000
              13         14         15         16         17         18
     1  O   -0.000014  -0.084050   0.010985  -0.032906   0.002207   0.010698
     2  C   -0.000010   0.292319  -0.060809  -0.002900  -0.023755  -0.007223
     3  N    0.000143  -0.066799  -0.001420  -0.000138   0.353228  -0.034927
     4  C    0.002247   0.009266  -0.000535   0.000011  -0.042921   0.403128
     5  C   -0.001846  -0.000239   0.000013   0.000000  -0.012985  -0.026012
     6  O   -0.009614   0.000000   0.000000   0.000000   0.001735   0.003171
     7  O   -0.000028  -0.000125   0.000000   0.000000   0.039912   0.001155
     8  C   -0.052925  -0.001170  -0.000027  -0.000001   0.004986  -0.050539
     9  C    0.382073  -0.000014   0.000006   0.000000  -0.000503   0.008955
    10  C   -0.070716   0.000002   0.000000   0.000000   0.000000   0.001618
    11  N   -0.088311   0.000000   0.000000   0.000000   0.000000  -0.000416
    12  C    0.423836   0.000000   0.000000   0.000000   0.000000  -0.000343
    13  N    6.462422   0.000000   0.000000   0.000000   0.000009   0.003584
    14  C    0.000000   5.155037   0.307575  -0.036983  -0.003007   0.001085
    15  C    0.000000   0.307575   5.007666   0.224261   0.000220   0.000276
    16  N    0.000000  -0.036983   0.224261   6.167277   0.000024  -0.000016
    17  H    0.000009  -0.003007   0.000220   0.000024   0.421394   0.004890
    18  H    0.003584   0.001085   0.000276  -0.000016   0.004890   0.480814
    19  H    0.000260   0.000000   0.000000   0.000000  -0.000388  -0.000691
    20  H    0.003852  -0.000168  -0.000019  -0.000003  -0.000325  -0.001730
    21  H   -0.000714   0.000102   0.000003   0.000000   0.000322   0.006955
    22  H    0.004308   0.000005   0.000000   0.000000  -0.000001   0.000098
    23  H   -0.037185   0.000000   0.000000   0.000000   0.000000   0.000022
    24  H    0.349172   0.000000   0.000000   0.000000  -0.000033   0.000520
    25  H    0.000000   0.390077  -0.028179   0.003832   0.001333  -0.000227
    26  H    0.000000   0.400804  -0.044211  -0.002308   0.000093  -0.000104
    27  H    0.000000  -0.029306   0.397748  -0.023673   0.000036  -0.000050
    28  H    0.000000  -0.036508   0.421125  -0.025131  -0.000024   0.000007
    29  H    0.000000  -0.000901  -0.029410   0.356986   0.000003  -0.000006
    30  H    0.000000  -0.017883  -0.027025   0.314860  -0.000163  -0.000018
    31  H    0.000000   0.005582  -0.022301   0.356809   0.000002   0.000001
              19         20         21         22         23         24
     1  O    0.000001   0.004298   0.000182   0.000474   0.000000  -0.000010
     2  C    0.000037   0.001718   0.000044  -0.000020   0.000000  -0.000002
     3  N   -0.000333  -0.010614   0.004064  -0.000020   0.000000   0.000000
     4  C    0.015268  -0.028656  -0.062032  -0.000004  -0.000005  -0.000317
     5  C   -0.027020   0.002997  -0.000578   0.000005   0.000007  -0.001422
     6  O    0.308355   0.000109   0.001105   0.000003  -0.000050   0.023210
     7  O    0.008049  -0.000328   0.000657   0.000000   0.000000   0.000333
     8  C   -0.000686   0.419709   0.397088  -0.000679  -0.000389   0.000480
     9  C   -0.000093  -0.038743  -0.025811  -0.054881   0.004254  -0.034820
    10  C   -0.000016  -0.000303  -0.001920   0.424391   0.006355   0.007990
    11  N    0.000003   0.000232  -0.000257  -0.024696  -0.021981   0.005503
    12  C    0.000009  -0.000240   0.000511   0.008404   0.415913  -0.021002
    13  N    0.000260   0.003852  -0.000714   0.004308  -0.037185   0.349172
    14  C    0.000000  -0.000168   0.000102   0.000005   0.000000   0.000000
    15  C    0.000000  -0.000019   0.000003   0.000000   0.000000   0.000000
    16  N    0.000000  -0.000003   0.000000   0.000000   0.000000   0.000000
    17  H   -0.000388  -0.000325   0.000322  -0.000001   0.000000  -0.000033
    18  H   -0.000691  -0.001730   0.006955   0.000098   0.000022   0.000520
    19  H    0.408160   0.000061  -0.000375   0.000000   0.000003  -0.001016
    20  H    0.000061   0.517677  -0.021650   0.002435   0.000016  -0.000090
    21  H   -0.000375  -0.021650   0.548702  -0.000019   0.000003   0.000665
    22  H    0.000000   0.002435  -0.000019   0.547309  -0.000352  -0.000313
    23  H    0.000003   0.000016   0.000003  -0.000352   0.515962  -0.002433
    24  H   -0.001016  -0.000090   0.000665  -0.000313  -0.002433   0.436712
    25  H    0.000000  -0.000011  -0.000016   0.000000   0.000000   0.000000
    26  H    0.000000   0.000147  -0.000038   0.000000   0.000000   0.000000
    27  H    0.000000   0.000003  -0.000001   0.000000   0.000000   0.000000
    28  H    0.000000  -0.000001   0.000000   0.000000   0.000000   0.000000
    29  H    0.000000  -0.000001   0.000000   0.000000   0.000000   0.000000
    30  H    0.000000   0.000091  -0.000002   0.000012   0.000000   0.000000
    31  H    0.000000  -0.000001   0.000000   0.000000   0.000000   0.000000
              25         26         27         28         29         30
     1  O    0.003085   0.001766   0.001080   0.000043   0.001482   0.075898
     2  C   -0.024188  -0.035035  -0.004640   0.006733  -0.000133  -0.003565
     3  N    0.003800  -0.001381   0.000881  -0.000239   0.000036   0.002418
     4  C    0.000471  -0.000249  -0.000073   0.000014  -0.000004   0.000106
     5  C   -0.000142  -0.000014  -0.000001   0.000000   0.000000   0.000002
     6  O   -0.000002   0.000000   0.000000   0.000000   0.000000   0.000000
     7  O   -0.000323  -0.000004   0.000000   0.000000   0.000000   0.000000
     8  C    0.000038   0.000214   0.000009   0.000000   0.000002   0.000031
     9  C   -0.000001  -0.000020  -0.000001   0.000000   0.000000   0.000003
    10  C    0.000000  -0.000001   0.000000   0.000000   0.000000   0.000012
    11  N    0.000000   0.000000   0.000000   0.000000   0.000000   0.000000
    12  C    0.000000   0.000000   0.000000   0.000000   0.000000   0.000000
    13  N    0.000000   0.000000   0.000000   0.000000   0.000000   0.000000
    14  C    0.390077   0.400804  -0.029306  -0.036508  -0.000901  -0.017883
    15  C   -0.028179  -0.044211   0.397748   0.421125  -0.029410  -0.027025
    16  N    0.003832  -0.002308  -0.023673  -0.025131   0.356986   0.314860
    17  H    0.001333   0.000093   0.000036  -0.000024   0.000003  -0.000163
    18  H   -0.000227  -0.000104  -0.000050   0.000007  -0.000006  -0.000018
    19  H    0.000000   0.000000   0.000000   0.000000   0.000000   0.000000
    20  H   -0.000011   0.000147   0.000003  -0.000001  -0.000001   0.000091
    21  H   -0.000016  -0.000038  -0.000001   0.000000   0.000000  -0.000002
    22  H    0.000000   0.000000   0.000000   0.000000   0.000000   0.000012
    23  H    0.000000   0.000000   0.000000   0.000000   0.000000   0.000000
    24  H    0.000000   0.000000   0.000000   0.000000   0.000000   0.000000
    25  H    0.489644  -0.009270  -0.001329  -0.004568   0.000097   0.000223
    26  H   -0.009270   0.506443   0.006526  -0.004951   0.004527   0.001309
    27  H   -0.001329   0.006526   0.480175  -0.019321   0.005322  -0.000738
    28  H   -0.004568  -0.004951  -0.019321   0.469180  -0.005917   0.003831
    29  H    0.000097   0.004527   0.005322  -0.005917   0.399528  -0.011270
    30  H    0.000223   0.001309  -0.000738   0.003831  -0.011270   0.369242
    31  H   -0.000183  -0.000257  -0.005502  -0.001198  -0.014965  -0.009089
              31
     1  O    0.000412
     2  C   -0.000134
     3  N    0.000003
     4  C   -0.000003
     5  C    0.000000
     6  O    0.000000
     7  O    0.000000
     8  C    0.000000
     9  C    0.000000
    10  C    0.000000
    11  N    0.000000
    12  C    0.000000
    13  N    0.000000
    14  C    0.005582
    15  C   -0.022301
    16  N    0.356809
    17  H    0.000002
    18  H    0.000001
    19  H    0.000000
    20  H   -0.000001
    21  H    0.000000
    22  H    0.000000
    23  H    0.000000
    24  H    0.000000
    25  H   -0.000183
    26  H   -0.000257
    27  H   -0.005502
    28  H   -0.001198
    29  H   -0.014965
    30  H   -0.009089
    31  H    0.386628
 Mulliken charges:
               1
     1  O   -0.420727
     2  C    0.410714
     3  N   -0.396737
     4  C   -0.082508
     5  C    0.399292
     6  O   -0.340778
     7  O   -0.316084
     8  C   -0.176276
     9  C    0.087878
    10  C   -0.055976
    11  N   -0.290757
    12  C    0.158715
    13  N   -0.370543
    14  C   -0.284702
    15  C   -0.155940
    16  N   -0.300003
    17  H    0.253710
    18  H    0.195323
    19  H    0.290411
    20  H    0.149538
    21  H    0.153007
    22  H    0.093543
    23  H    0.119861
    24  H    0.236873
    25  H    0.175838
    26  H    0.176015
    27  H    0.192856
    28  H    0.196926
    29  H    0.294626
    30  H    0.301713
    31  H    0.304195
 Sum of Mulliken charges =   1.00000
 Mulliken charges with hydrogens summed into heavy atoms:
               1
     1  O   -0.420727
     2  C    0.410714
     3  N   -0.143027
     4  C    0.112816
     5  C    0.399292
     6  O   -0.050367
     7  O   -0.316084
     8  C    0.126269
     9  C    0.087878
    10  C    0.037567
    11  N   -0.290757
    12  C    0.278576
    13  N   -0.133670
    14  C    0.067151
    15  C    0.233841
    16  N    0.600531
 APT charges:
               1
     1  O   -0.470565
     2  C    0.376521
     3  N   -0.663143
     4  C   -0.241601
     5  C   -0.518222
     6  O   -0.775933
     7  O    0.340362
     8  C   -0.758080
     9  C   -0.308180
    10  C   -0.454982
    11  N    0.388068
    12  C   -0.744204
    13  N   -0.593117
    14  C   -0.772390
    15  C   -0.989288
    16  N   -0.987056
    17  H    0.634058
    18  H    0.266176
    19  H    1.067755
    20  H    0.209284
    21  H    0.519808
    22  H    0.300808
    23  H    1.003767
    24  H    0.457311
    25  H    0.426715
    26  H    0.436557
    27  H    0.238754
    28  H    0.918716
    29  H    0.775861
    30  H   -0.088614
    31  H    1.004857
 Sum of APT charges =   1.00000
 APT charges with hydrogens summed into heavy atoms:
               1
     1  O   -0.470565
     2  C    0.376521
     3  N   -0.029085
     4  C    0.024575
     5  C   -0.518222
     6  O    0.291822
     7  O    0.340362
     8  C   -0.028988
     9  C   -0.308180
    10  C   -0.154174
    11  N    0.388068
    12  C    0.259562
    13  N   -0.135806
    14  C    0.090882
    15  C    0.168183
    16  N    0.705047
 Electronic spatial extent (au):  <R**2>=           4695.3630
 Charge=              1.0000 electrons
 Dipole moment (field-independent basis, Debye):
    X=            -14.2850    Y=             -3.6403    Z=              1.9174  Tot=             14.8657
 Quadrupole moment (field-independent basis, Debye-Ang):
   XX=             -5.7743   YY=            -87.4048   ZZ=            -94.5202
   XY=             -6.9317   XZ=             27.7473   YZ=              4.9016
 Traceless Quadrupole moment (field-independent basis, Debye-Ang):
   XX=             56.7921   YY=            -24.8383   ZZ=            -31.9538
   XY=             -6.9317   XZ=             27.7473   YZ=              4.9016
 Octapole moment (field-independent basis, Debye-Ang**2):
  XXX=           -369.8653  YYY=            -17.5868  ZZZ=             45.3049  XYY=            -66.4674
  XXY=            -72.0080  XXZ=            -14.6803  XZZ=           -112.6498  YZZ=            -22.6902
  YYZ=             13.2553  XYZ=              8.4762
 Hexadecapole moment (field-independent basis, Debye-Ang**3):
 XXXX=          -2317.3937 YYYY=           -506.3538 ZZZZ=          -1669.8853 XXXY=           -325.2303
 XXXZ=            663.2440 YYYX=           -217.2105 YYYZ=            274.2024 ZZZX=            444.7462
 ZZZY=            360.9173 XXYY=           -699.0292 XXZZ=           -757.9790 YYZZ=           -345.7986
 XXYZ=            138.0718 YYXZ=            143.0624 ZZXY=           -138.9367
 N-N= 1.138636052356D+03 E-N=-4.123688054255D+03  KE= 7.940650917590D+02
  Exact polarizability:   0.000   0.000   0.000   0.000   0.000   0.000
 Approx polarizability: 194.027 -19.345 148.907 -10.998 -24.173 216.355
 Calling FoFJK, ICntrl=    100147 FMM=F ISym2X=0 I1Cent= 0 IOpClX= 0 NMat=1 NMatS=1 NMatT=0.
 -------------------------------------------------------------------
 Center     Atomic                   Forces (Hartrees/Bohr)
 Number     Number              X              Y              Z
 -------------------------------------------------------------------
      1        8          -0.015790798   -0.000872873   -0.014965040
      2        6           0.012484966   -0.001356144    0.016552972
      3        7          -0.009138348   -0.002720701   -0.005832101
      4        6          -0.001872681    0.000061512    0.001026178
      5        6           0.005568841   -0.001633007   -0.000097974
      6        8          -0.006987678   -0.000194314    0.002225942
      7        8          -0.002838438   -0.000093014    0.000626016
      8        6           0.005610638    0.001335971   -0.006862397
      9        6          -0.007871619    0.001862892    0.004957113
     10        6           0.002697510    0.002803918   -0.010099225
     11        7          -0.004741214    0.003037487    0.001810558
     12        6           0.000453442    0.000021816   -0.003200014
     13        7           0.006290406   -0.004732038    0.006343690
     14        6           0.004716474    0.005282905   -0.000410179
     15        6          -0.000458607   -0.012467960    0.023030593
     16        7          -0.003640380    0.001679966   -0.006592415
     17        1           0.000253201   -0.000413138    0.004784934
     18        1           0.002560485    0.002925304   -0.000408393
     19        1           0.003237803   -0.000131415    0.000534862
     20        1          -0.000731502   -0.000731362   -0.000077162
     21        1           0.001109767    0.000323432    0.003296929
     22        1           0.000910130   -0.000483927    0.000483888
     23        1           0.002127456   -0.000964671   -0.002263121
     24        1           0.002367163    0.000038470   -0.000372677
     25        1          -0.004875286   -0.000595118   -0.001192047
     26        1          -0.000429088    0.001751362    0.002523435
     27        1          -0.000565501    0.001422498   -0.005854599
     28        1          -0.000974760    0.000850411   -0.004033914
     29        1          -0.002747674    0.002255048   -0.001595844
     30        1           0.015846267    0.001995983   -0.002489240
     31        1          -0.002570973   -0.000259295   -0.001850769
 -------------------------------------------------------------------
 Cartesian Forces:  Max     0.023030593 RMS     0.005505307
 FormGI is forming the generalized inverse of G from B-inverse, IUseBI=4.

 GradGradGradGradGradGradGradGradGradGradGradGradGradGradGradGradGradGrad
 Berny optimization.
 Internal  Forces:  Max     0.025713662 RMS     0.005077332
 Search for a local minimum.
 Step number   1 out of a maximum of  167
 All quantities printed in internal units (Hartrees-Bohrs-Radians)
 Mixed Optimization -- RFO/linear search
 Second derivative matrix not updated -- analytic derivatives used.
 ITU=  0
     Eigenvalues ---    0.00140   0.00219   0.00296   0.00319   0.00361
     Eigenvalues ---    0.00655   0.00752   0.00806   0.00991   0.01112
     Eigenvalues ---    0.01993   0.02012   0.02041   0.02559   0.03427
     Eigenvalues ---    0.03853   0.03950   0.04058   0.04202   0.04323
     Eigenvalues ---    0.04525   0.04715   0.04910   0.05029   0.05321
     Eigenvalues ---    0.05683   0.05990   0.06188   0.06281   0.07728
     Eigenvalues ---    0.07946   0.08225   0.10408   0.10874   0.10967
     Eigenvalues ---    0.11515   0.11660   0.12244   0.12962   0.13255
     Eigenvalues ---    0.15157   0.15526   0.15921   0.16447   0.18380
     Eigenvalues ---    0.18656   0.20441   0.21348   0.21906   0.22840
     Eigenvalues ---    0.22991   0.23723   0.24544   0.25108   0.25715
     Eigenvalues ---    0.26733   0.30518   0.31478   0.32075   0.32574
     Eigenvalues ---    0.33502   0.33589   0.33639   0.34174   0.34223
     Eigenvalues ---    0.34700   0.34868   0.35592   0.36712   0.37301
     Eigenvalues ---    0.37669   0.39519   0.40392   0.41583   0.43789
     Eigenvalues ---    0.44246   0.44926   0.45835   0.46938   0.47030
     Eigenvalues ---    0.48272   0.51124   0.52984   0.57092   0.59772
     Eigenvalues ---    0.79835   0.89456
 RFO step:  Lambda=-1.53339269D-02 EMin= 1.40361941D-03
 Linear search not attempted -- first point.
 Iteration  1 RMS(Cart)=  0.10141862 RMS(Int)=  0.00434652
 Iteration  2 RMS(Cart)=  0.00965568 RMS(Int)=  0.00035154
 Iteration  3 RMS(Cart)=  0.00008076 RMS(Int)=  0.00034810
 Iteration  4 RMS(Cart)=  0.00000007 RMS(Int)=  0.00034810
 Variable       Old X    -DE/DX   Delta X   Delta X   Delta X     New X
                                 (Linear)    (Quad)   (Total)
    R1        2.32213   0.01143   0.00000   0.03454   0.03454   2.35667
    R2        2.54369  -0.00282   0.00000  -0.03786  -0.03786   2.50582
    R3        2.87610  -0.00341   0.00000   0.00271   0.00271   2.87881
    R4        2.74472   0.00789   0.00000   0.01861   0.01861   2.76333
    R5        1.90449   0.00461   0.00000   0.01261   0.01261   1.91710
    R6        2.86114   0.00273   0.00000   0.01175   0.01175   2.87289
    R7        2.92971   0.00676   0.00000   0.01776   0.01776   2.94747
    R8        2.07104  -0.00148   0.00000  -0.00518  -0.00518   2.06585
    R9        2.55511  -0.00424   0.00000  -0.01976  -0.01976   2.53535
   R10        2.27190   0.00162   0.00000   0.00322   0.00322   2.27512
   R11        1.83167   0.00190   0.00000   0.00331   0.00331   1.83498
   R12        2.81860   0.00314   0.00000  -0.00331  -0.00331   2.81529
   R13        2.05594   0.00016   0.00000   0.00220   0.00220   2.05814
   R14        2.06102   0.00320   0.00000   0.00837   0.00837   2.06940
   R15        2.58041   0.00769   0.00000   0.01446   0.01446   2.59488
   R16        2.59035   0.01063   0.00000   0.02240   0.02242   2.61277
   R17        2.61630  -0.00486   0.00000  -0.01910  -0.01911   2.59719
   R18        2.04192  -0.00110   0.00000  -0.00218  -0.00218   2.03974
   R19        2.47704   0.00221   0.00000   0.00298   0.00297   2.48001
   R20        2.57016   0.00660   0.00000   0.01312   0.01313   2.58329
   R21        2.03170   0.00287   0.00000   0.00696   0.00696   2.03866
   R22        1.90397   0.00047   0.00000   0.00081   0.00081   1.90478
   R23        2.87632  -0.00125   0.00000   0.01549   0.01549   2.89181
   R24        2.06229  -0.00095   0.00000  -0.00190  -0.00190   2.06039
   R25        2.06639   0.00202   0.00000   0.00412   0.00412   2.07051
   R26        2.79945   0.01327   0.00000   0.04887   0.04887   2.84833
   R27        2.06342  -0.00090   0.00000  -0.00331  -0.00331   2.06010
   R28        2.06208  -0.00088   0.00000  -0.00478  -0.00478   2.05730
   R29        1.92647   0.00322   0.00000   0.00354   0.00354   1.93000
   R30        1.94599   0.01594   0.00000   0.07323   0.07323   2.01922
   R31        1.92645   0.00256   0.00000   0.00193   0.00193   1.92837
    A1        2.11235   0.01622   0.00000   0.03013   0.03011   2.14246
    A2        2.14529  -0.02571   0.00000  -0.07687  -0.07689   2.06839
    A3        2.02518   0.00952   0.00000   0.04704   0.04702   2.07220
    A4        2.08757   0.00804   0.00000   0.04406   0.04358   2.13115
    A5        2.13018  -0.00316   0.00000  -0.00984  -0.01029   2.11988
    A6        2.04224  -0.00454   0.00000  -0.02307  -0.02357   2.01867
    A7        1.86090  -0.00690   0.00000  -0.02320  -0.02319   1.83771
    A8        1.94119   0.00458   0.00000   0.02186   0.02190   1.96309
    A9        1.88102   0.00167   0.00000   0.01515   0.01529   1.89631
   A10        1.96587   0.00284   0.00000   0.00465   0.00473   1.97061
   A11        1.89543   0.00154   0.00000   0.00690   0.00693   1.90236
   A12        1.91651  -0.00380   0.00000  -0.02466  -0.02475   1.89176
   A13        1.96436   0.00199   0.00000  -0.00229  -0.00230   1.96206
   A14        2.17577  -0.00367   0.00000  -0.01502  -0.01503   2.16074
   A15        2.14302   0.00168   0.00000   0.01727   0.01727   2.16029
   A16        1.85385   0.00466   0.00000   0.02850   0.02850   1.88235
   A17        1.97288   0.00890   0.00000   0.01597   0.01596   1.98884
   A18        1.89055  -0.00386   0.00000  -0.01998  -0.01998   1.87056
   A19        1.91832  -0.00284   0.00000  -0.00679  -0.00696   1.91137
   A20        1.87115  -0.00290   0.00000  -0.00478  -0.00468   1.86648
   A21        1.94553  -0.00143   0.00000   0.00932   0.00929   1.95482
   A22        1.86051   0.00164   0.00000   0.00472   0.00462   1.86513
   A23        2.29123  -0.00436   0.00000  -0.01241  -0.01245   2.27878
   A24        2.15795   0.00648   0.00000   0.01781   0.01778   2.17573
   A25        1.83366  -0.00211   0.00000  -0.00504  -0.00506   1.82859
   A26        1.92994   0.00187   0.00000   0.00546   0.00544   1.93538
   A27        2.23391  -0.00098   0.00000  -0.00767  -0.00766   2.22625
   A28        2.11933  -0.00089   0.00000   0.00221   0.00222   2.12155
   A29        1.83395   0.00265   0.00000   0.00688   0.00684   1.84079
   A30        1.94692   0.00065   0.00000   0.00096   0.00095   1.94787
   A31        2.21064  -0.00183   0.00000  -0.01037  -0.01037   2.20027
   A32        2.12563   0.00118   0.00000   0.00941   0.00941   2.13504
   A33        1.88018  -0.00304   0.00000  -0.00806  -0.00805   1.87213
   A34        2.16888   0.00343   0.00000   0.01608   0.01607   2.18495
   A35        2.23402  -0.00040   0.00000  -0.00802  -0.00802   2.22600
   A36        1.95753  -0.02440   0.00000  -0.06339  -0.06331   1.89421
   A37        1.91311   0.01364   0.00000   0.05773   0.05758   1.97069
   A38        1.87471   0.00476   0.00000   0.00455   0.00384   1.87856
   A39        1.92780   0.00399   0.00000  -0.00025   0.00062   1.92842
   A40        1.91259   0.00660   0.00000   0.00797   0.00757   1.92016
   A41        1.87557  -0.00377   0.00000  -0.00417  -0.00461   1.87096
   A42        1.93124  -0.01506   0.00000  -0.04825  -0.04849   1.88275
   A43        1.91332   0.00732   0.00000   0.02122   0.01852   1.93184
   A44        1.91781   0.00660   0.00000   0.04686   0.04647   1.96428
   A45        1.90987  -0.00177   0.00000  -0.04707  -0.04723   1.86264
   A46        1.91745   0.00482   0.00000   0.00674   0.00771   1.92516
   A47        1.87323  -0.00144   0.00000   0.02242   0.02139   1.89462
   A48        1.94063   0.00225   0.00000   0.01505   0.01504   1.95567
   A49        1.86510  -0.00387   0.00000  -0.06996  -0.06998   1.79512
   A50        1.96579   0.00111   0.00000   0.00641   0.00634   1.97213
   A51        1.87487   0.00109   0.00000   0.02151   0.02156   1.89643
   A52        1.90529  -0.00206   0.00000  -0.01110  -0.01115   1.89414
   A53        1.90949   0.00150   0.00000   0.03899   0.03891   1.94840
    D1       -0.10094   0.00171   0.00000   0.04011   0.04047  -0.06047
    D2       -3.00586   0.00060   0.00000  -0.01300  -0.01286  -3.01873
    D3        3.06898   0.00124   0.00000   0.02953   0.02939   3.09836
    D4        0.16405   0.00013   0.00000  -0.02358  -0.02395   0.14010
    D5        0.74208  -0.00242   0.00000  -0.06285  -0.06213   0.67995
    D6        2.89009  -0.00436   0.00000  -0.06549  -0.06595   2.82414
    D7       -1.36043   0.00101   0.00000  -0.03745  -0.03719  -1.39761
    D8       -2.42843  -0.00117   0.00000  -0.05009  -0.04971  -2.47814
    D9       -0.28041  -0.00310   0.00000  -0.05273  -0.05353  -0.33395
   D10        1.75225   0.00226   0.00000  -0.02468  -0.02477   1.72748
   D11       -2.83312   0.00081   0.00000  -0.01892  -0.01888  -2.85200
   D12        1.30073  -0.00094   0.00000  -0.02272  -0.02251   1.27822
   D13       -0.80087  -0.00008   0.00000  -0.01520  -0.01529  -0.81615
   D14        0.08352   0.00195   0.00000   0.03275   0.03268   0.11620
   D15       -2.06582   0.00019   0.00000   0.02895   0.02905  -2.03676
   D16        2.11577   0.00106   0.00000   0.03647   0.03627   2.15205
   D17        3.09017  -0.00119   0.00000   0.00622   0.00623   3.09640
   D18       -0.06077  -0.00111   0.00000   0.00148   0.00151  -0.05925
   D19       -1.05915   0.00157   0.00000   0.02053   0.02053  -1.03862
   D20        2.07309   0.00164   0.00000   0.01579   0.01582   2.08891
   D21        1.06756  -0.00031   0.00000  -0.00282  -0.00287   1.06469
   D22       -2.08338  -0.00024   0.00000  -0.00756  -0.00759  -2.09097
   D23       -2.48974  -0.00045   0.00000  -0.00776  -0.00765  -2.49739
   D24       -0.41889  -0.00121   0.00000  -0.01728  -0.01724  -0.43614
   D25        1.60750  -0.00298   0.00000  -0.02664  -0.02650   1.58100
   D26        1.70550   0.00324   0.00000   0.00346   0.00347   1.70897
   D27       -2.50683   0.00248   0.00000  -0.00606  -0.00613  -2.51296
   D28       -0.48044   0.00071   0.00000  -0.01542  -0.01538  -0.49582
   D29       -0.40923   0.00205   0.00000   0.00892   0.00884  -0.40039
   D30        1.66162   0.00129   0.00000  -0.00060  -0.00075   1.66087
   D31       -2.59517  -0.00048   0.00000  -0.00996  -0.01000  -2.60517
   D32       -3.13129  -0.00071   0.00000  -0.01991  -0.01994   3.13195
   D33        0.01944  -0.00075   0.00000  -0.01507  -0.01503   0.00441
   D34        2.13140  -0.00163   0.00000  -0.04223  -0.04228   2.08913
   D35       -0.97723  -0.00239   0.00000  -0.05871  -0.05878  -1.03601
   D36        0.04933  -0.00022   0.00000  -0.02380  -0.02380   0.02553
   D37       -3.05930  -0.00097   0.00000  -0.04028  -0.04030  -3.09960
   D38       -1.98062   0.00030   0.00000  -0.03168  -0.03161  -2.01223
   D39        1.19393  -0.00046   0.00000  -0.04816  -0.04811   1.14583
   D40       -3.12715  -0.00004   0.00000  -0.00529  -0.00509  -3.13225
   D41        0.01521  -0.00021   0.00000  -0.00393  -0.00382   0.01139
   D42       -0.01398   0.00075   0.00000   0.00929   0.00932  -0.00466
   D43        3.12839   0.00058   0.00000   0.01065   0.01059   3.13899
   D44        3.13134  -0.00047   0.00000   0.00100   0.00118   3.13252
   D45        0.00467  -0.00023   0.00000   0.00120   0.00133   0.00599
   D46        0.01540  -0.00097   0.00000  -0.01158  -0.01154   0.00386
   D47       -3.11128  -0.00074   0.00000  -0.01138  -0.01139  -3.12267
   D48        0.00699  -0.00026   0.00000  -0.00337  -0.00338   0.00361
   D49       -3.13532  -0.00011   0.00000  -0.00463  -0.00457  -3.13989
   D50        0.00315  -0.00033   0.00000  -0.00412  -0.00418  -0.00103
   D51       -3.13628   0.00006   0.00000  -0.00299  -0.00300  -3.13928
   D52       -0.01199   0.00083   0.00000   0.01013   0.01015  -0.00183
   D53        3.11396   0.00062   0.00000   0.01019   0.01027   3.12423
   D54        3.12757   0.00046   0.00000   0.00903   0.00900   3.13656
   D55       -0.02967   0.00025   0.00000   0.00909   0.00911  -0.02056
   D56       -1.06719   0.00716   0.00000   0.08762   0.08763  -0.97955
   D57        1.04085   0.00009   0.00000   0.01196   0.01146   1.05231
   D58        3.09553   0.00661   0.00000   0.07969   0.08032  -3.10734
   D59        3.07629   0.00386   0.00000   0.05799   0.05781   3.13410
   D60       -1.09886  -0.00321   0.00000  -0.01767  -0.01837  -1.11722
   D61        0.95582   0.00331   0.00000   0.05006   0.05049   1.00631
   D62        1.01322   0.00201   0.00000   0.05836   0.05843   1.07165
   D63        3.12126  -0.00506   0.00000  -0.01730  -0.01775   3.10351
   D64       -1.10725   0.00147   0.00000   0.05043   0.05111  -1.05614
   D65       -1.24344  -0.00120   0.00000  -0.03260  -0.03196  -1.27540
   D66        0.79754  -0.00096   0.00000  -0.03992  -0.03934   0.75820
   D67        2.89484  -0.00100   0.00000  -0.03403  -0.03340   2.86143
   D68        2.92966   0.00043   0.00000   0.00233   0.00162   2.93128
   D69       -1.31255   0.00067   0.00000  -0.00499  -0.00576  -1.31831
   D70        0.78475   0.00063   0.00000   0.00090   0.00018   0.78492
   D71        0.87724   0.00041   0.00000  -0.00100  -0.00085   0.87639
   D72        2.91822   0.00064   0.00000  -0.00831  -0.00824   2.90999
   D73       -1.26767   0.00061   0.00000  -0.00242  -0.00230  -1.26997
         Item               Value     Threshold  Converged?
 Maximum Force            0.025714     0.000450     NO 
 RMS     Force            0.005077     0.000300     NO 
 Maximum Displacement     0.507134     0.001800     NO 
 RMS     Displacement     0.107664     0.001200     NO 
 Predicted change in Energy=-8.594817D-03
 GradGradGradGradGradGradGradGradGradGradGradGradGradGradGradGradGradGrad

                          Input orientation:                          
 ---------------------------------------------------------------------
 Center     Atomic      Atomic             Coordinates (Angstroms)
 Number     Number       Type             X           Y           Z
 ---------------------------------------------------------------------
      1          8           0       -1.397209    0.057900   -0.799766
      2          6           0       -1.525227   -0.114852    0.428656
      3          7           0       -0.491045   -0.286928    1.240566
      4          6           0        0.882524   -0.361320    0.744515
      5          6           0        1.687672   -0.967278    1.882832
      6          8           0        2.975699   -1.152817    1.556357
      7          8           0        1.225125   -1.236177    2.961359
      8          6           0        1.427373    1.026772    0.287230
      9          6           0        2.307612    0.965416   -0.913137
     10          6           0        2.174164    1.548684   -2.149070
     11          7           0        3.225997    1.210727   -2.966588
     12          6           0        3.992571    0.427261   -2.244894
     13          7           0        3.483444    0.242110   -0.989807
     14          6           0       -2.928325   -0.105572    1.021938
     15          6           0       -3.871146   -0.821393    0.052170
     16          7           0       -3.768554   -0.133723   -1.285159
     17          1           0       -0.619268   -0.530203    2.217068
     18          1           0        0.908844   -1.041094   -0.111234
     19          1           0        3.426852   -1.531585    2.328298
     20          1           0        0.566566    1.637556    0.018651
     21          1           0        1.918211    1.523088    1.130999
     22          1           0        1.378420    2.193481   -2.489807
     23          1           0        4.916084   -0.028710   -2.565905
     24          1           0        3.867551   -0.322387   -0.248319
     25          1           0       -2.974797   -0.565940    2.009199
     26          1           0       -3.232848    0.940545    1.137634
     27          1           0       -3.555237   -1.853501   -0.100804
     28          1           0       -4.903409   -0.822720    0.398068
     29          1           0       -4.228033    0.778395   -1.283557
     30          1           0       -2.716136    0.013869   -1.396425
     31          1           0       -4.153453   -0.689321   -2.049674
 ---------------------------------------------------------------------
                    Distance matrix (angstroms):
                    1          2          3          4          5
     1  O    0.000000
     2  C    1.247098   0.000000
     3  N    2.258981   1.326024   0.000000
     4  C    2.785271   2.440856   1.462290   0.000000
     5  C    4.214714   3.628219   2.371115   1.520267   0.000000
     6  O    5.112678   4.754726   3.587172   2.380533   1.341650
     7  O    4.764172   3.903382   2.609107   2.407726   1.203942
     8  C    3.177820   3.168778   2.512964   1.559734   2.567087
     9  C    3.816037   4.202149   3.746904   2.557131   3.455008
    10  C    4.098508   4.805988   4.686411   3.699904   4.777340
    11  N    5.234325   5.988237   5.810295   4.662133   5.534169
    12  C    5.592365   6.155311   5.723750   4.385296   4.929039
    13  N    4.887824   5.217878   4.588138   3.183832   3.597148
    14  C    2.385298   1.523402   2.453777   3.829483   4.774003
    15  C    2.760311   2.478765   3.622571   4.825805   5.854320
    16  N    2.428086   2.823125   4.140631   5.079754   6.364070
    17  H    3.170543   2.047362   1.014484   2.110050   2.371649
    18  H    2.645703   2.659719   2.087060   1.093202   2.142037
    19  H    5.965133   5.489887   4.252323   3.217374   1.881922
    20  H    2.649817   2.759463   2.513017   2.149933   3.393701
    21  H    4.106902   3.877293   3.015407   2.184722   2.611575
    22  H    3.888580   4.719851   4.854174   4.151356   5.404258
    23  H    6.556250   7.103894   6.617624   5.228682   5.576273
    24  H    5.307204   5.439065   4.606018   3.146049   3.116018
    25  H    3.281501   2.191540   2.614894   4.064508   4.681416
    26  H    2.811076   2.128962   3.005789   4.334245   5.329786
    27  H    2.966326   2.724733   3.693602   4.757614   5.675235
    28  H    3.808377   3.451684   4.523918   5.814631   6.757793
    29  H    2.960866   3.321855   4.633701   5.615142   6.933178
    30  H    1.448278   2.183061   3.463413   4.204134   5.577607
    31  H    3.117289   3.657828   4.939720   5.768548   7.047028
                    6          7          8          9         10
     6  O    0.000000
     7  O    2.246216   0.000000
     8  C    2.959494   3.508961   0.000000
     9  C    3.321394   4.585904   1.489788   0.000000
    10  C    4.655187   5.896831   2.601086   1.373150   0.000000
    11  N    5.109406   6.717990   3.722395   2.262801   1.374374
    12  C    4.240305   6.126243   3.653944   2.214107   2.138545
    13  N    2.947300   4.785086   2.544395   1.382617   2.182943
    14  C    6.019952   4.721310   4.560055   5.683887   6.231152
    15  C    7.017956   5.882806   5.616518   6.503965   6.856274
    16  N    7.389026   6.647191   5.551289   6.185977   6.236404
    17  H    3.707826   2.110487   3.215149   4.538909   5.584639
    18  H    2.658050   3.094982   2.168805   2.574041   3.529981
    19  H    0.971029   2.309899   3.835239   4.242006   5.577106
    20  H    3.994327   4.165521   1.089120   2.085964   2.700238
    21  H    2.908552   3.382917   1.095078   2.154327   3.290140
    22  H    5.488210   6.442147   3.012564   2.203957   1.079385
    23  H    4.692735   6.755132   4.628772   3.244080   3.190619
    24  H    2.177584   4.256696   2.839280   2.129279   3.159323
    25  H    5.996490   4.358345   4.988087   6.228078   6.947996
    26  H    6.565329   5.285604   4.737962   5.907875   6.356731
    27  H    6.774235   5.710499   5.768271   6.555851   6.971104
    28  H    7.970629   6.655850   6.596340   7.544237   7.886920
    29  H    7.980504   7.198245   5.874749   6.548805   6.506196
    30  H    6.517443   6.007198   4.585775   5.135860   5.180460
[...]
 00000759,-0.00003602,-0.00002539,0.00001672,0.00002569,0.00000030,-0.0
 0000568,0.00002419,0.00003337,-0.00001845,0.00000931,0.00426545,0.1198
 7018,-0.24169359,0.00071324,0.01024925,-0.01635930,-0.00266340,-0.0022
 9303,-0.00161886,0.00025992,0.00039184,0.00112378,0.00000323,0.0000572
 9,0.00002310,0.00000793,0.00000484,0.00000815,0.00000277,-0.00001155,-
 0.00000889,-0.00000519,-0.00002134,0.00000945,-0.00000117,-0.00001393,
 0.00000498,0.00000086,0.00000034,0.00000130,0.00000958,0.00000533,-0.0
 0000452,-0.00305718,-0.12933878,0.26187197,-0.00030557,-0.00361061,0.0
 0047575,-0.00727218,0.03202679,0.00526540,-0.00186090,-0.00200021,0.00
 033551,-0.00016384,-0.00165459,-0.00028119,0.00023102,-0.00022173,0.00
 026625,-0.00018353,0.00007291,-0.00006177,-0.00012485,0.00003521,-0.00
 017104,-0.00038366,0.00035832,-0.00013450,-0.00003117,-0.00015192,0.00
 002271,-0.00001769,-0.00000001,-0.00006373,-0.00006050,0.00002470,0.00
 004392,0.00000042,-0.00000373,0.00005108,0.00004588,-0.00004042,0.0000
 0099,-0.05958671,0.05765919,0.01355722,0.00480361,-0.02649835,-0.00583
 270,0.00114639,0.00072948,0.00137617,-0.00013565,0.00091264,0.00046484
 ,0.00011963,0.00000955,-0.00002015,0.00001396,0.00000957,0.00001827,-0
 .00001473,0.00009931,0.00007919,-0.00009767,-0.00008860,0.00000355,0.0
 0000539,0.00001098,-0.00000338,0.00000125,0.00000403,0.00000117,0.0000
 2406,0.00001166,-0.00000565,-0.00005424,-0.00061480,-0.00022533,0.0663
 5025,-0.00014870,-0.00002192,0.00071084,0.00255484,0.00061218,0.000041
 60,-0.00023254,0.00055435,-0.00064872,0.00018688,0.00005711,0.00002823
 ,0.00005874,-0.00003859,-0.00000651,-0.00002807,0.00000890,0.00000404,
 -0.00002925,0.00003850,0.00000041,0.00000852,-0.00000497,-0.00004274,0
 .00001884,-0.00000620,0.00001134,0.00000132,-0.00000297,0.00000003,-0.
 00000336,-0.00000209,0.00000515,-0.00000215,0.00000149,-0.00000215,0.0
 0000318,0.00000994,-0.00000269,0.05163018,-0.27822848,-0.05345045,0.00
 097633,-0.01180259,-0.00216517,0.00019593,0.00141740,0.00023131,-0.000
 04345,-0.00034810,-0.00013078,-0.00006230,-0.00001964,0.00001874,0.000
 00528,-0.00000682,0.00000009,0.00003540,-0.00001313,0.00001651,0.00001
 292,-0.00000045,0.00000318,0.00000174,0.00000700,-0.00000321,-0.000001
 09,-0.00000140,-0.00000089,0.00000264,-0.00000022,-0.00000119,0.003618
 60,-0.01558520,-0.00375755,-0.05650565,0.30208889,0.00071898,0.0027016
 8,-0.00059869,0.00414641,-0.01386695,-0.00405017,-0.00086219,0.0002161
 3,-0.00026697,0.00022888,0.00010817,0.00001491,0.00007218,0.00002635,0
 .00009585,-0.00004281,0.00000867,-0.00002687,-0.00003841,-0.00002002,-
 0.00006635,0.00002731,0.00002875,0.00004183,-0.00001061,-0.00001579,-0
 .00000506,0.00000865,-0.00000430,-0.00000559,-0.00001807,0.00001012,0.
 00000647,-0.00000583,-0.00000050,0.00000745,-0.00000399,0.00000064,0.0
 0000103,0.01271500,-0.05453793,-0.05847444,0.00290306,-0.02152937,-0.0
 0672978,0.00074246,-0.00039656,0.00153234,-0.00001374,0.00030764,0.000
 23058,-0.00007795,0.00002497,-0.00001648,0.00000614,-0.00000256,0.0000
 0785,0.00002445,-0.00001639,-0.00000775,-0.00000750,-0.00000425,-0.000
 00245,-0.00000011,-0.00000449,-0.00000247,-0.00000083,0.00000012,0.000
 00048,0.00000690,0.00000156,0.00000345,-0.00631256,0.02636160,0.007440
 16,-0.01202201,0.06107066,0.06247300,-0.00022855,0.00054306,0.00067215
 ,0.00152199,-0.00145901,-0.00070560,0.00003618,0.00040616,-0.00002969,
 -0.00005960,-0.00002824,0.00002262,-0.00011480,0.00003571,-0.00006830,
 0.00008433,-0.00001435,0.00001991,0.00005747,-0.00000355,0.00004604,-0
 .00000302,-0.00004060,0.00001957,0.00000474,0.00002747,-0.00000312,0.0
 0000320,0.00000641,0.00002001,0.00002016,0.00000151,-0.00001595,0.0000
 0084,-0.00000385,-0.00000440,-0.00000652,0.00001332,-0.00000566,0.0034
 9030,-0.02375018,-0.00522456,-0.06252342,0.05072115,0.01189253,0.00018
 153,-0.00201524,-0.00067919,0.00002328,-0.00009257,-0.00009003,-0.0000
 3093,-0.00001728,0.00001678,-0.00001601,-0.00000098,-0.00001028,0.0000
 0265,-0.00002079,-0.00001117,0.00001852,0.00000973,0.00000094,-0.00000
 202,-0.00001127,0.00000479,-0.00000052,-0.00000209,0.00000003,-0.00001
 364,-0.00000861,0.00000130,0.00095426,0.00060618,0.00054870,-0.0031293
 7,-0.00174570,-0.00289464,0.06184266,-0.00035118,0.00056869,0.00074442
 ,0.00043067,0.00006713,-0.00104616,-0.00010910,0.00000543,0.00014830,-
 0.00004506,-0.00004312,0.00000138,-0.00004413,0.00002371,-0.00003477,0
 .00003007,-0.00000850,0.00000904,0.00002108,-0.00001080,0.00002323,-0.
 00001346,-0.00000814,0.00001022,-0.00000114,0.00000890,-0.00000225,0.0
 0000387,0.00000306,0.00000846,0.00000610,0.00000248,-0.00000436,0.0000
 0047,-0.00000163,-0.00000225,-0.00000250,0.00000342,-0.00000094,0.0002
 5489,-0.00882080,-0.00382415,0.04829293,-0.29907367,-0.04945713,0.0030
 9877,-0.01632754,0.00143311,0.00003515,-0.00003125,-0.00002600,-0.0000
 0728,-0.00000067,0.00000832,-0.00000442,0.00000175,-0.00000306,-0.0000
 0114,-0.00001087,-0.00000618,0.00000659,0.00000054,0.00000097,-0.00000
 113,-0.00000726,0.00000155,-0.00000013,-0.00000058,-0.00000017,-0.0000
 0458,-0.00000233,-0.00000003,-0.00007271,0.00047048,-0.00019244,-0.001
 16295,0.00096133,-0.00104764,-0.05133034,0.32242005,0.00043049,-0.0002
 5832,0.00102098,0.00157851,0.00047364,-0.00059980,-0.00035115,0.000246
 08,0.00006532,0.00006856,-0.00006301,-0.00005658,0.00003777,-0.0000565
 0,0.00006957,-0.00004063,0.00002080,-0.00002028,-0.00002335,0.00005505
 ,-0.00003605,-0.00001585,0.00000684,0.00000171,0.00000033,-0.00000647,
 -0.00000734,-0.00000941,0.00000438,-0.00001627,-0.00001312,0.00000121,
 0.00001305,-0.00000357,0.00000042,0.00000875,0.00000927,-0.00000398,0.
 00001003,0.00279520,-0.02099483,-0.00471556,0.01401105,-0.06121319,-0.
 06146839,-0.00725840,0.03923087,-0.00196728,0.00004520,-0.00014021,0.0
 0005041,-0.00001862,-0.00000362,0.00001933,0.00000145,-0.00001028,0.00
 000231,-0.00000180,0.00001267,-0.00002004,0.00000500,-0.00000530,0.000
 00450,-0.00000088,0.00000285,-0.00000330,-0.00000013,-0.00000037,0.000
 00097,0.00000592,-0.00000213,-0.00000054,0.00035568,0.00005891,0.00040
 946,-0.00384402,-0.00099842,-0.00184305,-0.00830263,0.05211751,0.07353
 857,0.00091705,-0.00000660,0.00059704,-0.00008166,-0.00132492,-0.00444
 471,-0.00134002,-0.00002305,0.00073789,0.00011587,0.00019318,-0.000276
 18,0.00006093,-0.00007822,0.00020798,-0.00013324,0.00004574,-0.0000666
 6,-0.00006180,0.00004619,-0.00008131,0.00002220,0.00005554,-0.00002054
 ,-0.00000471,-0.00002517,-0.00000708,-0.00000575,0.00000056,-0.0000252
 8,-0.00002569,0.00000540,0.00002635,-0.00000526,0.00000195,0.00000941,
 0.00001570,-0.00001270,0.00001378,-0.01817271,0.00215137,0.00687505,-0
 .28647644,0.02690523,0.09586388,0.00567626,-0.00013669,-0.00161970,0.0
 0005230,-0.00008375,0.00014952,-0.00005625,0.00000274,-0.00000443,0.00
 000329,-0.00000823,0.00000949,0.00000943,0.00001438,-0.00000237,-0.000
 00962,-0.00001144,0.00000404,0.00000131,0.00000467,-0.00000443,-0.0000
 0033,0.00000023,0.00000082,0.00001546,0.00000585,-0.00000472,0.0001915
 4,0.00026122,-0.00018407,0.00102924,-0.00021266,0.00048663,-0.00339075
 ,0.00064228,0.00112195,0.30166175,0.00018295,0.00024323,-0.00011329,-0
 .00150352,-0.00014750,-0.00312356,-0.00097985,0.00013457,0.00036102,0.
 00000369,0.00006627,-0.00018330,-0.00002633,-0.00001933,0.00007315,-0.
 00003390,0.00001555,-0.00002662,-0.00000843,0.00001030,-0.00001963,0.0
 0000366,0.00000794,0.00001271,-0.00000207,-0.00000747,-0.00000237,0.00
 000151,-0.00000261,-0.00000141,-0.00000367,0.00000160,0.00000254,-0.00
 000130,-0.00000007,0.00000265,0.00000198,-0.00000015,-0.00000005,-0.01
 310528,0.00090188,0.00458453,0.03275781,-0.05583070,-0.01439694,-0.019
 49026,-0.00119312,0.01316290,0.00002650,-0.00002993,0.00002170,-0.0000
 2550,-0.00000684,0.00000908,-0.00000638,-0.00000032,0.00000040,-0.0000
 0147,-0.00000011,0.00000194,-0.00000407,0.00000120,-0.00000225,0.00000
 176,0.00000173,0.00000044,-0.00000034,-0.00000004,0.00000017,0.0000016
 1,0.00000113,-0.00000145,0.00055385,0.00042464,0.00012278,0.00010155,0
 .00045936,0.00090301,0.02859466,-0.00058267,-0.01183911,-0.02810183,0.
 05575618,0.00105953,-0.00030312,0.00237062,-0.00103099,-0.00200896,-0.
 00564152,-0.00157941,0.00010103,0.00114624,0.00003166,0.00026942,-0.00
 033853,0.00005654,-0.00008085,0.00023264,-0.00016198,0.00005193,-0.000
 07632,-0.00006935,0.00004414,-0.00007814,0.00003383,0.00007203,-0.0000
 3024,-0.00001175,-0.00002400,-0.00001602,-0.00001765,0.00001093,-0.000
 03383,-0.00002369,0.00000661,0.00003622,-0.00000519,0.00000090,0.00000
 991,0.00002844,-0.00002031,0.00002439,-0.02087393,0.00185345,0.0106246
 6,0.08759620,-0.00988361,-0.08596947,0.03062399,0.00134584,-0.01879453
 ,0.00005788,-0.00011482,0.00017449,-0.00006969,0.00000565,-0.00000865,
 0.00000016,-0.00000751,0.00000855,0.00000714,0.00001074,-0.00000959,-0
 .00000930,-0.00001504,0.00000848,-0.00000078,-0.00000239,-0.00000359,0
 .00000013,-0.00000037,0.00000154,0.00001757,0.00000779,-0.00000889,0.0
 0048665,0.00045920,0.00048766,0.00072154,0.00015074,0.00081373,0.00518
 255,-0.00112837,-0.00102331,-0.09920171,0.00793569,0.09962220,-0.00276
 698,-0.00263614,-0.00139803,-0.00088164,0.00019480,-0.00000998,0.00025
 820,0.00013813,0.00000262,-0.00008132,0.00002357,0.00006825,-0.0001296
 0,0.00005977,-0.00010627,0.00010215,-0.00003432,0.00003020,0.00005918,
 -0.00003837,0.00006381,-0.00002368,-0.00000381,-0.00002347,-0.00001444
 ,0.00001047,-0.00000279,-0.00005890,0.00003241,-0.00000381,0.00005573,
 -0.00001697,-0.00001243,0.00001618,-0.00000623,-0.00000569,0.00003167,
 -0.00000964,0.00000458,-0.00054947,0.00072582,-0.00001020,0.00203778,-
 0.00672760,-0.00112297,-0.11153691,0.13477194,0.00524690,-0.00004818,0
 .00011390,-0.00007644,0.00000963,-0.00000470,-0.00001936,-0.00002097,0
 .00001207,-0.00001045,-0.00001572,-0.00001243,-0.00000234,0.00001000,0
 .00000320,0.00000371,-0.00000956,-0.00001384,0.00002349,0.00000351,-0.
 00000175,0.00000181,-0.00001619,0.00000243,-0.00000619,0.00007154,-0.0
 0019937,-0.00005659,0.00023774,-0.00013580,-0.00042868,0.00029845,-0.0
 0086390,0.00173292,0.00033854,-0.00091104,0.00021931,0.10746399,-0.002
 19441,-0.00035934,-0.00172880,0.00039958,-0.00026752,0.00113296,-0.000
 58507,0.00010470,-0.00056527,0.00022623,0.00003379,-0.00007024,0.00016
 584,-0.00006019,0.00004705,-0.00014816,0.00002165,-0.00001900,-0.00011
 638,0.00002534,-0.00002744,-0.00000193,0.00008113,-0.00003279,-0.00001
 138,-0.00004388,-0.00000322,-0.00003911,-0.00000021,-0.00004610,-0.000
 02125,-0.00001543,0.00003257,-0.00000053,0.00000483,0.00000991,0.00003
 196,-0.00002887,0.00002240,0.00020925,0.00152423,0.00014843,0.00466619
 ,-0.01366256,0.00125324,0.12361344,-0.35426536,-0.02415151,-0.00001179
 ,0.00002982,0.00011281,-0.00001515,-0.00000436,0.00000565,0.00001766,0
 .00000142,0.00000978,0.00001163,0.00004592,0.00000254,-0.00001894,-0.0
 0001012,-0.00000039,0.00000484,0.00002850,0.00000247,0.00000241,0.0000
 0353,0.00000184,0.00001973,0.00001729,-0.00000847,-0.00015351,-0.00013
 671,-0.00024535,0.00029947,-0.00009035,0.00013224,-0.00049799,0.000675
 08,0.00277069,-0.00063959,0.00112131,-0.00091377,-0.13750616,0.3748042
 1,0.00045725,0.00039238,0.00008030,-0.00065403,0.00018465,0.00012068,0
 .00036181,-0.00011380,0.00008911,-0.00013331,0.00005642,0.00006727,-0.
 00013591,0.00004929,-0.00001136,0.00012190,-0.00002506,0.00000485,0.00
 008652,-0.00003028,-0.00000575,-0.00000964,-0.00003545,0.00002000,0.00
 000839,0.00001045,0.00002649,0.00003736,-0.00002173,0.00004525,0.00001
 591,0.00000170,-0.00005080,0.00001093,-0.00000475,-0.00000225,-0.00004
 146,0.00002744,-0.00004828,0.00025102,0.00064318,0.00103572,-0.0131365
 8,0.03073575,0.00512068,0.00282374,-0.02103930,-0.06124540,-0.00003432
 ,0.00002685,-0.00007546,0.00001280,-0.00000125,-0.00000698,-0.00001384
 ,0.00000789,-0.00000286,-0.00000435,-0.00002409,0.00002812,0.00000495,
 0.00000923,-0.00001289,0.00000381,-0.00000122,0.00001217,-0.00000098,0
 .00000092,-0.00000173,-0.00001586,-0.00000550,0.00001296,0.00027151,-0
 .00045333,-0.00002921,-0.00030521,-0.00088940,-0.00063727,0.00024225,0
 .00226430,-0.00588733,0.00046627,-0.00029524,0.00137612,-0.00599212,0.
 02124902,0.06102560,0.00565289,-0.00553580,0.04196870,0.01152744,0.004
 54310,-0.04710398,0.00585786,-0.00198926,0.01816048,-0.00367468,0.0003
 9553,0.00067057,-0.00254110,0.00132741,-0.00134657,0.00187178,-0.00052
 496,0.00039022,0.00156672,-0.00087728,0.00118513,-0.00025001,-0.000606
 39,0.00018239,-0.00012280,0.00046155,0.00008177,-0.00000554,0.00009695
 ,0.00044551,0.00052935,-0.00004374,-0.00045315,0.00018481,-0.00010151,
 -0.00014416,-0.00014264,0.00017726,-0.00024445,-0.00084228,0.00195559,
 0.00247973,0.00183396,-0.00902227,0.01924657,-0.20153810,-0.00982604,0
 .03368567,0.00181456,0.00008797,-0.00107364,-0.00011940,0.00024391,-0.
 00027529,-0.00026773,0.00013686,-0.00013877,-0.00018504,-0.00081309,-0
 .00006022,0.00031739,0.00006859,0.00002404,-0.00005509,-0.00027981,0.0
 0020255,0.00001298,-0.00001505,-0.00000539,-0.00025997,-0.00005848,0.0
 0003830,-0.00310972,-0.00075843,-0.00001689,-0.00064505,-0.00019557,0.
 00079466,0.00037053,0.00084621,-0.00181184,-0.00033498,0.00168266,-0.0
 0411929,-0.00346776,0.00362177,0.00081176,0.18915572,-0.00195615,-0.01
 458796,-0.00172544,0.00093881,-0.00077661,0.00245042,-0.00000890,0.001
 32123,-0.00012832,0.00002289,-0.00008994,0.00013307,0.00009383,-0.0000
 0400,-0.00001485,-0.00008607,-0.00000004,0.00000472,-0.00010569,-0.000
 04383,-0.00001003,0.00002116,0.00003490,-0.00008380,-0.00002501,-0.000
 04569,-0.00000232,-0.00012051,0.00004972,-0.00008703,0.00002288,-0.000
 03817,0.00003265,0.00001765,-0.00000179,0.00001022,0.00007066,-0.00004
 587,0.00003550,0.00042859,0.00011903,-0.00076474,-0.01597246,-0.000418
 00,0.00712294,-0.01555296,-0.06712201,-0.00287816,0.00003578,0.0010194
 5,0.00023744,-0.00007563,0.00000833,-0.00010502,0.00001295,0.00000987,
 0.00000928,-0.00002628,0.00005999,-0.00003807,-0.00001651,-0.00000299,
 0.00000931,-0.00002321,0.00000827,0.00003446,0.00000718,0.00000289,0.0
 0000450,0.00001525,0.00002280,-0.00001242,-0.00020797,-0.00032394,-0.0
 0015678,0.00025453,-0.00016703,-0.00047544,-0.00052214,-0.00054706,0.0
 0003086,0.00053409,-0.00124548,0.00214401,0.03223604,0.00563489,-0.006
 97387,0.01685172,0.07843360,0.01567154,-0.00188091,-0.00241288,-0.0091
 7197,0.00221120,-0.01820248,0.00271570,-0.00011304,0.00273965,-0.00093
 921,0.00006579,0.00025980,-0.00083902,0.00044206,-0.00036250,0.0006575
 2,-0.00017005,0.00010249,0.00046050,-0.00024306,0.00027167,-0.00012279
 ,-0.00021903,0.00011893,-0.00000983,0.00009681,0.00012641,0.00010728,-
 0.00010422,0.00021003,0.00012404,-0.00002608,-0.00023447,0.00006932,-0
 .00002418,-0.00004302,-0.00017069,0.00012460,-0.00018714,0.00000776,-0
 .00025954,-0.00040955,0.03065959,0.00440054,-0.01137322,0.04622640,-0.
 00316327,-0.06551741,0.00001868,0.00014376,-0.00030954,-0.00006658,0.0
 0011882,-0.00003523,-0.00007658,0.00003814,-0.00003358,-0.00005459,-0.
 00027449,0.00003222,0.00010778,0.00003316,-0.00002710,0.00001782,0.000
 01831,0.00006427,0.,0.00000417,-0.00000823,-0.00008650,-0.00002324,0.0
 0004921,-0.00025977,-0.00005753,0.00055418,-0.00008637,-0.00025581,-0.
 00014974,-0.00025015,-0.00003281,0.00042368,-0.00104679,0.00337301,-0.
 00484153,0.00172610,0.00086214,-0.00138556,-0.06041801,-0.00506334,0.0
 9336109,-0.00477970,0.00187188,-0.00067637,-0.00031815,-0.00010177,0.0
 0157319,0.00007379,-0.00006644,-0.00007483,-0.00000883,-0.00000455,0.0
 0000951,-0.00003137,0.00001050,-0.00006201,0.00002825,-0.00000681,0.00
 001972,0.00001339,-0.00000164,0.00003409,0.00000921,-0.00000221,-0.000
 00975,-0.00000510,0.00002094,-0.00002644,-0.00002377,0.00003528,-0.000
 00541,0.00002532,0.00000828,0.00001860,-0.00000738,-0.00000152,-0.0000
 0480,0.00003337,-0.00001262,0.00002839,0.00049841,-0.00054167,0.000880
 97,0.00172571,0.00431573,0.00300433,-0.13284926,-0.08685498,-0.1260312
 6,0.00002924,-0.00002169,-0.00011670,0.00000089,-0.00001766,-0.0000121
 5,-0.00001236,0.00000168,-0.00000873,-0.00000039,0.00000459,-0.0000062
 2,-0.00000164,0.00000266,0.00000667,-0.00000675,-0.00003099,-0.0000030
 9,0.00000024,-0.00000425,0.00000145,-0.00000838,-0.00000371,-0.0000106
 5,0.00014093,-0.00004519,0.00026499,0.00005847,0.00003496,-0.00014178,
 0.00060805,0.00034608,-0.00050391,-0.00001166,0.00029106,0.00105162,0.
 00862707,0.00867135,0.01448942,-0.00313410,-0.01686450,-0.02497118,0.1
 2932650,0.00096046,0.00003957,-0.00004893,-0.00078961,0.00002970,0.000
 27987,0.00024408,-0.00009154,-0.00001107,-0.00009485,0.00000353,0.0000
 5116,-0.00009617,0.00004662,-0.00002685,0.00008844,-0.00003347,0.00000
 673,0.00006615,-0.00003297,0.00000962,-0.00000320,-0.00001431,-0.00000
 323,-0.00000359,0.00001012,0.00000048,-0.00002822,0.00000861,0.0000029
 4,0.00002633,-0.00001852,-0.00001332,0.00000934,-0.00000178,-0.0000054
 3,0.00000641,-0.00000700,-0.00000009,-0.00066762,-0.00253316,0.0036579
 7,0.01104176,0.01235335,0.01215879,-0.07977990,-0.15357206,-0.13170144
 ,-0.00008543,0.00004322,-0.00005709,0.00003553,0.00001428,-0.00000315,
 -0.00000860,0.00001479,-0.00000052,-0.00000019,-0.00001481,0.00000204,
 0.00000283,0.00000075,-0.00000158,-0.00000262,-0.00000074,0.00000519,0
 .00000333,0.00000247,0.00000107,-0.00000700,0.00000613,0.00000300,0.00
 083960,0.00063584,0.00084474,-0.00006631,0.00012367,0.00001987,0.00059
 941,0.00026483,0.00056298,-0.00020575,-0.00008056,0.00003300,-0.019202
 46,-0.01521274,-0.02574519,-0.00184937,-0.00126455,-0.00002193,0.08896
 723,0.15928072,0.00325238,-0.00099189,0.00200521,-0.00003973,0.0003546
 3,-0.00194366,0.00051957,-0.00006261,0.00071157,-0.00021448,0.00000059
 ,0.00008102,-0.00019924,0.00007599,-0.00005181,0.00016495,-0.00003846,
 0.00001497,0.00012206,-0.00004209,0.00003354,-0.00003917,-0.00004120,0
 .00003309,-0.00000013,0.00001541,0.00002636,0.00000605,-0.00001366,0.0
 0004296,0.00003399,-0.00001310,-0.00006535,0.00002402,-0.00001033,0.00
 000202,-0.00003540,0.00002714,-0.00005314,0.00174372,0.00420670,-0.004
 21966,-0.01392069,-0.01456705,-0.01861668,-0.11887952,-0.13401191,-0.2
 4277441,0.00008361,0.00002279,-0.00007221,0.,0.00000387,-0.00000281,-0
 .00002108,0.00000979,-0.00000610,-0.00001040,-0.00004282,0.00000876,0.
 00001785,0.00000873,-0.00001030,-0.00000143,0.00000239,0.00002667,0.00
 000123,0.00000173,-0.00000001,-0.00002084,-0.00000476,0.00001395,-0.00
 127587,-0.00070533,-0.00046375,0.00037350,0.00006282,0.00021401,-0.000
 39482,0.00003789,0.00202650,0.00041986,-0.00056247,-0.00006330,0.00016
 413,0.00001661,0.00033783,-0.00315641,0.00626025,0.00721954,0.13128232
 ,0.14000035,0.25554517\\0.00000275,0.00000030,0.00000080,0.00000247,0.
 00000159,-0.00000376,-0.00000218,0.00000276,0.00000177,-0.00000373,-0.
 00000170,-0.00000052,-0.00000121,-0.00000050,-0.00000043,0.00000039,0.
 00000003,0.00000121,-0.00000028,0.00000063,-0.00000001,0.00000321,0.00
 000196,0.00000053,-0.00000319,-0.00000165,-0.00000160,0.00000096,0.000
 00015,0.00000008,-0.00000047,-0.00000072,-0.00000068,-0.00000096,-0.00
 000025,0.00000159,0.00000297,-0.00000202,0.00000075,-0.00000048,0.0000
 0062,-0.00000003,-0.00000023,-0.00000131,0.00000096,-0.00000661,0.0000
 0227,-0.00000005,0.00000120,0.,-0.00000022,0.,-0.00000071,0.00000010,-
 0.00000046,0.00000009,0.00000077,0.00000138,-0.00000069,-0.00000159,-0
 .00000026,0.00000089,0.00000029,0.00000023,-0.00000095,-0.00000023,0.0
 0000004,-0.00000123,0.00000024,-0.00000130,0.00000009,-0.00000018,-0.0
 0000011,0.00000069,0.00000006,-0.00000030,0.00000024,-0.00000097,0.000
 00020,0.00000044,-0.00000008,-0.00000045,0.00000099,-0.00000070,0.0000
 0081,0.00000019,-0.00000038,0.00000651,-0.00000231,0.00000215,-0.00000
 088,0.00000012,0.00000014\\\@


 There are more things in heaven and earth, Horatio,
 than are dreamt of in your philosophy.
                   -- Hamlet, Act I, Scene 5
 Job cpu time:       0 days  2 hours 13 minutes 35.3 seconds.
 File lengths (MBytes):  RWF=    458 Int=      0 D2E=      0 Chk=     13 Scr=      1
 Normal termination of Gaussian 09 at Sat Jul 24 02:05:05 2021.
