 Entering Gaussian System, Link 0=g09
 Input=opt_freq-conf-150.com
 Output=opt_freq-conf-150.log
 Initial command:
 /aerosol/software/g09/l1.exe "/scratch/nicole/10606/Gau-83728.inp" -scrdir="/scratch/nicole/10606/"
 Entering Link 1 = /aerosol/software/g09/l1.exe PID=     83733.
  
 Copyright (c) 1988,1990,1992,1993,1995,1998,2003,2009,2013,
            Gaussian, Inc.  All Rights Reserved.
  
 This is part of the Gaussian(R) 09 program.  It is based on
 the Gaussian(R) 03 system (copyright 2003, Gaussian, Inc.),
 the Gaussian(R) 98 system (copyright 1998, Gaussian, Inc.),
 the Gaussian(R) 94 system (copyright 1995, Gaussian, Inc.),
 the Gaussian 92(TM) system (copyright 1992, Gaussian, Inc.),
 the Gaussian 90(TM) system (copyright 1990, Gaussian, Inc.),
 the Gaussian 88(TM) system (copyright 1988, Gaussian, Inc.),
 the Gaussian 86(TM) system (copyright 1986, Carnegie Mellon
 University), and the Gaussian 82(TM) system (copyright 1983,
 Carnegie Mellon University). Gaussian is a federally registered
 trademark of Gaussian, Inc.
  
 This software contains proprietary and confidential information,
 including trade secrets, belonging to Gaussian, Inc.
  
 This software is provided under written license and may be
 used, copied, transmitted, or stored only in accord with that
 written license.
  
 The following legend is applicable only to US Government
 contracts under FAR:
  
                    RESTRICTED RIGHTS LEGEND
  
 Use, reproduction and disclosure by the US Government is
 subject to restrictions as set forth in subparagraphs (a)
 and (c) of the Commercial Computer Software - Restricted
 Rights clause in FAR 52.227-19.
  
 Gaussian, Inc.
 340 Quinnipiac St., Bldg. 40, Wallingford CT 06492
  
  
 ---------------------------------------------------------------
 Warning -- This program may not be used in any manner that
 competes with the business of Gaussian, Inc. or will provide
 assistance to any competitor of Gaussian, Inc.  The licensee
 of this program is prohibited from giving any competitor of
 Gaussian, Inc. access to this program.  By using this program,
 the user acknowledges that Gaussian, Inc. is engaged in the
 business of creating and licensing software in the field of
 computational chemistry and represents and warrants to the
 licensee that it is not a competitor of Gaussian, Inc. and that
 it will not use this program in any manner prohibited above.
 ---------------------------------------------------------------
  

 Cite this work as:
 Gaussian 09, Revision D.01,
 M. J. Frisch, G. W. Trucks, H. B. Schlegel, G. E. Scuseria, 
 M. A. Robb, J. R. Cheeseman, G. Scalmani, V. Barone, B. Mennucci, 
 G. A. Petersson, H. Nakatsuji, M. Caricato, X. Li, H. P. Hratchian, 
 A. F. Izmaylov, J. Bloino, G. Zheng, J. L. Sonnenberg, M. Hada, 
 M. Ehara, K. Toyota, R. Fukuda, J. Hasegawa, M. Ishida, T. Nakajima, 
 Y. Honda, O. Kitao, H. Nakai, T. Vreven, J. A. Montgomery, Jr., 
 J. E. Peralta, F. Ogliaro, M. Bearpark, J. J. Heyd, E. Brothers, 
 K. N. Kudin, V. N. Staroverov, T. Keith, R. Kobayashi, J. Normand, 
 K. Raghavachari, A. Rendell, J. C. Burant, S. S. Iyengar, J. Tomasi, 
 M. Cossi, N. Rega, J. M. Millam, M. Klene, J. E. Knox, J. B. Cross, 
 V. Bakken, C. Adamo, J. Jaramillo, R. Gomperts, R. E. Stratmann, 
 O. Yazyev, A. J. Austin, R. Cammi, C. Pomelli, J. W. Ochterski, 
 R. L. Martin, K. Morokuma, V. G. Zakrzewski, G. A. Voth, 
 P. Salvador, J. J. Dannenberg, S. Dapprich, A. D. Daniels, 
 O. Farkas, J. B. Foresman, J. V. Ortiz, J. Cioslowski, 
 and D. J. Fox, Gaussian, Inc., Wallingford CT, 2013.
 
 ******************************************
 Gaussian 09:  ES64L-G09RevD.01 24-Apr-2013
                28-Jul-2021 
 ******************************************
 %mem=2gb
 %nproc=4
 Will use up to    4 processors via shared memory.
 %chk=conf-150.chk
 ----------------------------------------------------------------------
 # B3LYP/6-31G(d,p) opt=calcfc freq=noraman nosymm integral(ultrafinegr
 id)
 ----------------------------------------------------------------------
 1/10=4,14=-1,18=20,19=15,26=4,38=1/1,3;
 2/9=110,12=2,15=1,17=6,18=5,40=1/2;
 3/5=1,6=6,7=101,11=2,16=1,25=1,30=1,71=2,74=-5,75=-5,140=1/1,2,3;
 4//1;
 5/5=2,38=5/2;
 8/6=4,10=90,11=11/1;
 11/6=1,8=1,9=11,15=111,16=1,31=1/1,2,10;
 10/6=1,13=1,31=1/2;
 6/7=2,8=2,9=2,10=2,28=1/1;
 7/10=1,18=20,25=1,30=1/1,2,3,16;
 1/10=4,14=-1,18=20,19=15,26=4/3(2);
 2/9=110,15=1/2;
 99//99;
 2/9=110,15=1/2;
 3/5=1,6=6,7=101,11=2,16=1,25=1,30=1,71=1,74=-5,75=-5/1,2,3;
 4/5=5,16=3,69=1/1;
 5/5=2,38=5/2;
 7/30=1/1,2,3,16;
 1/14=-1,18=20,19=15,26=4/3(-5);
 2/9=110,15=1/2;
 6/7=2,8=2,9=2,10=2,19=2,28=1/1;
 99/9=1/99;
 ------------------------------------------------------------
 Candidate Structure: Conf:150 OPT and FREQ calc in gas phase
 ------------------------------------------------------------
 Symbolic Z-matrix:
 Charge =  0 Multiplicity = 1
 O                    -1.06735  -1.81842  -0.60329 
 C                    -1.26017  -0.71113  -0.11548 
 N                    -0.37381  -0.15491   0.75102 
 C                     0.74849  -0.91195   1.26099 
 C                     1.24686  -0.18699   2.48905 
 O                     2.24552  -0.85447   3.09518 
 O                     0.81057   0.86267   2.89123 
 C                     1.87855  -1.12462   0.22713 
 C                     2.46418   0.14329  -0.29805 
 C                     3.69731   0.71644  -0.1525 
 N                     3.75634   1.9277   -0.81778 
 C                     2.56761   2.08131  -1.35632 
 N                     1.75201   1.03     -1.0682 
 C                    -2.47144   0.14825  -0.43245 
 C                    -3.42446  -0.50714  -1.41911 
 N                    -4.55073   0.39607  -1.66837 
 H                    -0.59336   0.68832   1.26101 
 H                     0.41775  -1.90971   1.56604 
 H                     2.49526  -0.33255   3.86831 
 H                     1.46214  -1.72179  -0.58553 
 H                     2.6673   -1.71113   0.6993 
 H                     4.54572   0.32738   0.3952 
 H                     2.23723   2.91305  -1.95358 
 H                     0.78257   0.92701  -1.32349 
 H                    -2.13351   1.11041  -0.83235 
 H                    -3.0062    0.37498   0.49757 
 H                    -2.89971  -0.67889  -2.36095 
 H                    -3.71838  -1.49025  -1.03227 
 H                    -5.14058   0.44323  -0.845 
 H                    -5.13542   0.02345  -2.40678 
 

 GradGradGradGradGradGradGradGradGradGradGradGradGradGradGradGradGradGrad
 Berny optimization.
 Initialization pass.
                           ----------------------------
                           !    Initial Parameters    !
                           ! (Angstroms and Degrees)  !
 --------------------------                            --------------------------
 ! Name  Definition              Value          Derivative Info.                !
 --------------------------------------------------------------------------------
 ! R1    R(1,2)                  1.2252         calculate D2E/DX2 analytically  !
 ! R2    R(2,3)                  1.3586         calculate D2E/DX2 analytically  !
 ! R3    R(2,14)                 1.5186         calculate D2E/DX2 analytically  !
 ! R4    R(3,4)                  1.4466         calculate D2E/DX2 analytically  !
 ! R5    R(3,17)                 1.0096         calculate D2E/DX2 analytically  !
 ! R6    R(4,5)                  1.5107         calculate D2E/DX2 analytically  !
 ! R7    R(4,8)                  1.5463         calculate D2E/DX2 analytically  !
 ! R8    R(4,18)                 1.0945         calculate D2E/DX2 analytically  !
 ! R9    R(5,6)                  1.3454         calculate D2E/DX2 analytically  !
 ! R10   R(5,7)                  1.2058         calculate D2E/DX2 analytically  !
 ! R11   R(6,19)                 0.9657         calculate D2E/DX2 analytically  !
 ! R12   R(8,9)                  1.4921         calculate D2E/DX2 analytically  !
 ! R13   R(8,20)                 1.0911         calculate D2E/DX2 analytically  !
 ! R14   R(8,21)                 1.0904         calculate D2E/DX2 analytically  !
 ! R15   R(9,10)                 1.3676         calculate D2E/DX2 analytically  !
 ! R16   R(9,13)                 1.3735         calculate D2E/DX2 analytically  !
 ! R17   R(10,11)                1.3832         calculate D2E/DX2 analytically  !
 ! R18   R(10,22)                1.0822         calculate D2E/DX2 analytically  !
 ! R19   R(11,12)                1.314          calculate D2E/DX2 analytically  !
 ! R20   R(12,13)                1.3614         calculate D2E/DX2 analytically  !
 ! R21   R(12,23)                1.0759         calculate D2E/DX2 analytically  !
 ! R22   R(13,24)                1.0078         calculate D2E/DX2 analytically  !
 ! R23   R(14,15)                1.5203         calculate D2E/DX2 analytically  !
 ! R24   R(14,25)                1.0954         calculate D2E/DX2 analytically  !
 ! R25   R(14,26)                1.0965         calculate D2E/DX2 analytically  !
 ! R26   R(15,16)                1.4651         calculate D2E/DX2 analytically  !
 ! R27   R(15,27)                1.0918         calculate D2E/DX2 analytically  !
 ! R28   R(15,28)                1.0966         calculate D2E/DX2 analytically  !
 ! R29   R(16,29)                1.0139         calculate D2E/DX2 analytically  !
 ! R30   R(16,30)                1.0129         calculate D2E/DX2 analytically  !
 ! A1    A(1,2,3)              121.4156         calculate D2E/DX2 analytically  !
 ! A2    A(1,2,14)             123.6309         calculate D2E/DX2 analytically  !
 ! A3    A(3,2,14)             114.9485         calculate D2E/DX2 analytically  !
 ! A4    A(2,3,4)              121.1124         calculate D2E/DX2 analytically  !
 ! A5    A(2,3,17)             121.4815         calculate D2E/DX2 analytically  !
 ! A6    A(4,3,17)             115.3222         calculate D2E/DX2 analytically  !
 ! A7    A(3,4,5)              106.9408         calculate D2E/DX2 analytically  !
 ! A8    A(3,4,8)              113.7809         calculate D2E/DX2 analytically  !
 ! A9    A(3,4,18)             109.9301         calculate D2E/DX2 analytically  !
 ! A10   A(5,4,8)              111.6184         calculate D2E/DX2 analytically  !
 ! A11   A(5,4,18)             108.0944         calculate D2E/DX2 analytically  !
 ! A12   A(8,4,18)             106.3679         calculate D2E/DX2 analytically  !
 ! A13   A(4,5,6)              111.9023         calculate D2E/DX2 analytically  !
 ! A14   A(4,5,7)              124.7182         calculate D2E/DX2 analytically  !
 ! A15   A(6,5,7)              123.3794         calculate D2E/DX2 analytically  !
 ! A16   A(5,6,19)             106.5298         calculate D2E/DX2 analytically  !
 ! A17   A(4,8,9)              113.9092         calculate D2E/DX2 analytically  !
 ! A18   A(4,8,20)             107.1182         calculate D2E/DX2 analytically  !
 ! A19   A(4,8,21)             108.2449         calculate D2E/DX2 analytically  !
 ! A20   A(9,8,20)             110.654          calculate D2E/DX2 analytically  !
 ! A21   A(9,8,21)             109.0            calculate D2E/DX2 analytically  !
 ! A22   A(20,8,21)            107.7091         calculate D2E/DX2 analytically  !
 ! A23   A(8,9,10)             132.265          calculate D2E/DX2 analytically  !
 ! A24   A(8,9,13)             122.849          calculate D2E/DX2 analytically  !
 ! A25   A(10,9,13)            104.8708         calculate D2E/DX2 analytically  !
 ! A26   A(9,10,11)            110.7501         calculate D2E/DX2 analytically  !
 ! A27   A(9,10,22)            127.5957         calculate D2E/DX2 analytically  !
 ! A28   A(11,10,22)           121.654          calculate D2E/DX2 analytically  !
 ! A29   A(10,11,12)           105.1223         calculate D2E/DX2 analytically  !
 ! A30   A(11,12,13)           111.404          calculate D2E/DX2 analytically  !
 ! A31   A(11,12,23)           126.5587         calculate D2E/DX2 analytically  !
 ! A32   A(13,12,23)           122.0373         calculate D2E/DX2 analytically  !
 ! A33   A(9,13,12)            107.8523         calculate D2E/DX2 analytically  !
 ! A34   A(9,13,24)            125.0893         calculate D2E/DX2 analytically  !
 ! A35   A(12,13,24)           126.9841         calculate D2E/DX2 analytically  !
 ! A36   A(2,14,15)            113.0481         calculate D2E/DX2 analytically  !
 ! A37   A(2,14,25)            109.0995         calculate D2E/DX2 analytically  !
 ! A38   A(2,14,26)            109.2064         calculate D2E/DX2 analytically  !
 ! A39   A(15,14,25)           109.58           calculate D2E/DX2 analytically  !
 ! A40   A(15,14,26)           109.5044         calculate D2E/DX2 analytically  !
 ! A41   A(25,14,26)           106.1692         calculate D2E/DX2 analytically  !
 ! A42   A(14,15,16)           109.06           calculate D2E/DX2 analytically  !
 ! A43   A(14,15,27)           109.0502         calculate D2E/DX2 analytically  !
 ! A44   A(14,15,28)           108.9996         calculate D2E/DX2 analytically  !
 ! A45   A(16,15,27)           108.6456         calculate D2E/DX2 analytically  !
 ! A46   A(16,15,28)           113.9951         calculate D2E/DX2 analytically  !
 ! A47   A(27,15,28)           106.9842         calculate D2E/DX2 analytically  !
 ! A48   A(15,16,29)           109.7385         calculate D2E/DX2 analytically  !
 ! A49   A(15,16,30)           109.9378         calculate D2E/DX2 analytically  !
 ! A50   A(29,16,30)           105.8604         calculate D2E/DX2 analytically  !
 ! D1    D(1,2,3,4)             -7.7326         calculate D2E/DX2 analytically  !
 ! D2    D(1,2,3,17)          -170.55           calculate D2E/DX2 analytically  !
 ! D3    D(14,2,3,4)           173.0511         calculate D2E/DX2 analytically  !
 ! D4    D(14,2,3,17)           10.2337         calculate D2E/DX2 analytically  !
 ! D5    D(1,2,14,15)            0.0395         calculate D2E/DX2 analytically  !
 ! D6    D(1,2,14,25)         -122.151          calculate D2E/DX2 analytically  !
 ! D7    D(1,2,14,26)          122.2102         calculate D2E/DX2 analytically  !
 ! D8    D(3,2,14,15)          179.2362         calculate D2E/DX2 analytically  !
 ! D9    D(3,2,14,25)           57.0457         calculate D2E/DX2 analytically  !
 ! D10   D(3,2,14,26)          -58.593          calculate D2E/DX2 analytically  !
 ! D11   D(2,3,4,5)           -162.1572         calculate D2E/DX2 analytically  !
 ! D12   D(2,3,4,8)             74.1256         calculate D2E/DX2 analytically  !
 ! D13   D(2,3,4,18)           -45.0406         calculate D2E/DX2 analytically  !
 ! D14   D(17,3,4,5)             1.6593         calculate D2E/DX2 analytically  !
 ! D15   D(17,3,4,8)          -122.0579         calculate D2E/DX2 analytically  !
 ! D16   D(17,3,4,18)          118.7759         calculate D2E/DX2 analytically  !
 ! D17   D(3,4,5,6)            176.1661         calculate D2E/DX2 analytically  !
 ! D18   D(3,4,5,7)             -3.71           calculate D2E/DX2 analytically  !
 ! D19   D(8,4,5,6)            -58.7944         calculate D2E/DX2 analytically  !
 ! D20   D(8,4,5,7)            121.3295         calculate D2E/DX2 analytically  !
 ! D21   D(18,4,5,6)            57.8457         calculate D2E/DX2 analytically  !
 ! D22   D(18,4,5,7)          -122.0304         calculate D2E/DX2 analytically  !
 ! D23   D(3,4,8,9)             59.2523         calculate D2E/DX2 analytically  !
 ! D24   D(3,4,8,20)           -63.4489         calculate D2E/DX2 analytically  !
 ! D25   D(3,4,8,21)          -179.34           calculate D2E/DX2 analytically  !
 ! D26   D(5,4,8,9)            -61.8885         calculate D2E/DX2 analytically  !
 ! D27   D(5,4,8,20)           175.4103         calculate D2E/DX2 analytically  !
 ! D28   D(5,4,8,21)            59.5192         calculate D2E/DX2 analytically  !
 ! D29   D(18,4,8,9)          -179.5724         calculate D2E/DX2 analytically  !
 ! D30   D(18,4,8,20)           57.7264         calculate D2E/DX2 analytically  !
 ! D31   D(18,4,8,21)          -58.1646         calculate D2E/DX2 analytically  !
 ! D32   D(4,5,6,19)          -179.3425         calculate D2E/DX2 analytically  !
 ! D33   D(7,5,6,19)             0.5355         calculate D2E/DX2 analytically  !
 ! D34   D(4,8,9,10)           112.3787         calculate D2E/DX2 analytically  !
 ! D35   D(4,8,9,13)           -65.9767         calculate D2E/DX2 analytically  !
 ! D36   D(20,8,9,10)         -126.8774         calculate D2E/DX2 analytically  !
 ! D37   D(20,8,9,13)           54.7673         calculate D2E/DX2 analytically  !
 ! D38   D(21,8,9,10)           -8.6089         calculate D2E/DX2 analytically  !
 ! D39   D(21,8,9,13)          173.0358         calculate D2E/DX2 analytically  !
 ! D40   D(8,9,10,11)         -178.7634         calculate D2E/DX2 analytically  !
 ! D41   D(8,9,10,22)            1.0879         calculate D2E/DX2 analytically  !
 ! D42   D(13,9,10,11)          -0.1929         calculate D2E/DX2 analytically  !
 ! D43   D(13,9,10,22)         179.6584         calculate D2E/DX2 analytically  !
 ! D44   D(8,9,13,12)          178.9476         calculate D2E/DX2 analytically  !
 ! D45   D(8,9,13,24)            1.9019         calculate D2E/DX2 analytically  !
 ! D46   D(10,9,13,12)           0.2068         calculate D2E/DX2 analytically  !
 ! D47   D(10,9,13,24)        -176.8389         calculate D2E/DX2 analytically  !
 ! D48   D(9,10,11,12)           0.1026         calculate D2E/DX2 analytically  !
 ! D49   D(22,10,11,12)       -179.759          calculate D2E/DX2 analytically  !
 ! D50   D(10,11,12,13)          0.0338         calculate D2E/DX2 analytically  !
 ! D51   D(10,11,12,23)        179.9779         calculate D2E/DX2 analytically  !
 ! D52   D(11,12,13,9)          -0.1556         calculate D2E/DX2 analytically  !
 ! D53   D(11,12,13,24)        176.8181         calculate D2E/DX2 analytically  !
 ! D54   D(23,12,13,9)         179.8974         calculate D2E/DX2 analytically  !
 ! D55   D(23,12,13,24)         -3.1289         calculate D2E/DX2 analytically  !
 ! D56   D(2,14,15,16)        -179.6173         calculate D2E/DX2 analytically  !
 ! D57   D(2,14,15,27)         -61.1172         calculate D2E/DX2 analytically  !
 ! D58   D(2,14,15,28)          55.3532         calculate D2E/DX2 analytically  !
 ! D59   D(25,14,15,16)        -57.6961         calculate D2E/DX2 analytically  !
 ! D60   D(25,14,15,27)         60.804          calculate D2E/DX2 analytically  !
 ! D61   D(25,14,15,28)        177.2744         calculate D2E/DX2 analytically  !
 ! D62   D(26,14,15,16)         58.3789         calculate D2E/DX2 analytically  !
 ! D63   D(26,14,15,27)        176.879          calculate D2E/DX2 analytically  !
 ! D64   D(26,14,15,28)        -66.6506         calculate D2E/DX2 analytically  !
 ! D65   D(14,15,16,29)        -70.7929         calculate D2E/DX2 analytically  !
 ! D66   D(14,15,16,30)        173.1656         calculate D2E/DX2 analytically  !
 ! D67   D(27,15,16,29)        170.4539         calculate D2E/DX2 analytically  !
 ! D68   D(27,15,16,30)         54.4125         calculate D2E/DX2 analytically  !
 ! D69   D(28,15,16,29)         51.2678         calculate D2E/DX2 analytically  !
 ! D70   D(28,15,16,30)        -64.7736         calculate D2E/DX2 analytically  !
 --------------------------------------------------------------------------------
 Trust Radius=3.00D-01 FncErr=1.00D-07 GrdErr=1.00D-06
 Number of steps in this run=    160 maximum allowed number of steps=    180.
 GradGradGradGradGradGradGradGradGradGradGradGradGradGradGradGradGradGrad

                          Input orientation:                          
 ---------------------------------------------------------------------
 Center     Atomic      Atomic             Coordinates (Angstroms)
 Number     Number       Type             X           Y           Z
 ---------------------------------------------------------------------
      1          8           0       -1.067352   -1.818420   -0.603290
      2          6           0       -1.260171   -0.711133   -0.115475
      3          7           0       -0.373807   -0.154908    0.751020
      4          6           0        0.748491   -0.911949    1.260987
      5          6           0        1.246864   -0.186995    2.489052
      6          8           0        2.245519   -0.854468    3.095176
      7          8           0        0.810575    0.862669    2.891227
      8          6           0        1.878554   -1.124616    0.227129
      9          6           0        2.464176    0.143289   -0.298052
     10          6           0        3.697311    0.716443   -0.152500
     11          7           0        3.756344    1.927702   -0.817782
     12          6           0        2.567610    2.081312   -1.356324
     13          7           0        1.752005    1.029997   -1.068196
     14          6           0       -2.471439    0.148251   -0.432449
     15          6           0       -3.424457   -0.507137   -1.419106
     16          7           0       -4.550733    0.396069   -1.668368
     17          1           0       -0.593358    0.688317    1.261006
     18          1           0        0.417752   -1.909712    1.566043
     19          1           0        2.495261   -0.332548    3.868311
     20          1           0        1.462143   -1.721790   -0.585530
     21          1           0        2.667299   -1.711131    0.699298
     22          1           0        4.545724    0.327378    0.395204
     23          1           0        2.237229    2.913050   -1.953578
     24          1           0        0.782573    0.927013   -1.323490
     25          1           0       -2.133510    1.110413   -0.832347
     26          1           0       -3.006197    0.374981    0.497574
     27          1           0       -2.899706   -0.678894   -2.360952
     28          1           0       -3.718382   -1.490250   -1.032268
     29          1           0       -5.140584    0.443227   -0.844998
     30          1           0       -5.135425    0.023449   -2.406784
 ---------------------------------------------------------------------
                    Distance matrix (angstroms):
                    1          2          3          4          5
     1  O    0.000000
     2  C    1.225245   0.000000
     3  N    2.254425   1.358618   0.000000
     4  C    2.755813   2.443297   1.446626   0.000000
     5  C    4.192818   3.652877   2.376627   1.510655   0.000000
     6  O    5.057961   4.755911   3.584036   2.368258   1.345444
     7  O    4.788162   3.975563   2.649285   2.410561   1.205772
     8  C    3.138364   3.184328   2.507573   1.546328   2.528727
     9  C    4.051316   3.825458   3.040332   2.547097   3.059230
    10  C    5.415788   5.159067   4.260235   3.653101   3.714659
    11  N    6.111258   5.711576   4.884316   4.629478   4.658818
    12  C    5.384043   4.897894   4.253647   4.372541   4.655803
    13  N    4.034649   3.607273   3.038523   3.194258   3.793448
    14  C    2.422486   1.518612   2.427460   3.789419   4.740604
    15  C    2.817971   2.534798   3.760316   4.975969   6.098969
    16  N    4.262898   3.803310   4.858367   6.194660   7.157949
    17  H    3.159747   2.073114   1.009612   2.088398   2.379219
    18  H    2.630566   2.660737   2.090493   1.094522   2.122999
    19  H    5.907219   5.487909   4.240354   3.191402   1.866021
    20  H    2.531403   2.941662   2.759021   2.138871   3.443109
    21  H    3.956750   4.133869   3.416552   2.153140   2.746607
    22  H    6.091639   5.920111   4.955905   4.087113   3.940972
    23  H    5.927085   5.361449   4.852291   5.213481   5.507092
    24  H    3.387966   2.883683   2.609859   3.172139   3.999007
    25  H    3.125256   2.143515   2.684147   4.096086   4.913439
    26  H    3.127623   2.145711   2.697127   4.041864   4.729728
    27  H    2.783058   2.780517   4.042165   5.146075   6.399886
    28  H    2.705490   2.736847   4.018637   5.054345   6.225097
    29  H    4.665264   4.113679   5.062333   6.399444   7.232743
    30  H    4.816045   4.561502   5.716340   6.996283   8.046559
                    6          7          8          9         10
     6  O    0.000000
     7  O    2.247047   0.000000
     8  C    2.904020   3.491031   0.000000
     9  C    3.543632   3.663796   1.492096   0.000000
    10  C    3.888812   4.197487   2.615624   1.367594   0.000000
    11  N    5.033319   4.854749   3.732904   2.263613   1.383197
    12  C    5.342134   4.755413   3.641441   2.210559   2.142028
    13  N    4.596567   4.073244   2.517188   1.373520   2.172793
    14  C    5.974886   4.725339   4.580139   4.937446   6.201184
    15  C    7.255894   6.196033   5.586886   6.029578   7.336281
    16  N    8.393107   7.053456   6.873218   7.151966   8.392302
    17  H    3.715317   2.158482   3.235116   3.475087   4.517591
    18  H    2.606246   3.097824   2.131434   3.446377   4.539338
    19  H    0.965665   2.285039   3.777023   4.193562   4.325763
    20  H    3.861803   4.380846   1.091069   2.136641   3.335937
    21  H    2.579148   3.856997   1.090441   2.115382   2.771209
    22  H    3.738657   4.524158   3.041435   2.201667   1.082199
    23  H    6.299538   5.450829   4.602920   3.234787   3.193870
    24  H    4.983824   4.215301   2.795492   2.119796   3.148215
    25  H    6.201781   4.753316   4.713226   4.728585   5.883526
    26  H    5.986618   4.531574   5.116906   5.532782   6.743605
    27  H    7.501566   6.612714   5.452394   5.805408   7.095411
    28  H    7.280668   6.437507   5.748519   6.436734   7.786912
    29  H    8.471334   7.039290   7.271581   7.630301   8.869194
    30  H    9.247737   8.008004   7.579674   7.887651   9.142170
                   11         12         13         14         15
    11  N    0.000000
    12  C    1.314044   0.000000
    13  N    2.210420   1.361430   0.000000
    14  C    6.488467   5.475608   4.361092   0.000000
    15  C    7.606177   6.527547   5.411255   1.520286   0.000000
    16  N    8.489813   7.321764   6.362907   2.431538   1.465063
    17  H    4.977684   4.333886   3.323049   2.585855   4.077650
    18  H    5.617344   5.393551   4.166693   4.071438   5.063685
    19  H    5.353365   5.755759   5.174751   6.587549   7.939163
    20  H    4.316954   4.034819   2.808793   4.358160   5.103831
    21  H    4.090067   4.314874   3.387562   5.580751   6.561001
    22  H    2.157659   3.171289   3.231111   7.068074   8.216564
    23  H    2.137441   1.075942   2.136641   5.668289   6.636115
    24  H    3.178118   2.125992   1.007760   3.462516   4.445788
    25  H    5.946305   4.828843   3.893497   1.095386   2.151116
    26  H    7.062086   6.116848   5.051848   1.096501   2.150984
    27  H    7.312914   6.206412   5.121517   2.141660   1.091760
    28  H    8.221917   7.237041   6.023128   2.144607   1.096607
    29  H    9.019963   7.896901   6.921121   2.716900   2.043987
    30  H    9.231178   8.042078   7.088135   3.318192   2.045591
                   16         17         18         19         20
    16  N    0.000000
    17  H    4.932288   0.000000
    18  H    6.361123   2.804486   0.000000
    19  H    8.990647   4.168905   3.479069   0.000000
    20  H    6.466262   3.666524   2.399028   4.778496   0.000000
    21  H    7.883281   4.087145   2.418914   3.460164   1.761618
    22  H    9.327839   5.223988   4.838966   4.086854   3.830065
    23  H    7.245203   4.826511   6.241575   6.670447   4.894289
    24  H    5.370754   2.937649   4.065650   5.610222   2.832413
    25  H    2.655596   2.632938   4.624107   6.753061   4.583777
    26  H    2.660327   2.550059   4.252631   6.490647   5.053279
    27  H    2.088327   4.506339   5.285994   8.247989   4.823430
    28  H    2.157691   4.446464   4.902528   7.997832   5.204904
    29  H    1.013946   5.017230   6.499580   9.006844   6.953462
    30  H    1.012901   5.875807   7.096354   9.885895   7.063337
                   21         22         23         24         25
    21  H    0.000000
    22  H    2.788632   0.000000
    23  H    5.348435   4.187079   0.000000
    24  H    3.821475   4.180285   2.541137   0.000000
    25  H    5.775363   6.836095   4.859014   2.962836   0.000000
    26  H    6.048232   7.552765   6.320083   4.239787   1.752465
    27  H    6.436007   8.002712   6.281410   4.149029   2.474936
    28  H    6.619972   8.581195   7.463723   5.117281   3.052088
    29  H    8.245554   9.766069   7.858823   5.962113   3.080227
    30  H    8.575489  10.083063   7.931659   6.083802   3.559753
                   26         27         28         29         30
    26  H    0.000000
    27  H    3.048469   0.000000
    28  H    2.515295   1.758957   0.000000
    29  H    2.522453   2.928960   2.407501   0.000000
    30  H    3.618353   2.343891   2.487687   1.617224   0.000000
 Symmetry turned off by external request.
 Stoichiometry    C9H14N4O3
 Framework group  C1[X(C9H14N4O3)]
 Deg. of freedom    84
 Full point group                 C1      NOp   1
 Rotational constants (GHZ):      0.7284732      0.3114858      0.2544644
 Standard basis: 6-31G(d,p) (6D, 7F)
   310 basis functions,   546 primitive gaussians,   310 cartesian basis functions
    60 alpha electrons       60 beta electrons
       nuclear repulsion energy      1129.0975961519 Hartrees.
 NAtoms=   30 NActive=   30 NUniq=   30 SFac= 1.00D+00 NAtFMM=   60 NAOKFM=F Big=F
 Integral buffers will be    131072 words long.
 Raffenetti 2 integral format.
 Two-electron integral symmetry is turned off.
 One-electron integrals computed using PRISM.
 NBasis=   310 RedAO= T EigKep=  1.20D-03  NBF=   310
 NBsUse=   310 1.00D-06 EigRej= -1.00D+00 NBFU=   310
 ExpMin= 1.61D-01 ExpMax= 5.48D+03 ExpMxC= 8.25D+02 IAcc=3 IRadAn=         5 AccDes= 0.00D+00
 Harris functional with IExCor=  402 and IRadAn=       5 diagonalized for initial guess.
 HarFok:  IExCor=  402 AccDes= 0.00D+00 IRadAn=         5 IDoV= 1 UseB2=F ITyADJ=14
 ICtDFT=  3500011 ScaDFX=  1.000000  1.000000  1.000000  1.000000
 FoFCou: FMM=F IPFlag=           0 FMFlag=      100000 FMFlg1=           0
         NFxFlg=           0 DoJE=T BraDBF=F KetDBF=T FulRan=T
         wScrn=  0.000000 ICntrl=     500 IOpCl=  0 I1Cent=   200000004 NGrid=           0
         NMat0=    1 NMatS0=      1 NMatT0=    0 NMatD0=    1 NMtDS0=    0 NMtDT0=    0
 Symmetry not used in FoFCou.
 Requested convergence on RMS density matrix=1.00D-08 within 128 cycles.
 Requested convergence on MAX density matrix=1.00D-06.
 Requested convergence on             energy=1.00D-06.
 No special actions if energy rises.
 Integral accuracy reduced to 1.0D-05 until final iterations.
 Initial convergence to 1.0D-05 achieved.  Increase integral accuracy.
 SCF Done:  E(RB3LYP) =  -796.111568573     A.U. after   14 cycles
            NFock= 14  Conv=0.64D-08     -V/T= 2.0088
 DoSCS=F DFT=T ScalE2(SS,OS)=  1.000000  1.000000
 Range of M.O.s used for correlation:     1   310
 NBasis=   310 NAE=    60 NBE=    60 NFC=     0 NFV=     0
 NROrb=    310 NOA=    60 NOB=    60 NVA=   250 NVB=   250
 Symmetrizing basis deriv contribution to polar:
 IMax=3 JMax=2 DiffMx= 0.00D+00
 G2DrvN: will do    31 centers at a time, making    1 passes.
 Calling FoFCou, ICntrl=  3107 FMM=F I1Cent=   0 AccDes= 0.00D+00.
 End of G2Drv F.D. properties file   721 does not exist.
 End of G2Drv F.D. properties file   722 does not exist.
 End of G2Drv F.D. properties file   788 does not exist.
          IDoAtm=111111111111111111111111111111
          Differentiating once with respect to nuclear coordinates.
          There are    93 degrees of freedom in the 1st order CPHF.  IDoFFX=6 NUNeed=     0.
     87 vectors produced by pass  0 Test12= 1.61D-14 1.08D-09 XBig12= 1.60D-01 9.97D-02.
 AX will form    87 AO Fock derivatives at one time.
     87 vectors produced by pass  1 Test12= 1.61D-14 1.08D-09 XBig12= 3.36D-02 5.59D-02.
     87 vectors produced by pass  2 Test12= 1.61D-14 1.08D-09 XBig12= 1.83D-04 2.32D-03.
     87 vectors produced by pass  3 Test12= 1.61D-14 1.08D-09 XBig12= 7.42D-07 9.40D-05.
     87 vectors produced by pass  4 Test12= 1.61D-14 1.08D-09 XBig12= 1.56D-09 3.92D-06.
     66 vectors produced by pass  5 Test12= 1.61D-14 1.08D-09 XBig12= 1.27D-12 1.14D-07.
     14 vectors produced by pass  6 Test12= 1.61D-14 1.08D-09 XBig12= 9.50D-16 3.37D-09.
 InvSVY:  IOpt=1 It=  1 EMax= 5.00D-16
 Solved reduced A of dimension   515 with    93 vectors.
 End of Minotr F.D. properties file   721 does not exist.
 End of Minotr F.D. properties file   722 does not exist.
 End of Minotr F.D. properties file   788 does not exist.

 **********************************************************************

            Population analysis using the SCF density.

 **********************************************************************

 Alpha  occ. eigenvalues --  -19.21862 -19.16515 -19.12503 -14.38382 -14.36991
 Alpha  occ. eigenvalues --  -14.31744 -14.30335 -10.34246 -10.29716 -10.25524
 Alpha  occ. eigenvalues --  -10.23131 -10.21327 -10.21293 -10.20680 -10.20239
 Alpha  occ. eigenvalues --  -10.18870  -1.13308  -1.04910  -1.04252  -1.00892
 Alpha  occ. eigenvalues --   -0.94034  -0.88771  -0.86217  -0.81206  -0.76644
 Alpha  occ. eigenvalues --   -0.74037  -0.68279  -0.65165  -0.61034  -0.60668
 Alpha  occ. eigenvalues --   -0.59553  -0.58473  -0.53492  -0.53167  -0.50833
 Alpha  occ. eigenvalues --   -0.50026  -0.49621  -0.48699  -0.46636  -0.45968
 Alpha  occ. eigenvalues --   -0.44875  -0.43790  -0.43623  -0.41986  -0.41312
 Alpha  occ. eigenvalues --   -0.40081  -0.39982  -0.39430  -0.38404  -0.38181
 Alpha  occ. eigenvalues --   -0.36850  -0.35133  -0.34257  -0.30268  -0.27600
 Alpha  occ. eigenvalues --   -0.26969  -0.26303  -0.25725  -0.23979  -0.21884
 Alpha virt. eigenvalues --   -0.01179   0.01320   0.03325   0.05545   0.06251
 Alpha virt. eigenvalues --    0.07350   0.07781   0.10443   0.12296   0.12530
 Alpha virt. eigenvalues --    0.13713   0.14820   0.15206   0.16010   0.16780
 Alpha virt. eigenvalues --    0.17532   0.17999   0.19191   0.20474   0.21054
 Alpha virt. eigenvalues --    0.22008   0.22394   0.23976   0.24688   0.24756
 Alpha virt. eigenvalues --    0.27572   0.27868   0.30407   0.32535   0.33471
 Alpha virt. eigenvalues --    0.38553   0.39466   0.41892   0.43866   0.47512
 Alpha virt. eigenvalues --    0.50753   0.51708   0.52688   0.52937   0.54135
 Alpha virt. eigenvalues --    0.55348   0.56335   0.57545   0.58229   0.60120
 Alpha virt. eigenvalues --    0.61115   0.62877   0.63090   0.63520   0.64433
 Alpha virt. eigenvalues --    0.65039   0.66046   0.66241   0.67322   0.68364
 Alpha virt. eigenvalues --    0.69987   0.72244   0.72513   0.73147   0.73584
 Alpha virt. eigenvalues --    0.74471   0.75203   0.76460   0.79633   0.79883
 Alpha virt. eigenvalues --    0.80448   0.81124   0.82597   0.83342   0.84034
 Alpha virt. eigenvalues --    0.84588   0.85489   0.86321   0.86464   0.87090
 Alpha virt. eigenvalues --    0.87784   0.88589   0.88990   0.89757   0.90191
 Alpha virt. eigenvalues --    0.91396   0.92889   0.93408   0.94802   0.95066
 Alpha virt. eigenvalues --    0.95867   0.98365   1.00623   1.01386   1.03631
 Alpha virt. eigenvalues --    1.06470   1.07196   1.09194   1.09991   1.11864
 Alpha virt. eigenvalues --    1.15073   1.18928   1.22342   1.24697   1.26141
 Alpha virt. eigenvalues --    1.28148   1.29107   1.30271   1.31638   1.33213
 Alpha virt. eigenvalues --    1.35025   1.35869   1.36942   1.38003   1.40300
 Alpha virt. eigenvalues --    1.42821   1.44095   1.46074   1.47770   1.50584
 Alpha virt. eigenvalues --    1.51863   1.52901   1.55696   1.60498   1.62685
 Alpha virt. eigenvalues --    1.63525   1.64602   1.67416   1.68611   1.71445
 Alpha virt. eigenvalues --    1.72933   1.73466   1.73687   1.74999   1.75949
 Alpha virt. eigenvalues --    1.79269   1.80080   1.80576   1.82858   1.84408
 Alpha virt. eigenvalues --    1.85217   1.85746   1.87120   1.88295   1.90472
 Alpha virt. eigenvalues --    1.91368   1.92164   1.94289   1.95508   1.97870
 Alpha virt. eigenvalues --    1.98974   2.00063   2.03521   2.04983   2.05257
 Alpha virt. eigenvalues --    2.06643   2.07405   2.08605   2.10297   2.11088
 Alpha virt. eigenvalues --    2.11726   2.13580   2.16778   2.17457   2.20241
 Alpha virt. eigenvalues --    2.20603   2.22876   2.24075   2.25234   2.25978
 Alpha virt. eigenvalues --    2.26323   2.27510   2.28666   2.30785   2.31691
 Alpha virt. eigenvalues --    2.34940   2.36545   2.37092   2.40694   2.42572
 Alpha virt. eigenvalues --    2.43986   2.45294   2.46172   2.46805   2.47336
 Alpha virt. eigenvalues --    2.49036   2.50846   2.53662   2.54721   2.54895
 Alpha virt. eigenvalues --    2.56931   2.58270   2.59293   2.60603   2.61353
 Alpha virt. eigenvalues --    2.62550   2.64293   2.65224   2.66475   2.68014
 Alpha virt. eigenvalues --    2.68687   2.71280   2.72505   2.75600   2.76383
 Alpha virt. eigenvalues --    2.77979   2.80552   2.83562   2.84226   2.85386
 Alpha virt. eigenvalues --    2.85734   2.87875   2.90095   2.92329   2.93620
 Alpha virt. eigenvalues --    2.94505   2.95904   2.96508   2.96967   3.00570
 Alpha virt. eigenvalues --    3.04109   3.07265   3.08811   3.20206   3.24639
 Alpha virt. eigenvalues --    3.26333   3.29253   3.30839   3.31319   3.33461
 Alpha virt. eigenvalues --    3.37095   3.39320   3.42978   3.47545   3.51246
 Alpha virt. eigenvalues --    3.54778   3.56232   3.57079   3.69930   3.96087
 Alpha virt. eigenvalues --    3.99076   4.01713   4.10022   4.13123   4.16043
 Alpha virt. eigenvalues --    4.24668   4.28662   4.32742   4.40210   4.43922
 Alpha virt. eigenvalues --    4.51058   4.54092   4.67283   4.74692   4.76026
          Condensed to atoms (all electrons):
               1          2          3          4          5          6
     1  O    8.099844   0.565760  -0.101925   0.009953   0.000630   0.000000
     2  C    0.565760   4.411713   0.253351  -0.022182   0.006036  -0.000033
     3  N   -0.101925   0.253351   7.108450   0.234070  -0.034762   0.001846
     4  C    0.009953  -0.022182   0.234070   5.091935   0.291671  -0.093893
     5  C    0.000630   0.006036  -0.034762   0.291671   4.392301   0.266819
     6  O    0.000000  -0.000033   0.001846  -0.093893   0.266819   8.103613
     7  O   -0.000005   0.000738  -0.013316  -0.078929   0.564993  -0.081043
     8  C   -0.008090  -0.004588  -0.054210   0.314132  -0.036908   0.002357
     9  C   -0.000483  -0.000478  -0.002915  -0.048286   0.002957  -0.001904
    10  C   -0.000004  -0.000014   0.000040  -0.002348   0.003536   0.000282
    11  N    0.000000   0.000001  -0.000013  -0.000121  -0.000062   0.000003
    12  C    0.000000   0.000021   0.000174   0.000182  -0.000069   0.000000
    13  N    0.000083   0.000237  -0.003826  -0.001476  -0.001212   0.000023
    14  C   -0.084794   0.303331  -0.121876   0.007074  -0.000128   0.000000
    15  C    0.005265  -0.025489   0.004390  -0.000151   0.000001   0.000000
    16  N    0.000273   0.003614  -0.000035   0.000000   0.000000   0.000000
    17  H    0.002915  -0.020096   0.329790  -0.045507  -0.005366   0.000802
    18  H    0.008237  -0.001821  -0.051859   0.377302  -0.030730   0.001142
    19  H    0.000000   0.000003  -0.000206   0.010305  -0.011441   0.275149
    20  H    0.013514   0.002741  -0.007824  -0.037648   0.004606   0.000058
    21  H    0.000173   0.000158   0.004172  -0.030602  -0.006903   0.006072
    22  H    0.000000   0.000000   0.000003   0.000006  -0.000001   0.000182
    23  H    0.000000  -0.000001  -0.000001  -0.000002   0.000000   0.000000
    24  H   -0.000137   0.002597   0.007762  -0.000616   0.000064   0.000000
    25  H    0.000968  -0.025654   0.000449   0.000172  -0.000013   0.000000
    26  H    0.001435  -0.024927  -0.000456  -0.000266  -0.000019   0.000000
    27  H    0.004168  -0.003359   0.000168  -0.000007   0.000000   0.000000
    28  H    0.003680   0.003660   0.000201   0.000013   0.000000   0.000000
    29  H    0.000004  -0.000201  -0.000001   0.000000   0.000000   0.000000
    30  H    0.000007  -0.000184   0.000002   0.000000   0.000000   0.000000
               7          8          9         10         11         12
     1  O   -0.000005  -0.008090  -0.000483  -0.000004   0.000000   0.000000
     2  C    0.000738  -0.004588  -0.000478  -0.000014   0.000001   0.000021
     3  N   -0.013316  -0.054210  -0.002915   0.000040  -0.000013   0.000174
     4  C   -0.078929   0.314132  -0.048286  -0.002348  -0.000121   0.000182
     5  C    0.564993  -0.036908   0.002957   0.003536  -0.000062  -0.000069
     6  O   -0.081043   0.002357  -0.001904   0.000282   0.000003   0.000000
     7  O    8.037133  -0.001345   0.001041  -0.000273  -0.000002   0.000037
     8  C   -0.001345   5.109374   0.342158  -0.051484   0.006742   0.006040
     9  C    0.001041   0.342158   4.785401   0.575650  -0.048295  -0.091899
    10  C   -0.000273  -0.051484   0.575650   4.860320   0.425003  -0.121368
    11  N   -0.000002   0.006742  -0.048295   0.425003   6.686124   0.537500
    12  C    0.000037   0.006040  -0.091899  -0.121368   0.537500   4.679302
    13  N   -0.000138  -0.067987   0.343674  -0.073579  -0.086385   0.355249
    14  C   -0.000094  -0.000472  -0.000018   0.000000   0.000000  -0.000001
    15  C    0.000000   0.000009   0.000000   0.000000   0.000000   0.000000
    16  N    0.000000   0.000000   0.000000   0.000000   0.000000   0.000000
    17  H    0.031962   0.003583   0.000316  -0.000058  -0.000001   0.000055
    18  H    0.001200  -0.039113   0.005739  -0.000068   0.000001   0.000005
    19  H    0.008269  -0.000233  -0.000066   0.000032  -0.000001   0.000000
    20  H   -0.000102   0.372923  -0.031938   0.001896  -0.000153   0.000080
    21  H    0.000067   0.368019  -0.027564  -0.005130   0.000054  -0.000073
    22  H   -0.000006  -0.001464  -0.057363   0.390637  -0.041565   0.007098
    23  H    0.000000  -0.000169   0.003420   0.006907  -0.037130   0.391073
    24  H   -0.000022  -0.003528  -0.029081   0.008430   0.005266  -0.024027
    25  H   -0.000001   0.000001   0.000029   0.000000   0.000000  -0.000007
    26  H   -0.000004   0.000006  -0.000002   0.000000   0.000000   0.000000
    27  H    0.000000   0.000001   0.000000   0.000000   0.000000   0.000000
    28  H    0.000000   0.000000   0.000000   0.000000   0.000000   0.000000
    29  H    0.000000   0.000000   0.000000   0.000000   0.000000   0.000000
    30  H    0.000000   0.000000   0.000000   0.000000   0.000000   0.000000
              13         14         15         16         17         18
     1  O    0.000083  -0.084794   0.005265   0.000273   0.002915   0.008237
     2  C    0.000237   0.303331  -0.025489   0.003614  -0.020096  -0.001821
     3  N   -0.003826  -0.121876   0.004390  -0.000035   0.329790  -0.051859
     4  C   -0.001476   0.007074  -0.000151   0.000000  -0.045507   0.377302
     5  C   -0.001212  -0.000128   0.000001   0.000000  -0.005366  -0.030730
     6  O    0.000023   0.000000   0.000000   0.000000   0.000802   0.001142
     7  O   -0.000138  -0.000094   0.000000   0.000000   0.031962   0.001200
     8  C   -0.067987  -0.000472   0.000009   0.000000   0.003583  -0.039113
     9  C    0.343674  -0.000018   0.000000   0.000000   0.000316   0.005739
    10  C   -0.073579   0.000000   0.000000   0.000000  -0.000058  -0.000068
    11  N   -0.086385   0.000000   0.000000   0.000000  -0.000001   0.000001
    12  C    0.355249  -0.000001   0.000000   0.000000   0.000055   0.000005
    13  N    6.773034  -0.000171   0.000001   0.000000   0.000345   0.000003
    14  C   -0.000171   5.238638   0.346156  -0.057247  -0.000350   0.000462
    15  C    0.000001   0.346156   4.780449   0.288228  -0.000062  -0.000002
    16  N    0.000000  -0.057247   0.288228   6.782381  -0.000006   0.000000
    17  H    0.000345  -0.000350  -0.000062  -0.000006   0.413102   0.003753
    18  H    0.000003   0.000462  -0.000002   0.000000   0.003753   0.581238
    19  H    0.000001   0.000000   0.000000   0.000000  -0.000088  -0.000359
    20  H   -0.003589   0.000261  -0.000003   0.000000  -0.000223  -0.006577
    21  H    0.004052   0.000005   0.000000   0.000000  -0.000133   0.000138
    22  H    0.004996   0.000000   0.000000   0.000000   0.000000   0.000001
    23  H   -0.057014   0.000000   0.000000   0.000000   0.000000   0.000000
    24  H    0.333853   0.000359  -0.000023  -0.000001  -0.000074   0.000047
    25  H    0.000020   0.359519  -0.031733   0.006704   0.000809  -0.000012
    26  H    0.000004   0.367345  -0.035700  -0.002907   0.001658  -0.000011
    27  H   -0.000001  -0.032894   0.392473  -0.039493   0.000002   0.000000
    28  H    0.000000  -0.058509   0.393338  -0.046202   0.000001  -0.000004
    29  H    0.000000  -0.005132  -0.036934   0.336428   0.000000   0.000000
    30  H    0.000000   0.006093  -0.033902   0.338944   0.000000   0.000000
              19         20         21         22         23         24
     1  O    0.000000   0.013514   0.000173   0.000000   0.000000  -0.000137
     2  C    0.000003   0.002741   0.000158   0.000000  -0.000001   0.002597
     3  N   -0.000206  -0.007824   0.004172   0.000003  -0.000001   0.007762
     4  C    0.010305  -0.037648  -0.030602   0.000006  -0.000002  -0.000616
     5  C   -0.011441   0.004606  -0.006903  -0.000001   0.000000   0.000064
     6  O    0.275149   0.000058   0.006072   0.000182   0.000000   0.000000
     7  O    0.008269  -0.000102   0.000067  -0.000006   0.000000  -0.000022
     8  C   -0.000233   0.372923   0.368019  -0.001464  -0.000169  -0.003528
     9  C   -0.000066  -0.031938  -0.027564  -0.057363   0.003420  -0.029081
    10  C    0.000032   0.001896  -0.005130   0.390637   0.006907   0.008430
    11  N   -0.000001  -0.000153   0.000054  -0.041565  -0.037130   0.005266
    12  C    0.000000   0.000080  -0.000073   0.007098   0.391073  -0.024027
    13  N    0.000001  -0.003589   0.004052   0.004996  -0.057014   0.333853
    14  C    0.000000   0.000261   0.000005   0.000000   0.000000   0.000359
    15  C    0.000000  -0.000003   0.000000   0.000000   0.000000  -0.000023
    16  N    0.000000   0.000000   0.000000   0.000000   0.000000  -0.000001
    17  H   -0.000088  -0.000223  -0.000133   0.000000   0.000000  -0.000074
    18  H   -0.000359  -0.006577   0.000138   0.000001   0.000000   0.000047
    19  H    0.387138   0.000015  -0.000144   0.000011   0.000000   0.000000
    20  H    0.000015   0.561650  -0.024183  -0.000033  -0.000003   0.000984
    21  H   -0.000144  -0.024183   0.574958   0.002647   0.000004  -0.000013
    22  H    0.000011  -0.000033   0.002647   0.609813  -0.000167  -0.000112
    23  H    0.000000  -0.000003   0.000004  -0.000167   0.583122   0.000132
    24  H    0.000000   0.000984  -0.000013  -0.000112   0.000132   0.432775
    25  H    0.000000  -0.000021  -0.000001   0.000000   0.000001   0.000859
    26  H    0.000000  -0.000004   0.000000   0.000000   0.000000  -0.000011
    27  H    0.000000  -0.000003   0.000000   0.000000   0.000000   0.000017
    28  H    0.000000   0.000000   0.000000   0.000000   0.000000   0.000001
    29  H    0.000000   0.000000   0.000000   0.000000   0.000000   0.000000
    30  H    0.000000   0.000000   0.000000   0.000000   0.000000   0.000000
              25         26         27         28         29         30
     1  O    0.000968   0.001435   0.004168   0.003680   0.000004   0.000007
     2  C   -0.025654  -0.024927  -0.003359   0.003660  -0.000201  -0.000184
     3  N    0.000449  -0.000456   0.000168   0.000201  -0.000001   0.000002
     4  C    0.000172  -0.000266  -0.000007   0.000013   0.000000   0.000000
     5  C   -0.000013  -0.000019   0.000000   0.000000   0.000000   0.000000
     6  O    0.000000   0.000000   0.000000   0.000000   0.000000   0.000000
     7  O   -0.000001  -0.000004   0.000000   0.000000   0.000000   0.000000
     8  C    0.000001   0.000006   0.000001   0.000000   0.000000   0.000000
     9  C    0.000029  -0.000002   0.000000   0.000000   0.000000   0.000000
    10  C    0.000000   0.000000   0.000000   0.000000   0.000000   0.000000
    11  N    0.000000   0.000000   0.000000   0.000000   0.000000   0.000000
    12  C   -0.000007   0.000000   0.000000   0.000000   0.000000   0.000000
    13  N    0.000020   0.000004  -0.000001   0.000000   0.000000   0.000000
    14  C    0.359519   0.367345  -0.032894  -0.058509  -0.005132   0.006093
    15  C   -0.031733  -0.035700   0.392473   0.393338  -0.036934  -0.033902
    16  N    0.006704  -0.002907  -0.039493  -0.046202   0.336428   0.338944
    17  H    0.000809   0.001658   0.000002   0.000001   0.000000   0.000000
    18  H   -0.000012  -0.000011   0.000000  -0.000004   0.000000   0.000000
    19  H    0.000000   0.000000   0.000000   0.000000   0.000000   0.000000
    20  H   -0.000021  -0.000004  -0.000003   0.000000   0.000000   0.000000
    21  H   -0.000001   0.000000   0.000000   0.000000   0.000000   0.000000
    22  H    0.000000   0.000000   0.000000   0.000000   0.000000   0.000000
    23  H    0.000001   0.000000   0.000000   0.000000   0.000000   0.000000
    24  H    0.000859  -0.000011   0.000017   0.000001   0.000000   0.000000
    25  H    0.592463  -0.033187  -0.007169   0.006618  -0.000769  -0.000062
    26  H   -0.033187   0.603812   0.005700  -0.006246   0.005085  -0.000013
    27  H   -0.007169   0.005700   0.604577  -0.043271   0.006588  -0.004964
    28  H    0.006618  -0.006246  -0.043271   0.654646  -0.006576  -0.002042
    29  H   -0.000769   0.005085   0.006588  -0.006576   0.500913  -0.034083
    30  H   -0.000062  -0.000013  -0.004964  -0.002042  -0.034083   0.489182
 Mulliken charges:
               1
     1  O   -0.521470
     2  C    0.575067
     3  N   -0.551646
     4  C    0.025216
     5  C    0.594001
     6  O   -0.481474
     7  O   -0.470160
     8  C   -0.255756
     9  C    0.279907
    10  C   -0.018408
    11  N   -0.446967
    12  C    0.260628
    13  N   -0.520197
    14  C   -0.267556
    15  C   -0.046310
    16  N   -0.610680
    17  H    0.282871
    18  H    0.151288
    19  H    0.331613
    20  H    0.153578
    21  H    0.134228
    22  H    0.085318
    23  H    0.109827
    24  H    0.264498
    25  H    0.130016
    26  H    0.118709
    27  H    0.117467
    28  H    0.100691
    29  H    0.234677
    30  H    0.241023
 Sum of Mulliken charges =   0.00000
 Mulliken charges with hydrogens summed into heavy atoms:
               1
     1  O   -0.521470
     2  C    0.575067
     3  N   -0.268775
     4  C    0.176504
     5  C    0.594001
     6  O   -0.149862
     7  O   -0.470160
     8  C    0.032051
     9  C    0.279907
    10  C    0.066910
    11  N   -0.446967
    12  C    0.370455
    13  N   -0.255699
    14  C   -0.018831
    15  C    0.171848
    16  N   -0.134981
 APT charges:
               1
     1  O   -0.193267
     2  C    0.007996
     3  N   -0.517189
     4  C   -0.516598
     5  C   -0.060919
     6  O   -0.751866
     7  O   -0.090978
     8  C   -0.905958
     9  C   -0.488419
    10  C   -0.229133
    11  N    0.338420
    12  C   -0.508592
    13  N   -0.526768
    14  C   -0.542602
    15  C   -0.474279
    16  N   -1.819978
    17  H    0.460097
    18  H    0.456332
    19  H    1.039254
    20  H    0.297554
    21  H    0.599465
    22  H    0.741762
    23  H    0.594909
    24  H    0.110301
    25  H    0.238459
    26  H    0.419396
    27  H    0.264123
    28  H    0.420030
    29  H    0.624848
    30  H    1.013599
 Sum of APT charges =   0.00000
 APT charges with hydrogens summed into heavy atoms:
               1
     1  O   -0.193267
     2  C    0.007996
     3  N   -0.057092
     4  C   -0.060266
     5  C   -0.060919
     6  O    0.287387
     7  O   -0.090978
     8  C   -0.008939
     9  C   -0.488419
    10  C    0.512629
    11  N    0.338420
    12  C    0.086317
    13  N   -0.416467
    14  C    0.115253
    15  C    0.209874
    16  N   -0.181531
 Electronic spatial extent (au):  <R**2>=           4487.7922
 Charge=              0.0000 electrons
 Dipole moment (field-independent basis, Debye):
    X=             -3.4447    Y=             -1.2373    Z=              1.8885  Tot=              4.1186
 Quadrupole moment (field-independent basis, Debye-Ang):
   XX=            -94.6692   YY=           -102.8651   ZZ=            -84.9683
   XY=             -8.5647   XZ=              8.4322   YZ=             -4.0195
 Traceless Quadrupole moment (field-independent basis, Debye-Ang):
   XX=             -0.5017   YY=             -8.6975   ZZ=              9.1992
   XY=             -8.5647   XZ=              8.4322   YZ=             -4.0195
 Octapole moment (field-independent basis, Debye-Ang**2):
  XXX=           -239.2828  YYY=            -12.6766  ZZZ=             -8.0832  XYY=            -46.2663
  XXY=            -69.7419  XXZ=             22.8058  XZZ=            -17.9953  YZZ=            -14.7139
  YYZ=            -14.2256  XYZ=             -5.8699
 Hexadecapole moment (field-independent basis, Debye-Ang**3):
 XXXX=          -3464.5450 YYYY=           -766.9432 ZZZZ=          -1137.1331 XXXY=           -374.1407
 XXXZ=           -108.0947 YYYX=           -303.5848 YYYZ=             93.5323 ZZZX=           -182.8110
 ZZZY=             90.2520 XXYY=           -881.0970 XXZZ=           -724.8430 YYZZ=           -363.7672
 XXYZ=            130.5532 YYXZ=           -145.3626 ZZXY=            -57.3101
 N-N= 1.129097596152D+03 E-N=-4.115017800773D+03  KE= 7.891557206507D+02
  Exact polarizability:   0.000   0.000   0.000   0.000   0.000   0.000
 Approx polarizability: 189.283  -0.380 192.937  21.885  -4.274 153.749
 Calling FoFJK, ICntrl=    100147 FMM=F ISym2X=0 I1Cent= 0 IOpClX= 0 NMat=1 NMatS=1 NMatT=0.
 -------------------------------------------------------------------
 Center     Atomic                   Forces (Hartrees/Bohr)
 Number     Number              X              Y              Z
 -------------------------------------------------------------------
      1        8          -0.001122194   -0.005088152   -0.004035067
      2        6          -0.004496967   -0.001803532    0.001060810
      3        7           0.003039069    0.001114897    0.001215046
      4        6           0.000023507   -0.002772560    0.000080699
      5        6           0.006007319   -0.007284885   -0.000224541
      6        8          -0.001321645   -0.004067679   -0.003590341
      7        8          -0.004898606    0.010302383    0.005117571
      8        6           0.002953124    0.002398734   -0.003548624
      9        6          -0.002247844   -0.007998728    0.006072524
     10        6           0.005541012    0.007911692   -0.001856796
     11        7           0.003942396   -0.000802392    0.001167046
     12        6           0.003450113   -0.001321245    0.002622655
     13        7          -0.006895825    0.001863107   -0.005446053
     14        6           0.000740761    0.000645693   -0.000547367
     15        6          -0.003115265    0.001301326   -0.000289055
     16        7           0.002474146    0.002680130   -0.002317958
     17        1          -0.000608882    0.003142614    0.001067305
     18        1          -0.001975233   -0.001880235    0.001036569
     19        1           0.002732198    0.003640726    0.004860047
     20        1          -0.001925049   -0.002123405   -0.000329420
     21        1           0.001041934   -0.000997091    0.000350924
     22        1          -0.000116662    0.000251433   -0.000792826
     23        1          -0.000195537    0.003558862   -0.001996672
     24        1           0.000308211   -0.000115363   -0.000585667
     25        1          -0.001090234    0.001934539   -0.000067612
     26        1           0.000528707    0.000888779    0.002144638
     27        1           0.000205137   -0.001164365   -0.001463259
     28        1           0.000822628   -0.003144584   -0.000059192
     29        1          -0.002052430    0.000354591    0.002946788
     30        1          -0.001747891   -0.001425290   -0.002592173
 -------------------------------------------------------------------
 Cartesian Forces:  Max     0.010302383 RMS     0.003138384
 FormGI is forming the generalized inverse of G from B-inverse, IUseBI=4.

 GradGradGradGradGradGradGradGradGradGradGradGradGradGradGradGradGradGrad
 Berny optimization.
 Internal  Forces:  Max     0.012447590 RMS     0.002700249
 Search for a local minimum.
 Step number   1 out of a maximum of  160
 All quantities printed in internal units (Hartrees-Bohrs-Radians)
 Mixed Optimization -- RFO/linear search
 Second derivative matrix not updated -- analytic derivatives used.
 ITU=  0
     Eigenvalues ---   -0.00153  -0.00048   0.00208   0.00270   0.00303
     Eigenvalues ---    0.00404   0.00436   0.00582   0.00834   0.01009
     Eigenvalues ---    0.01750   0.01998   0.02078   0.02523   0.03224
     Eigenvalues ---    0.03412   0.04159   0.04241   0.04269   0.04364
     Eigenvalues ---    0.04599   0.04614   0.05166   0.05189   0.05259
     Eigenvalues ---    0.05480   0.06002   0.06177   0.07663   0.08058
     Eigenvalues ---    0.08375   0.10121   0.10705   0.10802   0.10979
     Eigenvalues ---    0.11736   0.11833   0.13495   0.15088   0.15169
     Eigenvalues ---    0.16156   0.17004   0.17772   0.19052   0.19652
     Eigenvalues ---    0.21347   0.21821   0.22756   0.23356   0.23759
     Eigenvalues ---    0.24615   0.25102   0.25326   0.26204   0.28176
     Eigenvalues ---    0.30489   0.32315   0.33129   0.33296   0.33679
     Eigenvalues ---    0.34075   0.34341   0.34545   0.34945   0.35343
     Eigenvalues ---    0.35958   0.37209   0.37763   0.37914   0.38390
     Eigenvalues ---    0.39527   0.42216   0.43803   0.45430   0.45554
     Eigenvalues ---    0.46077   0.46913   0.47533   0.48468   0.48911
     Eigenvalues ---    0.53697   0.58930   0.84017   0.92344
 RFO step:  Lambda=-3.81420401D-03 EMin=-1.53132227D-03
 Linear search not attempted -- first point.
 Iteration  1 RMS(Cart)=  0.31812148 RMS(Int)=  0.02968580
 Iteration  2 RMS(Cart)=  0.07356913 RMS(Int)=  0.00175773
 Iteration  3 RMS(Cart)=  0.00298456 RMS(Int)=  0.00097536
 Iteration  4 RMS(Cart)=  0.00000465 RMS(Int)=  0.00097535
 Iteration  5 RMS(Cart)=  0.00000000 RMS(Int)=  0.00097535
 Variable       Old X    -DE/DX   Delta X   Delta X   Delta X     New X
                                 (Linear)    (Quad)   (Total)
    R1        2.31538   0.00603   0.00000  -0.00155  -0.00155   2.31383
    R2        2.56742   0.01108   0.00000   0.03606   0.03606   2.60347
    R3        2.86976   0.00422   0.00000   0.00970   0.00970   2.87946
    R4        2.73373   0.00572   0.00000   0.02066   0.02066   2.75439
    R5        1.90789   0.00330   0.00000   0.00861   0.00861   1.91650
    R6        2.85472   0.00708   0.00000   0.01633   0.01633   2.87105
    R7        2.92214   0.00682   0.00000   0.00740   0.00740   2.92953
    R8        2.06835   0.00260   0.00000   0.00515   0.00515   2.07350
    R9        2.54252   0.00183   0.00000  -0.00281  -0.00281   2.53971
   R10        2.27858   0.01245   0.00000   0.01417   0.01417   2.29275
   R11        1.82484   0.00657   0.00000   0.01243   0.01243   1.83728
   R12        2.81965   0.00462   0.00000   0.00650   0.00650   2.82615
   R13        2.06182   0.00214   0.00000   0.00965   0.00965   2.07147
   R14        2.06063   0.00144   0.00000   0.00496   0.00496   2.06559
   R15        2.58438   0.00917   0.00000   0.01635   0.01629   2.60067
   R16        2.59558   0.00781   0.00000   0.01986   0.02008   2.61566
   R17        2.61386  -0.00288   0.00000  -0.01097  -0.01122   2.60264
   R18        2.04506  -0.00058   0.00000  -0.00082  -0.00082   2.04424
   R19        2.48318   0.00116   0.00000   0.00156   0.00146   2.48465
   R20        2.57273   0.00598   0.00000   0.01021   0.01039   2.58312
   R21        2.03324   0.00392   0.00000   0.01019   0.01019   2.04343
   R22        1.90439  -0.00014   0.00000   0.00142   0.00142   1.90581
   R23        2.87292   0.00519   0.00000   0.01440   0.01440   2.88733
   R24        2.06998   0.00139   0.00000   0.00457   0.00457   2.07455
   R25        2.07209   0.00175   0.00000   0.00509   0.00509   2.07718
   R26        2.76857   0.00234   0.00000   0.00312   0.00312   2.77169
   R27        2.06313   0.00154   0.00000   0.00285   0.00285   2.06597
   R28        2.07229   0.00258   0.00000   0.00956   0.00956   2.08184
   R29        1.91608   0.00360   0.00000   0.00800   0.00800   1.92408
   R30        1.91411   0.00342   0.00000   0.00738   0.00738   1.92148
    A1        2.11910   0.00296   0.00000   0.00072   0.00067   2.11977
    A2        2.15777  -0.00314   0.00000  -0.00593  -0.00598   2.15179
    A3        2.00623   0.00017   0.00000   0.00498   0.00493   2.01116
    A4        2.11381   0.00259   0.00000  -0.02920  -0.03550   2.07831
    A5        2.12025  -0.00180   0.00000  -0.01927  -0.02579   2.09446
    A6        2.01275  -0.00088   0.00000  -0.00376  -0.01068   2.00207
    A7        1.86647   0.00126   0.00000   0.01626   0.01639   1.88286
    A8        1.98585   0.00220   0.00000  -0.02381  -0.02391   1.96195
    A9        1.91864  -0.00219   0.00000  -0.02336  -0.02339   1.89525
   A10        1.94811  -0.00231   0.00000   0.00818   0.00821   1.95632
   A11        1.88660   0.00009   0.00000   0.00879   0.00873   1.89534
   A12        1.85647   0.00080   0.00000   0.01437   0.01396   1.87043
   A13        1.95306   0.00006   0.00000  -0.00040  -0.00040   1.95266
   A14        2.17674   0.00052   0.00000  -0.00305  -0.00305   2.17369
   A15        2.15338  -0.00058   0.00000   0.00345   0.00345   2.15683
   A16        1.85929   0.00104   0.00000   0.00460   0.00460   1.86389
   A17        1.98809   0.00672   0.00000   0.01328   0.01322   2.00132
   A18        1.86956  -0.00299   0.00000  -0.02413  -0.02437   1.84520
   A19        1.88923  -0.00205   0.00000   0.00776   0.00778   1.89701
   A20        1.93128   0.00050   0.00000   0.03217   0.03230   1.96358
   A21        1.90241  -0.00318   0.00000  -0.02054  -0.02048   1.88193
   A22        1.87988   0.00073   0.00000  -0.00999  -0.00990   1.86998
   A23        2.30846  -0.00171   0.00000  -0.01308  -0.01335   2.29511
   A24        2.14412   0.00549   0.00000   0.02306   0.02279   2.16691
   A25        1.83034  -0.00377   0.00000  -0.00953  -0.00919   1.82115
   A26        1.93295   0.00352   0.00000   0.01076   0.01070   1.94366
   A27        2.22697  -0.00141   0.00000  -0.00714  -0.00716   2.21980
   A28        2.12326  -0.00211   0.00000  -0.00358  -0.00360   2.11966
   A29        1.83473  -0.00039   0.00000  -0.00265  -0.00278   1.83195
   A30        1.94437   0.00254   0.00000   0.00763   0.00794   1.95231
   A31        2.20887  -0.00244   0.00000  -0.01139  -0.01155   2.19732
   A32        2.12995  -0.00010   0.00000   0.00376   0.00361   2.13356
   A33        1.88238  -0.00190   0.00000  -0.00618  -0.00676   1.87562
   A34        2.18322   0.00113   0.00000  -0.00870  -0.01012   2.17310
   A35        2.21629   0.00077   0.00000   0.01055   0.00895   2.22524
   A36        1.97306  -0.00058   0.00000  -0.00721  -0.00726   1.96580
   A37        1.90415   0.00125   0.00000   0.00636   0.00625   1.91040
   A38        1.90601  -0.00092   0.00000   0.00391   0.00388   1.90989
   A39        1.91253  -0.00062   0.00000  -0.01502  -0.01501   1.89753
   A40        1.91121   0.00156   0.00000   0.01899   0.01902   1.93023
   A41        1.85300  -0.00070   0.00000  -0.00704  -0.00696   1.84604
   A42        1.90346   0.00155   0.00000   0.00910   0.00904   1.91249
   A43        1.90329   0.00013   0.00000  -0.00880  -0.00881   1.89448
   A44        1.90240  -0.00083   0.00000   0.00210   0.00195   1.90435
   A45        1.89622  -0.00114   0.00000  -0.00132  -0.00127   1.89495
   A46        1.98959   0.00082   0.00000   0.01124   0.01116   2.00075
   A47        1.86723  -0.00060   0.00000  -0.01364  -0.01365   1.85358
   A48        1.91530   0.00024   0.00000   0.00313   0.00313   1.91843
   A49        1.91878  -0.00045   0.00000  -0.00566  -0.00566   1.91312
   A50        1.84761   0.00017   0.00000   0.00002   0.00002   1.84764
    D1       -0.13496  -0.00044   0.00000  -0.04857  -0.04752  -0.18248
    D2       -2.97666   0.00008   0.00000   0.16226   0.16116  -2.81549
    D3        3.02031  -0.00014   0.00000  -0.03081  -0.02971   2.99060
    D4        0.17861   0.00037   0.00000   0.18002   0.17897   0.35758
    D5        0.00069  -0.00029   0.00000   0.18766   0.18763   0.18831
    D6       -2.13194   0.00000   0.00000   0.20719   0.20719  -1.92475
    D7        2.13297   0.00066   0.00000   0.20992   0.20989   2.34287
    D8        3.12826  -0.00054   0.00000   0.16951   0.16951  -2.98541
    D9        0.99564  -0.00025   0.00000   0.18904   0.18908   1.18472
   D10       -1.02264   0.00041   0.00000   0.19178   0.19178  -0.83086
   D11       -2.83018   0.00127   0.00000   0.20993   0.20970  -2.62047
   D12        1.29374   0.00185   0.00000   0.20329   0.20325   1.49699
   D13       -0.78611   0.00092   0.00000   0.21720   0.21669  -0.56942
   D14        0.02896   0.00058   0.00000   0.00915   0.00945   0.03841
   D15       -2.13031   0.00116   0.00000   0.00251   0.00299  -2.12732
   D16        2.07303   0.00024   0.00000   0.01642   0.01643   2.08946
   D17        3.07468  -0.00107   0.00000   0.02374   0.02375   3.09843
   D18       -0.06475  -0.00096   0.00000   0.02313   0.02313  -0.04162
   D19       -1.02616   0.00107   0.00000   0.01047   0.01051  -1.01564
   D20        2.11760   0.00118   0.00000   0.00986   0.00990   2.12750
   D21        1.00960   0.00078   0.00000   0.03788   0.03783   1.04743
   D22       -2.12983   0.00090   0.00000   0.03727   0.03722  -2.09261
   D23        1.03415   0.00290   0.00000   0.17302   0.17297   1.20711
   D24       -1.10739   0.00006   0.00000   0.14091   0.14103  -0.96636
   D25       -3.13007   0.00178   0.00000   0.16112   0.16115  -2.96892
   D26       -1.08016   0.00139   0.00000   0.16285   0.16284  -0.91731
   D27        3.06149  -0.00145   0.00000   0.13075   0.13091  -3.09079
   D28        1.03881   0.00027   0.00000   0.15096   0.15103   1.18984
   D29       -3.13413   0.00205   0.00000   0.13921   0.13902  -2.99511
   D30        1.00752  -0.00079   0.00000   0.10711   0.10709   1.11460
   D31       -1.01516   0.00093   0.00000   0.12732   0.12720  -0.88796
   D32       -3.13012  -0.00078   0.00000  -0.04377  -0.04377   3.10930
   D33        0.00935  -0.00089   0.00000  -0.04317  -0.04317  -0.03383
   D34        1.96138  -0.00063   0.00000   0.21044   0.21034   2.17172
   D35       -1.15151  -0.00144   0.00000   0.18657   0.18633  -0.96518
   D36       -2.21443   0.00058   0.00000   0.21221   0.21247  -2.00195
   D37        0.95587  -0.00023   0.00000   0.18833   0.18847   1.14433
   D38       -0.15025  -0.00019   0.00000   0.20650   0.20653   0.05628
   D39        3.02004  -0.00100   0.00000   0.18262   0.18252  -3.08062
   D40       -3.12001  -0.00058   0.00000  -0.01827  -0.01813  -3.13814
   D41        0.01899  -0.00017   0.00000  -0.00372  -0.00357   0.01541
   D42       -0.00337   0.00024   0.00000   0.00292   0.00281  -0.00056
   D43        3.13563   0.00065   0.00000   0.01747   0.01737  -3.13019
   D44        3.12322   0.00019   0.00000   0.00737   0.00779   3.13101
   D45        0.03319   0.00016   0.00000   0.09290   0.09255   0.12574
   D46        0.00361  -0.00042   0.00000  -0.01070  -0.01056  -0.00695
   D47       -3.08642  -0.00045   0.00000   0.07483   0.07420  -3.01222
   D48        0.00179   0.00003   0.00000   0.00615   0.00625   0.00804
   D49       -3.13739  -0.00035   0.00000  -0.00738  -0.00734   3.13846
   D50        0.00059  -0.00030   0.00000  -0.01313  -0.01324  -0.01265
   D51        3.14121   0.00009   0.00000  -0.01191  -0.01213   3.12908
   D52       -0.00272   0.00046   0.00000   0.01546   0.01547   0.01276
   D53        3.08606   0.00050   0.00000  -0.07291  -0.07333   3.01273
   D54        3.13980   0.00010   0.00000   0.01431   0.01442  -3.12896
   D55       -0.05461   0.00013   0.00000  -0.07405  -0.07438  -0.12899
   D56       -3.13491   0.00041   0.00000   0.05823   0.05822  -3.07670
   D57       -1.06670   0.00001   0.00000   0.05681   0.05677  -1.00993
   D58        0.96610  -0.00110   0.00000   0.03677   0.03675   1.00284
   D59       -1.00699   0.00117   0.00000   0.05061   0.05068  -0.95630
   D60        1.06123   0.00077   0.00000   0.04919   0.04923   1.11046
   D61        3.09402  -0.00034   0.00000   0.02915   0.02921   3.12323
   D62        1.01890   0.00086   0.00000   0.04441   0.04439   1.06329
   D63        3.08712   0.00046   0.00000   0.04299   0.04294   3.13006
   D64       -1.16327  -0.00065   0.00000   0.02295   0.02292  -1.14035
   D65       -1.23557  -0.00003   0.00000  -0.01874  -0.01878  -1.25435
   D66        3.02231  -0.00010   0.00000  -0.01731  -0.01735   3.00496
   D67        2.97498  -0.00041   0.00000  -0.01260  -0.01262   2.96237
   D68        0.94968  -0.00049   0.00000  -0.01118  -0.01119   0.93849
   D69        0.89479   0.00062   0.00000  -0.00156  -0.00151   0.89329
   D70       -1.13051   0.00054   0.00000  -0.00013  -0.00008  -1.13059
         Item               Value     Threshold  Converged?
 Maximum Force            0.012448     0.000450     NO 
 RMS     Force            0.002700     0.000300     NO 
 Maximum Displacement     1.180444     0.001800     NO 
 RMS     Displacement     0.373462     0.001200     NO 
 Predicted change in Energy=-3.049202D-03
 GradGradGradGradGradGradGradGradGradGradGradGradGradGradGradGradGradGrad

                          Input orientation:                          
 ---------------------------------------------------------------------
 Center     Atomic      Atomic             Coordinates (Angstroms)
 Number     Number       Type             X           Y           Z
 ---------------------------------------------------------------------
      1          8           0       -1.218855   -1.914984   -0.541417
      2          6           0       -1.359309   -0.740590   -0.224737
      3          7           0       -0.393895   -0.069149    0.493036
      4          6           0        0.706655   -0.824236    1.078794
      5          6           0        1.154153   -0.097408    2.335663
      6          8           0        2.136712   -0.756985    2.972650
      7          8           0        0.686597    0.951460    2.727193
      8          6           0        1.874253   -1.037013    0.081451
      9          6           0        2.633353    0.204150   -0.264821
     10          6           0        3.972599    0.508471   -0.176629
     11          7           0        4.225175    1.791273   -0.609601
     12          6           0        3.049861    2.272125   -0.950432
     13          7           0        2.053160    1.353764   -0.772394
     14          6           0       -2.571252    0.093403   -0.621530
     15          6           0       -3.695842   -0.750876   -1.219018
     16          7           0       -4.787997    0.124579   -1.657236
     17          1           0       -0.630255    0.785936    0.984463
     18          1           0        0.337425   -1.817937    1.361958
     19          1           0        2.384726   -0.216832    3.742054
     20          1           0        1.429656   -1.516164   -0.798522
     21          1           0        2.579607   -1.750671    0.514993
     22          1           0        4.768613   -0.137810    0.168191
     23          1           0        2.857197    3.266568   -1.328913
     24          1           0        1.059363    1.501703   -0.859444
     25          1           0       -2.269444    0.849920   -1.357582
     26          1           0       -2.931330    0.654086    0.252659
     27          1           0       -3.305504   -1.283465   -2.090347
     28          1           0       -3.990927   -1.524698   -0.492527
     29          1           0       -5.277240    0.500742   -0.847399
     30          1           0       -5.476945   -0.419750   -2.170018
 ---------------------------------------------------------------------
                    Distance matrix (angstroms):
                    1          2          3          4          5
     1  O    0.000000
     2  C    1.224425   0.000000
     3  N    2.271071   1.377699   0.000000
     4  C    2.742700   2.444258   1.457559   0.000000
     5  C    4.148776   3.645110   2.406767   1.519294   0.000000
     6  O    4.994944   4.737691   3.609096   2.374085   1.343955
     7  O    4.746690   3.970221   2.683387   2.422957   1.213272
     8  C    3.275075   3.261524   2.500132   1.550243   2.546149
     9  C    4.405309   4.103107   3.132614   2.564185   3.006907
    10  C    5.740854   5.476469   4.455151   3.744141   3.823917
    11  N    6.586233   6.143689   5.100274   4.698037   4.655414
    12  C    5.993423   5.389237   4.407337   4.381305   4.472898
    13  N    4.630783   4.041188   3.100657   3.159693   3.546003
    14  C    2.422605   1.523744   2.451441   3.804975   4.760257
    15  C    2.819531   2.539308   3.781367   4.966618   6.048573
    16  N    4.259535   3.815294   4.895848   6.211063   7.162518
    17  H    3.157488   2.079415   1.014168   2.094966   2.406273
    18  H    2.460542   2.560700   2.085214   1.097248   2.139011
    19  H    5.849585   5.479740   4.277694   3.205904   1.872567
    20  H    2.690682   2.951113   2.662201   2.127395   3.451360
    21  H    3.946051   4.133101   3.416097   2.164279   2.842541
    22  H    6.285831   6.170022   5.173174   4.218991   4.214723
    23  H    6.639490   5.920763   5.001610   5.211196   5.257929
    24  H    4.118880   3.358676   2.531548   3.048141   3.574193
    25  H    3.068315   2.154392   2.790548   4.194745   5.124306
    26  H    3.187985   2.155059   2.649419   4.012837   4.647023
    27  H    2.674341   2.750071   4.077487   5.133397   6.394125
    28  H    2.799838   2.758976   4.003573   5.002696   6.042157
    29  H    4.732847   4.156777   5.095939   6.424390   7.200867
    30  H    4.797853   4.565302   5.749102   6.996806   8.023499
                    6          7          8          9         10
     6  O    0.000000
     7  O    2.254300   0.000000
     8  C    2.916562   3.516319   0.000000
     9  C    3.413451   3.646982   1.495534   0.000000
    10  C    3.858733   4.407520   2.618813   1.376216   0.000000
    11  N    4.867013   4.935688   3.742137   2.274144   1.377258
    12  C    5.039833   4.566628   3.660223   2.218122   2.135578
    13  N    4.299720   3.778419   2.544970   1.384148   2.180299
    14  C    5.983829   4.750136   4.640532   5.217990   6.572078
    15  C    7.182535   6.138102   5.727046   6.471575   7.840761
    16  N    8.376431   7.062445   6.982686   7.551264   8.893122
    17  H    3.740267   2.190572   3.226629   3.542644   4.755144
    18  H    2.637685   3.107306   2.147413   3.465044   4.581912
    19  H    0.972244   2.297497   3.785934   4.036594   4.289929
    20  H    3.911268   4.367146   1.096177   2.166380   3.309450
    21  H    2.687684   3.972258   1.093065   2.105308   2.742716
    22  H    3.895545   4.939418   3.032064   2.205396   1.081766
    23  H    5.933929   5.150070   4.634232   3.249738   3.190451
    24  H    4.576822   3.647696   2.827438   2.124774   3.152728
    25  H    6.383358   5.043201   4.775097   5.064441   6.361945
    26  H    5.922374   4.393307   5.097328   5.606774   6.918795
    27  H    7.451767   6.643828   5.622039   6.388706   7.735899
    28  H    7.081299   6.194932   5.913343   6.849952   8.225042
    29  H    8.434532   6.967655   7.373690   7.937559   9.274132
    30  H    9.193941   7.990754   7.712992   8.354398   9.702015
                   11         12         13         14         15
    11  N    0.000000
    12  C    1.314818   0.000000
    13  N    2.221613   1.366930   0.000000
    14  C    7.005307   6.037542   4.795462   0.000000
    15  C    8.341249   7.396972   6.138405   1.527908   0.000000
    16  N    9.225653   8.157423   7.006802   2.446961   1.466716
    17  H    5.208354   4.415409   3.257253   2.612716   4.076143
    18  H    5.659333   5.425225   4.190334   4.005977   4.905844
    19  H    5.133872   5.353199   4.791341   6.610509   7.865796
    20  H    4.334716   4.123018   2.936993   4.316167   5.199347
    21  H    4.064231   4.307145   3.401769   5.587812   6.586930
    22  H    2.149801   3.164366   3.237773   7.385847   8.599256
    23  H    2.136649   1.081334   2.148256   6.327512   7.687278
    24  H    3.188831   2.136332   1.008512   3.901445   5.274029
    25  H    6.604975   5.521182   4.391038   1.097806   2.148572
    26  H    7.297414   6.311903   5.136674   1.099194   2.173530
    27  H    8.267875   7.371045   6.116148   2.142969   1.093266
    28  H    8.860796   8.012380   6.700363   2.156472   1.101664
    29  H    9.592597   8.514049   7.380247   2.745781   2.050723
    30  H   10.072471   9.024412   7.861374   3.332296   2.046063
                   16         17         18         19         20
    16  N    0.000000
    17  H    4.970189   0.000000
    18  H    6.257703   2.803402   0.000000
    19  H    8.984256   4.207133   3.524179   0.000000
    20  H    6.487575   3.566782   2.439612   4.818428   0.000000
    21  H    7.906752   4.118009   2.397761   3.578347   1.761449
    22  H    9.732925   5.537814   4.887058   4.296704   3.739389
    23  H    8.272175   4.864932   6.280305   6.170253   5.019333
    24  H    6.060079   2.601371   4.059043   5.087606   3.041109
    25  H    2.637996   2.859407   4.616181   6.986097   4.426538
    26  H    2.715749   2.418236   4.245728   6.418320   4.983288
    27  H    2.089966   4.570977   5.047277   8.217866   4.913726
    28  H    2.170709   4.337585   4.718022   7.764737   5.429219
    29  H    1.018181   5.003151   6.463900   8.960118   7.003767
    30  H    1.016804   5.907185   6.945264   9.838682   7.126308
                   21         22         23         24         25
    21  H    0.000000
    22  H    2.741047   0.000000
    23  H    5.352544   4.181461   0.000000
    24  H    3.844237   4.183607   2.562685   0.000000
    25  H    5.812306   7.268964   5.667755   3.428399   0.000000
    26  H    6.018480   7.741017   6.544728   4.228576   1.751948
    27  H    6.452954   8.461967   7.698146   5.322062   2.482277
    28  H    6.651171   8.893230   8.399557   5.899081   3.057881
    29  H    8.285833  10.117230   8.605272   6.415186   3.070676
    30  H    8.595852  10.512763   9.151739   6.937789   3.544035
                   26         27         28         29         30
    26  H    0.000000
    27  H    3.063297   0.000000
    28  H    2.534788   1.755285   0.000000
    29  H    2.595561   2.935312   2.425477   0.000000
    30  H    3.674595   2.338270   2.498627   1.623733   0.000000
 Symmetry turned off by external request.
 Stoichiometry    C9H14N4O3
 Framework group  C1[X(C9H14N4O3)]
 Deg. of freedom    84
 Full point group                 C1      NOp   1
 Rotational constants (GHZ):      0.8114602      0.2744738      0.2386886
 Standard basis: 6-31G(d,p) (6D, 7F)
   310 basis functions,   546 primitive gaussians,   310 cartesian basis functions
    60 alpha electrons       60 beta electrons
       nuclear repulsion energy      1116.4429347092 Hartrees.
 NAtoms=   30 NActive=   30 NUniq=   30 SFac= 1.00D+00 NAtFMM=   60 NAOKFM=F Big=F
 Integral buffers will be    131072 words long.
 Raffenetti 2 integral format.
 Two-electron integral symmetry is turned off.
 One-electron integrals computed using PRISM.
 NBasis=   310 RedAO= T EigKep=  1.29D-03  NBF=   310
 NBsUse=   310 1.00D-06 EigRej= -1.00D+00 NBFU=   310
 Initial guess from the checkpoint file:  "conf-150.chk"
 B after Tr=     0.036596    0.007159   -0.024314
         Rot=    0.999968    0.001136    0.007893   -0.000404 Ang=   0.91 deg.
[...]
 2827,0.00009573,-0.00005162,0.00007236,0.00010807,0.00045434,-0.000029
 33,-0.00002989,0.00004449,0.00001418,0.00003843,0.00002680,-0.00002432
 ,-0.00033018,-0.00089059,-0.00021148,-0.00003030,0.00003183,-0.0003765
 0,0.00070296,0.00126683,0.00085384,0.00074281,-0.00059478,-0.00002264,
 0.00528541,0.05075247,-0.00003720,-0.00157078,-0.00130152,0.00251178,0
 .00226600,0.00299420,-0.00301692,-0.00293912,0.00068056,-0.00098250,0.
 00147641,-0.00097853,-0.00066027,0.00069631,-0.00044230,0.00050276,-0.
 00022682,0.00029619,0.00023172,-0.00047698,0.00029509,0.00089966,-0.00
 017705,-0.00043691,-0.01052727,-0.00886637,-0.00713435,-0.00214723,0.0
 0398036,-0.00060928,-0.00016517,0.00275702,0.00569965,0.00637445,-0.00
 518661,-0.00395114,-0.15604030,0.02304096,-0.07923111,-0.00015986,-0.0
 0006338,0.00010294,0.00018844,0.00011242,-0.00001327,-0.00011212,0.000
 02534,-0.00013638,0.00100369,0.00041502,-0.00119832,0.00019138,-0.0001
 3263,-0.00006384,-0.00006005,0.00002954,-0.00004644,-0.00012618,-0.000
 15258,0.00002155,0.00003043,-0.00020565,-0.00008025,-0.00117107,0.0001
 9374,0.00140027,0.00023794,-0.00034450,-0.00097023,0.16313554,-0.01471
 263,0.08520550,-0.00188624,-0.00069819,0.00232780,0.00770656,0.0131519
 8,-0.02493736,-0.00250687,-0.00069764,0.00090426,-0.00057242,-0.000502
 59,0.00104812,0.00012101,0.00000116,0.00027182,-0.00006340,0.00002263,
 -0.00008880,-0.00004770,-0.00006191,-0.00013063,-0.00021934,0.00015383
 ,-0.00032102,-0.00001644,0.00019124,-0.00009226,0.00006969,0.00001813,
 0.00003259,0.00010029,-0.00006133,0.00006711,-0.00012668,-0.00017802,0
 .00002486,-0.00002585,0.00003355,0.00001694,-0.05567147,-0.02384627,0.
 04705182,-0.00881848,-0.01579209,0.02487497,0.00250218,0.00114463,0.00
 038430,0.00010461,0.00057067,-0.00038894,0.00001148,0.00003695,0.00002
 359,0.00001456,0.00000237,0.00000573,0.00007717,0.00000455,-0.00005670
 ,-0.00012876,0.00001680,0.00007292,0.00001381,0.00000190,0.00000689,-0
 .00000745,-0.00001042,0.00000209,-0.00023080,-0.00002485,-0.00014178,0
 .06426949,0.00271950,0.00037854,-0.00235307,-0.00536963,-0.01030012,0.
 01600182,0.00020171,0.00010799,-0.00064230,0.00035042,0.00008244,-0.00
 015123,0.00003102,-0.00001338,-0.00010243,-0.00000015,0.00000906,0.000
 01537,-0.00003018,0.00002939,0.00004683,0.00004595,-0.00001542,0.00007
 791,0.00004058,-0.00004901,0.00003943,-0.00001788,-0.00000818,-0.00000
 914,-0.00003181,0.00000777,-0.00002038,0.00003766,0.00006031,-0.000018
 65,0.00002305,-0.00002053,-0.00005416,-0.02713916,-0.10522676,0.106424
 70,-0.00742727,-0.01181610,0.01757249,0.00200306,0.00145934,-0.0007595
 7,0.00013715,0.00012095,-0.00009724,-0.00006710,-0.00001190,-0.0000771
 4,-0.00000400,-0.00000359,0.00000491,-0.00005901,-0.00001475,0.0000542
 5,0.00002423,0.00000519,-0.00001259,-0.00000523,-0.00000041,0.00000261
 ,-0.00000592,0.00000094,0.00000620,0.00007510,0.00010571,0.00011194,0.
 03188593,0.11476775,-0.00010744,-0.00094055,0.00030023,0.00056867,0.00
 324643,-0.00708269,-0.00120190,0.00018942,0.00094733,-0.00052791,-0.00
 022538,0.00032276,0.00008147,-0.00001490,0.00001856,-0.00004880,0.0000
 1614,-0.00002718,-0.00007999,-0.00001310,0.00001968,-0.00006391,0.0001
 2616,-0.00017154,-0.00003812,0.00016172,-0.00008751,0.00005018,0.00002
 008,0.00002616,0.00011108,-0.00004083,0.00005890,-0.00013461,-0.000144
 58,0.00000743,0.00001764,-0.00004187,0.00002509,0.05252931,0.10512583,
 -0.23356792,-0.00142673,-0.00223228,0.00448988,0.00006709,-0.00087294,
 0.00038092,0.00048124,0.00054508,-0.00041066,0.00007688,-0.00003631,0.
 00002379,0.00001360,0.00000890,-0.00000789,-0.00001364,-0.00000326,-0.
 00001187,-0.00006043,-0.00001160,0.00004405,0.00001451,-0.00000080,0.0
 0000378,-0.00001251,-0.00000913,0.00000829,-0.00030335,0.00006529,-0.0
 0004692,-0.05406537,-0.11547194,0.25174427,-0.00387110,0.00509342,-0.0
 0329745,-0.00022034,0.01533518,0.02276582,-0.00030430,-0.00110756,-0.0
 0110164,0.00028247,-0.00023046,-0.00005703,-0.00009335,0.00028708,0.00
 014932,0.00005969,-0.00009341,-0.00001025,0.00008444,-0.00019256,-0.00
 011372,0.00006810,-0.00004256,0.00006781,0.00000563,0.00003774,-0.0000
 2537,0.00001465,-0.00000545,0.00000437,-0.00000002,-0.00003418,0.00001
 017,-0.00002757,-0.00001696,-0.00000248,0.00002248,-0.00002998,-0.0000
 2770,-0.05982584,0.03086699,0.03116533,0.00542728,-0.02049050,-0.02152
 903,0.00219328,-0.00003014,0.00074521,-0.00170238,0.00053538,-0.001084
 21,0.00014532,-0.00004281,0.00016287,-0.00001451,0.00000809,-0.0000058
 1,0.00009690,-0.00000828,-0.00005435,0.00001510,-0.00000417,-0.0000224
 0,0.00000013,0.00000124,0.00000327,-0.00000695,-0.00000465,0.00000814,
 -0.00002535,0.00010168,0.00005451,-0.00163177,0.00496146,0.00500484,0.
 06362079,0.00485616,-0.00203024,0.00191311,-0.00121936,-0.01491883,-0.
 01551612,-0.00110130,0.00124834,0.00041613,-0.00009520,-0.00018915,0.0
 0076110,0.00024107,-0.00027785,-0.00012162,-0.00009205,0.00009814,-0.0
 0001097,-0.00018149,0.00014806,0.00010936,-0.00013635,0.00013030,-0.00
 014893,0.00000170,0.00000762,0.00001707,-0.00000439,0.00000470,0.00000
 571,0.00000144,0.00000288,-0.00000052,0.00000203,0.00000368,-0.0000022
 1,-0.00000631,0.00000379,0.00000852,0.03260872,-0.16687438,-0.12276674
 ,0.00400742,-0.01338611,-0.01334536,0.00039268,0.00110435,0.00093979,0
 .00097559,0.00093679,0.00035572,-0.00001539,0.00005127,-0.00009223,0.0
 0002750,-0.00000499,0.00000772,-0.00007809,-0.00001511,0.00005007,-0.0
 0005425,0.00000135,0.00004656,0.00000299,-0.00000132,-0.00000192,0.000
 00019,-0.00000016,-0.00000092,0.00000587,-0.00000620,-0.00001363,-0.00
 304681,0.01156152,0.01077596,-0.03375422,0.18284156,-0.00152863,0.0026
 1318,0.00038425,-0.00288905,0.00685386,0.00551657,0.00001478,0.0004595
 7,-0.00020672,0.00021104,0.00006100,0.00050252,0.00009315,-0.00013588,
 -0.00008456,-0.00001449,0.00003661,0.00002839,-0.00002124,0.00010851,0
 .00003034,-0.00003045,-0.00000883,-0.00004569,-0.00000365,-0.00002456,
 0.00000440,-0.00001112,0.00000108,-0.00000255,-0.00000433,0.00002859,-
 0.00000436,0.00002122,0.00000342,0.00001048,-0.00003409,0.00003629,0.0
 0004867,0.03333304,-0.12444233,-0.17357560,0.00113521,-0.00339778,-0.0
 0370505,0.00008743,0.00054636,0.00032661,-0.00036063,0.00029780,0.0005
 4865,-0.00000120,0.00004909,-0.00000212,0.00000152,-0.00001006,0.00000
 696,0.00000521,0.00003027,0.00000888,0.00000029,0.00000073,0.00001842,
 -0.00000154,-0.00000007,-0.00000409,0.00001065,0.00000275,-0.00001380,
 0.00002114,-0.00011109,-0.00010340,0.00553184,-0.01985231,-0.01904366,
 -0.03266844,0.13650974,0.18710274,-0.00084779,0.00162488,0.00113081,0.
 00061288,-0.00275859,-0.00201734,0.00056796,0.00111299,0.00069505,-0.0
 0018965,0.00025111,0.00000991,0.00000546,-0.00009477,-0.00014716,0.000
 02176,0.00002115,0.00005849,-0.00001277,0.00007679,0.00010648,-0.00001
 341,-0.00001991,-0.00001495,-0.00001476,-0.00002386,0.00000831,-0.0000
 1392,0.00000237,-0.00000660,0.00001363,0.00003231,-0.00000639,0.000006
 47,0.00000127,0.00000119,0.00001339,0.00001130,0.00001149,0.00547691,-
 0.02051341,-0.01990736,-0.06089561,0.03939983,0.04122554,-0.00940918,0
 .02247414,0.01573548,0.00046953,-0.00013909,0.00025136,-0.00007216,-0.
 00001535,-0.00008037,-0.00000025,-0.00000152,-0.00000339,-0.00005185,0
 .00001043,0.00003018,0.00001257,0.00000145,0.00000449,-0.00000146,-0.0
 0000103,-0.00000059,0.00000349,0.00000365,-0.00000394,0.00001049,-0.00
 005232,0.00000134,0.00134845,0.00049960,0.00031681,-0.00530506,-0.0031
 7236,-0.00129221,0.07260230,0.00146104,0.00076918,0.00154057,0.0010177
 9,-0.00158047,-0.00044024,-0.00013405,0.00000406,-0.00021267,0.0000354
 9,0.00000364,0.00003165,0.00004477,-0.00003303,-0.00000642,-0.00003134
 ,0.00001828,-0.00001787,-0.00003329,0.00003788,0.00000187,-0.00000501,
 0.00000207,-0.00002013,-0.00000143,0.00000311,0.00000438,0.00000067,0.
 00000275,0.00000202,0.00000004,-0.00000041,0.00000428,-0.00000217,-0.0
 0000321,0.00000121,-0.00001059,0.00001070,0.00001998,0.00068608,-0.013
 82105,-0.01407733,0.04107409,-0.17665755,-0.12271444,0.00675749,-0.016
 19095,-0.01136895,0.00005713,0.00007154,0.00011794,-0.00002377,0.00001
 990,-0.00001258,0.00000222,-0.00000275,0.00000277,-0.00001144,0.000005
 75,0.00000452,-0.00000551,0.00000178,0.00000863,0.00000108,-0.00000040
 ,-0.00000132,0.00000197,-0.00000173,-0.00000428,0.00001309,-0.00002164
 ,-0.00004374,0.00069429,0.00041947,0.00007238,-0.00282454,-0.00134590,
 -0.00013349,-0.04818622,0.19686228,0.00127037,0.00198638,0.00090753,0.
 00065702,-0.00357096,-0.00105658,0.00012176,0.00077333,0.00043142,-0.0
 0006349,0.00003733,-0.00003195,0.00002111,-0.00006312,-0.00010376,-0.0
 0000534,0.00002043,0.00002085,-0.00002796,0.00005851,0.00008564,0.0000
 0336,-0.00001640,-0.00000721,-0.00000514,-0.00002340,0.00001515,-0.000
 01049,0.00000050,-0.00000342,-0.00000266,0.00002003,-0.00000887,0.0000
 1486,0.00001258,0.00000022,0.00000376,0.00000334,-0.00000167,-0.000058
 17,-0.00324086,-0.00433733,0.04276061,-0.12830519,-0.17858164,-0.00415
 076,0.01270640,0.01177251,0.00010591,0.00002475,0.00013829,-0.00001791
 ,-0.00000201,-0.00004506,0.00000371,-0.00000160,-0.00000285,-0.0000372
 5,0.00000114,0.00002780,0.00000617,0.00000129,-0.00000078,-0.00000156,
 -0.00000070,-0.00000140,0.00000264,0.00000318,-0.00000178,0.00001682,-
 0.00002169,0.00001780,-0.00040942,0.00047192,0.00099437,-0.00117697,-0
 .00024254,0.00128273,-0.04257216,0.13511150,0.18638193,0.00008246,0.00
 134361,-0.00028482,0.00149474,-0.00257402,0.00121155,-0.00051354,0.000
 31450,-0.00056652,0.00010021,-0.00017285,0.00002190,0.00001214,0.00002
 877,0.00010989,-0.00004765,0.00001490,-0.00008193,-0.00001126,0.000005
 39,-0.00008288,-0.00002659,0.00003516,-0.00001920,0.00004191,-0.000055
 13,0.00004493,-0.00001600,-0.00001066,-0.00000514,-0.00006871,-0.00000
 536,-0.00002862,0.00007011,0.00007557,-0.00000229,-0.00004030,-0.00000
 053,-0.00001599,-0.00990177,-0.01219817,0.02321791,-0.07137432,-0.0305
 3299,0.05834859,0.00198828,0.01910216,-0.02747354,0.00000308,-0.000015
 06,0.00018967,-0.00004805,0.00005452,0.00000170,-0.00000656,-0.0000083
 8,0.00001040,0.00000942,-0.00001641,-0.00000324,-0.00002370,0.00000489
 ,0.00000150,-0.00000508,0.00000162,-0.00000209,0.00000424,0.00000297,-
 0.00000080,0.00011176,0.00000921,0.00001505,-0.00479206,-0.00335599,-0
 .00129548,0.00127088,0.00056259,-0.00059968,-0.00100663,-0.00351907,0.
 00568549,0.07988389,-0.00012643,0.00077780,0.00023486,0.00073217,-0.00
 136413,0.00030532,-0.00025366,0.00030221,-0.00040022,0.00003654,-0.000
 08953,-0.00003613,-0.00006302,0.00007157,0.00007852,0.00000675,-0.0000
 1197,-0.00004029,0.00004650,-0.00001617,-0.00007037,-0.00002076,0.0000
 0716,-0.00000310,0.00002171,-0.00004100,0.00002259,-0.00001439,-0.0000
 0802,-0.00000691,-0.00003693,0.00001137,-0.00002366,0.00004517,0.00004
 105,0.00000304,-0.00002004,0.00000262,-0.00000987,-0.00924972,-0.00818
 849,0.01537352,-0.03152980,-0.09932622,0.08474085,0.00473522,-0.012519
 09,0.02038910,-0.00007223,-0.00006839,0.00015626,-0.00003343,0.0000400
 1,-0.00000126,-0.00001825,-0.00000671,0.00000356,0.00000943,-0.0000061
 3,-0.00000753,-0.00000990,0.00000308,-0.00000175,-0.00000529,0.0000014
 8,-0.00000088,0.00000409,0.00000408,-0.00000053,0.00006718,-0.00001256
 ,0.00001710,-0.00300191,-0.00148004,-0.00030136,0.00105128,0.00046999,
 0.00038220,0.00625083,0.01148705,-0.01832914,0.03217136,0.10892570,-0.
 00004256,-0.00093723,0.00059509,0.00008998,0.00130845,0.00033790,0.000
 37585,-0.00027681,0.00001626,0.00002491,0.00009508,0.00000602,0.000034
 37,-0.00001311,-0.00003018,-0.00000445,-0.00000943,0.00003056,-0.00002
 299,-0.00001534,0.00002666,0.00001318,-0.00001986,0.00000500,-0.000013
 07,0.00002004,-0.00000209,0.00000584,0.00000520,0.00000453,0.00001033,
 -0.00001758,0.00001446,-0.00002179,-0.00001164,-0.00000532,0.00001127,
 0.00000301,0.00001130,-0.00196324,-0.00401533,0.00507159,0.06095358,0.
 08497967,-0.21846590,-0.00637668,0.01182155,-0.00923362,-0.00000517,0.
 00004205,-0.00011383,0.00002271,-0.00003050,-0.00000251,0.00001634,0.0
 0001006,-0.00000314,-0.00000509,0.00000463,-0.00000244,0.00001001,-0.0
 0000185,-0.00000059,0.00000380,-0.00000119,0.00000002,-0.00000251,-0.0
 0000445,-0.00000024,0.00000433,0.00001036,-0.00001976,-0.00189284,-0.0
 0093506,0.00106217,0.00044693,0.00043840,0.00091091,0.00779899,0.01049
 729,-0.01921597,-0.05815666,-0.10213854,0.23714375,-0.00016865,-0.0010
 5214,-0.00034382,-0.00050424,0.00110743,-0.00038881,0.00006463,-0.0001
 8578,0.00001096,-0.00004673,0.00003712,-0.00002827,-0.00007232,0.00006
 861,-0.00001913,0.00005475,-0.00003967,0.00004255,0.00005049,-0.000056
 80,0.00000491,0.00000691,-0.00000582,0.00001560,-0.00000908,0.00001727
 ,-0.00001837,0.00000303,0.00000101,-0.00000073,0.00002605,-0.00000322,
 0.00000796,-0.00002784,-0.00001823,-0.00000445,0.00002707,-0.00000853,
 -0.00000402,0.00098368,0.00125311,0.00165647,-0.00948884,0.01551223,0.
 02488491,-0.10447720,0.09661857,0.08562552,-0.00008609,0.00000660,-0.0
 0007022,0.00001405,-0.00001338,0.00000515,-0.00000630,0.00000795,-0.00
 001045,-0.00000061,0.00000392,-0.00000155,0.00001049,-0.00000117,-0.00
 000113,0.00000105,-0.00000095,0.00000288,-0.00000581,-0.00000194,0.000
 00464,-0.00003081,0.00002028,0.00001528,-0.00009425,0.00008580,0.00005
 951,-0.00061005,-0.00073218,-0.00093430,-0.00385935,0.00291828,-0.0029
 5297,0.00142324,-0.00061042,-0.00105044,0.10637935,0.00011592,0.000063
 67,0.00010925,0.00012140,-0.00031192,-0.00004963,-0.00007466,-0.000004
 56,0.00006310,0.00000444,0.00000494,-0.00002588,0.00000682,0.00002688,
 -0.00000578,-0.00000168,-0.00001428,0.00000790,-0.00000959,-0.00002871
 ,0.00000972,0.00000937,0.00000169,-0.00000520,-0.00000292,0.00001558,-
 0.00000281,0.00000436,0.00000218,0.00000300,0.00000872,-0.00001740,0.0
 0000820,-0.00001670,-0.00000353,-0.00000654,0.00000792,-0.00000647,0.0
 0000113,-0.00072054,0.00122144,0.00055254,0.01080801,-0.01775552,-0.01
 644206,0.07052565,-0.15868099,-0.15089945,0.00000709,0.00006542,-0.000
 04039,0.00000666,-0.00001028,-0.00000315,0.00000667,0.00000803,-0.0000
 0469,-0.00000446,-0.00000057,0.00000150,0.00000055,-0.00000137,0.00000
 225,0.00000255,-0.00000101,0.00000128,-0.00000482,-0.00000294,0.000003
 64,-0.00000775,0.00002419,-0.00000531,-0.00005632,-0.00003017,0.000282
 28,0.00054525,0.00035653,-0.00022631,0.00333418,-0.00093956,0.00299311
 ,-0.00171113,0.00089745,-0.00103254,-0.09241591,0.19047365,-0.00023341
 ,0.00007974,-0.00006611,0.00009369,0.00012905,0.00008002,0.00012369,-0
 .00002495,-0.00003246,-0.00003515,0.00003330,0.00001172,-0.00004226,-0
 .00000116,-0.00002417,0.00003391,-0.00000500,0.00002317,0.00003579,0.0
 0000856,0.00000650,-0.00000789,-0.00001211,0.00001141,-0.00000552,-0.0
 0001031,-0.00000483,-0.00000563,-0.00000090,-0.00000443,0.00000607,0.0
 0002267,-0.00000557,0.00000399,-0.00000787,0.00000598,0.00000748,0.000
 00636,0.00000084,0.00075845,0.00023695,0.00073439,-0.00898289,0.017055
 91,0.00786639,0.08387571,-0.19963528,-0.23404885,-0.00004119,-0.000049
 61,0.00001401,-0.00000113,0.00000118,0.00000168,-0.00001039,-0.0000039
 2,-0.00000142,0.00000009,0.00000441,-0.00000038,0.00000618,0.00000117,
 -0.00000325,-0.00000246,0.00000035,-0.00000040,0.00000342,0.00000263,-
 0.00000254,-0.00000270,-0.00002755,0.00001114,0.00007961,-0.00013025,-
 0.00028165,0.00034462,-0.00031085,-0.00001718,-0.00230875,0.00190823,0
 .00040505,-0.00019094,0.00047344,0.00204731,-0.08303559,0.18313166,0.2
 3524584,0.00005124,0.00074744,0.00020781,-0.00024675,-0.00276390,-0.00
 045705,-0.00096339,0.00060386,-0.00033232,0.00010769,-0.00027566,-0.00
 009573,0.00004295,0.00007757,0.00016219,-0.00009625,0.00001173,-0.0001
 2512,-0.00004752,-0.00001592,-0.00009575,-0.00000618,0.00003436,-0.000
 05220,0.00002235,0.00000815,0.00002157,0.00000652,-0.00000096,0.000008
 39,-0.00003412,-0.00003078,-0.00000006,0.00001622,0.00002186,-0.000001
 62,-0.00003866,0.00000043,0.00000841,-0.00460928,0.00596231,-0.0021908
 5,-0.02058326,-0.02067614,-0.00311105,-0.27014008,-0.15560402,-0.10419
 682,0.00003103,0.00008010,0.00009247,-0.00001553,0.00002582,0.00000506
 ,0.00000252,-0.00000227,0.00000706,0.00002094,-0.00001572,-0.00000842,
 -0.00003325,0.00000050,0.00001065,0.00000163,0.00000059,-0.00000231,0.
 00000042,-0.00000378,-0.00000121,0.00004006,0.00002412,-0.00004608,0.0
 0050067,0.00039113,-0.00001266,0.00033144,0.00000384,-0.00007145,0.000
 52856,0.00002292,0.00081867,0.00138583,-0.00011206,-0.00026492,0.01044
 339,0.00951090,0.00953319,0.28328079,-0.00020504,-0.00000500,-0.000009
 69,0.00084315,0.00091049,0.00002803,0.00015534,-0.00023915,0.00008685,
 0.00002264,0.00001120,0.00009482,0.00003603,-0.00003904,0.00000344,-0.
 00001121,0.00001146,0.00000232,-0.00001884,0.00001249,-0.00000021,-0.0
 0000769,0.00000699,0.00000007,0.00000307,-0.00000346,0.00000349,0.0000
 0063,0.00000005,0.00000032,-0.00000970,-0.00000517,0.00000035,0.000007
 87,0.00000667,0.00000039,-0.00000977,0.00000193,0.00000058,0.00233678,
 -0.00192187,0.00139011,0.02219942,0.01114856,0.01219302,-0.16530837,-0
 .17908179,-0.09487962,0.00002037,-0.00000061,-0.00002808,0.00000742,0.
 00000029,0.00000794,0.00000794,0.00000010,0.00000468,0.00000487,-0.000
 00052,-0.00000551,-0.00000126,0.00000010,-0.00000037,0.00000050,0.0000
 0039,-0.00000057,0.00000171,-0.00000003,-0.00000146,0.00000853,-0.0000
 0290,-0.00000441,0.00004776,-0.00012603,-0.00027483,0.00008764,0.00007
 939,0.00032167,-0.00012986,0.00087919,-0.00040812,0.00044854,0.0000958
 2,0.00022467,-0.02251204,-0.01535238,-0.00287584,0.16197357,0.18361282
 ,0.00028320,-0.00001803,-0.00015081,-0.00047347,-0.00022062,0.00057551
 ,0.00032146,-0.00003996,0.00010043,-0.00005192,0.00007355,-0.00002175,
 -0.00007955,0.00002145,-0.00007000,0.00007340,-0.00002233,0.00005802,0
 .00005971,-0.00001252,0.00003269,0.00000580,-0.00002059,0.00003480,-0.
 00001182,-0.00000478,-0.00001772,-0.00000465,-0.00000079,-0.00000694,0
 .00002781,0.00002511,-0.00000484,-0.00001256,-0.00001784,0.00000245,0.
 00003057,-0.00000462,-0.00001105,0.00013346,0.00176238,-0.00013784,-0.
 01395646,-0.00527619,-0.00834994,-0.06392328,-0.06088486,-0.04944495,-
 0.00005263,-0.00005085,-0.00002934,-0.00000165,-0.00000804,-0.00000344
 ,-0.00001557,-0.00000040,-0.00000474,-0.00001576,0.00000918,0.00000841
 ,0.00001946,0.00000045,-0.00000480,-0.00000257,0.00000006,0.00000274,-
 0.00000167,0.00000381,0.00000327,-0.00003736,-0.00001084,0.00003907,-0
 .00020217,-0.00014295,0.00026180,0.00024363,0.00021961,0.00007725,0.00
 097529,-0.00027575,0.00091900,-0.00004875,-0.00080881,-0.00018792,-0.0
 2347211,-0.01842082,-0.01197221,0.10019015,0.08412598,0.06830284\\0.00
 000066,0.00000382,0.00000109,0.00000045,-0.00000517,0.00000520,-0.0000
 0334,-0.00000261,-0.00000201,-0.00000008,0.00000477,-0.00000211,-0.000
 00308,0.00000336,0.00000113,0.00000003,0.00000151,0.00000194,0.0000027
 1,-0.00000530,-0.00000245,-0.00000122,0.00000012,0.00000306,0.00000101
 ,0.00000325,-0.00000349,-0.00000311,-0.00000185,0.00000140,-0.00000177
 ,0.00000084,-0.00000022,-0.00000109,0.00000021,-0.00000117,0.00000435,
 -0.00000052,0.00000130,-0.00000896,-0.00000865,0.00000172,0.00000715,-
 0.00000113,-0.00000395,0.00000038,0.00000209,0.00000167,0.00000085,-0.
 00000212,-0.00000012,0.00000021,0.00000118,-0.00000054,-0.00000131,-0.
 00000141,-0.00000241,0.00000055,0.00000102,0.00000047,0.00000062,0.000
 00123,-0.00000041,-0.00000016,0.00000011,0.00000056,-0.00000030,-0.000
 00131,0.00000123,0.00000239,0.00000189,0.00000143,-0.00000006,0.000003
 93,-0.00000085,0.00000264,0.00000086,-0.00000205,-0.00000113,0.0000004
 6,0.00000324,0.00000009,0.00000010,-0.00000265,0.,-0.00000129,-0.00000
 162,0.00000155,0.00000060,0.00000060\\\@


 WE ARE REACHING THE STAGE WHERE THE PROBLEMS WE MUST SOLVE ARE 
 GOING TO BECOME INSOLUBLE WITHOUT COMPUTERS.
 I DO NOT FEAR COMPUTERS.  I FEAR THE LACK OF THEM.

                                   -- ISSAC ASIMOV
 Job cpu time:       0 days  1 hours 15 minutes 40.2 seconds.
 File lengths (MBytes):  RWF=    320 Int=      0 D2E=      0 Chk=      9 Scr=      1
 Normal termination of Gaussian 09 at Wed Jul 28 22:55:29 2021.
