 Entering Gaussian System, Link 0=g09
 Input=opt_freq-conf-640.com
 Output=opt_freq-conf-640.log
 Initial command:
 /aerosol/software/g09/l1.exe "/scratch/nicole/10607/Gau-83727.inp" -scrdir="/scratch/nicole/10607/"
 Entering Link 1 = /aerosol/software/g09/l1.exe PID=     83734.
  
 Copyright (c) 1988,1990,1992,1993,1995,1998,2003,2009,2013,
            Gaussian, Inc.  All Rights Reserved.
  
 This is part of the Gaussian(R) 09 program.  It is based on
 the Gaussian(R) 03 system (copyright 2003, Gaussian, Inc.),
 the Gaussian(R) 98 system (copyright 1998, Gaussian, Inc.),
 the Gaussian(R) 94 system (copyright 1995, Gaussian, Inc.),
 the Gaussian 92(TM) system (copyright 1992, Gaussian, Inc.),
 the Gaussian 90(TM) system (copyright 1990, Gaussian, Inc.),
 the Gaussian 88(TM) system (copyright 1988, Gaussian, Inc.),
 the Gaussian 86(TM) system (copyright 1986, Carnegie Mellon
 University), and the Gaussian 82(TM) system (copyright 1983,
 Carnegie Mellon University). Gaussian is a federally registered
 trademark of Gaussian, Inc.
  
 This software contains proprietary and confidential information,
 including trade secrets, belonging to Gaussian, Inc.
  
 This software is provided under written license and may be
 used, copied, transmitted, or stored only in accord with that
 written license.
  
 The following legend is applicable only to US Government
 contracts under FAR:
  
                    RESTRICTED RIGHTS LEGEND
  
 Use, reproduction and disclosure by the US Government is
 subject to restrictions as set forth in subparagraphs (a)
 and (c) of the Commercial Computer Software - Restricted
 Rights clause in FAR 52.227-19.
  
 Gaussian, Inc.
 340 Quinnipiac St., Bldg. 40, Wallingford CT 06492
  
  
 ---------------------------------------------------------------
 Warning -- This program may not be used in any manner that
 competes with the business of Gaussian, Inc. or will provide
 assistance to any competitor of Gaussian, Inc.  The licensee
 of this program is prohibited from giving any competitor of
 Gaussian, Inc. access to this program.  By using this program,
 the user acknowledges that Gaussian, Inc. is engaged in the
 business of creating and licensing software in the field of
 computational chemistry and represents and warrants to the
 licensee that it is not a competitor of Gaussian, Inc. and that
 it will not use this program in any manner prohibited above.
 ---------------------------------------------------------------
  

 Cite this work as:
 Gaussian 09, Revision D.01,
 M. J. Frisch, G. W. Trucks, H. B. Schlegel, G. E. Scuseria, 
 M. A. Robb, J. R. Cheeseman, G. Scalmani, V. Barone, B. Mennucci, 
 G. A. Petersson, H. Nakatsuji, M. Caricato, X. Li, H. P. Hratchian, 
 A. F. Izmaylov, J. Bloino, G. Zheng, J. L. Sonnenberg, M. Hada, 
 M. Ehara, K. Toyota, R. Fukuda, J. Hasegawa, M. Ishida, T. Nakajima, 
 Y. Honda, O. Kitao, H. Nakai, T. Vreven, J. A. Montgomery, Jr., 
 J. E. Peralta, F. Ogliaro, M. Bearpark, J. J. Heyd, E. Brothers, 
 K. N. Kudin, V. N. Staroverov, T. Keith, R. Kobayashi, J. Normand, 
 K. Raghavachari, A. Rendell, J. C. Burant, S. S. Iyengar, J. Tomasi, 
 M. Cossi, N. Rega, J. M. Millam, M. Klene, J. E. Knox, J. B. Cross, 
 V. Bakken, C. Adamo, J. Jaramillo, R. Gomperts, R. E. Stratmann, 
 O. Yazyev, A. J. Austin, R. Cammi, C. Pomelli, J. W. Ochterski, 
 R. L. Martin, K. Morokuma, V. G. Zakrzewski, G. A. Voth, 
 P. Salvador, J. J. Dannenberg, S. Dapprich, A. D. Daniels, 
 O. Farkas, J. B. Foresman, J. V. Ortiz, J. Cioslowski, 
 and D. J. Fox, Gaussian, Inc., Wallingford CT, 2013.
 
 ******************************************
 Gaussian 09:  ES64L-G09RevD.01 24-Apr-2013
                28-Jul-2021 
 ******************************************
 %mem=2gb
 %nproc=4
 Will use up to    4 processors via shared memory.
 %chk=conf-640.chk
 ----------------------------------------------------------------------
 # B3LYP/6-31G(d,p) opt=calcfc freq=noraman nosymm integral(ultrafinegr
 id)
 ----------------------------------------------------------------------
 1/10=4,14=-1,18=20,19=15,26=4,38=1/1,3;
 2/9=110,12=2,15=1,17=6,18=5,40=1/2;
 3/5=1,6=6,7=101,11=2,16=1,25=1,30=1,71=2,74=-5,75=-5,140=1/1,2,3;
 4//1;
 5/5=2,38=5/2;
 8/6=4,10=90,11=11/1;
 11/6=1,8=1,9=11,15=111,16=1,31=1/1,2,10;
 10/6=1,13=1,31=1/2;
 6/7=2,8=2,9=2,10=2,28=1/1;
 7/10=1,18=20,25=1,30=1/1,2,3,16;
 1/10=4,14=-1,18=20,19=15,26=4/3(2);
 2/9=110,15=1/2;
 99//99;
 2/9=110,15=1/2;
 3/5=1,6=6,7=101,11=2,16=1,25=1,30=1,71=1,74=-5,75=-5/1,2,3;
 4/5=5,16=3,69=1/1;
 5/5=2,38=5/2;
 7/30=1/1,2,3,16;
 1/14=-1,18=20,19=15,26=4/3(-5);
 2/9=110,15=1/2;
 6/7=2,8=2,9=2,10=2,19=2,28=1/1;
 99/9=1/99;
 ------------------------------------------------------------
 Candidate Structure: Conf:640 OPT and FREQ calc in gas phase
 ------------------------------------------------------------
 Symbolic Z-matrix:
 Charge =  0 Multiplicity = 1
 O                     0.92904  -1.24196  -0.873 
 C                     1.14845  -0.10723  -0.44526 
 N                     0.2273    0.87891  -0.54866 
 C                    -0.97462   0.70331  -1.33263 
 C                    -1.08429   1.83216  -2.33354 
 O                    -1.97773   1.54387  -3.30167 
 O                    -0.49299   2.87836  -2.27439 
 C                    -2.26049   0.68855  -0.4937 
 C                    -2.33041  -0.37329   0.56466 
 C                    -3.14952  -0.49021   1.64953 
 N                    -2.89099  -1.66012   2.3362 
 C                    -1.92679  -2.23652   1.662 
 N                    -1.55644  -1.50578   0.58175 
 C                     2.45641   0.27932   0.21253 
 C                     3.08644  -0.86428   1.00797 
 N                     4.40372  -0.56311   1.56443 
 H                     0.49677   1.83106  -0.35097 
 H                    -0.88867  -0.23908  -1.87118 
 H                    -2.00681   2.31839  -3.87722 
 H                    -3.09639   0.5662   -1.18687 
 H                    -2.4066    1.65964  -0.01709 
 H                    -3.91554   0.19426   1.98446 
 H                    -1.45505  -3.17397   1.89963 
 H                    -0.77922  -1.70241  -0.03841 
 H                     2.29431   1.15407   0.84898 
 H                     3.14994   0.58266  -0.5804 
 H                     2.43604  -1.14432   1.83845 
 H                     3.16991  -1.73687   0.3616 
 H                     4.3486    0.23292   2.18976 
 H                     5.04569  -0.30467   0.82302 
 

 GradGradGradGradGradGradGradGradGradGradGradGradGradGradGradGradGradGrad
 Berny optimization.
 Initialization pass.
                           ----------------------------
                           !    Initial Parameters    !
                           ! (Angstroms and Degrees)  !
 --------------------------                            --------------------------
 ! Name  Definition              Value          Derivative Info.                !
 --------------------------------------------------------------------------------
 ! R1    R(1,2)                  1.2324         calculate D2E/DX2 analytically  !
 ! R2    R(2,3)                  1.3534         calculate D2E/DX2 analytically  !
 ! R3    R(2,14)                 1.5142         calculate D2E/DX2 analytically  !
 ! R4    R(3,4)                  1.4457         calculate D2E/DX2 analytically  !
 ! R5    R(3,17)                 1.0091         calculate D2E/DX2 analytically  !
 ! R6    R(4,5)                  1.5127         calculate D2E/DX2 analytically  !
 ! R7    R(4,8)                  1.5354         calculate D2E/DX2 analytically  !
 ! R8    R(4,18)                 1.0888         calculate D2E/DX2 analytically  !
 ! R9    R(5,6)                  1.3486         calculate D2E/DX2 analytically  !
 ! R10   R(5,7)                  1.2032         calculate D2E/DX2 analytically  !
 ! R11   R(6,19)                 0.9654         calculate D2E/DX2 analytically  !
 ! R12   R(8,9)                  1.5008         calculate D2E/DX2 analytically  !
 ! R13   R(8,20)                 1.0928         calculate D2E/DX2 analytically  !
 ! R14   R(8,21)                 1.0916         calculate D2E/DX2 analytically  !
 ! R15   R(9,10)                 1.3644         calculate D2E/DX2 analytically  !
 ! R16   R(9,13)                 1.3718         calculate D2E/DX2 analytically  !
 ! R17   R(10,11)                1.381          calculate D2E/DX2 analytically  !
 ! R18   R(10,22)                1.0805         calculate D2E/DX2 analytically  !
 ! R19   R(11,12)                1.3101         calculate D2E/DX2 analytically  !
 ! R20   R(12,13)                1.3558         calculate D2E/DX2 analytically  !
 ! R21   R(12,23)                1.076          calculate D2E/DX2 analytically  !
 ! R22   R(13,24)                1.0136         calculate D2E/DX2 analytically  !
 ! R23   R(14,15)                1.5289         calculate D2E/DX2 analytically  !
 ! R24   R(14,25)                1.0939         calculate D2E/DX2 analytically  !
 ! R25   R(14,26)                1.0962         calculate D2E/DX2 analytically  !
 ! R26   R(15,16)                1.4614         calculate D2E/DX2 analytically  !
 ! R27   R(15,27)                1.0914         calculate D2E/DX2 analytically  !
 ! R28   R(15,28)                1.0891         calculate D2E/DX2 analytically  !
 ! R29   R(16,29)                1.0138         calculate D2E/DX2 analytically  !
 ! R30   R(16,30)                1.0142         calculate D2E/DX2 analytically  !
 ! A1    A(1,2,3)              121.5484         calculate D2E/DX2 analytically  !
 ! A2    A(1,2,14)             122.6579         calculate D2E/DX2 analytically  !
 ! A3    A(3,2,14)             115.7913         calculate D2E/DX2 analytically  !
 ! A4    A(2,3,4)              121.2506         calculate D2E/DX2 analytically  !
 ! A5    A(2,3,17)             119.3924         calculate D2E/DX2 analytically  !
 ! A6    A(4,3,17)             116.2863         calculate D2E/DX2 analytically  !
 ! A7    A(3,4,5)              109.175          calculate D2E/DX2 analytically  !
 ! A8    A(3,4,8)              113.6491         calculate D2E/DX2 analytically  !
 ! A9    A(3,4,18)             107.922          calculate D2E/DX2 analytically  !
 ! A10   A(5,4,8)              107.9384         calculate D2E/DX2 analytically  !
 ! A11   A(5,4,18)             108.9258         calculate D2E/DX2 analytically  !
 ! A12   A(8,4,18)             109.1496         calculate D2E/DX2 analytically  !
 ! A13   A(4,5,6)              111.317          calculate D2E/DX2 analytically  !
 ! A14   A(4,5,7)              125.5017         calculate D2E/DX2 analytically  !
 ! A15   A(6,5,7)              123.1454         calculate D2E/DX2 analytically  !
 ! A16   A(5,6,19)             106.0485         calculate D2E/DX2 analytically  !
 ! A17   A(4,8,9)              115.5387         calculate D2E/DX2 analytically  !
 ! A18   A(4,8,20)             107.1636         calculate D2E/DX2 analytically  !
 ! A19   A(4,8,21)             110.0055         calculate D2E/DX2 analytically  !
 ! A20   A(9,8,20)             109.4183         calculate D2E/DX2 analytically  !
 ! A21   A(9,8,21)             108.3769         calculate D2E/DX2 analytically  !
 ! A22   A(20,8,21)            105.9131         calculate D2E/DX2 analytically  !
 ! A23   A(8,9,10)             130.4895         calculate D2E/DX2 analytically  !
 ! A24   A(8,9,13)             124.5113         calculate D2E/DX2 analytically  !
 ! A25   A(10,9,13)            104.9555         calculate D2E/DX2 analytically  !
 ! A26   A(9,10,11)            110.8288         calculate D2E/DX2 analytically  !
 ! A27   A(9,10,22)            128.1563         calculate D2E/DX2 analytically  !
 ! A28   A(11,10,22)           121.0148         calculate D2E/DX2 analytically  !
 ! A29   A(10,11,12)           104.7504         calculate D2E/DX2 analytically  !
 ! A30   A(11,12,13)           111.9587         calculate D2E/DX2 analytically  !
 ! A31   A(11,12,23)           126.3198         calculate D2E/DX2 analytically  !
 ! A32   A(13,12,23)           121.7214         calculate D2E/DX2 analytically  !
 ! A33   A(9,13,12)            107.5037         calculate D2E/DX2 analytically  !
 ! A34   A(9,13,24)            125.8148         calculate D2E/DX2 analytically  !
 ! A35   A(12,13,24)           126.3288         calculate D2E/DX2 analytically  !
 ! A36   A(2,14,15)            113.0179         calculate D2E/DX2 analytically  !
 ! A37   A(2,14,25)            109.2018         calculate D2E/DX2 analytically  !
 ! A38   A(2,14,26)            107.6311         calculate D2E/DX2 analytically  !
 ! A39   A(15,14,25)           110.8868         calculate D2E/DX2 analytically  !
 ! A40   A(15,14,26)           108.8199         calculate D2E/DX2 analytically  !
 ! A41   A(25,14,26)           107.0571         calculate D2E/DX2 analytically  !
 ! A42   A(14,15,16)           114.5457         calculate D2E/DX2 analytically  !
 ! A43   A(14,15,27)           110.0138         calculate D2E/DX2 analytically  !
 ! A44   A(14,15,28)           108.7903         calculate D2E/DX2 analytically  !
 ! A45   A(16,15,27)           107.476          calculate D2E/DX2 analytically  !
 ! A46   A(16,15,28)           108.7849         calculate D2E/DX2 analytically  !
 ! A47   A(27,15,28)           106.9591         calculate D2E/DX2 analytically  !
 ! A48   A(15,16,29)           110.346          calculate D2E/DX2 analytically  !
 ! A49   A(15,16,30)           110.1652         calculate D2E/DX2 analytically  !
 ! A50   A(29,16,30)           106.5732         calculate D2E/DX2 analytically  !
 ! D1    D(1,2,3,4)             -9.0351         calculate D2E/DX2 analytically  !
 ! D2    D(1,2,3,17)          -168.4865         calculate D2E/DX2 analytically  !
 ! D3    D(14,2,3,4)           170.4087         calculate D2E/DX2 analytically  !
 ! D4    D(14,2,3,17)           10.9574         calculate D2E/DX2 analytically  !
 ! D5    D(1,2,14,15)          -33.549          calculate D2E/DX2 analytically  !
 ! D6    D(1,2,14,25)         -157.4765         calculate D2E/DX2 analytically  !
 ! D7    D(1,2,14,26)           86.6363         calculate D2E/DX2 analytically  !
 ! D8    D(3,2,14,15)          147.014          calculate D2E/DX2 analytically  !
 ! D9    D(3,2,14,25)           23.0865         calculate D2E/DX2 analytically  !
 ! D10   D(3,2,14,26)          -92.8008         calculate D2E/DX2 analytically  !
 ! D11   D(2,3,4,5)           -125.8807         calculate D2E/DX2 analytically  !
 ! D12   D(2,3,4,8)            113.5711         calculate D2E/DX2 analytically  !
 ! D13   D(2,3,4,18)            -7.6271         calculate D2E/DX2 analytically  !
 ! D14   D(17,3,4,5)            34.1759         calculate D2E/DX2 analytically  !
 ! D15   D(17,3,4,8)           -86.3724         calculate D2E/DX2 analytically  !
 ! D16   D(17,3,4,18)          152.4295         calculate D2E/DX2 analytically  !
 ! D17   D(3,4,5,6)            164.2008         calculate D2E/DX2 analytically  !
 ! D18   D(3,4,5,7)            -17.9287         calculate D2E/DX2 analytically  !
 ! D19   D(8,4,5,6)            -71.8144         calculate D2E/DX2 analytically  !
 ! D20   D(8,4,5,7)            106.0562         calculate D2E/DX2 analytically  !
 ! D21   D(18,4,5,6)            46.5777         calculate D2E/DX2 analytically  !
 ! D22   D(18,4,5,7)          -135.5517         calculate D2E/DX2 analytically  !
 ! D23   D(3,4,8,9)            -58.5958         calculate D2E/DX2 analytically  !
 ! D24   D(3,4,8,20)           179.1816         calculate D2E/DX2 analytically  !
 ! D25   D(3,4,8,21)            64.4837         calculate D2E/DX2 analytically  !
 ! D26   D(5,4,8,9)           -179.8379         calculate D2E/DX2 analytically  !
 ! D27   D(5,4,8,20)            57.9396         calculate D2E/DX2 analytically  !
 ! D28   D(5,4,8,21)           -56.7584         calculate D2E/DX2 analytically  !
 ! D29   D(18,4,8,9)            61.9133         calculate D2E/DX2 analytically  !
 ! D30   D(18,4,8,20)          -60.3092         calculate D2E/DX2 analytically  !
 ! D31   D(18,4,8,21)         -175.0072         calculate D2E/DX2 analytically  !
 ! D32   D(4,5,6,19)           178.314          calculate D2E/DX2 analytically  !
 ! D33   D(7,5,6,19)             0.3845         calculate D2E/DX2 analytically  !
 ! D34   D(4,8,9,10)           163.5485         calculate D2E/DX2 analytically  !
 ! D35   D(4,8,9,13)           -19.2303         calculate D2E/DX2 analytically  !
 ! D36   D(20,8,9,10)          -75.4396         calculate D2E/DX2 analytically  !
 ! D37   D(20,8,9,13)          101.7816         calculate D2E/DX2 analytically  !
 ! D38   D(21,8,9,10)           39.6128         calculate D2E/DX2 analytically  !
 ! D39   D(21,8,9,13)         -143.166          calculate D2E/DX2 analytically  !
 ! D40   D(8,9,10,11)          178.0604         calculate D2E/DX2 analytically  !
 ! D41   D(8,9,10,22)           -1.8368         calculate D2E/DX2 analytically  !
 ! D42   D(13,9,10,11)           0.4303         calculate D2E/DX2 analytically  !
 ! D43   D(13,9,10,22)        -179.4669         calculate D2E/DX2 analytically  !
 ! D44   D(8,9,13,12)         -178.3463         calculate D2E/DX2 analytically  !
 ! D45   D(8,9,13,24)            8.1382         calculate D2E/DX2 analytically  !
 ! D46   D(10,9,13,12)          -0.5334         calculate D2E/DX2 analytically  !
 ! D47   D(10,9,13,24)        -174.049          calculate D2E/DX2 analytically  !
 ! D48   D(9,10,11,12)          -0.1528         calculate D2E/DX2 analytically  !
 ! D49   D(22,10,11,12)        179.7528         calculate D2E/DX2 analytically  !
 ! D50   D(10,11,12,13)         -0.201          calculate D2E/DX2 analytically  !
 ! D51   D(10,11,12,23)        179.7219         calculate D2E/DX2 analytically  !
 ! D52   D(11,12,13,9)           0.4761         calculate D2E/DX2 analytically  !
 ! D53   D(11,12,13,24)        173.949          calculate D2E/DX2 analytically  !
 ! D54   D(23,12,13,9)        -179.4508         calculate D2E/DX2 analytically  !
 ! D55   D(23,12,13,24)         -5.978          calculate D2E/DX2 analytically  !
 ! D56   D(2,14,15,16)         175.1479         calculate D2E/DX2 analytically  !
 ! D57   D(2,14,15,27)         -63.6736         calculate D2E/DX2 analytically  !
 ! D58   D(2,14,15,28)          53.1883         calculate D2E/DX2 analytically  !
 ! D59   D(25,14,15,16)        -61.8547         calculate D2E/DX2 analytically  !
 ! D60   D(25,14,15,27)         59.3238         calculate D2E/DX2 analytically  !
 ! D61   D(25,14,15,28)        176.1857         calculate D2E/DX2 analytically  !
 ! D62   D(26,14,15,16)         55.645          calculate D2E/DX2 analytically  !
 ! D63   D(26,14,15,27)        176.8234         calculate D2E/DX2 analytically  !
 ! D64   D(26,14,15,28)        -66.3147         calculate D2E/DX2 analytically  !
 ! D65   D(14,15,16,29)         59.4691         calculate D2E/DX2 analytically  !
 ! D66   D(14,15,16,30)        -57.9352         calculate D2E/DX2 analytically  !
 ! D67   D(27,15,16,29)        -63.0946         calculate D2E/DX2 analytically  !
 ! D68   D(27,15,16,30)        179.5011         calculate D2E/DX2 analytically  !
 ! D69   D(28,15,16,29)       -178.5683         calculate D2E/DX2 analytically  !
 ! D70   D(28,15,16,30)         64.0274         calculate D2E/DX2 analytically  !
 --------------------------------------------------------------------------------
 Trust Radius=3.00D-01 FncErr=1.00D-07 GrdErr=1.00D-06
 Number of steps in this run=    160 maximum allowed number of steps=    180.
 GradGradGradGradGradGradGradGradGradGradGradGradGradGradGradGradGradGrad

                          Input orientation:                          
 ---------------------------------------------------------------------
 Center     Atomic      Atomic             Coordinates (Angstroms)
 Number     Number       Type             X           Y           Z
 ---------------------------------------------------------------------
      1          8           0        0.929043   -1.241963   -0.873004
      2          6           0        1.148453   -0.107229   -0.445265
      3          7           0        0.227295    0.878910   -0.548664
      4          6           0       -0.974618    0.703315   -1.332629
      5          6           0       -1.084293    1.832158   -2.333541
      6          8           0       -1.977728    1.543869   -3.301668
      7          8           0       -0.492986    2.878356   -2.274390
      8          6           0       -2.260494    0.688548   -0.493701
      9          6           0       -2.330413   -0.373288    0.564662
     10          6           0       -3.149524   -0.490207    1.649530
     11          7           0       -2.890995   -1.660122    2.336198
     12          6           0       -1.926786   -2.236516    1.661995
     13          7           0       -1.556443   -1.505777    0.581748
     14          6           0        2.456413    0.279321    0.212533
     15          6           0        3.086444   -0.864276    1.007965
     16          7           0        4.403718   -0.563113    1.564429
     17          1           0        0.496774    1.831061   -0.350975
     18          1           0       -0.888672   -0.239080   -1.871181
     19          1           0       -2.006809    2.318387   -3.877224
     20          1           0       -3.096390    0.566200   -1.186873
     21          1           0       -2.406602    1.659641   -0.017086
     22          1           0       -3.915536    0.194263    1.984460
     23          1           0       -1.455054   -3.173967    1.899627
     24          1           0       -0.779216   -1.702408   -0.038411
     25          1           0        2.294314    1.154066    0.848976
     26          1           0        3.149944    0.582658   -0.580398
     27          1           0        2.436040   -1.144321    1.838451
     28          1           0        3.169914   -1.736868    0.361604
     29          1           0        4.348596    0.232922    2.189758
     30          1           0        5.045691   -0.304669    0.823024
 ---------------------------------------------------------------------
                    Distance matrix (angstroms):
                    1          2          3          4          5
     1  O    0.000000
     2  C    1.232365   0.000000
     3  N    2.257377   1.353401   0.000000
     4  C    2.760306   2.439637   1.445694   0.000000
     5  C    3.954354   3.508841   2.411375   1.512660   0.000000
     6  O    4.701977   4.545126   3.589335   2.364291   1.348557
     7  O    4.578546   3.867007   2.737648   2.418612   1.203193
     8  C    3.747518   3.500932   2.495667   1.535413   2.465016
     9  C    3.666815   3.632251   3.057673   2.568456   3.849206
    10  C    4.854176   4.796607   4.255520   3.879173   5.052070
    11  N    5.006648   5.144429   4.949025   4.766406   6.104642
    12  C    3.946025   4.293192   4.385540   4.303139   5.764391
    13  N    2.891979   3.213588   3.185324   2.980511   4.456865
    14  C    2.413619   1.514225   2.430616   3.786723   4.629298
    15  C    2.887053   2.537875   3.692767   4.942464   5.985940
    16  N    4.298288   3.852720   4.897663   6.238853   7.144912
    17  H    3.146880   2.047082   1.009104   2.097726   2.535812
    18  H    2.303523   2.490080   2.060178   1.088821   2.131213
    19  H    5.506419   5.255248   4.259416   3.185724   1.862904
    20  H    4.424034   4.361442   3.398820   2.131187   2.639323
    21  H    4.503158   3.992941   2.798130   2.166978   2.672869
    22  H    5.804979   5.624805   4.903928   4.462198   5.416989
    23  H    4.135703   4.656355   5.024962   5.070662   6.566465
    24  H    1.956197   2.534963   2.817203   2.738739   4.225382
    25  H    3.251175   2.139842   2.510314   3.955818   4.690758
    26  H    2.889163   2.121361   2.937796   4.194332   4.750108
    27  H    3.103637   2.819361   3.830188   5.010200   6.217531
    28  H    2.605895   2.719019   4.041025   5.099222   6.172522
    29  H    4.821737   4.159323   4.990128   6.400398   7.248040
    30  H    4.549926   4.103170   5.147749   6.473561   7.218493
                    6          7          8          9         10
     6  O    0.000000
     7  O    2.245131   0.000000
     8  C    2.948933   3.330194   0.000000
     9  C    4.329940   4.691432   1.500838   0.000000
    10  C    5.479500   5.813911   2.602552   1.364387   0.000000
    11  N    6.548675   6.899692   3.731235   2.260207   1.380960
    12  C    6.239539   6.611567   3.648888   2.199698   2.131862
    13  N    4.955677   5.339390   2.543097   1.371806   2.170126
    14  C    5.797439   4.651745   4.787007   4.843923   5.838121
    15  C    7.072336   6.131352   5.766802   5.457099   6.280034
    16  N    8.297055   7.110412   7.086203   6.810586   7.554073
    17  H    3.861636   2.403327   2.988015   3.700072   4.762961
    18  H    2.532043   3.168209   2.154028   2.833718   4.191649
    19  H    0.965395   2.274709   3.764167   5.203862   6.303888
    20  H    2.584491   3.647803   1.092785   2.130078   3.027210
    21  H    3.314486   3.200408   1.091573   2.115901   2.819821
    22  H    5.789618   6.087364   3.020722   2.202397   1.080487
    23  H    7.041635   7.414756   4.614734   3.223692   3.183762
    24  H    4.756426   5.105383   2.849236   2.129899   3.152290
    25  H    5.969098   4.527432   4.771348   4.878703   5.742811
    26  H    5.884068   4.627178   5.412168   5.679727   6.768080
    27  H    7.288932   6.455741   5.554797   4.993606   5.626906
    28  H    7.119060   6.454889   6.008620   5.670465   6.568730
    29  H    8.479193   7.097032   7.147630   6.900550   7.552256
    30  H    8.352161   7.099476   7.490032   7.380946   8.238876
                   11         12         13         14         15
    11  N    0.000000
    12  C    1.310143   0.000000
    13  N    2.209738   1.355753   0.000000
    14  C    6.071751   5.257642   4.407482   0.000000
    15  C    6.174735   5.238633   4.706334   1.528877   0.000000
    16  N    7.417000   6.548670   6.113738   2.515813   1.461356
    17  H    5.557539   5.144986   4.027426   2.562347   3.977179
    18  H    4.871416   4.189363   2.840299   3.974946   4.947919
    19  H    7.430809   7.171923   5.891476   6.387821   7.741812
    20  H    4.172617   4.164041   3.129305   5.733607   6.714984
    21  H    4.097976   4.269610   3.331853   5.060328   6.131431
    22  H    2.147591   3.157181   3.228475   6.614278   7.148550
    23  H    2.131724   1.076018   2.128366   5.483707   5.172517
    24  H    3.178075   2.119804   1.013579   3.802567   4.091540
    25  H    6.084316   5.474918   4.687696   1.093853   2.174041
    26  H    7.073156   6.224890   5.278467   1.096239   2.149546
    27  H    5.375044   4.500919   4.201175   2.161199   1.091402
    28  H    6.374914   5.283656   4.737121   2.143903   1.089113
    29  H    7.484433   6.764398   6.362252   2.737139   2.047805
    30  H    8.192553   7.283635   6.714837   2.723620   2.045974
                   16         17         18         19         20
    16  N    0.000000
    17  H    4.966392   0.000000
    18  H    6.318054   2.918214   0.000000
    19  H    8.888728   4.351994   3.437306   0.000000
    20  H    8.068248   3.899926   2.447605   3.390476   0.000000
    21  H    7.336367   2.927535   3.057273   3.936299   1.743509
    22  H    8.364211   5.253745   4.920940   6.520312   3.296466
    23  H    6.422937   5.824530   4.811792   7.990143   5.119504
    24  H    5.543455   3.769782   2.347841   5.693001   3.440181
    25  H    2.812501   2.264808   4.412653   6.495558   5.792232
    26  H    2.735877   2.941166   4.318772   6.361912   6.275728
    27  H    2.069939   4.172198   5.063056   8.024848   6.533471
    28  H    2.084889   4.514816   4.868348   7.823759   6.853354
    29  H    1.013779   4.883227   6.644019   9.030427   8.181719
    30  H    1.014201   5.160645   6.517646   8.871894   8.431582
                   21         22         23         24         25
    21  H    0.000000
    22  H    2.903515   0.000000
    23  H    5.286114   4.172067   0.000000
    24  H    3.735267   4.186390   2.525516   0.000000
    25  H    4.806691   6.385356   5.821811   4.288763   0.000000
    26  H    5.687918   7.526642   6.439624   4.577508   1.761170
    27  H    5.895456   6.492737   4.389056   3.764564   2.506338
    28  H    6.540429   7.521072   5.081446   3.969487   3.059690
    29  H    7.248337   8.266772   6.735980   5.916477   2.620358
    30  H    7.752481   9.049942   7.186906   6.051883   3.114266
                   26         27         28         29         30
    26  H    0.000000
    27  H    3.056623   0.000000
    28  H    2.503591   1.752359   0.000000
    29  H    3.038559   2.382874   2.934538   0.000000
    30  H    2.520079   2.923421   2.404713   1.625701   0.000000
 Symmetry turned off by external request.
 Stoichiometry    C9H14N4O3
 Framework group  C1[X(C9H14N4O3)]
 Deg. of freedom    84
 Full point group                 C1      NOp   1
 Rotational constants (GHZ):      0.5050640      0.4053310      0.2477507
 Standard basis: 6-31G(d,p) (6D, 7F)
   310 basis functions,   546 primitive gaussians,   310 cartesian basis functions
    60 alpha electrons       60 beta electrons
       nuclear repulsion energy      1124.8072977319 Hartrees.
 NAtoms=   30 NActive=   30 NUniq=   30 SFac= 1.00D+00 NAtFMM=   60 NAOKFM=F Big=F
 Integral buffers will be    131072 words long.
 Raffenetti 2 integral format.
 Two-electron integral symmetry is turned off.
 One-electron integrals computed using PRISM.
 NBasis=   310 RedAO= T EigKep=  1.10D-03  NBF=   310
 NBsUse=   310 1.00D-06 EigRej= -1.00D+00 NBFU=   310
 ExpMin= 1.61D-01 ExpMax= 5.48D+03 ExpMxC= 8.25D+02 IAcc=3 IRadAn=         5 AccDes= 0.00D+00
 Harris functional with IExCor=  402 and IRadAn=       5 diagonalized for initial guess.
 HarFok:  IExCor=  402 AccDes= 0.00D+00 IRadAn=         5 IDoV= 1 UseB2=F ITyADJ=14
 ICtDFT=  3500011 ScaDFX=  1.000000  1.000000  1.000000  1.000000
 FoFCou: FMM=F IPFlag=           0 FMFlag=      100000 FMFlg1=           0
         NFxFlg=           0 DoJE=T BraDBF=F KetDBF=T FulRan=T
         wScrn=  0.000000 ICntrl=     500 IOpCl=  0 I1Cent=   200000004 NGrid=           0
         NMat0=    1 NMatS0=      1 NMatT0=    0 NMatD0=    1 NMtDS0=    0 NMtDT0=    0
 Symmetry not used in FoFCou.
 Requested convergence on RMS density matrix=1.00D-08 within 128 cycles.
 Requested convergence on MAX density matrix=1.00D-06.
 Requested convergence on             energy=1.00D-06.
 No special actions if energy rises.
 Integral accuracy reduced to 1.0D-05 until final iterations.
 Initial convergence to 1.0D-05 achieved.  Increase integral accuracy.
 SCF Done:  E(RB3LYP) =  -796.114422870     A.U. after   14 cycles
            NFock= 14  Conv=0.66D-08     -V/T= 2.0087
 DoSCS=F DFT=T ScalE2(SS,OS)=  1.000000  1.000000
 Range of M.O.s used for correlation:     1   310
 NBasis=   310 NAE=    60 NBE=    60 NFC=     0 NFV=     0
 NROrb=    310 NOA=    60 NOB=    60 NVA=   250 NVB=   250
 Symmetrizing basis deriv contribution to polar:
 IMax=3 JMax=2 DiffMx= 0.00D+00
 G2DrvN: will do    31 centers at a time, making    1 passes.
 Calling FoFCou, ICntrl=  3107 FMM=F I1Cent=   0 AccDes= 0.00D+00.
 End of G2Drv F.D. properties file   721 does not exist.
 End of G2Drv F.D. properties file   722 does not exist.
 End of G2Drv F.D. properties file   788 does not exist.
          IDoAtm=111111111111111111111111111111
          Differentiating once with respect to nuclear coordinates.
          There are    93 degrees of freedom in the 1st order CPHF.  IDoFFX=6 NUNeed=     0.
     87 vectors produced by pass  0 Test12= 1.61D-14 1.08D-09 XBig12= 1.43D-01 9.14D-02.
 AX will form    87 AO Fock derivatives at one time.
     87 vectors produced by pass  1 Test12= 1.61D-14 1.08D-09 XBig12= 2.63D-02 4.74D-02.
     87 vectors produced by pass  2 Test12= 1.61D-14 1.08D-09 XBig12= 1.87D-04 2.64D-03.
     87 vectors produced by pass  3 Test12= 1.61D-14 1.08D-09 XBig12= 9.47D-07 1.22D-04.
     87 vectors produced by pass  4 Test12= 1.61D-14 1.08D-09 XBig12= 1.45D-09 5.23D-06.
     71 vectors produced by pass  5 Test12= 1.61D-14 1.08D-09 XBig12= 1.44D-12 1.99D-07.
     18 vectors produced by pass  6 Test12= 1.61D-14 1.08D-09 XBig12= 1.20D-15 4.02D-09.
 InvSVY:  IOpt=1 It=  1 EMax= 7.22D-16
 Solved reduced A of dimension   524 with    93 vectors.
 End of Minotr F.D. properties file   721 does not exist.
 End of Minotr F.D. properties file   722 does not exist.
 End of Minotr F.D. properties file   788 does not exist.

 **********************************************************************

            Population analysis using the SCF density.

 **********************************************************************

 Alpha  occ. eigenvalues --  -19.22321 -19.17033 -19.13834 -14.38405 -14.36975
 Alpha  occ. eigenvalues --  -14.31954 -14.29496 -10.34741 -10.31020 -10.26189
 Alpha  occ. eigenvalues --  -10.22022 -10.21642 -10.21635 -10.20927 -10.20863
 Alpha  occ. eigenvalues --  -10.18039  -1.13822  -1.06065  -1.04856  -1.00152
 Alpha  occ. eigenvalues --   -0.95298  -0.89051  -0.85521  -0.81875  -0.77033
 Alpha  occ. eigenvalues --   -0.74297  -0.67969  -0.65783  -0.61946  -0.61255
 Alpha  occ. eigenvalues --   -0.59361  -0.57758  -0.54663  -0.52098  -0.51780
 Alpha  occ. eigenvalues --   -0.51231  -0.49969  -0.48956  -0.47994  -0.46331
 Alpha  occ. eigenvalues --   -0.44681  -0.44123  -0.43129  -0.42198  -0.41987
 Alpha  occ. eigenvalues --   -0.41202  -0.39943  -0.39318  -0.39049  -0.38595
 Alpha  occ. eigenvalues --   -0.37384  -0.35271  -0.34782  -0.30954  -0.28653
 Alpha  occ. eigenvalues --   -0.27895  -0.26444  -0.25022  -0.24097  -0.21151
 Alpha virt. eigenvalues --   -0.01650  -0.00036   0.04463   0.05832   0.06791
 Alpha virt. eigenvalues --    0.07690   0.07803   0.10491   0.12152   0.12204
 Alpha virt. eigenvalues --    0.13639   0.14275   0.15212   0.15592   0.17363
 Alpha virt. eigenvalues --    0.17654   0.18088   0.19049   0.19136   0.20224
 Alpha virt. eigenvalues --    0.20813   0.22892   0.23081   0.24850   0.26322
 Alpha virt. eigenvalues --    0.28756   0.30171   0.30504   0.33272   0.34531
 Alpha virt. eigenvalues --    0.35805   0.38828   0.40881   0.45480   0.49453
 Alpha virt. eigenvalues --    0.50324   0.51743   0.52493   0.53302   0.54180
 Alpha virt. eigenvalues --    0.54660   0.56276   0.56442   0.57062   0.58846
 Alpha virt. eigenvalues --    0.60280   0.61916   0.62467   0.63136   0.63965
 Alpha virt. eigenvalues --    0.65023   0.65724   0.66286   0.66981   0.67770
 Alpha virt. eigenvalues --    0.69749   0.71066   0.71974   0.72830   0.73489
 Alpha virt. eigenvalues --    0.74112   0.77247   0.78118   0.79020   0.79504
 Alpha virt. eigenvalues --    0.79721   0.81306   0.82138   0.83311   0.83804
 Alpha virt. eigenvalues --    0.84497   0.85095   0.86183   0.87267   0.87823
 Alpha virt. eigenvalues --    0.88124   0.88684   0.89190   0.89493   0.89790
 Alpha virt. eigenvalues --    0.91426   0.92456   0.92813   0.94179   0.94883
 Alpha virt. eigenvalues --    0.99017   0.99671   1.02397   1.04191   1.04651
 Alpha virt. eigenvalues --    1.05171   1.07697   1.10559   1.10803   1.12234
 Alpha virt. eigenvalues --    1.13213   1.19232   1.19989   1.23275   1.25063
 Alpha virt. eigenvalues --    1.27631   1.29671   1.30560   1.32117   1.33519
 Alpha virt. eigenvalues --    1.34831   1.37345   1.38970   1.39279   1.41558
 Alpha virt. eigenvalues --    1.42938   1.44771   1.46192   1.48816   1.50632
 Alpha virt. eigenvalues --    1.51821   1.52562   1.53768   1.55743   1.60297
 Alpha virt. eigenvalues --    1.61369   1.63735   1.65556   1.68793   1.71471
 Alpha virt. eigenvalues --    1.72454   1.72521   1.73762   1.74820   1.75380
 Alpha virt. eigenvalues --    1.77249   1.79113   1.80558   1.82226   1.84593
 Alpha virt. eigenvalues --    1.85435   1.85889   1.86677   1.88059   1.91053
 Alpha virt. eigenvalues --    1.92010   1.93341   1.94138   1.95576   1.97533
 Alpha virt. eigenvalues --    1.98843   2.00916   2.01332   2.04296   2.07303
 Alpha virt. eigenvalues --    2.08489   2.09547   2.10275   2.11009   2.11826
 Alpha virt. eigenvalues --    2.14553   2.14819   2.16004   2.17663   2.20094
 Alpha virt. eigenvalues --    2.20546   2.21480   2.22476   2.23402   2.25830
 Alpha virt. eigenvalues --    2.27350   2.28063   2.28565   2.28856   2.30703
 Alpha virt. eigenvalues --    2.32646   2.34450   2.36295   2.39026   2.41623
 Alpha virt. eigenvalues --    2.43255   2.46453   2.46701   2.47037   2.48795
 Alpha virt. eigenvalues --    2.49315   2.51549   2.52828   2.54030   2.56449
 Alpha virt. eigenvalues --    2.56943   2.58037   2.59021   2.61592   2.63410
 Alpha virt. eigenvalues --    2.64382   2.66105   2.67111   2.67697   2.69169
 Alpha virt. eigenvalues --    2.69677   2.70585   2.71995   2.73247   2.74362
 Alpha virt. eigenvalues --    2.77805   2.79380   2.80868   2.83994   2.86236
 Alpha virt. eigenvalues --    2.87246   2.87760   2.90329   2.90836   2.91289
 Alpha virt. eigenvalues --    2.92951   2.95964   2.98720   2.99133   3.00924
 Alpha virt. eigenvalues --    3.01734   3.06125   3.11019   3.18184   3.24747
 Alpha virt. eigenvalues --    3.26375   3.28951   3.29762   3.31664   3.32292
 Alpha virt. eigenvalues --    3.36836   3.37768   3.42672   3.47934   3.50491
 Alpha virt. eigenvalues --    3.52458   3.57725   3.58785   3.71210   3.94434
 Alpha virt. eigenvalues --    3.98933   4.01687   4.08673   4.12903   4.16135
 Alpha virt. eigenvalues --    4.25260   4.25623   4.33889   4.39149   4.43166
 Alpha virt. eigenvalues --    4.48206   4.51113   4.62446   4.69014   4.81965
          Condensed to atoms (all electrons):
               1          2          3          4          5          6
     1  O    8.160912   0.508294  -0.099846  -0.004687   0.000444  -0.000001
     2  C    0.508294   4.449382   0.266588  -0.025208   0.004330  -0.000014
     3  N   -0.099846   0.266588   7.020157   0.237166  -0.042551   0.002196
     4  C   -0.004687  -0.025208   0.237166   5.143737   0.291676  -0.100889
     5  C    0.000444   0.004330  -0.042551   0.291676   4.392007   0.265261
     6  O   -0.000001  -0.000014   0.002196  -0.100889   0.265261   8.108560
     7  O   -0.000004   0.000594  -0.008252  -0.078818   0.588126  -0.085558
     8  C    0.000098  -0.001319  -0.057194   0.317299  -0.037420   0.002094
     9  C   -0.000790   0.001013   0.001213  -0.026581   0.001497   0.000082
    10  C    0.000010  -0.000114  -0.000211   0.002684  -0.000134  -0.000001
    11  N   -0.000008  -0.000017   0.000007  -0.000151   0.000002   0.000000
    12  C    0.000155   0.000164  -0.000015   0.000104   0.000006   0.000000
    13  N   -0.020739   0.003776   0.000457  -0.003775   0.000141   0.000001
    14  C   -0.085833   0.272482  -0.094505   0.006408  -0.000208   0.000000
    15  C    0.001827  -0.019466   0.001501  -0.000121  -0.000001   0.000000
    16  N    0.000193   0.005629  -0.000083   0.000001   0.000000   0.000000
    17  H    0.003065  -0.017931   0.331858  -0.038413  -0.003570   0.000442
    18  H    0.021036  -0.002173  -0.054625   0.373779  -0.020724   0.002558
    19  H    0.000000   0.000001  -0.000267   0.010584  -0.011468   0.272921
    20  H   -0.000011   0.000069   0.004919  -0.039136  -0.002316   0.005828
    21  H   -0.000023  -0.000123  -0.003876  -0.031170  -0.003173  -0.000177
    22  H    0.000000   0.000001  -0.000011   0.000027   0.000003   0.000000
    23  H   -0.000003   0.000015  -0.000001  -0.000004   0.000000   0.000000
    24  H    0.052396  -0.003944  -0.006169   0.001788  -0.000087   0.000002
    25  H    0.002795  -0.029826   0.002167   0.000394  -0.000049   0.000000
    26  H   -0.000189  -0.019143  -0.001569  -0.000347   0.000045   0.000000
    27  H    0.000664   0.000462   0.000070  -0.000012   0.000000   0.000000
    28  H    0.009982  -0.002303   0.000393   0.000010   0.000000   0.000000
    29  H    0.000001   0.000118  -0.000003   0.000000   0.000000   0.000000
    30  H    0.000012   0.000202  -0.000003   0.000000   0.000000   0.000000
               7          8          9         10         11         12
     1  O   -0.000004   0.000098  -0.000790   0.000010  -0.000008   0.000155
     2  C    0.000594  -0.001319   0.001013  -0.000114  -0.000017   0.000164
     3  N   -0.008252  -0.057194   0.001213  -0.000211   0.000007  -0.000015
     4  C   -0.078818   0.317299  -0.026581   0.002684  -0.000151   0.000104
     5  C    0.588126  -0.037420   0.001497  -0.000134   0.000002   0.000006
     6  O   -0.085558   0.002094   0.000082  -0.000001   0.000000   0.000000
     7  O    8.017141  -0.003107  -0.000090   0.000000   0.000000   0.000000
     8  C   -0.003107   5.086799   0.339462  -0.060277   0.006808   0.006875
     9  C   -0.000090   0.339462   4.753676   0.567725  -0.043161  -0.091137
    10  C    0.000000  -0.060277   0.567725   4.888871   0.425764  -0.125992
    11  N    0.000000   0.006808  -0.043161   0.425764   6.686207   0.538340
    12  C    0.000000   0.006875  -0.091137  -0.125992   0.538340   4.675375
    13  N    0.000000  -0.070326   0.363243  -0.068231  -0.088620   0.365839
    14  C   -0.000076  -0.000250  -0.000052   0.000000   0.000000   0.000000
    15  C    0.000000   0.000010   0.000003   0.000001   0.000000  -0.000012
    16  N    0.000000   0.000000   0.000000   0.000000   0.000000   0.000000
    17  H    0.019886   0.000818  -0.000237   0.000006  -0.000001   0.000005
    18  H    0.001926  -0.037128  -0.007185  -0.000043  -0.000007   0.000001
    19  H    0.009150  -0.000196   0.000013   0.000000   0.000000   0.000000
    20  H    0.000121   0.371897  -0.033531  -0.002830   0.000011   0.000188
    21  H    0.001786   0.370696  -0.035555  -0.003674   0.000067  -0.000014
    22  H    0.000000  -0.001440  -0.060452   0.392553  -0.042121   0.007311
    23  H    0.000000  -0.000198   0.003256   0.007361  -0.038786   0.391840
    24  H   -0.000001  -0.004053  -0.028165   0.008519   0.004039  -0.021244
    25  H   -0.000007  -0.000005   0.000009   0.000000   0.000000  -0.000001
    26  H    0.000003  -0.000007   0.000000   0.000000   0.000000   0.000000
    27  H    0.000000  -0.000001  -0.000002  -0.000002   0.000000   0.000070
    28  H    0.000000   0.000000   0.000000   0.000000   0.000000  -0.000001
    29  H    0.000000   0.000000   0.000000   0.000000   0.000000   0.000000
    30  H    0.000000   0.000000   0.000000   0.000000   0.000000   0.000000
              13         14         15         16         17         18
     1  O   -0.020739  -0.085833   0.001827   0.000193   0.003065   0.021036
     2  C    0.003776   0.272482  -0.019466   0.005629  -0.017931  -0.002173
     3  N    0.000457  -0.094505   0.001501  -0.000083   0.331858  -0.054625
     4  C   -0.003775   0.006408  -0.000121   0.000001  -0.038413   0.373779
     5  C    0.000141  -0.000208  -0.000001   0.000000  -0.003570  -0.020724
     6  O    0.000001   0.000000   0.000000   0.000000   0.000442   0.002558
     7  O    0.000000  -0.000076   0.000000   0.000000   0.019886   0.001926
     8  C   -0.070326  -0.000250   0.000010   0.000000   0.000818  -0.037128
     9  C    0.363243  -0.000052   0.000003   0.000000  -0.000237  -0.007185
    10  C   -0.068231   0.000000   0.000001   0.000000   0.000006  -0.000043
    11  N   -0.088620   0.000000   0.000000   0.000000  -0.000001  -0.000007
    12  C    0.365839   0.000000  -0.000012   0.000000   0.000005   0.000001
    13  N    6.807384  -0.000223  -0.000051   0.000000   0.000025   0.001779
    14  C   -0.000223   5.297240   0.335568  -0.061212  -0.001249   0.001235
    15  C   -0.000051   0.335568   4.788313   0.324215  -0.000004  -0.000028
    16  N    0.000000  -0.061212   0.324215   6.707585  -0.000003   0.000000
    17  H    0.000025  -0.001249  -0.000004  -0.000003   0.419718   0.004856
    18  H    0.001779   0.001235  -0.000028   0.000000   0.004856   0.547800
    19  H    0.000000   0.000000   0.000000   0.000000  -0.000047  -0.000364
    20  H    0.000251   0.000004   0.000000   0.000000  -0.000151  -0.003780
    21  H    0.002760  -0.000002   0.000000   0.000000   0.001757   0.005711
    22  H    0.004906   0.000000   0.000000   0.000000   0.000000   0.000001
    23  H   -0.056704   0.000000   0.000000   0.000000   0.000000   0.000003
    24  H    0.304453   0.000710   0.000195   0.000001   0.000000   0.000243
    25  H    0.000034   0.354979  -0.035552   0.001249   0.002035  -0.000034
    26  H   -0.000001   0.362877  -0.032417  -0.001709   0.000326  -0.000016
    27  H    0.000086  -0.051760   0.393965  -0.038081  -0.000004  -0.000001
    28  H    0.000013  -0.052206   0.393644  -0.035966  -0.000006  -0.000007
    29  H    0.000000  -0.003450  -0.045037   0.344008   0.000002   0.000000
    30  H    0.000000  -0.003349  -0.048440   0.346284   0.000000   0.000000
              19         20         21         22         23         24
     1  O    0.000000  -0.000011  -0.000023   0.000000  -0.000003   0.052396
     2  C    0.000001   0.000069  -0.000123   0.000001   0.000015  -0.003944
     3  N   -0.000267   0.004919  -0.003876  -0.000011  -0.000001  -0.006169
     4  C    0.010584  -0.039136  -0.031170   0.000027  -0.000004   0.001788
     5  C   -0.011468  -0.002316  -0.003173   0.000003   0.000000  -0.000087
     6  O    0.272921   0.005828  -0.000177   0.000000   0.000000   0.000002
     7  O    0.009150   0.000121   0.001786   0.000000   0.000000  -0.000001
     8  C   -0.000196   0.371897   0.370696  -0.001440  -0.000198  -0.004053
     9  C    0.000013  -0.033531  -0.035555  -0.060452   0.003256  -0.028165
    10  C    0.000000  -0.002830  -0.003674   0.392553   0.007361   0.008519
    11  N    0.000000   0.000011   0.000067  -0.042121  -0.038786   0.004039
    12  C    0.000000   0.000188  -0.000014   0.007311   0.391840  -0.021244
    13  N    0.000000   0.000251   0.002760   0.004906  -0.056704   0.304453
    14  C    0.000000   0.000004  -0.000002   0.000000   0.000000   0.000710
    15  C    0.000000   0.000000   0.000000   0.000000   0.000000   0.000195
    16  N    0.000000   0.000000   0.000000   0.000000   0.000000   0.000001
    17  H   -0.000047  -0.000151   0.001757   0.000000   0.000000   0.000000
    18  H   -0.000364  -0.003780   0.005711   0.000001   0.000003   0.000243
    19  H    0.390262  -0.000051  -0.000107   0.000000   0.000000   0.000000
    20  H   -0.000051   0.588666  -0.035596   0.000247   0.000003  -0.000078
    21  H   -0.000107  -0.035596   0.608321   0.001587   0.000004  -0.000103
    22  H    0.000000   0.000247   0.001587   0.619601  -0.000177  -0.000098
    23  H    0.000000   0.000003   0.000004  -0.000177   0.586258   0.000201
    24  H    0.000000  -0.000078  -0.000103  -0.000098   0.000201   0.403514
    25  H    0.000000   0.000000   0.000002   0.000000   0.000000  -0.000108
    26  H    0.000000   0.000000   0.000000   0.000000   0.000000   0.000002
    27  H    0.000000   0.000000   0.000000   0.000000   0.000012   0.000032
    28  H    0.000000   0.000000   0.000000   0.000000   0.000000  -0.000036
    29  H    0.000000   0.000000   0.000000   0.000000   0.000000   0.000000
    30  H    0.000000   0.000000   0.000000   0.000000   0.000000   0.000000
              25         26         27         28         29         30
     1  O    0.002795  -0.000189   0.000664   0.009982   0.000001   0.000012
     2  C   -0.029826  -0.019143   0.000462  -0.002303   0.000118   0.000202
     3  N    0.002167  -0.001569   0.000070   0.000393  -0.000003  -0.000003
     4  C    0.000394  -0.000347  -0.000012   0.000010   0.000000   0.000000
     5  C   -0.000049   0.000045   0.000000   0.000000   0.000000   0.000000
     6  O    0.000000   0.000000   0.000000   0.000000   0.000000   0.000000
     7  O   -0.000007   0.000003   0.000000   0.000000   0.000000   0.000000
     8  C   -0.000005  -0.000007  -0.000001   0.000000   0.000000   0.000000
     9  C    0.000009   0.000000  -0.000002   0.000000   0.000000   0.000000
    10  C    0.000000   0.000000  -0.000002   0.000000   0.000000   0.000000
    11  N    0.000000   0.000000   0.000000   0.000000   0.000000   0.000000
    12  C   -0.000001   0.000000   0.000070  -0.000001   0.000000   0.000000
    13  N    0.000034  -0.000001   0.000086   0.000013   0.000000   0.000000
    14  C    0.354979   0.362877  -0.051760  -0.052206  -0.003450  -0.003349
    15  C   -0.035552  -0.032417   0.393965   0.393644  -0.045037  -0.048440
    16  N    0.001249  -0.001709  -0.038081  -0.035966   0.344008   0.346284
    17  H    0.002035   0.000326  -0.000004  -0.000006   0.000002   0.000000
    18  H   -0.000034  -0.000016  -0.000001  -0.000007   0.000000   0.000000
    19  H    0.000000   0.000000   0.000000   0.000000   0.000000   0.000000
    20  H    0.000000   0.000000   0.000000   0.000000   0.000000   0.000000
    21  H    0.000002   0.000000   0.000000   0.000000   0.000000   0.000000
    22  H    0.000000   0.000000   0.000000   0.000000   0.000000   0.000000
    23  H    0.000000   0.000000   0.000012   0.000000   0.000000   0.000000
    24  H   -0.000108   0.000002   0.000032  -0.000036   0.000000   0.000000
    25  H    0.627468  -0.032707  -0.005073   0.005737   0.004649  -0.000284
    26  H   -0.032707   0.585936   0.005484  -0.004437  -0.000468   0.005798
    27  H   -0.005073   0.005484   0.604465  -0.030335  -0.005582   0.006800
    28  H    0.005737  -0.004437  -0.030335   0.577002   0.006310  -0.004926
    29  H    0.004649  -0.000468  -0.005582   0.006310   0.500027  -0.035865
    30  H   -0.000284   0.005798   0.006800  -0.004926  -0.035865   0.498988
 Mulliken charges:
               1
     1  O   -0.549749
     2  C    0.608462
     3  N   -0.499511
     4  C   -0.036343
     5  C    0.578164
     6  O   -0.473306
     7  O   -0.462820
     8  C   -0.229938
     9  C    0.295742
    10  C   -0.031984
    11  N   -0.448373
    12  C    0.252143
    13  N   -0.546477
    14  C   -0.277128
    15  C   -0.058111
    16  N   -0.592111
    17  H    0.276816
    18  H    0.165188
    19  H    0.329569
    20  H    0.145275
    21  H    0.120903
    22  H    0.078062
    23  H    0.106921
    24  H    0.287991
    25  H    0.102129
    26  H    0.132538
    27  H    0.118743
    28  H    0.137133
    29  H    0.235289
    30  H    0.234783
 Sum of Mulliken charges =   0.00000
 Mulliken charges with hydrogens summed into heavy atoms:
               1
     1  O   -0.549749
     2  C    0.608462
     3  N   -0.222695
     4  C    0.128845
     5  C    0.578164
     6  O   -0.143737
     7  O   -0.462820
     8  C    0.036240
     9  C    0.295742
    10  C    0.046078
    11  N   -0.448373
    12  C    0.359064
    13  N   -0.258486
    14  C   -0.042462
    15  C    0.197765
    16  N   -0.122039
 APT charges:
               1
     1  O   -0.355785
     2  C    0.176683
     3  N   -0.589616
     4  C   -0.375636
     5  C   -0.285031
     6  O   -0.903241
     7  O    0.151623
     8  C   -0.983888
     9  C   -0.374847
    10  C   -0.305114
    11  N    0.253570
    12  C   -0.462830
    13  N   -0.565287
    14  C   -0.668895
    15  C   -0.562520
    16  N   -1.119604
    17  H    0.551908
    18  H    0.331515
    19  H    1.155616
    20  H    0.585061
    21  H    0.405292
    22  H    0.710003
    23  H    0.570597
    24  H    0.163043
    25  H    0.262295
    26  H    0.507058
    27  H    0.217004
    28  H    0.386036
    29  H    0.468911
    30  H    0.656078
 Sum of APT charges =   0.00000
 APT charges with hydrogens summed into heavy atoms:
               1
     1  O   -0.355785
     2  C    0.176683
     3  N   -0.037708
     4  C   -0.044120
     5  C   -0.285031
     6  O    0.252375
     7  O    0.151623
     8  C    0.006465
     9  C   -0.374847
    10  C    0.404889
    11  N    0.253570
    12  C    0.107766
    13  N   -0.402245
    14  C    0.100458
    15  C    0.040520
    16  N    0.005385
 Electronic spatial extent (au):  <R**2>=           4425.1895
 Charge=              0.0000 electrons
 Dipole moment (field-independent basis, Debye):
    X=              1.8387    Y=              4.1900    Z=             -3.6390  Tot=              5.8463
 Quadrupole moment (field-independent basis, Debye-Ang):
   XX=            -97.1353   YY=            -96.3324   ZZ=            -96.1411
   XY=             -2.8138   XZ=             11.2174   YZ=              3.4323
 Traceless Quadrupole moment (field-independent basis, Debye-Ang):
   XX=             -0.5990   YY=              0.2038   ZZ=              0.3952
   XY=             -2.8138   XZ=             11.2174   YZ=              3.4323
 Octapole moment (field-independent basis, Debye-Ang**2):
  XXX=            116.5024  YYY=            -10.7152  ZZZ=            -43.6850  XYY=             20.3190
  XXY=             73.8570  XXZ=            -49.9845  XZZ=             30.6754  YZZ=             46.0350
  YYZ=              3.8133  XYZ=              9.2718
 Hexadecapole moment (field-independent basis, Debye-Ang**3):
 XXXX=          -3081.5495 YYYY=          -1142.9685 ZZZZ=          -1381.2812 XXXY=             39.3978
 XXXZ=           -119.3019 YYYX=             -4.8395 YYYZ=            475.0952 ZZZX=             62.0307
 ZZZY=            406.6700 XXYY=           -738.1207 XXZZ=           -840.4016 YYZZ=           -410.4598
 XXYZ=            262.7111 YYXZ=             30.8999 ZZXY=            -86.1188
 N-N= 1.124807297732D+03 E-N=-4.106141894996D+03  KE= 7.892283074234D+02
  Exact polarizability:   0.000   0.000   0.000   0.000   0.000   0.000
 Approx polarizability: 173.214 -10.044 196.248  -8.944 -11.005 167.767
 Calling FoFJK, ICntrl=    100147 FMM=F ISym2X=0 I1Cent= 0 IOpClX= 0 NMat=1 NMatS=1 NMatT=0.
 -------------------------------------------------------------------
 Center     Atomic                   Forces (Hartrees/Bohr)
 Number     Number              X              Y              Z
 -------------------------------------------------------------------
      1        8           0.000550430   -0.007420577    0.001377967
      2        6           0.004944997   -0.000300663   -0.002721499
      3        7          -0.002758676    0.003829357   -0.000972682
      4        6          -0.001112171    0.002586416    0.001701243
      5        6          -0.006507592   -0.008586421   -0.006082350
      6        8           0.000495645   -0.004758402    0.002874917
      7        8           0.008773049    0.012155791    0.002448842
      8        6          -0.008356433   -0.005475875    0.004387223
      9        6           0.003321594    0.007733111   -0.007581407
     10        6          -0.005211415   -0.003879930    0.011562285
     11        7          -0.007188236    0.003265071    0.003976336
     12        6           0.000517008   -0.002835668    0.001916438
     13        7           0.005071582   -0.003039502   -0.006933705
     14        6          -0.002570435    0.001858556   -0.001153226
     15        6           0.005662672    0.000407461    0.003642762
     16        7          -0.000675569   -0.003921126    0.000511326
     17        1           0.000080236    0.002426248    0.000803176
     18        1           0.001560447   -0.002077624   -0.001532993
     19        1          -0.001662429    0.005444064   -0.005038477
     20        1          -0.001756614    0.000241129   -0.002871125
     21        1           0.001165675    0.003624515    0.000817336
     22        1          -0.000471093    0.001038508    0.000008303
     23        1           0.001418378   -0.003476864    0.001757128
     24        1           0.003477311   -0.001161211   -0.002495132
     25        1           0.001615349    0.001923570    0.001509987
     26        1           0.000570348    0.000950004   -0.001722557
     27        1          -0.002868453   -0.001276724    0.001006827
     28        1          -0.000445789   -0.002434150   -0.001270942
     29        1           0.000070229    0.002507994    0.001908690
     30        1           0.002289954    0.000652942   -0.001834694
 -------------------------------------------------------------------
 Cartesian Forces:  Max     0.012155791 RMS     0.003938598
 FormGI is forming the generalized inverse of G from B-inverse, IUseBI=4.
 GSVD:  received Info=                   1 from GESDD.

 GradGradGradGradGradGradGradGradGradGradGradGradGradGradGradGradGradGrad
 Berny optimization.
 Internal  Forces:  Max     0.015001940 RMS     0.003127919
 Search for a local minimum.
 Step number   1 out of a maximum of  160
 All quantities printed in internal units (Hartrees-Bohrs-Radians)
 Mixed Optimization -- RFO/linear search
 Second derivative matrix not updated -- analytic derivatives used.
 ITU=  0
     Eigenvalues ---    0.00037   0.00059   0.00263   0.00264   0.00335
     Eigenvalues ---    0.00547   0.00566   0.00917   0.01043   0.01641
     Eigenvalues ---    0.01992   0.02150   0.02330   0.02938   0.02997
     Eigenvalues ---    0.03658   0.03883   0.04227   0.04262   0.04467
     Eigenvalues ---    0.04507   0.04732   0.04930   0.05341   0.05441
     Eigenvalues ---    0.05882   0.06191   0.06267   0.07805   0.08435
     Eigenvalues ---    0.08625   0.10805   0.10957   0.11557   0.11822
     Eigenvalues ---    0.12035   0.12975   0.13682   0.14624   0.15380
     Eigenvalues ---    0.16445   0.17788   0.18500   0.18510   0.19131
     Eigenvalues ---    0.21347   0.21822   0.22801   0.23351   0.23792
     Eigenvalues ---    0.25056   0.25134   0.25946   0.28079   0.28898
     Eigenvalues ---    0.31150   0.33303   0.33705   0.33931   0.34068
     Eigenvalues ---    0.34457   0.34706   0.34805   0.35053   0.35424
     Eigenvalues ---    0.36619   0.37449   0.37949   0.38375   0.38535
     Eigenvalues ---    0.42955   0.43047   0.44248   0.45522   0.45788
     Eigenvalues ---    0.46685   0.47466   0.49005   0.49719   0.53743
     Eigenvalues ---    0.60199   0.68634   0.81798   0.93748
 RFO step:  Lambda=-4.20809368D-03 EMin= 3.71644774D-04
 Linear search not attempted -- first point.
 Iteration  1 RMS(Cart)=  0.07222657 RMS(Int)=  0.00273521
 Iteration  2 RMS(Cart)=  0.00395149 RMS(Int)=  0.00009750
 Iteration  3 RMS(Cart)=  0.00001261 RMS(Int)=  0.00009738
 Iteration  4 RMS(Cart)=  0.00000000 RMS(Int)=  0.00009738
 Variable       Old X    -DE/DX   Delta X   Delta X   Delta X     New X
                                 (Linear)    (Quad)   (Total)
    R1        2.32883   0.00626   0.00000   0.00614   0.00614   2.33497
    R2        2.55756   0.01146   0.00000   0.01648   0.01648   2.57404
    R3        2.86147   0.00445   0.00000   0.01152   0.01152   2.87300
    R4        2.73197   0.00587   0.00000   0.01200   0.01200   2.74396
    R5        1.90693   0.00247   0.00000   0.00570   0.00570   1.91263
    R6        2.85851   0.00693   0.00000   0.02258   0.02258   2.88109
    R7        2.90151   0.00923   0.00000   0.02998   0.02998   2.93149
    R8        2.05757   0.00268   0.00000   0.00969   0.00969   2.06727
    R9        2.54840   0.00218   0.00000  -0.00458  -0.00458   2.54383
   R10        2.27370   0.01500   0.00000   0.01661   0.01661   2.29032
   R11        1.82433   0.00742   0.00000   0.01364   0.01364   1.83797
   R12        2.83617   0.00318   0.00000   0.00134   0.00134   2.83751
   R13        2.06506   0.00314   0.00000   0.00879   0.00879   2.07385
   R14        2.06277   0.00343   0.00000   0.00947   0.00947   2.07225
   R15        2.57832   0.01301   0.00000   0.02388   0.02386   2.60218
   R16        2.59234   0.00915   0.00000   0.01839   0.01850   2.61084
   R17        2.60964  -0.00120   0.00000  -0.00975  -0.00987   2.59976
   R18        2.04182   0.00099   0.00000   0.00313   0.00313   2.04495
   R19        2.47581   0.00787   0.00000   0.01275   0.01270   2.48851
   R20        2.56200   0.00976   0.00000   0.01704   0.01712   2.57912
   R21        2.03338   0.00404   0.00000   0.00986   0.00986   2.04324
   R22        1.91539   0.00442   0.00000   0.01147   0.01147   1.92685
   R23        2.88916   0.00676   0.00000   0.02560   0.02560   2.91476
   R24        2.06708   0.00218   0.00000   0.00595   0.00595   2.07304
   R25        2.07159   0.00187   0.00000   0.00536   0.00536   2.07695
   R26        2.76156   0.00158   0.00000  -0.00315  -0.00315   2.75841
   R27        2.06245   0.00280   0.00000   0.00828   0.00828   2.07073
   R28        2.05813   0.00267   0.00000   0.00740   0.00740   2.06552
   R29        1.91576   0.00314   0.00000   0.00687   0.00687   1.92263
   R30        1.91656   0.00296   0.00000   0.00624   0.00624   1.92280
    A1        2.12142   0.00340   0.00000   0.00932   0.00929   2.13071
    A2        2.14078  -0.00372   0.00000  -0.01348  -0.01352   2.12727
    A3        2.02094   0.00033   0.00000   0.00429   0.00426   2.02520
    A4        2.11622   0.00582   0.00000   0.01768   0.01768   2.13391
    A5        2.08379  -0.00193   0.00000  -0.00456  -0.00455   2.07924
    A6        2.02958  -0.00361   0.00000  -0.01404  -0.01403   2.01555
    A7        1.90546  -0.00402   0.00000  -0.02314  -0.02333   1.88213
    A8        1.98355   0.00194   0.00000   0.01736   0.01747   2.00102
    A9        1.88359   0.00022   0.00000  -0.00762  -0.00776   1.87584
   A10        1.88388   0.00281   0.00000   0.01580   0.01590   1.89978
   A11        1.90111   0.00006   0.00000  -0.00196  -0.00214   1.89897
   A12        1.90502  -0.00109   0.00000  -0.00113  -0.00111   1.90391
   A13        1.94285   0.00212   0.00000   0.01066   0.01065   1.95350
   A14        2.19042  -0.00372   0.00000  -0.01803  -0.01803   2.17239
   A15        2.14929   0.00160   0.00000   0.00747   0.00747   2.15676
   A16        1.85090   0.00285   0.00000   0.01482   0.01482   1.86572
   A17        2.01653   0.00160   0.00000   0.00431   0.00432   2.02085
   A18        1.87036  -0.00047   0.00000  -0.01142  -0.01151   1.85884
   A19        1.91996  -0.00261   0.00000  -0.02225  -0.02230   1.89766
   A20        1.90971  -0.00008   0.00000   0.01760   0.01760   1.92730
   A21        1.89153   0.00090   0.00000   0.00517   0.00512   1.89665
   A22        1.84853   0.00058   0.00000   0.00712   0.00686   1.85539
   A23        2.27747  -0.00075   0.00000  -0.00415  -0.00432   2.27315
   A24        2.17313   0.00180   0.00000   0.00705   0.00687   2.18000
   A25        1.83182  -0.00107   0.00000  -0.00375  -0.00363   1.82819
   A26        1.93433   0.00179   0.00000   0.00611   0.00609   1.94042
   A27        2.23675  -0.00143   0.00000  -0.01197  -0.01197   2.22478
   A28        2.11211  -0.00036   0.00000   0.00586   0.00586   2.11796
   A29        1.82824   0.00052   0.00000   0.00031   0.00023   1.82847
   A30        1.95405   0.00156   0.00000   0.00459   0.00471   1.95876
   A31        2.20470  -0.00169   0.00000  -0.00892  -0.00898   2.19571
   A32        2.12444   0.00013   0.00000   0.00432   0.00425   2.12869
   A33        1.87629  -0.00280   0.00000  -0.00731  -0.00749   1.86881
   A34        2.19588   0.00172   0.00000  -0.00110  -0.00170   2.19419
   A35        2.20485   0.00107   0.00000   0.00258   0.00196   2.20681
   A36        1.97253  -0.00100   0.00000  -0.00981  -0.00980   1.96273
   A37        1.90593   0.00185   0.00000   0.02133   0.02134   1.92727
   A38        1.87852  -0.00059   0.00000  -0.00647  -0.00646   1.87206
   A39        1.93534  -0.00089   0.00000  -0.00667  -0.00663   1.92871
   A40        1.89926   0.00116   0.00000   0.00702   0.00699   1.90625
   A41        1.86850  -0.00051   0.00000  -0.00538  -0.00536   1.86314
   A42        1.99920   0.00297   0.00000   0.01638   0.01638   2.01558
   A43        1.92010  -0.00172   0.00000  -0.01497  -0.01510   1.90500
   A44        1.89875  -0.00068   0.00000  -0.00640  -0.00651   1.89224
   A45        1.87581   0.00018   0.00000   0.01093   0.01100   1.88681
   A46        1.89866  -0.00082   0.00000   0.00235   0.00237   1.90102
   A47        1.86679  -0.00009   0.00000  -0.00976  -0.00990   1.85689
   A48        1.92590   0.00027   0.00000   0.00392   0.00392   1.92982
   A49        1.92274   0.00081   0.00000   0.00457   0.00456   1.92731
   A50        1.86005  -0.00034   0.00000  -0.00107  -0.00108   1.85897
    D1       -0.15769  -0.00206   0.00000  -0.04726  -0.04731  -0.20501
    D2       -2.94064  -0.00218   0.00000  -0.04138  -0.04145  -2.98209
    D3        2.97419  -0.00073   0.00000  -0.03288  -0.03282   2.94138
    D4        0.19124  -0.00085   0.00000  -0.02701  -0.02695   0.16429
    D5       -0.58554   0.00024   0.00000  -0.03436  -0.03444  -0.61997
    D6       -2.74848   0.00072   0.00000  -0.03471  -0.03475  -2.78323
    D7        1.51209   0.00067   0.00000  -0.03600  -0.03601   1.47608
    D8        2.56588  -0.00115   0.00000  -0.04904  -0.04904   2.51684
    D9        0.40293  -0.00068   0.00000  -0.04940  -0.04935   0.35358
   D10       -1.61968  -0.00073   0.00000  -0.05068  -0.05062  -1.67029
   D11       -2.19703   0.00052   0.00000  -0.03440  -0.03453  -2.23157
   D12        1.98219  -0.00149   0.00000  -0.04955  -0.04950   1.93269
   D13       -0.13312  -0.00151   0.00000  -0.05390  -0.05381  -0.18693
   D14        0.59648   0.00089   0.00000  -0.03850  -0.03864   0.55784
   D15       -1.50748  -0.00112   0.00000  -0.05365  -0.05360  -1.56109
   D16        2.66040  -0.00114   0.00000  -0.05799  -0.05791   2.60248
   D17        2.86584  -0.00116   0.00000   0.00567   0.00576   2.87161
   D18       -0.31291  -0.00107   0.00000   0.00880   0.00888  -0.30403
   D19       -1.25340   0.00051   0.00000   0.02262   0.02256  -1.23083
   D20        1.85103   0.00060   0.00000   0.02575   0.02568   1.87671
   D21        0.81293   0.00083   0.00000   0.02911   0.02909   0.84203
   D22       -2.36582   0.00092   0.00000   0.03224   0.03221  -2.33361
   D23       -1.02269  -0.00122   0.00000   0.00391   0.00395  -1.01874
   D24        3.12731  -0.00183   0.00000  -0.01304  -0.01291   3.11440
   D25        1.12545  -0.00093   0.00000  -0.00395  -0.00393   1.12153
   D26       -3.13876   0.00063   0.00000   0.01087   0.01078  -3.12799
   D27        1.01124   0.00002   0.00000  -0.00608  -0.00608   1.00515
   D28       -0.99062   0.00092   0.00000   0.00301   0.00290  -0.98772
   D29        1.08059  -0.00043   0.00000   0.00486   0.00484   1.08544
   D30       -1.05259  -0.00104   0.00000  -0.01209  -0.01202  -1.06461
   D31       -3.05445  -0.00014   0.00000  -0.00300  -0.00303  -3.05748
   D32        3.11217  -0.00047   0.00000  -0.01413  -0.01410   3.09806
   D33        0.00671  -0.00043   0.00000  -0.01653  -0.01655  -0.00984
   D34        2.85446  -0.00111   0.00000  -0.02134  -0.02136   2.83310
   D35       -0.33563  -0.00157   0.00000  -0.04830  -0.04835  -0.38398
   D36       -1.31667  -0.00066   0.00000  -0.01976  -0.01976  -1.33643
   D37        1.77642  -0.00112   0.00000  -0.04671  -0.04674   1.72968
   D38        0.69137   0.00047   0.00000   0.00086   0.00092   0.69230
   D39       -2.49872   0.00001   0.00000  -0.02610  -0.02606  -2.52478
   D40        3.10774  -0.00057   0.00000  -0.02491  -0.02483   3.08291
   D41       -0.03206  -0.00027   0.00000  -0.01789  -0.01785  -0.04991
   D42        0.00751  -0.00024   0.00000  -0.00217  -0.00220   0.00531
   D43       -3.13229   0.00006   0.00000   0.00485   0.00478  -3.12751
   D44       -3.11273   0.00042   0.00000   0.01802   0.01812  -3.09461
   D45        0.14204   0.00046   0.00000   0.07129   0.07126   0.21330
   D46       -0.00931   0.00005   0.00000  -0.00329  -0.00326  -0.01257
   D47       -3.03773   0.00008   0.00000   0.04998   0.04987  -2.98785
   D48       -0.00267   0.00037   0.00000   0.00695   0.00697   0.00430
   D49        3.13728   0.00010   0.00000   0.00049   0.00046   3.13774
   D50       -0.00351  -0.00036   0.00000  -0.00920  -0.00925  -0.01275
   D51        3.13674  -0.00023   0.00000  -0.01536  -0.01537   3.12137
   D52        0.00831   0.00021   0.00000   0.00817   0.00816   0.01647
   D53        3.03598   0.00023   0.00000  -0.04576  -0.04578   2.99020
   D54       -3.13201   0.00010   0.00000   0.01402   0.01403  -3.11798
   D55       -0.10434   0.00011   0.00000  -0.03991  -0.03992  -0.14425
   D56        3.05691  -0.00067   0.00000  -0.00161  -0.00160   3.05531
   D57       -1.11131   0.00035   0.00000   0.01286   0.01276  -1.09856
   D58        0.92831  -0.00113   0.00000  -0.01109  -0.01104   0.91727
   D59       -1.07957   0.00035   0.00000   0.01412   0.01415  -1.06542
   D60        1.03539   0.00137   0.00000   0.02859   0.02851   1.06390
   D61        3.07502  -0.00011   0.00000   0.00464   0.00471   3.07973
   D62        0.97119  -0.00008   0.00000   0.00794   0.00797   0.97916
   D63        3.08615   0.00093   0.00000   0.02240   0.02232   3.10848
   D64       -1.15741  -0.00054   0.00000  -0.00154  -0.00148  -1.15889
   D65        1.03793  -0.00017   0.00000  -0.01026  -0.01022   1.02771
   D66       -1.01116  -0.00041   0.00000  -0.01411  -0.01408  -1.02524
   D67       -1.10121  -0.00007   0.00000  -0.01005  -0.01011  -1.11132
   D68        3.13288  -0.00031   0.00000  -0.01390  -0.01397   3.11891
   D69       -3.11660   0.00036   0.00000  -0.00555  -0.00551  -3.12212
   D70        1.11749   0.00012   0.00000  -0.00940  -0.00937   1.10812
         Item               Value     Threshold  Converged?
 Maximum Force            0.015002     0.000450     NO 
 RMS     Force            0.003128     0.000300     NO 
 Maximum Displacement     0.315627     0.001800     NO 
 RMS     Displacement     0.074056     0.001200     NO 
 Predicted change in Energy=-2.247678D-03
 GradGradGradGradGradGradGradGradGradGradGradGradGradGradGradGradGradGrad

                          Input orientation:                          
 ---------------------------------------------------------------------
 Center     Atomic      Atomic             Coordinates (Angstroms)
 Number     Number       Type             X           Y           Z
 ---------------------------------------------------------------------
      1          8           0        0.919419   -1.280065   -0.768025
      2          6           0        1.156987   -0.115227   -0.431187
      3          7           0        0.235684    0.878987   -0.565770
      4          6           0       -0.984870    0.706037   -1.333082
      5          6           0       -1.078648    1.858004   -2.327368
      6          8           0       -1.981606    1.614179   -3.295508
      7          8           0       -0.447729    2.889431   -2.243662
      8          6           0       -2.282915    0.669548   -0.484432
      9          6           0       -2.347695   -0.403058    0.564359
     10          6           0       -3.163187   -0.520263    1.667717
     11          7           0       -2.938598   -1.706107    2.328009
     12          6           0       -1.990725   -2.301935    1.634718
     13          7           0       -1.603904   -1.567282    0.551500
     14          6           0        2.495213    0.291302    0.164859
     15          6           0        3.096965   -0.806761    1.065538
     16          7           0        4.434121   -0.532123    1.582527
     17          1           0        0.518971    1.837837   -0.408484
     18          1           0       -0.893862   -0.232261   -1.888099
     19          1           0       -2.010713    2.405209   -3.860665
     20          1           0       -3.115135    0.564125   -1.192005
     21          1           0       -2.413427    1.643926    0.001425
     22          1           0       -3.905717    0.185933    2.015526
     23          1           0       -1.541403   -3.257197    1.868509
     24          1           0       -0.809765   -1.759592   -0.058452
     25          1           0        2.397048    1.232494    0.719780
     26          1           0        3.179246    0.487327   -0.672776
     27          1           0        2.430480   -0.977299    1.918448
     28          1           0        3.120596   -1.742214    0.500671
     29          1           0        4.436742    0.325903    2.129256
     30          1           0        5.088504   -0.388986    0.816622
 ---------------------------------------------------------------------
                    Distance matrix (angstroms):
                    1          2          3          4          5
     1  O    0.000000
     2  C    1.235615   0.000000
     3  N    2.273742   1.362121   0.000000
     4  C    2.808951   2.464841   1.452044   0.000000
     5  C    4.033770   3.533725   2.406070   1.524608   0.000000
     6  O    4.814641   4.587586   3.592820   2.381034   1.346135
     7  O    4.629395   3.858517   2.706337   2.425878   1.211985
     8  C    3.759834   3.528687   2.528601   1.551276   2.501819
     9  C    3.635714   3.654689   3.097528   2.586052   3.883938
    10  C    4.814334   4.820099   4.301011   3.905595   5.095308
    11  N    4.965000   5.188244   5.013256   4.799903   6.151003
    12  C    3.909774   4.354049   4.462882   4.343671   5.816795
    13  N    2.861956   3.270574   3.258313   3.017089   4.505148
    14  C    2.413005   1.520324   2.446357   3.811405   4.630144
    15  C    2.885772   2.545962   3.699979   4.970243   6.004043
    16  N    4.293908   3.868909   4.922732   6.276885   7.168725
    17  H    3.164007   2.054761   1.012119   2.096995   2.496980
    18  H    2.374962   2.518386   2.063806   1.093951   2.143901
    19  H    5.633058   5.305492   4.269893   3.213754   1.875947
    20  H    4.456278   4.392196   3.423346   2.139643   2.666543
    21  H    4.499959   4.003702   2.815072   2.168252   2.692721
    22  H    5.760143   5.630992   4.928958   4.473816   5.445078
    23  H    4.112907   4.737286   5.117790   5.125147   6.632105
    24  H    1.929641   2.590556   2.883129   2.781128   4.278701
    25  H    3.272599   2.163060   2.539508   3.991086   4.664423
    26  H    2.870464   2.123904   2.971431   4.221813   4.769287
    27  H    3.097113   2.808155   3.799246   5.007063   6.195150
    28  H    2.582315   2.714996   4.041127   5.119710   6.212329
    29  H    4.831659   4.184167   5.021748   6.444079   7.254541
    30  H    4.548231   4.133860   5.202752   6.534996   7.277871
                    6          7          8          9         10
     6  O    0.000000
     7  O    2.255089   0.000000
     8  C    2.980815   3.375007   0.000000
     9  C    4.370565   4.726028   1.501547   0.000000
    10  C    5.530423   5.856502   2.611949   1.377012   0.000000
    11  N    6.600308   6.944319   3.739449   2.271026   1.375736
    12  C    6.296281   6.661302   3.661405   2.208807   2.133099
    13  N    5.006378   5.386275   2.556877   1.381596   2.184847
    14  C    5.810856   4.605665   4.836853   4.908716   5.910559
    15  C    7.118396   6.097335   5.790078   5.482561   6.295570
    16  N    8.340467   7.083729   7.129860   6.859034   7.597795
    17  H    3.825940   2.325561   3.036647   3.766405   4.840406
    18  H    2.563850   3.173392   2.170946   2.856108   4.228074
    19  H    0.972614   2.300454   3.805990   5.251738   6.359999
    20  H    2.610024   3.691624   1.097435   2.146910   3.058793
    21  H    3.325225   3.233523   1.096587   2.123996   2.832381
    22  H    5.826592   6.116148   3.019464   2.209124   1.082143
    23  H    7.112746   7.475768   4.637402   3.239911   3.187681
    24  H    4.820174   5.149721   2.872691   2.143200   3.170835
    25  H    5.953221   4.429468   4.865089   5.021132   5.906518
    26  H    5.897704   4.625228   5.468444   5.733268   6.835174
    27  H    7.305313   6.368583   5.540941   4.999426   5.617905
    28  H    7.190884   6.458827   5.998746   5.630240   6.507003
    29  H    8.501936   7.039328   7.218258   7.000633   7.660805
    30  H    8.420733   7.124832   7.559832   7.440490   8.296505
                   11         12         13         14         15
    11  N    0.000000
    12  C    1.316862   0.000000
    13  N    2.226357   1.364811   0.000000
    14  C    6.180223   5.386000   4.517364   0.000000
    15  C    6.231427   5.333302   4.789655   1.542424   0.000000
    16  N    7.502731   6.664354   6.212271   2.539129   1.459688
    17  H    5.657094   5.254613   4.125894   2.574107   3.976518
    18  H    4.912100   4.230473   2.870206   3.996821   4.998072
    19  H    7.487560   7.235802   5.950913   6.401313   7.789262
    20  H    4.192327   4.179588   3.141102   5.778539   6.750260
    21  H    4.112360   4.291402   3.357046   5.094216   6.123938
    22  H    2.147738   3.162545   3.242758   6.663931   7.136209
    23  H    2.137563   1.081238   2.143416   5.638132   5.306963
    24  H    3.198435   2.134392   1.019647   3.896012   4.175378
    25  H    6.300071   5.708051   4.886172   1.097003   2.183573
    26  H    7.158483   6.311348   5.347784   1.099073   2.168679
    27  H    5.433774   4.624091   4.300335   2.165321   1.095784
    28  H    6.328846   5.265449   4.728010   2.153848   1.093026
    29  H    7.652725   6.961497   6.524022   2.762171   2.051688
    30  H    8.273661   7.378627   6.800514   2.759121   2.050054
                   16         17         18         19         20
    16  N    0.000000
    17  H    4.990916   0.000000
    18  H    6.365733   2.910440   0.000000
    19  H    8.932645   4.317263   3.477732   0.000000
    20  H    8.117330   3.929755   2.460250   3.425067   0.000000
    21  H    7.356900   2.967251   3.065853   3.956952   1.755745
    22  H    8.381885   5.308717   4.948176   6.560933   3.325102
    23  H    6.573789   5.948883   4.866379   8.068861   5.142555
    24  H    5.630083   3.850916   2.384831   5.765819   3.464005
    25  H    2.829819   2.273015   4.447092   6.464062   5.872461
    26  H    2.774956   2.995129   4.311035   6.385654   6.316227
    27  H    2.079808   4.122314   5.108437   8.035154   6.542534
    28  H    2.088080   4.517940   4.909384   7.909027   6.860662
    29  H    1.017413   4.906628   6.698210   9.042806   8.253385
    30  H    1.017504   5.228792   6.567250   8.948934   8.499570
                   21         22         23         24         25
    21  H    0.000000
    22  H    2.899875   0.000000
    23  H    5.316712   4.179323   0.000000
    24  H    3.762878   4.203733   2.547801   0.000000
    25  H    4.881186   6.519133   6.081800   4.454422   0.000000
    26  H    5.750675   7.583833   6.539428   4.619334   1.762476
    27  H    5.831743   6.442820   4.579987   3.875475   2.514181
    28  H    6.506965   7.441882   5.089242   3.969969   3.069270
    29  H    7.293124   8.344409   6.974583   6.054848   2.639863
    30  H    7.815129   9.091970   7.299915   6.118324   3.143646
                   26         27         28         29         30
    26  H    0.000000
    27  H    3.069238   0.000000
    28  H    2.520173   1.752554   0.000000
    29  H    3.075506   2.401637   2.943066   0.000000
    30  H    2.575170   2.936873   2.409090   1.630603   0.000000
 Symmetry turned off by external request.
 Stoichiometry    C9H14N4O3
 Framework group  C1[X(C9H14N4O3)]
 Deg. of freedom    84
 Full point group                 C1      NOp   1
 Rotational constants (GHZ):      0.4964274      0.4013114      0.2439132
 Standard basis: 6-31G(d,p) (6D, 7F)
   310 basis functions,   546 primitive gaussians,   310 cartesian basis functions
    60 alpha electrons       60 beta electrons
       nuclear repulsion energy      1118.1834484590 Hartrees.
 NAtoms=   30 NActive=   30 NUniq=   30 SFac= 1.00D+00 NAtFMM=   60 NAOKFM=F Big=F
 Integral buffers will be    131072 words long.
 Raffenetti 2 integral format.
 Two-electron integral symmetry is turned off.
 One-electron integrals computed using PRISM.
 NBasis=   310 RedAO= T EigKep=  1.17D-03  NBF=   310
 NBsUse=   310 1.00D-06 EigRej= -1.00D+00 NBFU=   310
 Initial guess from the checkpoint file:  "conf-640.chk"
 B after Tr=    -0.008135   -0.007149    0.016694
         Rot=    0.999993   -0.002900    0.002259   -0.001199 Ang=  -0.44 deg.
[...]
 00017930,0.00005619,0.00003970,0.00084420,0.00075114,-0.00102179,0.000
 01793,-0.00061780,-0.00045575,-0.07010772,0.07449805,-0.00257620,-0.00
 640862,-0.00326998,-0.00206634,0.00798151,0.00215205,0.00216524,-0.002
 74972,-0.00061183,-0.00084839,0.00068160,0.00088653,-0.00002523,0.0001
 0052,-0.00073782,0.00026179,-0.00014395,0.00021108,0.00006128,-0.00023
 199,0.00033090,-0.00140249,-0.00103842,0.00030227,-0.00438225,-0.00593
 780,0.00214056,-0.00100685,0.00197997,0.00356798,0.00197887,0.00636483
 ,-0.00137377,0.01208873,-0.01193273,-0.01183719,0.18561275,-0.02590833
 ,-0.19073773,-0.00020044,-0.00109104,-0.00078687,-0.00010906,-0.000444
 73,0.00071271,-0.00010490,0.00025394,-0.00044783,0.00002188,-0.0000504
 3,0.00025246,-0.00006334,0.00126779,-0.00127313,-0.00004772,0.00002862
 ,0.00001252,0.00003326,0.00050868,-0.00042113,0.00016977,0.00008607,-0
 .00019630,0.00074997,0.00047988,0.00118711,-0.00114082,-0.00021859,-0.
 00023613,-0.18895629,0.03671066,0.20046667,-0.00748908,-0.00345224,-0.
 00352938,0.00518419,-0.02923481,-0.00816434,-0.00026736,0.00084966,0.0
 0072385,0.00036362,0.00013279,0.00028949,-0.00002349,-0.00009304,-0.00
 000911,0.00005998,0.00001341,0.00006279,0.00004759,0.00009883,0.000025
 58,0.00004157,-0.00002370,0.00001951,0.00009356,-0.00015364,-0.0000036
 4,-0.00003274,0.00000328,0.00007208,-0.00008026,0.00006657,0.00011000,
 0.00001565,0.00012933,-0.00017953,-0.00023917,-0.00005953,0.00026022,-
 0.05096065,0.00357329,0.00105445,-0.00046539,0.00851116,0.00267607,0.0
 0087065,-0.00016542,0.00121668,-0.00139700,0.00042768,-0.00124669,0.00
 027106,-0.00024013,0.00011497,-0.00000400,-0.00000178,-0.00000160,0.00
 001487,0.00000442,-0.00001525,-0.00002082,0.00001788,-0.00000283,-0.00
 001287,0.00000191,0.00001012,-0.00000373,-0.00000534,-0.00000236,0.000
 49479,0.00012385,-0.00043055,0.05303426,-0.00254462,0.00132128,-0.0012
 5381,0.00429751,-0.00939424,-0.00033173,0.00100790,0.00091720,0.001378
 12,-0.00055476,0.00058070,-0.00008305,-0.00017618,-0.00021005,-0.00001
 677,0.00006601,0.00005279,0.00004857,0.00012774,0.00014097,0.00002555,
 0.00000055,-0.00003618,-0.00003443,0.00008185,-0.00010134,0.00000013,-
 0.00001304,0.00000757,0.00005536,-0.00006842,0.00006710,0.00006395,0.0
 0003094,0.00005090,-0.00014219,-0.00014270,-0.00003968,0.00012826,-0.0
 0076233,-0.27485146,-0.08476620,-0.00103151,-0.02056692,-0.00785554,-0
 .00030564,0.00253013,-0.00013449,-0.00021809,0.00106312,-0.00055027,0.
 00021310,0.00007113,0.00017271,-0.00000936,-0.00000731,-0.00001438,-0.
 00000480,0.00000561,-0.00000950,-0.00002586,0.00002253,-0.00000513,-0.
 00001636,0.00000556,0.00000625,0.00001324,0.00001811,-0.00000499,0.000
 27697,0.00004087,-0.00015310,-0.00195546,0.30018295,-0.00477643,-0.001
 56597,0.00079651,0.00587142,-0.01172717,-0.00578614,-0.00015630,0.0008
 3106,0.00027942,0.00017077,0.00027895,0.00005103,-0.00020677,-0.000350
 90,0.00000839,0.00008772,0.00009707,0.00005242,0.00019269,0.00022071,-
 0.00002261,0.00001874,0.00000572,0.00001399,0.00007791,-0.00015278,-0.
 00000194,-0.00002892,-0.00000957,0.00004768,-0.00007749,0.00004943,0.0
 0010142,0.00000560,0.00013406,-0.00016134,-0.00026719,-0.00004651,0.00
 021488,-0.00149802,-0.08219747,-0.07883248,-0.00038939,0.02520330,0.00
 867396,0.00202980,-0.00068701,0.00156218,-0.00137198,0.00034917,-0.000
 00786,0.00015399,-0.00006283,0.00008147,-0.00001921,-0.00000294,-0.000
 01117,-0.00000279,-0.00000371,-0.00001360,-0.00000816,0.00000766,0.000
 00809,-0.00000392,0.00000296,0.00001100,-0.00000529,-0.00000860,-0.000
 00032,0.00047038,0.00013337,-0.00030910,0.00278143,0.08939463,0.083426
 62,0.00259298,0.00040158,-0.00340496,-0.02239204,0.00333452,0.02439159
 ,-0.00280992,-0.00111400,-0.00290651,0.00053816,0.00107665,-0.00102678
 ,-0.00044561,-0.00071855,0.00014609,-0.00009380,0.00026326,-0.00028595
 ,0.00014180,0.00024245,-0.00017684,0.00017421,0.00004610,0.00004998,-0
 .00001437,0.00000053,-0.00002604,0.00002347,-0.00001192,-0.00004113,-0
 .00000136,-0.00004962,0.00004154,0.00001124,0.00000541,-0.00001080,0.0
 0002724,0.00004253,-0.00005063,-0.16634197,0.01088013,0.13070782,0.005
 13218,-0.00057443,-0.00703918,0.00234794,-0.00038755,-0.00035702,-0.00
 036701,-0.00024487,0.00064565,-0.00008908,0.00000287,-0.00003436,-0.00
 004933,0.00000914,-0.00001801,-0.00002365,-0.00001288,0.00001286,-0.00
 001226,-0.00000429,0.00002901,0.00000053,0.00000201,-0.00000162,-0.000
 00004,-0.00000442,0.00000301,-0.00007207,0.00003167,0.00008754,0.00071
 414,0.00000947,-0.00103415,0.18060712,-0.00003255,-0.00047606,-0.00186
 042,-0.00367178,-0.00030183,0.00650707,0.00020921,0.00010542,0.0004881
 0,-0.00012169,0.00025357,0.00024135,0.00007744,0.00009035,-0.00002292,
 -0.00002382,-0.00002580,-0.00000656,-0.00008048,-0.00004194,0.00005613
 ,-0.00000667,-0.00002950,-0.00001101,0.00002900,-0.00004744,0.00000309
 ,-0.00000027,-0.00000163,0.00002238,-0.00002444,0.00001768,0.00002260,
 0.00000365,0.00003654,-0.00006341,-0.00005829,-0.00002734,0.00001777,0
 .01031451,-0.04745006,-0.01686512,-0.01469963,-0.00017517,0.01942589,-
 0.00136768,0.00046984,-0.00220326,-0.00006404,0.00021833,-0.00078248,0
 .00015026,-0.00002361,0.00008764,0.00001311,-0.00000565,0.00000162,0.0
 0000243,0.00000997,-0.00000291,-0.00001493,0.00001074,-0.00000756,-0.0
 0000677,0.00000152,0.00000249,0.00000466,0.00000821,0.00000371,0.00011
 824,0.00004539,0.00002836,0.02144276,-0.00149386,-0.02175147,-0.014093
 62,0.04961789,0.00043491,0.00042950,-0.00086406,-0.01018840,-0.0000929
 7,0.01139731,-0.00092944,0.00017389,-0.00109646,0.00021439,0.00059510,
 -0.00078829,-0.00022662,-0.00024634,-0.00002731,-0.00003322,0.00010489
 ,-0.00009722,0.00004689,0.00006884,-0.00001960,0.00014085,0.00001778,0
 .00005844,0.00000151,-0.00001756,-0.00002033,-0.00000016,0.00000032,0.
 00000561,0.00000521,0.00000053,0.00005249,0.00000518,0.00000480,-0.000
 02874,-0.00000347,0.00001103,0.00002096,0.12853704,-0.01750835,-0.1813
 2730,0.01738187,0.00028239,-0.02150801,0.00081742,-0.00133801,0.003256
 77,-0.00029043,0.00012979,0.00004474,0.00003996,-0.00001393,0.00001908
 ,-0.00001822,0.00000567,-0.00002466,0.00001431,-0.00000250,0.00000079,
 -0.00001538,0.00000314,0.00000925,-0.00000497,-0.00000220,-0.00000128,
 -0.00001085,-0.00001644,-0.00000485,0.00005045,0.00003588,-0.00002290,
 0.00684899,-0.00041866,-0.00766958,-0.13896939,0.01391428,0.20043003,0
 .00006420,0.00003642,0.00023539,0.00088126,-0.00026872,-0.00015696,0.0
 0024661,-0.00007962,0.00023169,-0.00003475,-0.00001766,-0.00005230,0.0
 0000746,0.00004183,-0.00001860,0.00001008,-0.00001487,0.00001441,-0.00
 000047,-0.00002130,0.00001173,0.00000427,-0.00000467,0.00003138,-0.000
 03420,0.00003052,0.00000415,-0.00000994,-0.00000974,-0.00000962,-0.000
 00160,0.00001448,-0.00004237,0.00000107,-0.00005414,0.00008536,0.00006
 418,0.00003687,-0.00003943,0.00653202,-0.00040037,-0.00623590,-0.15701
 931,0.01139240,0.12459660,-0.03074475,0.00532410,0.02031384,0.00002099
 ,0.00002688,0.00004632,0.00000596,-0.00000364,0.00000199,0.00000013,0.
 00000052,0.00000204,0.00001352,0.00000297,-0.00001175,0.00000327,-0.00
 000139,-0.00000194,0.00000471,0.00000061,0.00000188,0.00000438,0.00000
 960,0.00000307,-0.00003545,-0.00002642,0.00001149,0.00012936,-0.000316
 18,0.00036763,0.00009936,0.00154075,-0.00212107,0.18267402,-0.00015167
 ,0.00034066,0.00014324,-0.00162428,0.00017252,-0.00027339,0.00034444,-
 0.00015418,-0.00041685,-0.00001498,-0.00006507,0.00003126,-0.00001893,
 0.00003495,-0.00001435,0.00001027,-0.00000973,0.00001643,0.00001632,-0
 .00002971,-0.00000695,0.00001545,0.00003235,-0.00000844,-0.00003102,-0
 .00000749,-0.00001577,-0.00002314,-0.00003360,-0.00001089,0.00003543,0
 .00000488,0.00001205,0.00001061,0.00000525,0.00009165,0.00008904,0.000
 07088,-0.00002485,-0.01212636,0.00038183,0.01967450,0.01371078,-0.0540
 2370,-0.01765952,-0.00522460,0.00197260,0.00338861,-0.00002417,-0.0000
 1054,0.00016029,-0.00001675,0.00000217,-0.00001175,-0.00000456,0.00000
 342,-0.00000141,-0.00000106,-0.00001092,0.00001164,0.00000905,-0.00001
 689,0.00000663,0.00001437,-0.00000904,-0.00000024,-0.00003968,-0.00005
 815,-0.00001616,-0.00004906,0.00001456,-0.00010489,-0.00075362,0.00094
 458,-0.00079275,0.00117431,-0.00206520,0.00387101,-0.01430598,0.052355
 75,-0.00109708,-0.00095013,0.00015373,0.00305017,0.00102707,0.00004389
 ,-0.00104687,0.00019034,0.00026182,0.00006277,0.00006431,-0.00003232,0
 .00004809,0.00007412,-0.00000631,-0.00004377,-0.00000705,-0.00002152,-
 0.00007716,-0.00005167,0.00001274,0.00001611,0.00004522,-0.00009249,-0
 .00006849,0.00011106,-0.00005351,-0.00000972,-0.00001776,0.00001226,0.
 00005155,-0.00000102,0.00003612,-0.00005154,-0.00009256,0.00012776,0.0
 0017730,0.00008554,0.00008667,0.01285386,-0.00128701,-0.01972666,0.130
 84040,-0.01679150,-0.19724886,-0.01233466,0.00219955,0.01253519,0.0001
 4971,-0.00001352,-0.00016328,0.00001288,0.00000315,-0.00000733,0.00001
 239,-0.00000519,-0.00000726,-0.00001757,-0.00001708,0.00004174,-0.0000
 1353,-0.00000489,0.00000975,0.00000189,-0.00000887,-0.00000529,-0.0000
 3141,-0.00005014,-0.00000797,0.00000526,-0.00002472,-0.00028937,-0.000
 18331,0.00009167,0.00121052,-0.00183814,0.00341702,-0.00253992,-0.1342
 9677,0.01306935,0.21224916,-0.00059577,-0.00152945,-0.00009974,0.00053
 256,0.00297713,0.00110789,0.00028120,-0.00080313,-0.00037584,-0.000069
 54,-0.00009115,-0.00002660,0.00001338,0.00011024,-0.00008348,0.0000078
 5,-0.00003028,0.00003284,-0.00002571,-0.00008487,0.00004088,0.00000102
 ,0.00001272,0.00000898,-0.00005089,0.00007917,0.00000795,0.00001205,-0
 .00002383,-0.00003019,0.00006050,-0.00003781,-0.00006271,-0.00005841,-
 0.00001540,0.00013120,0.00011895,0.00000187,-0.00007424,0.00078533,0.0
 0664972,0.00279661,-0.05017918,-0.00333337,0.00290574,-0.00633077,-0.0
 3220641,-0.01880080,0.00021377,-0.00006292,0.00009785,-0.00007859,0.00
 003944,-0.00003751,0.00000052,0.00000114,-0.00000408,0.00000837,-0.000
 00323,0.00000259,0.00000979,-0.00001243,0.00000147,0.00001058,-0.00000
 773,-0.00000402,-0.00002523,-0.00003370,0.00000959,-0.00022530,0.00000
 770,-0.00000441,-0.00016328,0.00087997,-0.00191437,0.00037744,-0.00060
 605,-0.00035295,0.00163831,0.02066892,0.00721510,0.05892066,-0.0010678
 3,0.00294032,-0.00066831,-0.00155877,-0.00398070,-0.00142519,0.0001810
 9,0.00054719,0.00024241,0.00000784,0.00006524,-0.00013209,-0.00007916,
 -0.00009431,0.00000507,0.00003952,0.00002495,0.00003348,0.00007087,0.0
 0008169,-0.00000223,0.00002337,-0.00001610,0.00003628,0.00004294,-0.00
 005776,0.00000622,-0.00000699,0.00001126,0.00002187,-0.00003906,0.0000
 3078,0.00002447,0.00002878,0.00002340,-0.00007859,-0.00007531,-0.00001
 699,0.00004491,0.00270818,-0.02197580,-0.00474204,-0.00793366,-0.28124
 123,-0.08922610,-0.00304869,-0.00147773,-0.00310080,-0.00020597,0.0002
 0856,-0.00001940,0.00007341,-0.00000031,0.00004850,-0.00000494,-0.0000
 0258,-0.00000525,0.00001387,0.00000687,-0.00001629,-0.00001002,0.00000
 870,-0.00000060,-0.00000797,0.00000406,0.00000317,0.00001098,0.0000203
 6,-0.00000343,0.00014173,0.00001267,-0.00001004,0.00080096,-0.00143680
 ,0.00351140,-0.00041649,0.00103773,-0.00021707,0.00058355,-0.00047975,
 -0.00037502,0.01062571,0.30426186,0.00017607,-0.00108210,-0.00091208,0
 .00049588,0.00207656,0.00140382,-0.00012666,-0.00059717,-0.00003390,-0
 .00006400,-0.00010713,0.00001112,0.00005313,0.00006139,-0.00000020,-0.
 00001835,-0.00001747,-0.00001637,-0.00003922,-0.00004276,0.00000931,-0
 .00003658,-0.00002570,-0.00001175,-0.00001327,0.00004466,0.00000635,0.
 00001165,0.00002434,-0.00000860,-0.00000263,0.00000919,-0.00003151,0.0
 0002116,-0.00008616,0.00001663,0.00002503,0.00000903,-0.00005331,-0.00
 091931,0.02530932,0.00642827,0.00000368,-0.08958201,-0.08340583,-0.003
 25750,-0.01272083,-0.00683754,0.00038732,-0.00012464,0.00007599,-0.000
 07891,0.00001993,-0.00003692,0.00000248,0.00000106,0.00000462,-0.00000
 532,0.00000499,-0.00000251,0.00000541,0.00000567,-0.00000798,-0.000004
 88,0.00000605,-0.00000265,0.00003009,0.00003601,0.00000376,-0.00011289
 ,-0.00008118,0.00016419,-0.00203078,0.00377924,-0.00344195,0.00062934,
 -0.00047907,0.00142055,-0.00101316,-0.02218582,-0.00786765,0.00856003,
 0.09521592,0.09186889,0.00004654,0.00089736,-0.00014460,-0.00055360,-0
 .00090974,0.00000250,0.00009502,0.00014471,0.00013526,-0.00004206,-0.0
 0001009,-0.00005763,-0.00004388,0.00000849,-0.00005936,0.00003752,-0.0
 0000562,0.00004817,0.00002653,0.00000063,0.00003582,0.00000639,-0.0000
 0987,0.00001246,0.00001193,-0.00000433,0.00000054,-0.00000114,0.000014
 54,0.00001272,0.00000280,0.00001931,0.00000389,0.00001534,-0.00001962,
 -0.00001518,0.00000630,0.00000614,0.00000109,0.00132350,-0.00119063,0.
 00059504,-0.00346003,-0.03714483,-0.01587508,-0.06144715,-0.01991666,0
 .00188481,-0.00004212,0.00005237,-0.00008030,0.00001641,0.00000686,0.0
 0001261,-0.00000464,0.00000088,-0.00000896,0.00001127,0.00000600,-0.00
 000360,-0.00000764,0.00000607,-0.00000483,-0.00000777,-0.00000022,-0.0
 0000144,0.00000387,0.00000718,-0.00000492,-0.00000234,-0.00003301,0.00
 002281,-0.00013826,0.00105045,-0.00031345,-0.00003364,0.00023750,0.000
 01305,0.00084543,0.00007031,0.00071043,-0.00639589,-0.00062646,-0.0026
 9383,0.06715159,-0.00009764,0.00013270,-0.00007715,0.00053756,-0.00038
 834,0.00031149,-0.00024821,0.00016907,0.00002705,0.00010524,0.00001640
 ,0.00005066,0.00005367,-0.00002757,0.00008114,-0.00005293,0.00001606,-
 0.00006114,-0.00004146,0.00002002,-0.00004242,0.00000121,0.00000246,-0
 .00003288,0.00001379,-0.00003330,-0.00001674,-0.00000051,0.00000491,-0
 .00000050,-0.00002207,0.00000238,0.00005466,0.00002719,0.00001075,-0.0
 0005716,-0.00006719,0.00001032,0.00005347,0.00087173,0.00268811,0.0005
 4700,0.00441142,-0.00778689,0.00442514,-0.02846603,-0.36509643,-0.1666
 5139,0.00005375,-0.00004738,-0.00001202,0.00000240,-0.00001005,-0.0000
 0049,0.00000973,-0.00000374,0.00000688,-0.00001740,-0.00000470,0.00001
 053,0.,0.00000222,0.00000411,-0.00000427,0.00000383,-0.00000065,0.0000
 0636,0.00000437,-0.00000641,0.00009492,0.00001260,-0.00002488,-0.00025
 623,0.00024466,-0.00082321,-0.00001913,-0.00004277,-0.00003831,-0.0003
 7939,0.00000459,0.00010236,-0.00262305,0.00159931,0.00001288,0.0284434
 0,0.37439370,0.00071333,0.00093512,0.00024299,-0.00177807,-0.00059475,
 -0.00008334,0.00092096,-0.00020800,0.00001569,-0.00022165,-0.00009855,
 -0.00018926,-0.00013337,0.00006159,-0.00020124,0.00013450,-0.00003778,
 0.00015613,0.00011402,-0.00003953,0.00009631,0.00000023,-0.00001397,0.
 00011580,-0.00002169,0.00006593,0.00004945,-0.00000149,0.00000427,0.00
 000197,0.00003484,0.00001219,-0.00013130,-0.00003289,-0.00005102,0.000
 10839,0.00015363,-0.00001707,-0.00013961,0.00240233,-0.00181913,0.0010
 2140,-0.00590743,-0.01357864,-0.00922740,0.00261511,-0.11506916,-0.071
 28268,-0.00012923,0.00013517,0.00004698,-0.00000876,0.00003407,0.00000
 498,-0.00002465,0.00000824,-0.00001374,0.00005383,0.00001688,-0.000038
 51,0.00000076,-0.00000198,-0.00001188,0.00000749,-0.00000475,0.0000016
 7,0.00000108,0.00000818,0.00000732,-0.00022620,-0.00008305,0.00012912,
 -0.00057428,0.00063369,-0.00020502,-0.00007213,0.00002637,-0.00041248,
 0.00050122,0.00092155,0.00056608,-0.00177981,0.00070846,0.00085567,0.0
 0551201,0.15617531,0.09181512,0.00037228,0.00040691,0.00000231,-0.0003
 1559,-0.00085293,-0.00016667,0.00064934,-0.00000457,0.00014341,-0.0001
 0600,-0.00011585,-0.00003715,-0.00004727,0.00004027,-0.00009599,0.0000
 6964,-0.00002460,0.00008462,0.00005523,-0.00001700,0.00004826,-0.00000
 738,-0.00002023,0.00006026,0.00000381,0.00000789,0.00003087,0.00000371
 ,0.00000660,-0.00000113,0.00000463,0.00000748,-0.00005748,-0.00000261,
 -0.00000584,0.00002234,0.00003212,-0.00001966,-0.00006456,0.00198865,0
 .00050906,0.00142208,-0.02792182,0.00201009,0.02843324,-0.22237163,0.0
 1963257,0.17377098,-0.00005443,0.00005512,0.00001785,-0.00000683,0.000
 01148,0.00000424,-0.00001134,0.00000435,-0.00000548,0.00002605,0.00001
 165,-0.00002331,0.00000208,0.00000197,-0.00000850,-0.00000027,-0.00000
 005,0.00000053,0.00000754,0.00001517,0.00000389,-0.00009156,-0.0000348
 9,0.00009993,-0.00003720,0.00008961,-0.00015427,-0.00004170,0.00072920
 ,-0.00138746,-0.00537013,-0.00175944,-0.00409789,0.00120631,-0.0002714
 8,0.00001602,0.00257971,-0.00233687,-0.00225369,0.24938466,-0.00030494
 ,-0.00056550,-0.00028102,0.00078045,0.00066976,0.00054263,-0.00055135,
 -0.00003581,-0.00013699,0.00015121,0.00010677,0.00009811,0.00010684,-0
 .00004584,0.00016905,-0.00010962,0.00002572,-0.00014074,-0.00008676,0.
 00002047,-0.00008159,0.00000370,0.00000832,-0.00005354,0.00001231,-0.0
 0004750,-0.00001779,0.00000615,-0.00001401,-0.00001104,-0.00003316,-0.
 00003315,0.00005468,0.00000378,0.00006965,-0.00006700,-0.00011474,-0.0
 0001661,0.00005169,-0.00003171,-0.00016996,-0.00177331,-0.00045639,-0.
 00035378,0.00908758,-0.00704522,-0.03858153,-0.02741629,0.00007106,-0.
 00009315,0.00000309,0.00000211,-0.00001576,-0.00000132,0.00001645,-0.0
 0000207,0.00001699,-0.00003474,-0.00000798,0.00001632,0.00000336,-0.00
 000182,0.00000890,0.00000185,0.00000397,0.00000216,0.00000480,0.000005
 81,0.00000599,0.00014174,0.00008629,-0.00002316,0.00019715,-0.00012993
 ,-0.00003657,0.00012914,0.00028471,0.00026348,-0.00313744,0.00063300,-
 0.00078261,-0.00054892,-0.00010490,0.00051578,0.02889889,-0.00589729,-
 0.02812967,-0.01807599,0.04420209,0.00029275,0.00023563,0.00006253,-0.
 00070325,-0.00022760,-0.00042330,0.00036742,-0.00007035,0.00008080,-0.
 00012141,-0.00006996,-0.00003090,-0.00006068,0.00005180,-0.00010756,0.
 00006979,-0.00002494,0.00008809,0.00004987,-0.00003000,0.00005552,-0.0
 0000605,-0.00000888,0.00002983,-0.00000572,0.00002517,0.00001308,-0.00
 000169,0.00001027,0.00000573,0.00002464,0.00001466,-0.00003508,-0.0000
 0295,-0.00003122,0.00003841,0.00006156,0.00000225,-0.00004002,-0.00137
 420,-0.00044934,0.00230442,-0.01784789,0.00495488,0.00733209,0.2060058
 8,-0.05856485,-0.23649846,-0.00003716,0.00005857,-0.00000929,-0.000003
 24,0.00000863,0.00000209,-0.00001165,0.00000413,-0.00001018,0.00002029
 ,0.00000611,-0.00000929,-0.00000142,0.00000083,-0.00000773,-0.00000192
 ,-0.00000309,-0.00000189,-0.00000336,-0.00000230,-0.00000175,-0.000090
 68,-0.00004183,0.00003491,0.00010740,-0.00000390,-0.00007646,0.0005492
 0,-0.00020968,-0.00026304,-0.00246028,0.00014585,0.00072233,0.00073204
 ,0.00012029,0.00040158,0.01025995,0.00598266,-0.01329865,-0.19580725,0
 .04811619,0.23964218\\-0.00000090,0.00000060,0.00000100,0.00000070,-0.
 00000013,-0.00000142,-0.00000023,0.00000020,0.00000046,0.00000070,0.00
 000068,-0.00000068,0.00000043,0.00000043,0.00000049,0.00000022,0.00000
 063,0.00000006,0.00000018,0.00000065,0.00000087,-0.00000027,-0.0000000
 7,0.00000059,-0.00000063,-0.00000002,-0.00000100,-0.00000017,-0.000001
 37,-0.00000048,-0.00000006,-0.00000048,-0.00000116,0.00000009,-0.00000
 042,-0.00000026,0.00000123,-0.00000063,-0.00000133,0.00000096,-0.00000
 059,0.00000025,-0.00000058,0.00000075,0.00000067,0.00000004,-0.0000004
 3,0.00000029,-0.00000011,0.00000034,0.00000048,0.00000042,0.00000057,-
 0.00000019,0.00000030,0.00000090,0.00000041,-0.00000008,-0.00000004,0.
 00000031,0.00000004,-0.00000013,0.00000006,-0.00000038,-0.00000096,-0.
 00000056,-0.00000003,-0.00000070,-0.00000113,-0.00000037,0.00000011,-0
 .00000049,-0.00000056,0.00000036,0.00000091,-0.00000056,0.00000076,0.0
 0000058,-0.00000019,-0.00000070,-0.00000004,0.00000028,-0.00000029,0.0
 0000012,-0.00000037,-0.00000021,0.00000071,-0.00000011,0.00000019,0.00
 000050\\\@


 THE SCIENTIFIC THEORIST IS NOT TO BE ENVIED. FOR NATURE, OR MORE
 PRECISELY EXPERIMENT, IS AN INEXORABLE AND NOT VERY FRIENDLY JUDGE OF HIS
 WORK.  IT NEVER SAYS "YES" TO A THEORY. IN THE MOST FAVORABLE CASES
 IT SAYS "MAYBE", AND IN THE GREAT MAJORITY OF CASES SIMPLY "NO"...
 PROBABLY EVERY THEORY WILL SOME DAY EXPERIENCE ITS "NO" - MOST
 THEORIES, SOON AFTER CONCEPTION.  -- A.EINSTEIN, NOV 11, 1922.
 Job cpu time:       0 days  1 hours 18 minutes 38.9 seconds.
 File lengths (MBytes):  RWF=    320 Int=      0 D2E=      0 Chk=      9 Scr=      1
 Normal termination of Gaussian 09 at Wed Jul 28 22:48:29 2021.
