 Entering Gaussian System, Link 0=g09
 Input=opt_freq-conf-801.com
 Output=opt_freq-conf-801.log
 Initial command:
 /aerosol/software/g09/l1.exe "/scratch/nicole/10615/Gau-83378.inp" -scrdir="/scratch/nicole/10615/"
 Entering Link 1 = /aerosol/software/g09/l1.exe PID=     83384.
  
 Copyright (c) 1988,1990,1992,1993,1995,1998,2003,2009,2013,
            Gaussian, Inc.  All Rights Reserved.
  
 This is part of the Gaussian(R) 09 program.  It is based on
 the Gaussian(R) 03 system (copyright 2003, Gaussian, Inc.),
 the Gaussian(R) 98 system (copyright 1998, Gaussian, Inc.),
 the Gaussian(R) 94 system (copyright 1995, Gaussian, Inc.),
 the Gaussian 92(TM) system (copyright 1992, Gaussian, Inc.),
 the Gaussian 90(TM) system (copyright 1990, Gaussian, Inc.),
 the Gaussian 88(TM) system (copyright 1988, Gaussian, Inc.),
 the Gaussian 86(TM) system (copyright 1986, Carnegie Mellon
 University), and the Gaussian 82(TM) system (copyright 1983,
 Carnegie Mellon University). Gaussian is a federally registered
 trademark of Gaussian, Inc.
  
 This software contains proprietary and confidential information,
 including trade secrets, belonging to Gaussian, Inc.
  
 This software is provided under written license and may be
 used, copied, transmitted, or stored only in accord with that
 written license.
  
 The following legend is applicable only to US Government
 contracts under FAR:
  
                    RESTRICTED RIGHTS LEGEND
  
 Use, reproduction and disclosure by the US Government is
 subject to restrictions as set forth in subparagraphs (a)
 and (c) of the Commercial Computer Software - Restricted
 Rights clause in FAR 52.227-19.
  
 Gaussian, Inc.
 340 Quinnipiac St., Bldg. 40, Wallingford CT 06492
  
  
 ---------------------------------------------------------------
 Warning -- This program may not be used in any manner that
 competes with the business of Gaussian, Inc. or will provide
 assistance to any competitor of Gaussian, Inc.  The licensee
 of this program is prohibited from giving any competitor of
 Gaussian, Inc. access to this program.  By using this program,
 the user acknowledges that Gaussian, Inc. is engaged in the
 business of creating and licensing software in the field of
 computational chemistry and represents and warrants to the
 licensee that it is not a competitor of Gaussian, Inc. and that
 it will not use this program in any manner prohibited above.
 ---------------------------------------------------------------
  

 Cite this work as:
 Gaussian 09, Revision D.01,
 M. J. Frisch, G. W. Trucks, H. B. Schlegel, G. E. Scuseria, 
 M. A. Robb, J. R. Cheeseman, G. Scalmani, V. Barone, B. Mennucci, 
 G. A. Petersson, H. Nakatsuji, M. Caricato, X. Li, H. P. Hratchian, 
 A. F. Izmaylov, J. Bloino, G. Zheng, J. L. Sonnenberg, M. Hada, 
 M. Ehara, K. Toyota, R. Fukuda, J. Hasegawa, M. Ishida, T. Nakajima, 
 Y. Honda, O. Kitao, H. Nakai, T. Vreven, J. A. Montgomery, Jr., 
 J. E. Peralta, F. Ogliaro, M. Bearpark, J. J. Heyd, E. Brothers, 
 K. N. Kudin, V. N. Staroverov, T. Keith, R. Kobayashi, J. Normand, 
 K. Raghavachari, A. Rendell, J. C. Burant, S. S. Iyengar, J. Tomasi, 
 M. Cossi, N. Rega, J. M. Millam, M. Klene, J. E. Knox, J. B. Cross, 
 V. Bakken, C. Adamo, J. Jaramillo, R. Gomperts, R. E. Stratmann, 
 O. Yazyev, A. J. Austin, R. Cammi, C. Pomelli, J. W. Ochterski, 
 R. L. Martin, K. Morokuma, V. G. Zakrzewski, G. A. Voth, 
 P. Salvador, J. J. Dannenberg, S. Dapprich, A. D. Daniels, 
 O. Farkas, J. B. Foresman, J. V. Ortiz, J. Cioslowski, 
 and D. J. Fox, Gaussian, Inc., Wallingford CT, 2013.
 
 ******************************************
 Gaussian 09:  ES64L-G09RevD.01 24-Apr-2013
                28-Jul-2021 
 ******************************************
 %mem=2gb
 %nproc=4
 Will use up to    4 processors via shared memory.
 %chk=conf-801.chk
 ----------------------------------------------------------------------
 # B3LYP/6-31G(d,p) opt=calcfc freq=noraman nosymm integral(ultrafinegr
 id)
 ----------------------------------------------------------------------
 1/10=4,14=-1,18=20,19=15,26=4,38=1/1,3;
 2/9=110,12=2,15=1,17=6,18=5,40=1/2;
 3/5=1,6=6,7=101,11=2,16=1,25=1,30=1,71=2,74=-5,75=-5,140=1/1,2,3;
 4//1;
 5/5=2,38=5/2;
 8/6=4,10=90,11=11/1;
 11/6=1,8=1,9=11,15=111,16=1,31=1/1,2,10;
 10/6=1,13=1,31=1/2;
 6/7=2,8=2,9=2,10=2,28=1/1;
 7/10=1,18=20,25=1,30=1/1,2,3,16;
 1/10=4,14=-1,18=20,19=15,26=4/3(2);
 2/9=110,15=1/2;
 99//99;
 2/9=110,15=1/2;
 3/5=1,6=6,7=101,11=2,16=1,25=1,30=1,71=1,74=-5,75=-5/1,2,3;
 4/5=5,16=3,69=1/1;
 5/5=2,38=5/2;
 7/30=1/1,2,3,16;
 1/14=-1,18=20,19=15,26=4/3(-5);
 2/9=110,15=1/2;
 6/7=2,8=2,9=2,10=2,19=2,28=1/1;
 99/9=1/99;
 ------------------------------------------------------------
 Candidate Structure: Conf:801 OPT and FREQ calc in gas phase
 ------------------------------------------------------------
 Symbolic Z-matrix:
 Charge =  0 Multiplicity = 1
 O                     1.45238   0.72653  -1.1041 
 C                     1.69694   0.02758  -0.12947 
 N                     0.73044  -0.2788    0.77507 
 C                    -0.61161   0.25591   0.65774 
 C                    -1.22657   0.19322   2.04948 
 O                    -2.2089    1.07001   2.31815 
 O                    -0.86618  -0.60134   2.87563 
 C                    -1.43329  -0.55971  -0.37094 
 C                    -2.78158   0.01959  -0.64015 
 C                    -3.23941   0.85888  -1.61989 
 N                    -4.56772   1.18088  -1.41296 
 C                    -4.90354   0.54226  -0.31618 
 N                    -3.86834  -0.18116   0.18419 
 C                     3.06094  -0.5785    0.15252 
 C                     4.15686  -0.01984  -0.74222 
 N                     5.42262  -0.68134  -0.41472 
 H                     0.92504  -0.80626   1.61402 
 H                    -0.55424   1.28912   0.30078 
 H                    -2.408     1.63003   1.55666 
 H                    -1.51389  -1.59175  -0.02627 
 H                    -0.85985  -0.56242  -1.29566 
 H                    -2.6889    1.25435  -2.46035 
 H                    -5.86438   0.56402   0.16666 
 H                    -3.86647  -0.69349   1.05495 
 H                     3.00019  -1.66478   0.01086 
 H                     3.32333  -0.41997   1.20247 
 H                     4.26651   1.05048  -0.55305 
 H                     3.8512   -0.13073  -1.7896 
 H                     5.39439  -1.64588  -0.72628 
 H                     6.18179  -0.24698  -0.92563 
 

 GradGradGradGradGradGradGradGradGradGradGradGradGradGradGradGradGradGrad
 Berny optimization.
 Initialization pass.
                           ----------------------------
                           !    Initial Parameters    !
                           ! (Angstroms and Degrees)  !
 --------------------------                            --------------------------
 ! Name  Definition              Value          Derivative Info.                !
 --------------------------------------------------------------------------------
 ! R1    R(1,2)                  1.224          calculate D2E/DX2 analytically  !
 ! R2    R(2,3)                  1.3587         calculate D2E/DX2 analytically  !
 ! R3    R(2,14)                 1.519          calculate D2E/DX2 analytically  !
 ! R4    R(3,4)                  1.4494         calculate D2E/DX2 analytically  !
 ! R5    R(3,17)                 1.0099         calculate D2E/DX2 analytically  !
 ! R6    R(4,5)                  1.5228         calculate D2E/DX2 analytically  !
 ! R7    R(4,8)                  1.5487         calculate D2E/DX2 analytically  !
 ! R8    R(4,18)                 1.0946         calculate D2E/DX2 analytically  !
 ! R9    R(5,6)                  1.3438         calculate D2E/DX2 analytically  !
 ! R10   R(5,7)                  1.2016         calculate D2E/DX2 analytically  !
 ! R11   R(6,19)                 0.966          calculate D2E/DX2 analytically  !
 ! R12   R(8,9)                  1.492          calculate D2E/DX2 analytically  !
 ! R13   R(8,20)                 1.0911         calculate D2E/DX2 analytically  !
 ! R14   R(8,21)                 1.0881         calculate D2E/DX2 analytically  !
 ! R15   R(9,10)                 1.3689         calculate D2E/DX2 analytically  !
 ! R16   R(9,13)                 1.3787         calculate D2E/DX2 analytically  !
 ! R17   R(10,11)                1.3824         calculate D2E/DX2 analytically  !
 ! R18   R(10,22)                1.0797         calculate D2E/DX2 analytically  !
 ! R19   R(11,12)                1.3128         calculate D2E/DX2 analytically  !
 ! R20   R(12,13)                1.3584         calculate D2E/DX2 analytically  !
 ! R21   R(12,23)                1.0756         calculate D2E/DX2 analytically  !
 ! R22   R(13,24)                1.0103         calculate D2E/DX2 analytically  !
 ! R23   R(14,15)                1.5211         calculate D2E/DX2 analytically  !
 ! R24   R(14,25)                1.0972         calculate D2E/DX2 analytically  !
 ! R25   R(14,26)                1.0938         calculate D2E/DX2 analytically  !
 ! R26   R(15,16)                1.4653         calculate D2E/DX2 analytically  !
 ! R27   R(15,27)                1.0924         calculate D2E/DX2 analytically  !
 ! R28   R(15,28)                1.0967         calculate D2E/DX2 analytically  !
 ! R29   R(16,29)                1.014          calculate D2E/DX2 analytically  !
 ! R30   R(16,30)                1.0129         calculate D2E/DX2 analytically  !
 ! A1    A(1,2,3)              121.1123         calculate D2E/DX2 analytically  !
 ! A2    A(1,2,14)             123.7151         calculate D2E/DX2 analytically  !
 ! A3    A(3,2,14)             115.1624         calculate D2E/DX2 analytically  !
 ! A4    A(2,3,4)              121.4368         calculate D2E/DX2 analytically  !
 ! A5    A(2,3,17)             122.2572         calculate D2E/DX2 analytically  !
 ! A6    A(4,3,17)             115.9985         calculate D2E/DX2 analytically  !
 ! A7    A(3,4,5)              106.5436         calculate D2E/DX2 analytically  !
 ! A8    A(3,4,8)              110.5325         calculate D2E/DX2 analytically  !
 ! A9    A(3,4,18)             109.0312         calculate D2E/DX2 analytically  !
 ! A10   A(5,4,8)              111.7829         calculate D2E/DX2 analytically  !
 ! A11   A(5,4,18)             110.9798         calculate D2E/DX2 analytically  !
 ! A12   A(8,4,18)             107.9569         calculate D2E/DX2 analytically  !
 ! A13   A(4,5,6)              116.8108         calculate D2E/DX2 analytically  !
 ! A14   A(4,5,7)              122.3082         calculate D2E/DX2 analytically  !
 ! A15   A(6,5,7)              120.8798         calculate D2E/DX2 analytically  !
 ! A16   A(5,6,19)             111.7964         calculate D2E/DX2 analytically  !
 ! A17   A(4,8,9)              113.2552         calculate D2E/DX2 analytically  !
 ! A18   A(4,8,20)             109.1183         calculate D2E/DX2 analytically  !
 ! A19   A(4,8,21)             106.6295         calculate D2E/DX2 analytically  !
 ! A20   A(9,8,20)             110.9481         calculate D2E/DX2 analytically  !
 ! A21   A(9,8,21)             108.8976         calculate D2E/DX2 analytically  !
 ! A22   A(20,8,21)            107.7613         calculate D2E/DX2 analytically  !
 ! A23   A(8,9,10)             132.0246         calculate D2E/DX2 analytically  !
 ! A24   A(8,9,13)             123.2236         calculate D2E/DX2 analytically  !
 ! A25   A(10,9,13)            104.6885         calculate D2E/DX2 analytically  !
 ! A26   A(9,10,11)            110.9196         calculate D2E/DX2 analytically  !
 ! A27   A(9,10,22)            127.6719         calculate D2E/DX2 analytically  !
 ! A28   A(11,10,22)           121.4077         calculate D2E/DX2 analytically  !
 ! A29   A(10,11,12)           104.9241         calculate D2E/DX2 analytically  !
 ! A30   A(11,12,13)           111.8297         calculate D2E/DX2 analytically  !
 ! A31   A(11,12,23)           126.4208         calculate D2E/DX2 analytically  !
 ! A32   A(13,12,23)           121.7484         calculate D2E/DX2 analytically  !
 ! A33   A(9,13,12)            107.632          calculate D2E/DX2 analytically  !
 ! A34   A(9,13,24)            125.9936         calculate D2E/DX2 analytically  !
 ! A35   A(12,13,24)           126.0816         calculate D2E/DX2 analytically  !
 ! A36   A(2,14,15)            113.0307         calculate D2E/DX2 analytically  !
 ! A37   A(2,14,25)            108.745          calculate D2E/DX2 analytically  !
 ! A38   A(2,14,26)            109.6202         calculate D2E/DX2 analytically  !
 ! A39   A(15,14,25)           109.1217         calculate D2E/DX2 analytically  !
 ! A40   A(15,14,26)           109.7901         calculate D2E/DX2 analytically  !
 ! A41   A(25,14,26)           106.3037         calculate D2E/DX2 analytically  !
 ! A42   A(14,15,16)           108.9717         calculate D2E/DX2 analytically  !
 ! A43   A(14,15,27)           109.2867         calculate D2E/DX2 analytically  !
 ! A44   A(14,15,28)           108.8947         calculate D2E/DX2 analytically  !
 ! A45   A(16,15,27)           108.4764         calculate D2E/DX2 analytically  !
 ! A46   A(16,15,28)           114.1156         calculate D2E/DX2 analytically  !
 ! A47   A(27,15,28)           107.0034         calculate D2E/DX2 analytically  !
 ! A48   A(15,16,29)           109.6769         calculate D2E/DX2 analytically  !
 ! A49   A(15,16,30)           109.9444         calculate D2E/DX2 analytically  !
 ! A50   A(29,16,30)           105.889          calculate D2E/DX2 analytically  !
 ! D1    D(1,2,3,4)             -2.8051         calculate D2E/DX2 analytically  !
 ! D2    D(1,2,3,17)          -176.181          calculate D2E/DX2 analytically  !
 ! D3    D(14,2,3,4)           178.3159         calculate D2E/DX2 analytically  !
 ! D4    D(14,2,3,17)            4.94           calculate D2E/DX2 analytically  !
 ! D5    D(1,2,14,15)           11.0544         calculate D2E/DX2 analytically  !
 ! D6    D(1,2,14,25)         -110.2876         calculate D2E/DX2 analytically  !
 ! D7    D(1,2,14,26)          133.8825         calculate D2E/DX2 analytically  !
 ! D8    D(3,2,14,15)         -170.0994         calculate D2E/DX2 analytically  !
 ! D9    D(3,2,14,25)           68.5585         calculate D2E/DX2 analytically  !
 ! D10   D(3,2,14,26)          -47.2714         calculate D2E/DX2 analytically  !
 ! D11   D(2,3,4,5)           -157.6449         calculate D2E/DX2 analytically  !
 ! D12   D(2,3,4,8)             80.7119         calculate D2E/DX2 analytically  !
 ! D13   D(2,3,4,18)           -37.8064         calculate D2E/DX2 analytically  !
 ! D14   D(17,3,4,5)            16.1243         calculate D2E/DX2 analytically  !
 ! D15   D(17,3,4,8)          -105.5189         calculate D2E/DX2 analytically  !
 ! D16   D(17,3,4,18)          135.9628         calculate D2E/DX2 analytically  !
 ! D17   D(3,4,5,6)            154.6107         calculate D2E/DX2 analytically  !
 ! D18   D(3,4,5,7)            -25.785          calculate D2E/DX2 analytically  !
 ! D19   D(8,4,5,6)            -84.5438         calculate D2E/DX2 analytically  !
 ! D20   D(8,4,5,7)             95.0605         calculate D2E/DX2 analytically  !
 ! D21   D(18,4,5,6)            36.0416         calculate D2E/DX2 analytically  !
 ! D22   D(18,4,5,7)          -144.3541         calculate D2E/DX2 analytically  !
 ! D23   D(3,4,8,9)           -174.2995         calculate D2E/DX2 analytically  !
 ! D24   D(3,4,8,20)            61.5881         calculate D2E/DX2 analytically  !
 ! D25   D(3,4,8,21)           -54.5467         calculate D2E/DX2 analytically  !
 ! D26   D(5,4,8,9)             67.2034         calculate D2E/DX2 analytically  !
 ! D27   D(5,4,8,20)           -56.909          calculate D2E/DX2 analytically  !
 ! D28   D(5,4,8,21)          -173.0438         calculate D2E/DX2 analytically  !
 ! D29   D(18,4,8,9)           -55.1288         calculate D2E/DX2 analytically  !
 ! D30   D(18,4,8,20)         -179.2412         calculate D2E/DX2 analytically  !
 ! D31   D(18,4,8,21)           64.624          calculate D2E/DX2 analytically  !
 ! D32   D(4,5,6,19)             1.0735         calculate D2E/DX2 analytically  !
 ! D33   D(7,5,6,19)          -178.5368         calculate D2E/DX2 analytically  !
 ! D34   D(4,8,9,10)            95.5167         calculate D2E/DX2 analytically  !
 ! D35   D(4,8,9,13)           -81.125          calculate D2E/DX2 analytically  !
 ! D36   D(20,8,9,10)         -141.3747         calculate D2E/DX2 analytically  !
 ! D37   D(20,8,9,13)           41.9836         calculate D2E/DX2 analytically  !
 ! D38   D(21,8,9,10)          -22.9305         calculate D2E/DX2 analytically  !
 ! D39   D(21,8,9,13)          160.4278         calculate D2E/DX2 analytically  !
 ! D40   D(8,9,10,11)         -176.7469         calculate D2E/DX2 analytically  !
 ! D41   D(8,9,10,22)            2.9376         calculate D2E/DX2 analytically  !
 ! D42   D(13,9,10,11)           0.3493         calculate D2E/DX2 analytically  !
 ! D43   D(13,9,10,22)        -179.9662         calculate D2E/DX2 analytically  !
 ! D44   D(8,9,13,12)          176.736          calculate D2E/DX2 analytically  !
 ! D45   D(8,9,13,24)            2.6631         calculate D2E/DX2 analytically  !
 ! D46   D(10,9,13,12)          -0.6855         calculate D2E/DX2 analytically  !
 ! D47   D(10,9,13,24)        -174.7585         calculate D2E/DX2 analytically  !
 ! D48   D(9,10,11,12)           0.1325         calculate D2E/DX2 analytically  !
 ! D49   D(22,10,11,12)       -179.575          calculate D2E/DX2 analytically  !
 ! D50   D(10,11,12,13)         -0.588          calculate D2E/DX2 analytically  !
 ! D51   D(10,11,12,23)        179.0302         calculate D2E/DX2 analytically  !
 ! D52   D(11,12,13,9)           0.8276         calculate D2E/DX2 analytically  !
 ! D53   D(11,12,13,24)        174.8939         calculate D2E/DX2 analytically  !
 ! D54   D(23,12,13,9)        -178.8111         calculate D2E/DX2 analytically  !
 ! D55   D(23,12,13,24)         -4.7448         calculate D2E/DX2 analytically  !
 ! D56   D(2,14,15,16)        -178.8788         calculate D2E/DX2 analytically  !
 ! D57   D(2,14,15,27)          62.7396         calculate D2E/DX2 analytically  !
 ! D58   D(2,14,15,28)         -53.8268         calculate D2E/DX2 analytically  !
 ! D59   D(25,14,15,16)        -57.7498         calculate D2E/DX2 analytically  !
 ! D60   D(25,14,15,27)       -176.1314         calculate D2E/DX2 analytically  !
 ! D61   D(25,14,15,28)         67.3022         calculate D2E/DX2 analytically  !
 ! D62   D(26,14,15,16)         58.3877         calculate D2E/DX2 analytically  !
 ! D63   D(26,14,15,27)        -59.9939         calculate D2E/DX2 analytically  !
 ! D64   D(26,14,15,28)       -176.5603         calculate D2E/DX2 analytically  !
 ! D65   D(14,15,16,29)         70.4382         calculate D2E/DX2 analytically  !
 ! D66   D(14,15,16,30)       -173.5175         calculate D2E/DX2 analytically  !
 ! D67   D(27,15,16,29)       -170.6726         calculate D2E/DX2 analytically  !
 ! D68   D(27,15,16,30)        -54.6283         calculate D2E/DX2 analytically  !
 ! D69   D(28,15,16,29)        -51.5041         calculate D2E/DX2 analytically  !
 ! D70   D(28,15,16,30)         64.5402         calculate D2E/DX2 analytically  !
 --------------------------------------------------------------------------------
 Trust Radius=3.00D-01 FncErr=1.00D-07 GrdErr=1.00D-06
 Number of steps in this run=    160 maximum allowed number of steps=    180.
 GradGradGradGradGradGradGradGradGradGradGradGradGradGradGradGradGradGrad

                          Input orientation:                          
 ---------------------------------------------------------------------
 Center     Atomic      Atomic             Coordinates (Angstroms)
 Number     Number       Type             X           Y           Z
 ---------------------------------------------------------------------
      1          8           0        1.452382    0.726529   -1.104099
      2          6           0        1.696936    0.027577   -0.129466
      3          7           0        0.730439   -0.278799    0.775067
      4          6           0       -0.611610    0.255908    0.657735
      5          6           0       -1.226575    0.193217    2.049478
      6          8           0       -2.208901    1.070011    2.318149
      7          8           0       -0.866180   -0.601341    2.875628
      8          6           0       -1.433292   -0.559713   -0.370938
      9          6           0       -2.781575    0.019587   -0.640150
     10          6           0       -3.239411    0.858884   -1.619887
     11          7           0       -4.567718    1.180882   -1.412963
     12          6           0       -4.903535    0.542259   -0.316184
     13          7           0       -3.868338   -0.181161    0.184191
     14          6           0        3.060940   -0.578503    0.152524
     15          6           0        4.156864   -0.019838   -0.742224
     16          7           0        5.422616   -0.681338   -0.414722
     17          1           0        0.925044   -0.806256    1.614021
     18          1           0       -0.554239    1.289122    0.300784
     19          1           0       -2.407996    1.630028    1.556665
     20          1           0       -1.513893   -1.591752   -0.026266
     21          1           0       -0.859855   -0.562423   -1.295661
     22          1           0       -2.688899    1.254352   -2.460354
     23          1           0       -5.864385    0.564021    0.166660
     24          1           0       -3.866466   -0.693494    1.054952
     25          1           0        3.000194   -1.664783    0.010861
     26          1           0        3.323332   -0.419967    1.202473
     27          1           0        4.266509    1.050482   -0.553047
     28          1           0        3.851201   -0.130731   -1.789602
     29          1           0        5.394392   -1.645877   -0.726281
     30          1           0        6.181787   -0.246984   -0.925632
 ---------------------------------------------------------------------
                    Distance matrix (angstroms):
                    1          2          3          4          5
     1  O    0.000000
     2  C    1.224030   0.000000
     3  N    2.250145   1.358736   0.000000
     4  C    2.754198   2.449735   1.449404   0.000000
     5  C    4.172084   3.649952   2.382609   1.522846   0.000000
     6  O    5.023421   4.725786   3.583310   2.443579   1.343844
     7  O    4.793453   3.999461   2.658116   2.391386   1.201553
     8  C    3.243310   3.193986   2.464543   1.548732   2.543236
     9  C    4.317570   4.507541   3.798173   2.539509   3.111635
    10  C    4.721915   5.223021   4.773870   3.529374   4.237790
    11  N    6.045117   6.497951   5.915117   4.560062   4.911947
    12  C    6.407219   6.623140   5.797122   4.410345   4.386140
    13  N    5.549203   5.578013   4.637609   3.319873   3.255513
    14  C    2.422740   1.518999   2.430765   3.799881   4.751501
    15  C    2.828823   2.535541   3.756278   4.977375   6.067982
    16  N    4.268499   3.803238   4.857382   6.200038   7.144849
    17  H    3.164758   2.081068   1.009914   2.098566   2.412060
    18  H    2.513312   2.616180   2.081758   1.094640   2.170478
    19  H    4.774777   4.718194   3.755568   2.433780   1.924331
    20  H    3.915985   3.597540   2.720846   2.166984   2.752704
    21  H    2.654154   2.871461   2.626288   2.132381   3.448975
    22  H    4.389560   5.116010   4.950795   3.877435   4.858290
    23  H    7.428077   7.586108   6.676242   5.284670   5.019141
    24  H    5.913385   5.733606   4.624051   3.413684   2.957087
    25  H    3.058959   2.140621   2.767084   4.141573   5.047147
    26  H    3.183579   2.149307   2.631672   4.029554   4.668518
    27  H    2.885812   2.797938   4.004331   5.088554   6.138567
    28  H    2.638018   2.724329   4.042104   5.104471   6.373953
    29  H    4.616329   4.102172   5.086788   6.450143   7.411094
    30  H    4.831858   4.563240   5.710569   6.993583   7.995554
                    6          7          8          9         10
     6  O    0.000000
     7  O    2.215198   0.000000
     8  C    3.238635   3.295988   0.000000
     9  C    3.191062   4.051541   1.491956   0.000000
    10  C    4.076107   5.289058   2.614260   1.368911   0.000000
    11  N    4.415598   5.938831   3.733646   2.266308   1.382354
    12  C    3.805166   5.272165   3.641419   2.209266   2.137570
    13  N    2.978748   4.053805   2.526048   1.378728   2.175302
    14  C    5.931168   4.778920   4.524653   5.926299   6.700891
    15  C    7.146791   6.217553   5.628425   6.939302   7.499822
    16  N    8.293121   7.098010   6.857126   8.237164   8.880057
    17  H    3.719918   2.200482   3.092345   4.416145   5.529334
    18  H    2.618335   3.209514   2.154562   2.730953   3.329299
    19  H    0.965979   3.015936   3.075820   2.749378   3.372891
    20  H    3.614457   3.133917   1.091054   2.140160   3.394504
    21  H    4.188602   4.171475   1.088094   2.112212   2.790613
    22  H    4.806087   5.936211   3.038591   2.201448   1.079742
    23  H    4.271708   5.803329   4.602866   3.232811   3.188916
    24  H    2.730044   3.510709   2.823366   2.135145   3.155604
    25  H    6.319601   4.928148   4.585057   6.057208   6.925381
    26  H    5.836983   4.514903   5.012047   6.392054   7.257462
    27  H    7.083437   6.389743   5.925674   7.123610   7.583777
    28  H    7.418911   6.651279   5.488396   6.733317   7.161349
    29  H    8.628712   7.297915   6.922665   8.344317   9.034097
    30  H    9.091768   8.015546   7.641657   8.971869   9.511252
                   11         12         13         14         15
    11  N    0.000000
    12  C    1.312836   0.000000
    13  N    2.212509   1.358435   0.000000
    14  C    7.983897   8.056591   6.940733   0.000000
    15  C    8.832325   9.087811   8.080108   1.521095   0.000000
    16  N   10.211323  10.398860   9.323663   2.431020   1.465253
    17  H    6.578890   6.286217   5.040999   2.598056   4.076151
    18  H    4.365394   4.455877   3.627476   4.071796   4.999574
    19  H    3.699300   3.304319   2.701239   6.062877   7.148730
    20  H    4.351583   4.015934   2.752720   4.689108   5.927984
    21  H    4.098917   4.304770   3.374358   4.179728   5.076235
    22  H    2.152299   3.163726   3.231933   6.576255   7.172169
    23  H    2.134730   1.075567   2.130682   8.998165  10.079305
    24  H    3.177364   2.117217   1.010303   6.986884   8.249696
    25  H    8.209652   8.212608   7.029076   1.097161   2.147293
    26  H    8.465925   8.421018   7.267327   1.093790   2.153305
    27  H    8.876938   9.187171   8.260520   2.145885   1.092427
    28  H    8.528797   8.903330   7.968041   2.144030   1.096690
    29  H   10.378138  10.535816   9.421917   2.712303   2.043460
    30  H   10.854868  11.130082  10.111432   3.318436   2.045861
                   16         17         18         19         20
    16  N    0.000000
    17  H    4.935540   0.000000
    18  H    6.333834   2.881576   0.000000
    19  H    8.399242   4.128914   2.264922   0.000000
    20  H    7.006776   3.042361   3.054068   3.699319   0.000000
    21  H    6.345048   3.422217   2.463789   3.916547   1.760297
    22  H    8.586511   5.822991   3.490253   4.044315   3.925013
    23  H   11.370370   7.075935   5.361102   3.874933   4.859152
    24  H    9.404634   4.825334   3.933241   2.788836   2.740529
    25  H    2.648852   2.759246   4.630724   6.518728   4.514830
    26  H    2.662823   2.463813   4.332388   6.097217   5.126560
    27  H    2.086844   4.394206   4.901590   7.023943   6.377455
    28  H    2.159353   4.539094   5.078740   7.312682   5.833366
    29  H    1.014003   5.114396   6.712324   8.764740   6.943871
    30  H    1.012933   5.864808   7.016963   9.136157   7.863889
                   21         22         23         24         25
    21  H    0.000000
    22  H    2.828883   0.000000
    23  H    5.334096   4.178693   0.000000
    24  H    3.818674   4.187857   2.522317   0.000000
    25  H    4.221632   6.855219   9.141805   7.013170   0.000000
    26  H    4.874424   7.236474   9.298133   7.196511   1.753261
    27  H    5.425176   7.215059  10.168069   8.471859   3.048641
    28  H    4.756509   6.718725   9.934900   8.244427   2.513801
    29  H    6.372886   8.761160  11.508303   9.478572   2.505179
    30  H    7.058410   9.126798  12.122751  10.251317   3.606898
                   26         27         28         29         30
    26  H    0.000000
    27  H    2.476621   0.000000
    28  H    3.052018   1.759777   0.000000
    29  H    3.084192   2.927880   2.409928   0.000000
    30  H    3.567846   2.343188   2.488291   1.617601   0.000000
 Symmetry turned off by external request.
 Stoichiometry    C9H14N4O3
 Framework group  C1[X(C9H14N4O3)]
 Deg. of freedom    84
 Full point group                 C1      NOp   1
 Rotational constants (GHZ):      1.0925978      0.2321516      0.2014001
 Standard basis: 6-31G(d,p) (6D, 7F)
   310 basis functions,   546 primitive gaussians,   310 cartesian basis functions
    60 alpha electrons       60 beta electrons
       nuclear repulsion energy      1103.5276556170 Hartrees.
 NAtoms=   30 NActive=   30 NUniq=   30 SFac= 1.00D+00 NAtFMM=   60 NAOKFM=F Big=F
 Integral buffers will be    131072 words long.
 Raffenetti 2 integral format.
 Two-electron integral symmetry is turned off.
 One-electron integrals computed using PRISM.
 NBasis=   310 RedAO= T EigKep=  1.16D-03  NBF=   310
 NBsUse=   310 1.00D-06 EigRej= -1.00D+00 NBFU=   310
 ExpMin= 1.61D-01 ExpMax= 5.48D+03 ExpMxC= 8.25D+02 IAcc=3 IRadAn=         5 AccDes= 0.00D+00
 Harris functional with IExCor=  402 and IRadAn=       5 diagonalized for initial guess.
 HarFok:  IExCor=  402 AccDes= 0.00D+00 IRadAn=         5 IDoV= 1 UseB2=F ITyADJ=14
 ICtDFT=  3500011 ScaDFX=  1.000000  1.000000  1.000000  1.000000
 FoFCou: FMM=F IPFlag=           0 FMFlag=      100000 FMFlg1=           0
         NFxFlg=           0 DoJE=T BraDBF=F KetDBF=T FulRan=T
         wScrn=  0.000000 ICntrl=     500 IOpCl=  0 I1Cent=   200000004 NGrid=           0
         NMat0=    1 NMatS0=      1 NMatT0=    0 NMatD0=    1 NMtDS0=    0 NMtDT0=    0
 Symmetry not used in FoFCou.
 Requested convergence on RMS density matrix=1.00D-08 within 128 cycles.
 Requested convergence on MAX density matrix=1.00D-06.
 Requested convergence on             energy=1.00D-06.
 No special actions if energy rises.
 Integral accuracy reduced to 1.0D-05 until final iterations.
 Initial convergence to 1.0D-05 achieved.  Increase integral accuracy.
 SCF Done:  E(RB3LYP) =  -796.103138367     A.U. after   14 cycles
            NFock= 14  Conv=0.55D-08     -V/T= 2.0088
 DoSCS=F DFT=T ScalE2(SS,OS)=  1.000000  1.000000
 Range of M.O.s used for correlation:     1   310
 NBasis=   310 NAE=    60 NBE=    60 NFC=     0 NFV=     0
 NROrb=    310 NOA=    60 NOB=    60 NVA=   250 NVB=   250
 Symmetrizing basis deriv contribution to polar:
 IMax=3 JMax=2 DiffMx= 0.00D+00
 G2DrvN: will do    31 centers at a time, making    1 passes.
 Calling FoFCou, ICntrl=  3107 FMM=F I1Cent=   0 AccDes= 0.00D+00.
 End of G2Drv F.D. properties file   721 does not exist.
 End of G2Drv F.D. properties file   722 does not exist.
 End of G2Drv F.D. properties file   788 does not exist.
          IDoAtm=111111111111111111111111111111
          Differentiating once with respect to nuclear coordinates.
          There are    93 degrees of freedom in the 1st order CPHF.  IDoFFX=6 NUNeed=     0.
     87 vectors produced by pass  0 Test12= 1.61D-14 1.08D-09 XBig12= 1.44D-01 1.13D-01.
 AX will form    87 AO Fock derivatives at one time.
     87 vectors produced by pass  1 Test12= 1.61D-14 1.08D-09 XBig12= 1.87D-02 4.56D-02.
     87 vectors produced by pass  2 Test12= 1.61D-14 1.08D-09 XBig12= 2.07D-04 2.15D-03.
     87 vectors produced by pass  3 Test12= 1.61D-14 1.08D-09 XBig12= 7.18D-07 1.19D-04.
     87 vectors produced by pass  4 Test12= 1.61D-14 1.08D-09 XBig12= 1.01D-09 3.93D-06.
     72 vectors produced by pass  5 Test12= 1.61D-14 1.08D-09 XBig12= 1.10D-12 1.26D-07.
     14 vectors produced by pass  6 Test12= 1.61D-14 1.08D-09 XBig12= 1.30D-15 3.95D-09.
 InvSVY:  IOpt=1 It=  1 EMax= 5.55D-16
 Solved reduced A of dimension   521 with    93 vectors.
 End of Minotr F.D. properties file   721 does not exist.
 End of Minotr F.D. properties file   722 does not exist.
 End of Minotr F.D. properties file   788 does not exist.

 **********************************************************************

            Population analysis using the SCF density.

 **********************************************************************

 Alpha  occ. eigenvalues --  -19.22115 -19.16161 -19.11872 -14.40114 -14.36613
 Alpha  occ. eigenvalues --  -14.31816 -14.31307 -10.34303 -10.29206 -10.25946
 Alpha  occ. eigenvalues --  -10.24603 -10.22855 -10.21856 -10.20827 -10.20334
 Alpha  occ. eigenvalues --  -10.19596  -1.13062  -1.05037  -1.04109  -1.02555
 Alpha  occ. eigenvalues --   -0.93605  -0.88310  -0.87879  -0.81582  -0.76740
 Alpha  occ. eigenvalues --   -0.73868  -0.68563  -0.64887  -0.62348  -0.62128
 Alpha  occ. eigenvalues --   -0.60305  -0.59206  -0.56126  -0.54103  -0.50419
 Alpha  occ. eigenvalues --   -0.49538  -0.49010  -0.48720  -0.46743  -0.45824
 Alpha  occ. eigenvalues --   -0.45389  -0.43941  -0.43121  -0.42699  -0.41904
 Alpha  occ. eigenvalues --   -0.41256  -0.40639  -0.39239  -0.38873  -0.37911
 Alpha  occ. eigenvalues --   -0.36581  -0.34590  -0.34331  -0.30141  -0.28819
 Alpha  occ. eigenvalues --   -0.27363  -0.26574  -0.25936  -0.23486  -0.23342
 Alpha virt. eigenvalues --   -0.01746   0.01524   0.02155   0.05298   0.05828
 Alpha virt. eigenvalues --    0.06856   0.07961   0.09235   0.12194   0.12523
 Alpha virt. eigenvalues --    0.13139   0.13497   0.13738   0.14799   0.16388
 Alpha virt. eigenvalues --    0.17080   0.17602   0.18836   0.19674   0.21203
 Alpha virt. eigenvalues --    0.21935   0.22488   0.23250   0.24877   0.25339
 Alpha virt. eigenvalues --    0.27475   0.28510   0.30594   0.33046   0.33711
 Alpha virt. eigenvalues --    0.37125   0.38342   0.41742   0.44384   0.48233
 Alpha virt. eigenvalues --    0.48788   0.50307   0.52793   0.53381   0.53960
 Alpha virt. eigenvalues --    0.54703   0.55019   0.56671   0.57429   0.59641
 Alpha virt. eigenvalues --    0.60139   0.60738   0.61875   0.62455   0.63106
 Alpha virt. eigenvalues --    0.63947   0.65641   0.66002   0.66893   0.68125
 Alpha virt. eigenvalues --    0.69406   0.70916   0.72170   0.72947   0.74150
 Alpha virt. eigenvalues --    0.76047   0.76606   0.77631   0.78567   0.79231
 Alpha virt. eigenvalues --    0.79432   0.81006   0.81597   0.82956   0.83158
 Alpha virt. eigenvalues --    0.83643   0.84140   0.85787   0.86267   0.86945
 Alpha virt. eigenvalues --    0.87371   0.87851   0.88618   0.89973   0.90479
 Alpha virt. eigenvalues --    0.91963   0.92677   0.93475   0.94204   0.96087
 Alpha virt. eigenvalues --    0.97648   0.98223   1.00408   1.02360   1.02867
 Alpha virt. eigenvalues --    1.05238   1.07293   1.08368   1.11118   1.12935
 Alpha virt. eigenvalues --    1.15115   1.19443   1.21713   1.24641   1.25428
 Alpha virt. eigenvalues --    1.26105   1.28997   1.29966   1.32026   1.33065
 Alpha virt. eigenvalues --    1.34261   1.36509   1.37755   1.38104   1.39679
 Alpha virt. eigenvalues --    1.41913   1.42921   1.45843   1.46256   1.48229
 Alpha virt. eigenvalues --    1.49275   1.51144   1.56983   1.60244   1.61858
 Alpha virt. eigenvalues --    1.63483   1.64922   1.67991   1.68774   1.70872
 Alpha virt. eigenvalues --    1.71757   1.72521   1.74094   1.74993   1.76144
 Alpha virt. eigenvalues --    1.78619   1.80083   1.80833   1.82408   1.83491
 Alpha virt. eigenvalues --    1.84434   1.85213   1.86665   1.87357   1.90293
 Alpha virt. eigenvalues --    1.90576   1.91446   1.92918   1.94081   1.96389
 Alpha virt. eigenvalues --    1.98049   2.01144   2.02944   2.04205   2.05270
 Alpha virt. eigenvalues --    2.05719   2.07309   2.08756   2.10062   2.10451
 Alpha virt. eigenvalues --    2.11721   2.12783   2.16101   2.17267   2.19411
 Alpha virt. eigenvalues --    2.19612   2.22485   2.24192   2.24905   2.26125
 Alpha virt. eigenvalues --    2.26562   2.28002   2.29992   2.31065   2.31390
 Alpha virt. eigenvalues --    2.35242   2.36666   2.36923   2.38352   2.39517
 Alpha virt. eigenvalues --    2.42078   2.44246   2.44770   2.46042   2.47460
 Alpha virt. eigenvalues --    2.48626   2.50399   2.53214   2.54077   2.56003
 Alpha virt. eigenvalues --    2.57599   2.58173   2.59280   2.60389   2.61019
 Alpha virt. eigenvalues --    2.62593   2.63412   2.64310   2.66627   2.67016
 Alpha virt. eigenvalues --    2.69013   2.70074   2.72716   2.74272   2.75210
 Alpha virt. eigenvalues --    2.78708   2.80199   2.82284   2.83622   2.85985
 Alpha virt. eigenvalues --    2.86724   2.87738   2.89977   2.90811   2.92880
 Alpha virt. eigenvalues --    2.94850   2.95423   2.96848   2.97541   3.02068
 Alpha virt. eigenvalues --    3.05006   3.07031   3.08248   3.17866   3.22735
 Alpha virt. eigenvalues --    3.25959   3.26229   3.28963   3.31030   3.33446
 Alpha virt. eigenvalues --    3.37657   3.39573   3.44962   3.50447   3.51738
 Alpha virt. eigenvalues --    3.55547   3.55946   3.56617   3.67795   3.99245
 Alpha virt. eigenvalues --    4.00133   4.04059   4.10879   4.11543   4.15501
 Alpha virt. eigenvalues --    4.24596   4.27983   4.31381   4.36105   4.41685
 Alpha virt. eigenvalues --    4.48538   4.53376   4.68196   4.73395   4.77786
          Condensed to atoms (all electrons):
               1          2          3          4          5          6
     1  O    8.110619   0.562688  -0.101712   0.007420   0.000572   0.000000
     2  C    0.562688   4.378472   0.258454  -0.020231   0.005154  -0.000048
     3  N   -0.101712   0.258454   7.097807   0.209383  -0.025633   0.002204
     4  C    0.007420  -0.020231   0.209383   5.166554   0.279823  -0.090610
     5  C    0.000572   0.005154  -0.025633   0.279823   4.418723   0.251925
     6  O    0.000000  -0.000048   0.002204  -0.090610   0.251925   8.108329
     7  O   -0.000006   0.000732  -0.012400  -0.090763   0.579477  -0.074957
     8  C   -0.006073  -0.004715  -0.049663   0.326474  -0.028113  -0.001091
     9  C   -0.000257   0.000016   0.005108  -0.049092  -0.005893   0.003514
    10  C    0.000033  -0.000005   0.000011  -0.002270  -0.000700  -0.000200
    11  N    0.000000   0.000000   0.000000  -0.000015   0.000000  -0.000017
    12  C    0.000000   0.000000   0.000000   0.000152   0.000076   0.000510
    13  N   -0.000001   0.000000  -0.000022  -0.002474   0.004015  -0.005445
    14  C   -0.083631   0.308909  -0.117086   0.007455  -0.000116   0.000000
    15  C    0.004260  -0.024970   0.003971  -0.000166   0.000000   0.000000
    16  N    0.000259   0.003408  -0.000034   0.000000   0.000000   0.000000
    17  H    0.003014  -0.018346   0.331526  -0.045665  -0.004688   0.000773
    18  H    0.013354  -0.001254  -0.046813   0.371871  -0.036066   0.000694
    19  H   -0.000001  -0.000028   0.000104   0.003360  -0.020173   0.280603
    20  H    0.000054   0.000329   0.001531  -0.046259  -0.006272   0.000119
    21  H    0.010547   0.004580  -0.011674  -0.027232   0.003999  -0.000108
    22  H    0.000008  -0.000002  -0.000002   0.000036   0.000023  -0.000004
    23  H    0.000000   0.000000   0.000000  -0.000001   0.000004   0.000014
    24  H    0.000000   0.000000  -0.000019   0.000338   0.001654   0.003119
    25  H    0.000602  -0.026600  -0.000391  -0.000132  -0.000007   0.000000
    26  H    0.001736  -0.023476   0.000820  -0.000039  -0.000009   0.000000
    27  H    0.002396  -0.003096   0.000112  -0.000002   0.000000   0.000000
    28  H    0.006086   0.003308   0.000301   0.000009   0.000000   0.000000
    29  H    0.000006  -0.000178  -0.000001   0.000000   0.000000   0.000000
    30  H    0.000007  -0.000185   0.000002   0.000000   0.000000   0.000000
               7          8          9         10         11         12
     1  O   -0.000006  -0.006073  -0.000257   0.000033   0.000000   0.000000
     2  C    0.000732  -0.004715   0.000016  -0.000005   0.000000   0.000000
     3  N   -0.012400  -0.049663   0.005108   0.000011   0.000000   0.000000
     4  C   -0.090763   0.326474  -0.049092  -0.002270  -0.000015   0.000152
     5  C    0.579477  -0.028113  -0.005893  -0.000700   0.000000   0.000076
     6  O   -0.074957  -0.001091   0.003514  -0.000200  -0.000017   0.000510
     7  O    8.011755  -0.001030  -0.000356  -0.000005   0.000000   0.000000
     8  C   -0.001030   5.094195   0.321292  -0.052961   0.006394   0.006280
     9  C   -0.000356   0.321292   4.853957   0.576157  -0.050238  -0.093358
    10  C   -0.000005  -0.052961   0.576157   4.857356   0.424342  -0.118749
    11  N    0.000000   0.006394  -0.050238   0.424342   6.681515   0.535192
    12  C    0.000000   0.006280  -0.093358  -0.118749   0.535192   4.689959
    13  N   -0.000058  -0.066127   0.326807  -0.079635  -0.085006   0.349165
    14  C   -0.000073  -0.000565  -0.000003   0.000000   0.000000   0.000000
    15  C    0.000000   0.000005   0.000000   0.000000   0.000000   0.000000
    16  N    0.000000   0.000000   0.000000   0.000000   0.000000   0.000000
    17  H    0.029282   0.002146  -0.000071   0.000001   0.000000   0.000000
    18  H    0.002249  -0.046800   0.003460   0.002990  -0.000084  -0.000071
    19  H    0.004434  -0.002683   0.006924   0.001223  -0.000129  -0.000219
    20  H    0.002392   0.359914  -0.022699   0.003107  -0.000194   0.000054
    21  H   -0.000061   0.379161  -0.026094  -0.004391   0.000052  -0.000106
    22  H    0.000000  -0.001078  -0.055730   0.394517  -0.040959   0.006969
    23  H    0.000000  -0.000159   0.003440   0.006912  -0.037036   0.393132
    24  H   -0.000031  -0.002702  -0.030540   0.008395   0.004959  -0.023069
    25  H   -0.000001   0.000067  -0.000001   0.000000   0.000000   0.000000
    26  H   -0.000008   0.000005   0.000000   0.000000   0.000000   0.000000
    27  H    0.000000   0.000001   0.000000   0.000000   0.000000   0.000000
    28  H    0.000000   0.000000   0.000000   0.000000   0.000000   0.000000
    29  H    0.000000   0.000000   0.000000   0.000000   0.000000   0.000000
    30  H    0.000000   0.000000   0.000000   0.000000   0.000000   0.000000
              13         14         15         16         17         18
     1  O   -0.000001  -0.083631   0.004260   0.000259   0.003014   0.013354
     2  C    0.000000   0.308909  -0.024970   0.003408  -0.018346  -0.001254
     3  N   -0.000022  -0.117086   0.003971  -0.000034   0.331526  -0.046813
     4  C   -0.002474   0.007455  -0.000166   0.000000  -0.045665   0.371871
     5  C    0.004015  -0.000116   0.000000   0.000000  -0.004688  -0.036066
     6  O   -0.005445   0.000000   0.000000   0.000000   0.000773   0.000694
     7  O   -0.000058  -0.000073   0.000000   0.000000   0.029282   0.002249
     8  C   -0.066127  -0.000565   0.000005   0.000000   0.002146  -0.046800
     9  C    0.326807  -0.000003   0.000000   0.000000  -0.000071   0.003460
    10  C   -0.079635   0.000000   0.000000   0.000000   0.000001   0.002990
    11  N   -0.085006   0.000000   0.000000   0.000000   0.000000  -0.000084
    12  C    0.349165   0.000000   0.000000   0.000000   0.000000  -0.000071
    13  N    6.795960   0.000000   0.000000   0.000000  -0.000001  -0.000388
    14  C    0.000000   5.221500   0.347259  -0.056529  -0.000390   0.000676
    15  C    0.000000   0.347259   4.783570   0.289038  -0.000067   0.000009
    16  N    0.000000  -0.056529   0.289038   6.782548  -0.000007   0.000000
    17  H   -0.000001  -0.000390  -0.000067  -0.000007   0.416463   0.004427
    18  H   -0.000388   0.000676   0.000009   0.000000   0.004427   0.589275
    19  H    0.001799   0.000000   0.000000   0.000000  -0.000076   0.003192
    20  H   -0.005212   0.000025   0.000000   0.000000   0.001130   0.006485
    21  H    0.003542   0.000201  -0.000003   0.000000  -0.000268  -0.006072
    22  H    0.004767   0.000000   0.000000   0.000000   0.000000   0.000117
    23  H   -0.057162   0.000000   0.000000   0.000000   0.000000  -0.000001
    24  H    0.337614   0.000000   0.000000   0.000000   0.000000   0.000045
    25  H    0.000000   0.370066  -0.035434  -0.003347   0.000453  -0.000018
    26  H    0.000000   0.358580  -0.032088   0.006185   0.002098  -0.000045
    27  H    0.000000  -0.032940   0.392348  -0.039668  -0.000005  -0.000006
    28  H    0.000000  -0.058366   0.392387  -0.045821   0.000003  -0.000002
    29  H    0.000000  -0.005072  -0.037919   0.336187   0.000000   0.000000
    30  H    0.000000   0.006093  -0.034004   0.338276   0.000000   0.000000
              19         20         21         22         23         24
     1  O   -0.000001   0.000054   0.010547   0.000008   0.000000   0.000000
     2  C   -0.000028   0.000329   0.004580  -0.000002   0.000000   0.000000
     3  N    0.000104   0.001531  -0.011674  -0.000002   0.000000  -0.000019
     4  C    0.003360  -0.046259  -0.027232   0.000036  -0.000001   0.000338
     5  C   -0.020173  -0.006272   0.003999   0.000023   0.000004   0.001654
     6  O    0.280603   0.000119  -0.000108  -0.000004   0.000014   0.003119
     7  O    0.004434   0.002392  -0.000061   0.000000   0.000000  -0.000031
     8  C   -0.002683   0.359914   0.379161  -0.001078  -0.000159  -0.002702
     9  C    0.006924  -0.022699  -0.026094  -0.055730   0.003440  -0.030540
    10  C    0.001223   0.003107  -0.004391   0.394517   0.006912   0.008395
    11  N   -0.000129  -0.000194   0.000052  -0.040959  -0.037036   0.004959
    12  C   -0.000219   0.000054  -0.000106   0.006969   0.393132  -0.023069
    13  N    0.001799  -0.005212   0.003542   0.004767  -0.057162   0.337614
    14  C    0.000000   0.000025   0.000201   0.000000   0.000000   0.000000
    15  C    0.000000   0.000000  -0.000003   0.000000   0.000000   0.000000
    16  N    0.000000   0.000000   0.000000   0.000000   0.000000   0.000000
    17  H   -0.000076   0.001130  -0.000268   0.000000   0.000000   0.000000
    18  H    0.003192   0.006485  -0.006072   0.000117  -0.000001   0.000045
    19  H    0.383271   0.000171   0.000003   0.000006   0.000013  -0.000543
    20  H    0.000171   0.613119  -0.028404  -0.000030  -0.000006   0.001779
    21  H    0.000003  -0.028404   0.539342   0.002218   0.000004  -0.000027
    22  H    0.000006  -0.000030   0.002218   0.586442  -0.000162  -0.000099
    23  H    0.000013  -0.000006   0.000004  -0.000162   0.573414   0.000127
    24  H   -0.000543   0.001779  -0.000027  -0.000099   0.000127   0.424657
    25  H    0.000000  -0.000011  -0.000045   0.000000   0.000000   0.000000
    26  H    0.000000   0.000000   0.000000   0.000000   0.000000   0.000000
    27  H    0.000000   0.000000  -0.000001   0.000000   0.000000   0.000000
    28  H    0.000000   0.000000   0.000000   0.000000   0.000000   0.000000
    29  H    0.000000   0.000000   0.000000   0.000000   0.000000   0.000000
    30  H    0.000000   0.000000   0.000000   0.000000   0.000000   0.000000
              25         26         27         28         29         30
     1  O    0.000602   0.001736   0.002396   0.006086   0.000006   0.000007
     2  C   -0.026600  -0.023476  -0.003096   0.003308  -0.000178  -0.000185
     3  N   -0.000391   0.000820   0.000112   0.000301  -0.000001   0.000002
     4  C   -0.000132  -0.000039  -0.000002   0.000009   0.000000   0.000000
     5  C   -0.000007  -0.000009   0.000000   0.000000   0.000000   0.000000
     6  O    0.000000   0.000000   0.000000   0.000000   0.000000   0.000000
     7  O   -0.000001  -0.000008   0.000000   0.000000   0.000000   0.000000
     8  C    0.000067   0.000005   0.000001   0.000000   0.000000   0.000000
     9  C   -0.000001   0.000000   0.000000   0.000000   0.000000   0.000000
    10  C    0.000000   0.000000   0.000000   0.000000   0.000000   0.000000
    11  N    0.000000   0.000000   0.000000   0.000000   0.000000   0.000000
    12  C    0.000000   0.000000   0.000000   0.000000   0.000000   0.000000
    13  N    0.000000   0.000000   0.000000   0.000000   0.000000   0.000000
    14  C    0.370066   0.358580  -0.032940  -0.058366  -0.005072   0.006093
    15  C   -0.035434  -0.032088   0.392348   0.392387  -0.037919  -0.034004
    16  N   -0.003347   0.006185  -0.039668  -0.045821   0.336187   0.338276
    17  H    0.000453   0.002098  -0.000005   0.000003   0.000000   0.000000
    18  H   -0.000018  -0.000045  -0.000006  -0.000002   0.000000   0.000000
    19  H    0.000000   0.000000   0.000000   0.000000   0.000000   0.000000
    20  H   -0.000011   0.000000   0.000000   0.000000   0.000000   0.000000
    21  H   -0.000045   0.000000  -0.000001   0.000000   0.000000   0.000000
    22  H    0.000000   0.000000   0.000000   0.000000   0.000000   0.000000
    23  H    0.000000   0.000000   0.000000   0.000000   0.000000   0.000000
    24  H    0.000000   0.000000   0.000000   0.000000   0.000000   0.000000
    25  H    0.602897  -0.033242   0.005668  -0.006106   0.005349   0.000010
    26  H   -0.033242   0.589948  -0.007082   0.006541  -0.000721  -0.000076
    27  H    0.005668  -0.007082   0.608550  -0.043486   0.006698  -0.004880
    28  H   -0.006106   0.006541  -0.043486   0.650806  -0.006500  -0.002069
    29  H    0.005349  -0.000721   0.006698  -0.006500   0.502900  -0.034042
    30  H    0.000010  -0.000076  -0.004880  -0.002069  -0.034042   0.491301
 Mulliken charges:
               1
     1  O   -0.531979
     2  C    0.597082
     3  N   -0.545887
     4  C    0.002076
     5  C    0.582223
     6  O   -0.479322
     7  O   -0.450572
     8  C   -0.232172
     9  C    0.233658
    10  C   -0.016127
    11  N   -0.438774
    12  C    0.254083
    13  N   -0.522136
    14  C   -0.265996
    15  C   -0.048198
    16  N   -0.610497
    17  H    0.278267
    18  H    0.138776
    19  H    0.338750
    20  H    0.118877
    21  H    0.160837
    22  H    0.102963
    23  H    0.117468
    24  H    0.274344
    25  H    0.120222
    26  H    0.130873
    27  H    0.115394
    28  H    0.102909
    29  H    0.233292
    30  H    0.239566
 Sum of Mulliken charges =   0.00000
 Mulliken charges with hydrogens summed into heavy atoms:
               1
     1  O   -0.531979
     2  C    0.597082
     3  N   -0.267620
     4  C    0.140852
     5  C    0.582223
     6  O   -0.140572
     7  O   -0.450572
     8  C    0.047542
     9  C    0.233658
    10  C    0.086835
    11  N   -0.438774
    12  C    0.371551
    13  N   -0.247793
    14  C   -0.014901
    15  C    0.170104
    16  N   -0.137639
 APT charges:
               1
     1  O   -0.408330
     2  C    0.253898
     3  N   -0.702415
     4  C   -0.285102
     5  C   -0.329037
     6  O   -0.132757
     7  O    0.134954
     8  C   -0.676882
     9  C   -0.532925
    10  C   -0.206273
    11  N    0.147836
    12  C   -0.494609
    13  N   -0.721584
    14  C   -0.649619
    15  C   -0.362211
    16  N   -1.775057
    17  H    0.575928
    18  H    0.294358
    19  H    0.402285
    20  H    0.370152
    21  H    0.269325
    22  H    0.325095
    23  H    1.060543
    24  H    0.486915
    25  H    0.355828
    26  H    0.411854
    27  H    0.350522
    28  H    0.260696
    29  H    0.516884
    30  H    1.059729
 Sum of APT charges =   0.00000
 APT charges with hydrogens summed into heavy atoms:
               1
     1  O   -0.408330
     2  C    0.253898
     3  N   -0.126488
     4  C    0.009256
     5  C   -0.329037
     6  O    0.269528
     7  O    0.134954
     8  C   -0.037404
     9  C   -0.532925
    10  C    0.118823
    11  N    0.147836
    12  C    0.565933
    13  N   -0.234669
    14  C    0.118063
    15  C    0.249007
    16  N   -0.198443
 Electronic spatial extent (au):  <R**2>=           5325.6328
 Charge=              0.0000 electrons
 Dipole moment (field-independent basis, Debye):
    X=              0.6928    Y=             -2.0460    Z=              0.6767  Tot=              2.2636
 Quadrupole moment (field-independent basis, Debye-Ang):
   XX=            -90.9225   YY=            -90.9729   ZZ=           -106.5776
   XY=              2.7433   XZ=            -15.1319   YZ=              6.5056
 Traceless Quadrupole moment (field-independent basis, Debye-Ang):
   XX=              5.2352   YY=              5.1847   ZZ=            -10.4199
   XY=              2.7433   XZ=            -15.1319   YZ=              6.5056
 Octapole moment (field-independent basis, Debye-Ang**2):
  XXX=            166.0388  YYY=            -32.7794  ZZZ=            -66.7977  XYY=             57.7902
  XXY=            -53.3443  XXZ=             11.6870  XZZ=             73.3595  YZZ=            -11.3933
  YYZ=             -3.9696  XYZ=             -3.1863
 Hexadecapole moment (field-independent basis, Debye-Ang**3):
 XXXX=          -5317.5396 YYYY=           -325.3817 ZZZZ=          -1129.7609 XXXY=            463.2343
 XXXZ=           -603.7322 YYYX=            290.7793 YYYZ=             64.1283 ZZZX=             89.6534
 ZZZY=             57.2681 XXYY=           -984.0318 XXZZ=          -1165.1966 YYZZ=           -232.0799
 XXYZ=            112.2858 YYXZ=            -22.8850 ZZXY=            115.4832
 N-N= 1.103527655617D+03 E-N=-4.063464410797D+03  KE= 7.891675167289D+02
  Exact polarizability:   0.000   0.000   0.000   0.000   0.000   0.000
 Approx polarizability: 194.674 -24.072 159.586  -4.831 -42.798 183.440
 Calling FoFJK, ICntrl=    100147 FMM=F ISym2X=0 I1Cent= 0 IOpClX= 0 NMat=1 NMatS=1 NMatT=0.
 -------------------------------------------------------------------
 Center     Atomic                   Forces (Hartrees/Bohr)
 Number     Number              X              Y              Z
 -------------------------------------------------------------------
      1        8           0.000278733    0.005197764   -0.007534841
      2        6           0.001688855   -0.003017353   -0.000162179
      3        7          -0.003031182    0.000546116    0.004973345
      4        6           0.008533028   -0.003029483   -0.000079007
      5        6           0.001378278    0.008835137   -0.008116262
      6        8          -0.005575708    0.000041159    0.005927696
      7        8           0.001706062   -0.008953713    0.011130530
      8        6          -0.007034858    0.002548857   -0.001970306
      9        6           0.007345493   -0.003966593   -0.000519495
     10        6          -0.007133502    0.005126985   -0.002570555
     11        7           0.002096160    0.001701688   -0.002908582
     12        6          -0.003409973    0.001952654   -0.002648761
     13        7          -0.000377334   -0.003879599    0.008308170
     14        6          -0.000692151    0.000495202    0.001123781
     15        6           0.002426803   -0.001691078   -0.000650552
     16        7           0.000535628    0.002062017    0.003721245
     17        1           0.000549012   -0.001272482    0.001192973
     18        1           0.000646983    0.000705532   -0.000504693
     19        1           0.000876491    0.001215114   -0.003818137
     20        1           0.001115489   -0.003303153    0.001718527
     21        1           0.002091575    0.000474167   -0.001708874
     22        1           0.000646332   -0.000136393   -0.001091927
     23        1          -0.004569038    0.000251539    0.000678359
     24        1          -0.000824052   -0.000876926   -0.001290138
     25        1          -0.001604322   -0.001564126    0.000558772
     26        1           0.001198793   -0.000697500    0.001598426
     27        1           0.000221218    0.001532014   -0.000467850
     28        1          -0.001404792    0.001493411   -0.002048900
     29        1          -0.000068478   -0.003473300   -0.001027048
     30        1           0.002390457    0.001682346   -0.001813720
 -------------------------------------------------------------------
 Cartesian Forces:  Max     0.011130530 RMS     0.003515947
 FormGI is forming the generalized inverse of G from B-inverse, IUseBI=4.
 GSVD:  received Info=                   1 from GESDD.

 GradGradGradGradGradGradGradGradGradGradGradGradGradGradGradGradGradGrad
 Berny optimization.
 Internal  Forces:  Max     0.014085403 RMS     0.002780058
 Search for a local minimum.
 Step number   1 out of a maximum of  160
 All quantities printed in internal units (Hartrees-Bohrs-Radians)
 Mixed Optimization -- RFO/linear search
 Second derivative matrix not updated -- analytic derivatives used.
 ITU=  0
     Eigenvalues ---   -0.00067  -0.00048   0.00091   0.00209   0.00267
     Eigenvalues ---    0.00289   0.00382   0.00494   0.00671   0.01048
     Eigenvalues ---    0.01536   0.01922   0.02046   0.02597   0.03217
     Eigenvalues ---    0.03414   0.04195   0.04231   0.04327   0.04405
     Eigenvalues ---    0.04426   0.04633   0.05184   0.05196   0.05214
     Eigenvalues ---    0.05537   0.05947   0.06163   0.07698   0.07735
     Eigenvalues ---    0.08358   0.10404   0.10699   0.10772   0.11091
     Eigenvalues ---    0.11694   0.11947   0.13520   0.15073   0.15638
     Eigenvalues ---    0.16523   0.16739   0.17007   0.18518   0.19135
     Eigenvalues ---    0.19911   0.21587   0.22611   0.23291   0.23451
     Eigenvalues ---    0.23722   0.24805   0.24906   0.25276   0.30359
     Eigenvalues ---    0.30838   0.32277   0.33113   0.33343   0.33661
     Eigenvalues ---    0.34259   0.34341   0.34527   0.34873   0.35428
     Eigenvalues ---    0.35564   0.37368   0.37707   0.37992   0.38491
     Eigenvalues ---    0.40369   0.42229   0.45219   0.45521   0.45730
     Eigenvalues ---    0.46056   0.46685   0.47320   0.47521   0.48918
     Eigenvalues ---    0.52908   0.58939   0.84824   0.94290
 RFO step:  Lambda=-4.38030432D-03 EMin=-6.65468678D-04
 Linear search not attempted -- first point.
 Iteration  1 RMS(Cart)=  0.24402152 RMS(Int)=  0.04265640
 Iteration  2 RMS(Cart)=  0.11995336 RMS(Int)=  0.00616222
 Iteration  3 RMS(Cart)=  0.00933979 RMS(Int)=  0.00011929
 Iteration  4 RMS(Cart)=  0.00005038 RMS(Int)=  0.00011614
 Iteration  5 RMS(Cart)=  0.00000000 RMS(Int)=  0.00011614
 Variable       Old X    -DE/DX   Delta X   Delta X   Delta X     New X
                                 (Linear)    (Quad)   (Total)
    R1        2.31308   0.00891   0.00000   0.00843   0.00843   2.32152
    R2        2.56764   0.00845   0.00000   0.01585   0.01585   2.58349
    R3        2.87049   0.00294   0.00000   0.00852   0.00852   2.87901
    R4        2.73898   0.00178   0.00000  -0.00994  -0.00994   2.72903
    R5        1.90846   0.00176   0.00000   0.00469   0.00469   1.91315
    R6        2.87776   0.00529   0.00000   0.00799   0.00799   2.88575
    R7        2.92668   0.00805   0.00000   0.02617   0.02617   2.95285
    R8        2.06857   0.00086   0.00000   0.00357   0.00357   2.07214
    R9        2.53950   0.00468   0.00000  -0.00052  -0.00052   2.53898
   R10        2.27061   0.01409   0.00000   0.01765   0.01765   2.28826
   R11        1.82544   0.00353   0.00000   0.00989   0.00989   1.83533
   R12        2.81939   0.00606   0.00000   0.00727   0.00727   2.82665
   R13        2.06179   0.00359   0.00000   0.00777   0.00777   2.06957
   R14        2.05620   0.00255   0.00000   0.00893   0.00893   2.06513
   R15        2.58687   0.00835   0.00000   0.01999   0.02000   2.60687
   R16        2.60542   0.00866   0.00000   0.01282   0.01284   2.61826
   R17        2.61227  -0.00131   0.00000  -0.00792  -0.00792   2.60435
   R18        2.04042   0.00113   0.00000   0.00400   0.00400   2.04442
   R19        2.48090   0.00245   0.00000   0.00652   0.00649   2.48739
   R20        2.56707   0.00879   0.00000   0.01050   0.01050   2.57756
   R21        2.03253   0.00439   0.00000   0.01022   0.01022   2.04274
   R22        1.90920  -0.00067   0.00000  -0.00124  -0.00124   1.90796
   R23        2.87445   0.00489   0.00000   0.01294   0.01294   2.88739
   R24        2.07333   0.00156   0.00000   0.00459   0.00459   2.07793
   R25        2.06696   0.00172   0.00000   0.00554   0.00554   2.07250
   R26        2.76893   0.00254   0.00000   0.00419   0.00419   2.77311
   R27        2.06439   0.00144   0.00000   0.00369   0.00369   2.06808
   R28        2.07244   0.00220   0.00000   0.00738   0.00738   2.07982
   R29        1.91619   0.00362   0.00000   0.00817   0.00817   1.92435
   R30        1.91417   0.00343   0.00000   0.00757   0.00757   1.92174
    A1        2.11381   0.00272   0.00000   0.00637   0.00634   2.12015
    A2        2.15924  -0.00208   0.00000  -0.00590  -0.00594   2.15330
    A3        2.00996  -0.00064   0.00000  -0.00020  -0.00023   2.00973
    A4        2.11947  -0.00019   0.00000  -0.00107  -0.00111   2.11837
    A5        2.13379  -0.00019   0.00000  -0.00095  -0.00099   2.13281
    A6        2.02456   0.00040   0.00000   0.00058   0.00054   2.02510
    A7        1.85954   0.00132   0.00000   0.03161   0.03155   1.89109
    A8        1.92916   0.00122   0.00000   0.02331   0.02320   1.95236
    A9        1.90295  -0.00111   0.00000  -0.00277  -0.00241   1.90054
   A10        1.95098  -0.00061   0.00000  -0.00987  -0.01070   1.94028
   A11        1.93696  -0.00033   0.00000  -0.02257  -0.02289   1.91407
   A12        1.88420  -0.00049   0.00000  -0.01887  -0.01918   1.86502
   A13        2.03873  -0.00145   0.00000  -0.01438  -0.01444   2.02429
   A14        2.13468   0.00384   0.00000   0.00995   0.00989   2.14457
   A15        2.10975  -0.00240   0.00000   0.00431   0.00425   2.11400
   A16        1.95122  -0.00378   0.00000  -0.02585  -0.02585   1.92536
   A17        1.97668   0.00952   0.00000   0.00784   0.00781   1.98448
   A18        1.90447  -0.00289   0.00000  -0.00905  -0.00912   1.89535
   A19        1.86104  -0.00428   0.00000  -0.02077  -0.02101   1.84002
   A20        1.93641  -0.00210   0.00000  -0.01105  -0.01101   1.92540
   A21        1.90062  -0.00198   0.00000   0.03511   0.03519   1.93581
   A22        1.88079   0.00135   0.00000  -0.00258  -0.00275   1.87804
   A23        2.30426  -0.00087   0.00000   0.02235   0.02231   2.32657
   A24        2.15066   0.00418   0.00000  -0.01350  -0.01354   2.13712
   A25        1.82716  -0.00327   0.00000  -0.00891  -0.00884   1.81832
   A26        1.93591   0.00291   0.00000   0.00547   0.00540   1.94131
   A27        2.22830  -0.00173   0.00000  -0.00524  -0.00538   2.22292
   A28        2.11896  -0.00118   0.00000  -0.00010  -0.00023   2.11873
   A29        1.83127   0.00139   0.00000   0.00320   0.00321   1.83448
   A30        1.95180  -0.00010   0.00000  -0.00159  -0.00160   1.95020
   A31        2.20646  -0.00121   0.00000  -0.00907  -0.00909   2.19737
   A32        2.12491   0.00131   0.00000   0.01071   0.01070   2.13561
   A33        1.87853  -0.00092   0.00000   0.00196   0.00192   1.88045
   A34        2.19900   0.00090   0.00000  -0.00661  -0.00673   2.19227
   A35        2.20054   0.00016   0.00000   0.00694   0.00685   2.20739
   A36        1.97276  -0.00076   0.00000  -0.00492  -0.00492   1.96783
   A37        1.89796  -0.00106   0.00000  -0.00447  -0.00447   1.89349
   A38        1.91323   0.00112   0.00000   0.00269   0.00267   1.91590
   A39        1.90453   0.00169   0.00000   0.01825   0.01826   1.92279
   A40        1.91620  -0.00043   0.00000  -0.00481  -0.00481   1.91139
   A41        1.85535  -0.00055   0.00000  -0.00677  -0.00676   1.84859
   A42        1.90191   0.00204   0.00000   0.01105   0.01097   1.91288
   A43        1.90741  -0.00027   0.00000  -0.00737  -0.00737   1.90004
   A44        1.90057  -0.00089   0.00000   0.00153   0.00136   1.90193
   A45        1.89327  -0.00111   0.00000  -0.00382  -0.00377   1.88950
   A46        1.99169   0.00057   0.00000   0.01149   0.01140   2.00310
   A47        1.86756  -0.00041   0.00000  -0.01413  -0.01413   1.85343
   A48        1.91422   0.00019   0.00000   0.00142   0.00142   1.91564
   A49        1.91889  -0.00048   0.00000  -0.00677  -0.00677   1.91212
   A50        1.84811   0.00014   0.00000  -0.00131  -0.00131   1.84680
    D1       -0.04896   0.00024   0.00000  -0.01423  -0.01419  -0.06315
    D2       -3.07494  -0.00003   0.00000   0.00128   0.00131  -3.07362
    D3        3.11220  -0.00007   0.00000  -0.02852  -0.02855   3.08365
    D4        0.08622  -0.00034   0.00000  -0.01300  -0.01304   0.07318
    D5        0.19294   0.00023   0.00000  -0.13237  -0.13235   0.06059
    D6       -1.92488  -0.00068   0.00000  -0.14916  -0.14913  -2.07402
    D7        2.33669  -0.00004   0.00000  -0.14004  -0.14002   2.19667
    D8       -2.96879   0.00061   0.00000  -0.11751  -0.11753  -3.08633
    D9        1.19657  -0.00029   0.00000  -0.13430  -0.13432   1.06226
   D10       -0.82504   0.00034   0.00000  -0.12518  -0.12521  -0.95025
   D11       -2.75142   0.00020   0.00000   0.00340   0.00368  -2.74774
   D12        1.40869  -0.00059   0.00000  -0.01782  -0.01812   1.39057
   D13       -0.65985  -0.00003   0.00000  -0.00694  -0.00693  -0.66678
   D14        0.28142   0.00042   0.00000  -0.01128  -0.01100   0.27042
   D15       -1.84165  -0.00037   0.00000  -0.03250  -0.03280  -1.87445
   D16        2.37300   0.00019   0.00000  -0.02163  -0.02162   2.35138
   D17        2.69847   0.00010   0.00000   0.09100   0.09096   2.78943
   D18       -0.45003  -0.00137   0.00000   0.07099   0.07093  -0.37910
   D19       -1.47557   0.00209   0.00000   0.13412   0.13398  -1.34158
   D20        1.65912   0.00062   0.00000   0.11411   0.11395   1.77307
   D21        0.62904   0.00082   0.00000   0.08776   0.08796   0.71700
   D22       -2.51945  -0.00065   0.00000   0.06774   0.06793  -2.45153
   D23       -3.04210   0.00130   0.00000  -0.20229  -0.20225   3.03884
   D24        1.07491  -0.00054   0.00000  -0.18667  -0.18661   0.88831
   D25       -0.95202   0.00161   0.00000  -0.16804  -0.16816  -1.12018
   D26        1.17292  -0.00077   0.00000  -0.25093  -0.25076   0.92216
   D27       -0.99325  -0.00261   0.00000  -0.23532  -0.23512  -1.22837
   D28       -3.02018  -0.00046   0.00000  -0.21668  -0.21667   3.04633
   D29       -0.96218   0.00037   0.00000  -0.20363  -0.20370  -1.16588
   D30       -3.12835  -0.00148   0.00000  -0.18801  -0.18806   2.96677
   D31        1.12790   0.00067   0.00000  -0.16938  -0.16962   0.95829
   D32        0.01874  -0.00089   0.00000   0.06344   0.06347   0.08220
   D33       -3.11606   0.00053   0.00000   0.08312   0.08309  -3.03297
   D34        1.66708  -0.00131   0.00000  -0.36383  -0.36374   1.30334
   D35       -1.41590  -0.00225   0.00000  -0.36178  -0.36167  -1.77757
   D36       -2.46745   0.00030   0.00000  -0.37838  -0.37837  -2.84582
   D37        0.73275  -0.00064   0.00000  -0.37633  -0.37630   0.35645
   D38       -0.40021  -0.00053   0.00000  -0.36634  -0.36647  -0.76668
   D39        2.79999  -0.00147   0.00000  -0.36429  -0.36440   2.43559
   D40       -3.08482  -0.00111   0.00000  -0.00074  -0.00068  -3.08550
   D41        0.05127  -0.00045   0.00000   0.02742   0.02741   0.07868
   D42        0.00610  -0.00011   0.00000  -0.00284  -0.00282   0.00328
   D43       -3.14100   0.00054   0.00000   0.02532   0.02527  -3.11573
   D44        3.08463   0.00116   0.00000   0.00708   0.00708   3.09170
   D45        0.04648  -0.00019   0.00000  -0.01658  -0.01648   0.03000
   D46       -0.01197   0.00043   0.00000   0.00765   0.00762  -0.00435
   D47       -3.05011  -0.00091   0.00000  -0.01602  -0.01594  -3.06605
   D48        0.00231  -0.00024   0.00000  -0.00318  -0.00319  -0.00088
   D49       -3.13417  -0.00084   0.00000  -0.02927  -0.02933   3.11968
   D50       -0.01026   0.00051   0.00000   0.00823   0.00824  -0.00202
   D51        3.12467   0.00085   0.00000   0.01715   0.01713  -3.14139
   D52        0.01444  -0.00060   0.00000  -0.01029  -0.01029   0.00415
   D53        3.05247   0.00080   0.00000   0.01237   0.01250   3.06497
   D54       -3.12084  -0.00091   0.00000  -0.01865  -0.01873  -3.13957
   D55       -0.08281   0.00049   0.00000   0.00401   0.00406  -0.07875
   D56       -3.12202  -0.00029   0.00000  -0.04318  -0.04319   3.11797
   D57        1.09501   0.00003   0.00000  -0.04074  -0.04071   1.05430
   D58       -0.93946   0.00117   0.00000  -0.02056  -0.02056  -0.96001
   D59       -1.00792  -0.00094   0.00000  -0.03923  -0.03924  -1.04717
   D60       -3.07407  -0.00063   0.00000  -0.03679  -0.03677  -3.11084
   D61        1.17464   0.00052   0.00000  -0.01662  -0.01661   1.15803
   D62        1.01906  -0.00087   0.00000  -0.03967  -0.03970   0.97936
   D63       -1.04709  -0.00056   0.00000  -0.03723  -0.03722  -1.08431
   D64       -3.08156   0.00059   0.00000  -0.01705  -0.01707  -3.09863
   D65        1.22938   0.00018   0.00000   0.00950   0.00955   1.23893
   D66       -3.02845   0.00018   0.00000   0.00485   0.00490  -3.02355
   D67       -2.97880   0.00037   0.00000   0.00475   0.00476  -2.97404
   D68       -0.95344   0.00037   0.00000   0.00009   0.00011  -0.95334
   D69       -0.89892  -0.00057   0.00000  -0.00853  -0.00859  -0.90751
   D70        1.12644  -0.00057   0.00000  -0.01318  -0.01325   1.11319
         Item               Value     Threshold  Converged?
 Maximum Force            0.014085     0.000450     NO 
 RMS     Force            0.002780     0.000300     NO 
 Maximum Displacement     1.338170     0.001800     NO 
 RMS     Displacement     0.333837     0.001200     NO 
 Predicted change in Energy=-3.863663D-03
 GradGradGradGradGradGradGradGradGradGradGradGradGradGradGradGradGradGrad

                          Input orientation:                          
 ---------------------------------------------------------------------
 Center     Atomic      Atomic             Coordinates (Angstroms)
 Number     Number       Type             X           Y           Z
 ---------------------------------------------------------------------
      1          8           0        1.578190    0.700614   -1.173092
      2          6           0        1.764657    0.051374   -0.146977
      3          7           0        0.756622   -0.172919    0.748893
      4          6           0       -0.553121    0.407914    0.567918
      5          6           0       -1.246564    0.463207    1.927343
      6          8           0       -2.267184    1.330629    2.032672
      7          8           0       -0.928367   -0.244708    2.856791
      8          6           0       -1.406157   -0.391882   -0.468577
      9          6           0       -2.817445    0.089847   -0.585295
     10          6           0       -3.393714    1.197112   -1.172571
     11          7           0       -4.752737    1.231547   -0.946303
     12          6           0       -5.008503    0.157610   -0.229495
     13          7           0       -3.879399   -0.567763    0.014270
     14          6           0        3.108239   -0.564467    0.222614
     15          6           0        4.212161   -0.216228   -0.774730
     16          7           0        5.478163   -0.815309   -0.336777
     17          1           0        0.911036   -0.656404    1.624873
     18          1           0       -0.439319    1.423372    0.170091
     19          1           0       -2.448421    1.744083    1.172748
     20          1           0       -1.387652   -1.451551   -0.192619
     21          1           0       -0.878853   -0.288920   -1.420207
     22          1           0       -2.901028    1.958917   -1.761920
     23          1           0       -5.980146   -0.144108    0.135716
     24          1           0       -3.809466   -1.393849    0.590536
     25          1           0        2.985897   -1.655328    0.287103
     26          1           0        3.403863   -0.235134    1.226080
     27          1           0        4.337334    0.870705   -0.798759
     28          1           0        3.887865   -0.510252   -1.784528
     29          1           0        5.440728   -1.825782   -0.457310
     30          1           0        6.233089   -0.492426   -0.936779
 ---------------------------------------------------------------------
                    Distance matrix (angstroms):
                    1          2          3          4          5
     1  O    0.000000
     2  C    1.228493   0.000000
     3  N    2.265405   1.367122   0.000000
     4  C    2.767539   2.451589   1.444142   0.000000
     5  C    4.200987   3.679655   2.409597   1.527075   0.000000
     6  O    5.045863   4.758476   3.612776   2.436169   1.343570
     7  O    4.839051   4.045078   2.699551   2.409495   1.210894
     8  C    3.255183   3.217757   2.491545   1.562583   2.548937
     9  C    4.476622   4.603179   3.824012   2.560904   2.986707
    10  C    4.996632   5.382689   4.774337   3.423609   3.841658
    11  N    6.357197   6.671443   5.932896   4.539604   4.597982
    12  C    6.676058   6.774496   5.856891   4.533095   4.347129
    13  N    5.727467   5.680202   4.710442   3.510355   3.413879
    14  C    2.426824   1.523506   2.441389   3.803987   4.788165
    15  C    2.817285   2.540858   3.776777   4.990007   6.128663
    16  N    4.266994   3.818022   4.887156   6.220220   7.209910
    17  H    3.180440   2.090232   1.012394   2.096111   2.449541
    18  H    2.529202   2.615420   2.076881   1.096528   2.159050
    19  H    4.775498   4.728315   3.758571   2.396525   1.911679
    20  H    3.793330   3.492551   2.668193   2.175423   2.860147
    21  H    2.660320   2.953821   2.719050   2.131741   3.450652
    22  H    4.689716   5.292955   4.922125   3.653275   4.311040
    23  H    7.717187   7.752425   6.764678   5.472123   5.097603
    24  H    6.043508   5.805466   4.729155   3.721645   3.435721
    25  H    3.108741   2.143055   2.716699   4.106151   5.009222
    26  H    3.156696   2.157398   2.690624   4.062562   4.754568
    27  H    2.789612   2.777552   4.038053   5.098876   6.227167
    28  H    2.678554   2.739527   4.041868   5.108755   6.409990
    29  H    4.670570   4.139266   5.111529   6.478172   7.459619
    30  H    4.811162   4.570164   5.738925   7.009092   8.066080
                    6          7          8          9         10
     6  O    0.000000
     7  O    2.225599   0.000000
     8  C    3.156684   3.362739   0.000000
     9  C    2.948911   3.940622   1.495801   0.000000
    10  C    3.400070   4.938880   2.640244   1.379497   0.000000
    11  N    3.880990   5.591838   3.750112   2.275776   1.378161
    12  C    3.742754   5.131718   3.651849   2.220793   2.139510
    13  N    3.205788   4.110095   2.526064   1.385523   2.181574
    14  C    5.980206   4.830665   4.570263   6.016193   6.879323
    15  C    7.228843   6.293948   5.629395   7.038816   7.746298
    16  N    8.379125   7.181092   6.898589   8.348544   9.135567
    17  H    3.770368   2.251781   3.133989   4.398103   5.458212
    18  H    2.611302   3.200003   2.153559   2.829201   3.253057
    19  H    0.971215   3.016928   2.888357   2.442006   2.587137
    20  H    3.669607   3.311542   1.095168   2.138787   3.464102
    21  H    4.058667   4.277513   1.092818   2.144454   2.931576
    22  H    3.898131   5.484509   3.071422   2.210171   1.081859
    23  H    4.422599   5.738888   4.620383   3.252271   3.193762
    24  H    3.446907   3.841506   2.810970   2.137297   3.161404
    25  H    6.289500   4.890256   4.632223   6.122540   7.139082
    26  H    5.938263   4.628987   5.102227   6.487786   7.349278
    27  H    7.200568   6.506520   5.889893   7.200429   7.746959
    28  H    7.472916   6.693910   5.456410   6.838089   7.504063
    29  H    8.693379   7.351763   6.995429   8.478410   9.364659
    30  H    9.186719   8.107958   7.654242   9.076054   9.776782
                   11         12         13         14         15
    11  N    0.000000
    12  C    1.316272   0.000000
    13  N    2.218769   1.363989   0.000000
    14  C    8.147820   8.161330   6.990744   0.000000
    15  C    9.082669   9.244333   8.137532   1.527942   0.000000
    16  N   10.451433  10.532248   9.367416   2.447934   1.467468
    17  H    6.500279   6.256376   5.054717   2.608157   4.104787
    18  H    4.459675   4.758074   3.977819   4.066870   5.021677
    19  H    3.172215   3.322230   2.955403   6.091685   7.211022
    20  H    4.369307   3.962489   2.651921   4.601344   5.763920
    21  H    4.188482   4.321018   3.337477   4.321075   5.132285
    22  H    2.150145   3.167726   3.239780   6.813012   7.503550
    23  H    2.137692   1.080973   2.146479   9.098516  10.233144
    24  H    3.185018   2.125363   1.009649   6.976953   8.221754
    25  H    8.351155   8.213651   6.956258   1.099592   2.168460
    26  H    8.567410   8.546394   7.390874   1.096721   2.157995
    27  H    9.098427   9.390274   8.381224   2.147928   1.094380
    28  H    8.854179   9.055912   7.973040   2.153920   1.100595
    29  H   10.653314  10.638241   9.416462   2.737465   2.049584
    30  H   11.120277  11.282562  10.157391   3.333777   2.046142
                   16         17         18         19         20
    16  N    0.000000
    17  H    4.973125   0.000000
    18  H    6.347063   2.874947   0.000000
    19  H    8.465216   4.153637   2.268186   0.000000
    20  H    6.896738   3.036363   3.048946   3.633392   0.000000
    21  H    6.470128   3.551234   2.377853   3.649667   1.765661
    22  H    8.940817   5.730803   3.174820   2.977127   4.047753
    23  H   11.487672   7.068835   5.758380   4.136881   4.786253
    24  H    9.351720   4.888437   4.412641   3.469587   2.545946
    25  H    2.703007   2.663180   4.606972   6.470871   4.404497
    26  H    2.661174   2.559431   4.316921   6.178136   5.143052
    27  H    2.087477   4.466046   4.905154   7.120119   6.207716
    28  H    2.172117   4.528453   5.126788   7.346838   5.590286
    29  H    1.018325   5.120649   6.747265   8.811339   6.843748
    30  H    1.016941   5.908739   7.029686   9.209815   7.716825
                   21         22         23         24         25
    21  H    0.000000
    22  H    3.042817   0.000000
    23  H    5.335266   4.183863   0.000000
    24  H    3.721888   4.195277   2.545696   0.000000
    25  H    4.440526   7.205356   9.093769   6.807158   0.000000
    26  H    5.034618   7.313935   9.447582   7.333392   1.753089
    27  H    5.379548   7.382803  10.409298   8.569055   3.063710
    28  H    4.785741   7.224014  10.059773   8.103738   2.533061
    29  H    6.574665   9.252613  11.559242   9.319368   2.570875
    30  H    7.131258   9.493263  12.265182  10.197949   3.659847
                   26         27         28         29         30
    26  H    0.000000
    27  H    2.488819   0.000000
    28  H    3.061650   1.755222   0.000000
    29  H    3.084280   2.933446   2.429714   0.000000
    30  H    3.570529   2.339030   2.493807   1.623442   0.000000
 Symmetry turned off by external request.
 Stoichiometry    C9H14N4O3
 Framework group  C1[X(C9H14N4O3)]
 Deg. of freedom    84
 Full point group                 C1      NOp   1
 Rotational constants (GHZ):      1.2154016      0.2205683      0.1996981
 Standard basis: 6-31G(d,p) (6D, 7F)
   310 basis functions,   546 primitive gaussians,   310 cartesian basis functions
    60 alpha electrons       60 beta electrons
       nuclear repulsion energy      1100.8482949224 Hartrees.
 NAtoms=   30 NActive=   30 NUniq=   30 SFac= 1.00D+00 NAtFMM=   60 NAOKFM=F Big=F
 Integral buffers will be    131072 words long.
 Raffenetti 2 integral format.
 Two-electron integral symmetry is turned off.
 One-electron integrals computed using PRISM.
 NBasis=   310 RedAO= T EigKep=  1.19D-03  NBF=   310
 NBsUse=   310 1.00D-06 EigRej= -1.00D+00 NBFU=   310
 Initial guess from the checkpoint file:  "conf-801.chk"
 B after Tr=    -0.018628    0.051689    0.015253
         Rot=    0.999705    0.023557   -0.005920    0.000508 Ang=   2.78 deg.
[...]
 043763,-0.01279670,-0.42022164,0.12717534,0.00003655,0.00000831,-0.000
 02522,-0.00001975,0.00002803,0.00005024,0.00003356,-0.00001056,-0.0000
 1854,-0.00001593,0.00004363,0.00003191,0.00001634,-0.00002210,0.000014
 30,-0.00022428,-0.00033519,0.00000223,-0.00044126,0.00017701,0.0000981
 5,0.00024413,0.00005983,0.00007841,0.00023855,0.00007477,0.00053821,0.
 00021831,0.00013359,-0.00037517,0.01240590,0.43525984,0.00000935,0.000
 02380,-0.00013416,-0.00005909,-0.00004811,0.00015370,-0.00003396,0.000
 05938,-0.00027307,-0.00009771,-0.00012237,0.00021843,-0.00123256,-0.00
 011201,0.00047273,0.00090191,0.00042352,-0.00020706,0.00034691,0.00012
 493,-0.00017176,0.00014989,-0.00087305,-0.00191146,-0.00077421,-0.0009
 3169,-0.00680704,-0.00052171,0.00039116,0.00183353,-0.00083431,0.00240
 759,0.00602058,0.00347091,0.00048859,-0.00853279,0.00003307,0.12801436
 ,-0.04438091,0.00000660,-0.00000086,-0.00000207,0.00001338,0.00002300,
 0.00002924,-0.00000790,-0.00001115,-0.00002286,-0.00011323,-0.00003431
 ,0.00009489,0.00000229,-0.00004726,-0.00008435,-0.00015966,-0.00047103
 ,0.00060920,0.00006470,0.00013730,0.00048077,0.00029608,0.00025247,0.0
 0007225,0.,0.00052854,0.00198813,-0.00002957,-0.00042138,-0.00105604,-
 0.00143021,-0.12980097,0.05161542,-0.00784070,0.00126754,-0.00322450,0
 .00616501,0.02579782,-0.02004803,-0.00057180,-0.00165739,0.00082226,0.
 00049362,-0.00022647,-0.00020946,0.00000156,0.00001541,-0.00007465,0.0
 0010278,-0.00004209,-0.00001000,0.00004440,-0.00008377,0.00010213,-0.0
 0001897,-0.00002437,-0.00003448,0.00001357,0.00000190,0.00002391,0.000
 01293,0.00002007,0.00000095,-0.00001509,-0.00001127,0.00000688,-0.0000
 1526,0.00000573,-0.00000768,-0.00001027,-0.00000427,0.00001031,-0.0497
 3627,-0.00327197,0.00559925,-0.00069091,-0.01553140,0.01158146,0.00148
 065,-0.00052633,-0.00049493,-0.00125772,0.00077516,0.00058460,0.000158
 43,0.00002527,-0.00014959,-0.00000882,0.00000851,-0.00002865,-0.000037
 66,-0.00002708,0.00003510,0.00013145,0.00014762,0.00007366,0.00000698,
 -0.00001222,-0.00000083,-0.00000123,-0.00000131,-0.00000242,-0.0000008
 4,0.00000541,-0.00000258,0.05343349,0.00285471,0.00101451,0.00024438,-
 0.00588650,-0.00793847,0.00566327,-0.00005815,0.00125858,-0.00075596,0
 .00016270,0.00035808,-0.00025486,0.00019070,-0.00016839,0.00033909,-0.
 00010140,0.00007416,-0.00008512,-0.00014159,0.00011234,-0.00025116,0.0
 0003368,0.00001197,0.00004242,-0.00002244,0.00000851,-0.00002727,-0.00
 001744,-0.00002074,-0.00000990,0.00002852,0.00001295,-0.00001126,0.000
 01739,-0.00001103,0.00001100,0.00001300,0.00000319,-0.00001454,-0.0003
 7644,-0.20880889,0.12261106,0.00044376,0.00675711,-0.00536742,-0.00099
 779,0.00066367,-0.00022717,0.00113164,-0.00019971,-0.00063687,-0.00019
 093,0.00007259,0.00001780,-0.00000411,0.00000093,0.00004243,0.00002122
 ,0.00001453,-0.00001269,-0.00009532,-0.00007896,-0.00006848,-0.0000075
 6,0.00000992,0.00000562,0.00000224,0.00000140,0.00000349,-0.00000387,-
 0.00000582,0.00000979,0.00220656,0.22395036,-0.00257107,0.00098636,0.0
 0122998,0.00155285,0.00542581,-0.00795929,0.00129765,-0.00124305,0.000
 25964,-0.00049160,-0.00043732,0.00004124,-0.00007998,0.00003584,0.0000
 1909,0.00004527,-0.00001240,-0.00001145,0.00003095,-0.00004687,-0.0000
 1555,-0.00005321,0.00004696,-0.00003871,-0.00001555,-0.00001414,0.0000
 1187,0.00001159,0.00001777,-0.00000340,0.00001197,-0.00001410,0.000012
 36,-0.00000437,0.00000381,-0.00000400,-0.00000900,-0.00001477,0.000007
 23,0.00335685,0.12298061,-0.14230667,0.00003512,0.02341100,-0.01777496
 ,-0.00120007,-0.00048972,0.00147516,0.00025933,0.00034186,0.00085109,0
 .00021970,-0.00009765,-0.00001897,-0.00001475,0.00000774,-0.00000678,-
 0.00003267,-0.00001501,0.00001836,0.00003550,0.00005890,0.00002246,0.0
 0000236,-0.00000252,-0.00000629,-0.00000012,-0.00000041,-0.00000155,-0
 .00000908,0.00000437,-0.00000277,-0.00608858,-0.13585421,0.15655430,0.
 00012280,0.00353426,0.00172112,-0.01447719,-0.02555426,-0.01586610,-0.
 00144614,0.00220523,0.00063906,0.00002324,0.00107654,0.00100657,-0.000
 16101,0.00023927,-0.00049738,-0.00018210,-0.00000800,0.00019810,0.0000
 4988,-0.00000601,0.00025229,0.00022749,-0.00002729,0.00008946,0.000059
 91,-0.00000916,0.00000550,0.00000118,-0.00001637,0.00001202,-0.0000395
 2,0.00000430,-0.00000554,-0.00001886,0.00000958,-0.00000310,0.00000410
 ,0.00001998,-0.00000879,-0.09901256,-0.09218983,-0.06029938,0.00789244
 ,0.01424244,0.00960495,0.00141757,-0.00008695,-0.00047456,-0.00051853,
 -0.00063934,-0.00023749,-0.00028331,-0.00001732,0.00005088,0.00005828,
 -0.00003420,0.00000496,0.00000840,-0.00000769,-0.00001200,0.00001821,-
 0.00000559,0.00001015,0.00000272,-0.00000783,0.00000124,-0.00000218,0.
 00000081,0.00000042,0.00001168,0.00000667,-0.00000119,0.00023280,0.000
 51823,0.00036894,0.10730806,0.00048398,-0.00201949,-0.00000149,0.00340
 833,0.00948869,0.00658005,0.00015892,0.00038969,-0.00056802,-0.0001749
 0,-0.00017291,-0.00026537,-0.00004632,-0.00003652,0.00004950,0.0000987
 6,-0.00001699,-0.00003146,0.00005988,0.00002546,-0.00000140,-0.0000248
 6,-0.00003206,0.00000029,-0.00001766,0.00001960,0.00000710,-0.00000775
 ,0.00000658,0.00000133,0.00001411,0.00000627,0.00000189,0.00001407,-0.
 00000752,0.00000091,0.00000099,-0.00000311,0.00000659,-0.08654455,-0.1
 9318196,-0.09210978,-0.00327993,-0.00577221,-0.00455123,-0.00035897,0.
 00028256,0.00131627,0.00004995,-0.00045443,-0.00025419,-0.00002053,0.0
 0002163,-0.00000032,-0.00002255,0.00000466,-0.00001954,0.00001705,0.00
 001279,-0.00001324,-0.00002650,-0.00002518,-0.00001221,-0.00000218,0.0
 0000400,-0.00000334,0.00000123,-0.00000061,-0.00000115,-0.00000093,-0.
 00000845,-0.00000387,-0.01166770,-0.01922303,-0.01247900,0.09631826,0.
 20842183,-0.00056089,0.00200780,0.00066276,-0.00320756,-0.00475077,-0.
 00462252,0.00083535,-0.00004150,-0.00016146,-0.00031991,-0.00021109,-0
 .00004574,0.00000405,-0.00002166,0.00008568,0.00001702,0.00001342,-0.0
 0002849,-0.00001523,-0.00001338,-0.00006220,0.00004989,-0.00000157,-0.
 00003306,-0.00000614,0.00000636,0.00001743,0.00000017,0.00000116,0.000
 00036,0.00000865,0.00000164,0.00000236,0.00000505,-0.00000318,-0.00000
 120,0.00000486,0.00000089,0.00000378,-0.05747742,-0.09313141,-0.104011
 77,-0.01196654,-0.02399489,-0.01780613,-0.00122203,0.00160397,0.002576
 29,0.00011291,0.00029656,0.00017332,0.00011269,-0.00008051,-0.00001378
 ,-0.00001169,0.00000017,0.00000091,-0.00001234,0.00000113,-0.00000539,
 0.00000705,-0.00000589,-0.00000629,0.00000023,-0.00000035,-0.00000264,
 0.00000104,-0.00000050,-0.00000111,-0.00000234,-0.00000256,-0.00000199
 ,0.00973598,0.01520119,0.01018498,0.06124868,0.10340497,0.11627501,-0.
 00053345,0.00125974,-0.00183649,0.00049593,-0.00256042,0.00313696,0.00
 051107,0.00084682,-0.00127083,-0.00024076,0.00009902,-0.00010433,-0.00
 003586,-0.00000467,0.00017004,0.00004345,-0.00000697,-0.00005206,0.000
 02182,0.00002709,-0.00013846,0.00000836,-0.00000293,0.00002363,-0.0000
 2779,0.00001422,-0.00000034,-0.00001606,-0.00000410,-0.00000533,0.0000
 3330,0.00000936,-0.00000327,0.00002079,-0.00001102,0.00000587,0.000006
 11,-0.00000223,0.00000041,0.00023308,-0.01478262,0.01117374,-0.0484857
 4,0.00141132,-0.00273660,-0.00671087,0.02951183,-0.02452473,0.00041333
 ,-0.00013795,-0.00010868,-0.00005885,0.00000312,0.00005796,-0.00001998
 ,0.00000555,0.00000879,0.00002250,0.00001229,-0.00001902,-0.00005991,-
 0.00006608,-0.00003113,-0.00000632,0.00001120,0.00000004,0.00000231,0.
 00000058,0.00000025,-0.00000598,-0.00000990,0.00000151,-0.00225954,0.0
 0146166,0.00334265,0.00069086,0.00041283,-0.00072498,0.06005513,0.0012
 3882,-0.00043469,-0.00150554,0.00094138,-0.00041958,0.00146576,-0.0001
 6140,0.00014112,0.00006415,0.00002977,-0.00008149,0.00003884,0.0000070
 0,-0.00000162,-0.00000068,-0.00002367,0.00000961,0.00000490,-0.0000135
 3,0.00000992,-0.00000816,-0.00000676,-0.00001637,0.00000896,0.00000453
 ,-0.00000157,-0.00000405,-0.00000272,-0.00000648,-0.00000094,-0.000006
 49,0.00000534,-0.00000639,0.00000070,-0.00000158,0.00000221,0.00000172
 ,0.00000730,-0.00000455,-0.00161149,0.00635590,-0.00471736,0.00482704,
 -0.22282266,0.12786294,0.00316644,-0.00225765,0.00274610,-0.00014891,0
 .00009799,-0.00005010,0.00000117,0.00000959,0.00000751,0.00000592,-0.0
 0000222,0.00000803,0.00000824,0.00000524,-0.00000761,0.,-0.00000853,0.
 00001265,0.00000002,0.00000193,0.00000381,-0.00000016,0.00000036,0.000
 00096,0.00000358,-0.00000167,0.00000254,0.00156324,0.00090784,-0.00177
 450,-0.00042192,0.00107983,0.00012742,-0.00977458,0.23651701,-0.001398
 47,-0.00125256,0.00185951,-0.00115889,0.00211959,-0.00213702,0.0000152
 5,-0.00024757,0.00039215,0.00003136,-0.00000847,0.00006558,-0.00004494
 ,0.00003053,-0.00009473,0.00002700,-0.00002029,0.00001895,0.00003265,-
 0.00003804,0.00007716,0.00001076,-0.00002333,-0.00000526,0.00001280,0.
 00000501,0.00000855,0.00000689,0.00000807,-0.00000065,-0.00000791,-0.0
 0000650,0.00000221,-0.00000526,0.00000425,-0.00000291,-0.00000268,-0.0
 0000611,0.00000465,0.00237576,0.02197280,-0.01925930,-0.00679735,0.124
 99894,-0.14443734,-0.00178859,0.00568358,-0.00484948,-0.00025896,0.000
 07773,0.00018499,0.00004511,-0.00002724,0.00000194,0.00000345,0.000003
 45,-0.00000798,-0.00000921,-0.00000485,0.00000115,0.00003383,0.0000286
 1,0.00002286,0.00000292,-0.00000216,0.00000076,-0.00000067,-0.00000067
 ,-0.00000067,0.00000092,0.00000252,-0.00000204,0.00302249,-0.00163457,
 -0.00401767,-0.00079133,0.00029117,0.00097877,0.00769005,-0.13829154,0
 .15900110,-0.00001083,0.00001854,-0.00026449,0.00158771,0.00024404,0.0
 0031809,-0.00023822,-0.00023756,0.00004275,0.00012598,-0.00000812,0.00
 003591,0.00007041,-0.00001695,-0.00004327,-0.00005370,0.00001996,0.000
 02284,-0.00003783,0.00000756,0.00002931,-0.00001372,-0.00000302,-0.000
 01050,0.00001380,-0.00001027,-0.00000533,0.00000195,-0.00000525,0.0000
 0604,-0.00002114,0.00000647,-0.00000137,-0.00000181,-0.00000124,-0.000
 00002,-0.00000288,0.00001367,-0.00000050,0.00716154,0.01425576,0.00928
 055,-0.08437093,-0.07200841,-0.04300323,-0.02962329,-0.02147448,-0.020
 30277,0.00003976,0.00001984,-0.00004965,-0.00000707,0.00002181,-0.0000
 0700,0.00001266,-0.00000659,-0.00000178,0.00000509,0.00000323,-0.00000
 381,0.00000322,-0.00000311,0.00000559,0.00000185,-0.00000455,0.0000001
 1,-0.00000081,-0.00000049,-0.00000056,0.00000864,0.00000073,-0.0000047
 6,0.00042873,-0.00044849,-0.00078648,-0.00210800,0.00121638,0.00370994
 ,0.00131228,-0.00095949,0.00020033,0.10330378,0.00078137,0.00041581,0.
 00126779,-0.00143855,0.00037493,-0.00174952,0.00069356,-0.00006466,0.0
 0006761,-0.00008721,-0.00000352,-0.00005672,-0.00004157,0.00003202,-0.
 00001578,0.00007975,-0.00002038,0.00000282,0.00005967,-0.00001243,0.00
 004004,0.00004102,-0.00002599,-0.00005214,0.00000662,0.00001383,0.0000
 4268,-0.00000831,0.00000152,0.00001635,-0.00000820,0.00001393,0.000005
 55,0.00001112,-0.00000650,-0.00000579,0.00000258,0.00001925,0.00001591
 ,-0.00210241,-0.00555140,-0.00219183,-0.06954804,-0.19806427,-0.084894
 39,0.00197851,0.01104918,0.00358400,-0.00012260,-0.00010591,0.00002468
 ,0.00002747,-0.00000208,-0.00000603,-0.00002340,-0.00000822,-0.0000383
 2,0.00002131,0.00001677,-0.00002152,0.00001354,-0.00005169,-0.00000298
 ,-0.00000045,-0.00000227,-0.00000979,0.00000085,-0.00000130,-0.0000049
 7,0.00000702,-0.00000845,-0.00001567,0.00046904,0.00104167,-0.00015131
 ,0.00095635,0.00114094,-0.00099712,-0.01020582,-0.02060629,-0.01331174
 ,0.07967755,0.20758144,0.00039665,-0.00035063,0.00104951,-0.00216742,0
 .00032946,-0.00139859,0.00079890,0.00035794,0.00013956,-0.00010777,0.0
 0003981,-0.00008671,-0.00006172,0.00001885,0.00000694,0.00008181,-0.00
 002127,-0.00000774,0.00006724,0.00000935,0.00002243,0.00003570,-0.0000
 4573,-0.00002286,0.00000408,0.00001828,0.00003894,-0.00000936,0.000003
 76,0.00001017,-0.00000108,0.00001407,0.00000129,0.00001439,-0.00000945
 ,-0.00000244,0.00000159,0.00001257,0.00001072,-0.00759916,-0.02390289,
 -0.01469063,-0.04154129,-0.08441718,-0.10546033,-0.00956238,-0.0037461
 6,-0.00139755,-0.00012385,-0.00021723,-0.00000800,0.00001662,-0.000002
 45,-0.00000150,-0.00002373,-0.00000552,-0.00003059,0.00002553,0.000018
 61,-0.00002318,0.00000703,-0.00004111,0.00000967,-0.00000043,0.0000015
 1,-0.00000690,0.00000101,-0.00000108,-0.00000334,0.00000575,-0.0000106
 7,-0.00000907,-0.00100515,0.00052158,0.00117090,0.00309483,-0.00139631
 ,-0.00422429,0.00767891,0.01475561,0.01045455,0.04988541,0.09769470,0.
 11397546,-0.00013779,-0.00025432,0.00086436,-0.00075035,0.00018055,-0.
 00082063,0.00014117,-0.00014759,0.00009928,-0.00006396,0.00003663,-0.0
 0001813,-0.00007524,0.00003243,0.00003186,0.00006787,-0.00002848,-0.00
 001873,0.00004342,-0.00002579,-0.00001390,0.00001531,0.00000362,-0.000
 00727,-0.00001218,0.00000945,0.00000635,-0.00000104,0.00000895,-0.0000
 0429,0.00002239,-0.00000663,0.00000467,0.00000297,0.00000014,-0.000000
 87,0.00000184,-0.00001361,0.00000533,0.00170602,0.00059183,-0.00123684
 ,-0.00534542,0.03662074,-0.02143756,-0.05627632,0.02233165,0.00602597,
 -0.00006009,0.00004007,0.00008303,0.00002058,-0.00001536,0.00000366,-0
 .00001449,0.00000744,-0.00000465,-0.00000886,-0.00000427,0.00000508,-0
 .00000168,0.00000312,-0.00000727,-0.00000131,0.00000296,-0.00000191,0.
 00000106,-0.00000005,-0.00000046,-0.00000954,-0.00000124,0.00000033,-0
 .00042054,-0.00045630,0.00100552,-0.00011504,-0.00015655,0.00001970,-0
 .00697656,0.00087264,-0.00119649,0.00170652,-0.00034323,-0.00014348,0.
 06446407,-0.00019537,0.00027800,-0.00057358,0.00060743,-0.00007100,0.0
 0034904,-0.00000173,-0.00001206,-0.00007297,0.00001349,0.00001547,-0.0
 0002100,0.00002713,-0.00002814,0.00007184,-0.00001709,0.00000922,-0.00
 002374,-0.00002504,0.00001622,-0.00005839,-0.00000198,0.00000504,0.000
 00536,-0.00000511,-0.00000213,-0.00000592,-0.00000185,-0.00000472,-0.0
 0000526,0.00000730,-0.00000081,-0.00000375,-0.00000083,0.,0.00000226,0
 .00000164,-0.00000194,-0.00000587,-0.00004855,-0.00016620,0.00025816,-
 0.00678987,-0.00700931,-0.00196703,0.04027380,-0.32765161,0.19218333,0
 .00004686,-0.00000002,0.00001620,-0.00000525,0.00000106,-0.00000108,0.
 00000130,0.00000289,0.00001542,-0.00000347,-0.00000208,0.00000508,-0.0
 0000413,0.00000569,-0.00000069,-0.00000119,0.00000197,0.00000336,0.000
 00018,0.00000078,0.00000152,-0.00000298,0.00000147,0.00000654,0.000721
 26,0.00003869,-0.00046723,0.00002040,-0.00027422,0.00011754,0.00193730
 ,0.00160373,-0.00024416,-0.00003024,0.00250549,-0.00047808,-0.03679392
 ,0.33174398,-0.00011407,0.00009361,-0.00028116,0.00020571,0.00008353,0
 .00005345,-0.00004283,-0.00004385,-0.00005361,0.00004603,0.00001512,-0
 .00000308,0.00005714,-0.00004630,0.00006937,-0.00004875,0.00002036,-0.
 00002161,-0.00004791,0.00002595,-0.00006169,-0.00000318,0.00001070,0.0
 0000942,-0.00000107,-0.00000381,-0.00001301,0.00000217,-0.00000533,-0.
 00000717,0.00000117,-0.00000407,-0.00000481,-0.00000499,0.00000261,0.0
 0000252,0.00000046,-0.00000472,-0.00000931,0.00010571,-0.00139211,0.00
 148686,-0.00470791,0.00931404,-0.00709710,0.00126233,0.14023486,-0.112
 92083,0.00007576,0.00000065,0.00002221,-0.00000747,0.00000154,-0.00000
 364,0.00000902,0.00000312,0.00002291,-0.00000649,-0.00000448,0.0000093
 0,-0.00000122,0.00001350,-0.00000091,-0.00000012,0.00000058,0.00000487
 ,-0.00000043,0.00000082,0.00000257,-0.00000168,0.00000491,0.00000994,0
 .00007066,0.00062888,0.00013066,-0.00007504,-0.00026175,-0.00001985,-0
 .00194902,-0.00069849,0.00097801,0.00168206,0.00034024,0.00010301,0.00
 667194,-0.18083871,0.13558918,0.00005599,0.00001621,-0.00062246,0.0002
 2777,-0.00007200,0.00264866,-0.00074582,0.00020737,-0.00023464,0.00001
 267,-0.00016064,0.00010934,-0.00000206,0.00000759,-0.00008683,-0.00005
 546,0.00001607,0.00003388,-0.00002059,-0.00000748,0.00003502,-0.000039
 11,0.00003176,0.00001952,0.00000188,-0.00001731,-0.00001957,0.00000364
 ,-0.00000821,-0.00000238,-0.00000925,-0.00000533,-0.00000393,-0.000012
 82,0.00000734,0.00000072,-0.00000092,0.00000089,-0.00000980,-0.0065594
 2,0.00138772,-0.00408571,-0.02198724,0.00392983,0.03299496,-0.15033065
 ,0.02355819,0.15700130,0.00002133,0.00007371,-0.00005240,-0.00000391,0
 .00000574,-0.00000680,0.00001772,-0.00000315,0.00001384,-0.00000624,-0
 .00000659,0.00000667,0.00000601,0.00001577,0.00000999,0.00000026,-0.00
 000061,0.00000480,-0.00000130,0.00000135,0.00000218,0.00000015,0.00000
 626,0.00000573,0.00017923,-0.00027768,-0.00021971,0.00023482,0.0000971
 6,-0.00034618,0.00156734,0.00045887,-0.00005083,0.00070630,-0.00089753
 ,0.00023136,0.00207717,0.00027052,-0.00317797,0.17466253,0.00014882,-0
 .00035680,0.00033836,-0.00017542,0.00094126,-0.00130995,0.00088869,-0.
 00021048,0.00008430,-0.00010583,0.00013192,-0.00016539,-0.00011645,0.0
 0003660,0.00016089,0.00015634,-0.00006070,-0.00007208,0.00008143,-0.00
 002168,-0.00007828,0.00003481,-0.00002242,-0.00001665,-0.00002683,0.00
 003275,0.00002000,-0.00000520,0.00002162,-0.00000977,0.00004862,-0.000
 01077,0.00000960,0.00001577,-0.00000354,-0.00000081,0.00000221,-0.0000
 3131,0.00001362,0.00353304,-0.00079113,0.00075559,-0.00263240,-0.00305
 503,-0.00865176,0.04920482,-0.03459140,-0.02990156,-0.00005600,-0.0000
 4223,0.00011652,0.00002111,-0.00002192,0.00001787,-0.00003876,0.000019
 30,-0.00001245,-0.00000370,-0.00000129,0.00000401,-0.00002152,-0.00000
 717,-0.00001950,-0.00000369,0.00000849,-0.00000528,0.00000243,-0.00000
 064,-0.00000146,-0.00001632,-0.00000571,0.00000026,0.00005713,0.000142
 04,-0.00020680,-0.00012054,0.00032416,0.00047214,0.00054541,-0.0000903
 0,-0.00010645,-0.00028728,0.00032858,0.00084967,-0.02249488,-0.0010054
 5,0.03250863,-0.02863582,0.03834326,0.00018771,-0.00017941,0.00020117,
 -0.00054807,0.00047536,0.00007313,0.00018591,-0.00005669,-0.00005091,-
 0.00010437,0.00000363,-0.00006522,-0.00005679,0.00001753,0.00005364,0.
 00006233,-0.00002170,-0.00002395,0.00003830,-0.00001087,-0.00002674,0.
 00000365,-0.00000193,0.00000006,-0.00001325,0.00000832,0.00000434,-0.0
 0000438,0.00000504,-0.00000350,0.00002002,-0.00000164,0.00000169,0.000
 00605,-0.00000226,0.00000052,0.00000221,-0.00000812,0.00000353,-0.0004
 3578,-0.00021726,0.00069455,-0.01370351,-0.00186261,0.00730925,0.18935
 470,0.00434199,-0.31345685,-0.00001264,0.00001641,0.00002511,0.0000088
 5,-0.00000810,0.00001180,-0.00001542,0.00000614,-0.00000385,0.00000011
 ,0.00000094,-0.00000039,-0.00001013,-0.00000823,-0.00000804,-0.0000020
 7,0.00000454,-0.00000096,0.00000108,0.00000016,-0.00000023,-0.00000679
 ,-0.00000363,0.00000062,-0.00028812,-0.00013052,0.00017872,-0.00003727
 ,0.00031361,0.00008624,0.00021446,-0.00004250,0.00076215,-0.00073341,0
 .00042326,0.00038057,0.01008540,-0.00826820,-0.01799651,-0.18419877,0.
 00520673,0.32185006\\0.00000064,0.00000024,0.00000170,-0.00000069,0.00
 000008,-0.00000023,0.00000098,0.00000301,-0.00000099,-0.00000253,-0.00
 000020,-0.00000042,0.00000240,-0.00000098,-0.00000030,-0.00000143,0.00
 000164,-0.00000563,-0.00000106,0.00000106,-0.00000133,-0.00000068,-0.0
 0000290,0.00000193,0.00000012,0.00000629,0.00000271,0.00000042,-0.0000
 0224,-0.00000007,0.00000111,-0.00000006,0.00000025,0.00000105,-0.00000
 158,0.00000085,-0.00000082,0.00000113,0.00000263,-0.00000127,-0.000003
 05,-0.00000090,0.00000113,-0.00000313,0.00000020,0.00000148,0.00000100
 ,-0.00000142,0.00000001,-0.00000109,-0.00000085,-0.00000031,0.00000010
 ,0.00000055,0.00000083,-0.00000328,0.00000296,-0.00000041,-0.00000011,
 -0.00000047,-0.00000056,0.00000008,0.00000066,-0.00000049,-0.00000018,
 0.00000084,0.00000065,-0.00000025,0.00000046,0.00000012,-0.00000067,-0
 .00000071,0.00000037,0.00000058,-0.00000108,-0.00000063,0.00000141,-0.
 00000144,-0.00000015,0.00000195,-0.00000005,0.00000020,0.00000063,0.00
 000144,-0.00000038,0.00000040,-0.00000110,-0.00000010,0.00000011,-0.00
 000019\\\@


 AN OPTIMIST IS A GUY
 THAT HAS NEVER HAD
 MUCH EXPERIENCE
   (CERTAIN MAXIMS OF ARCHY  -- DON MARQUIS)
 Job cpu time:       0 days  1 hours 11 minutes 39.6 seconds.
 File lengths (MBytes):  RWF=    320 Int=      0 D2E=      0 Chk=      9 Scr=      1
 Normal termination of Gaussian 09 at Wed Jul 28 22:59:16 2021.
