 Entering Gaussian System, Link 0=g09
 Input=opt_freq-conf-455.com
 Output=opt_freq-conf-455.log
 Initial command:
 /aerosol/software/g09/l1.exe "/scratch/nicole/10610/Gau-84684.inp" -scrdir="/scratch/nicole/10610/"
 Entering Link 1 = /aerosol/software/g09/l1.exe PID=     84688.
  
 Copyright (c) 1988,1990,1992,1993,1995,1998,2003,2009,2013,
            Gaussian, Inc.  All Rights Reserved.
  
 This is part of the Gaussian(R) 09 program.  It is based on
 the Gaussian(R) 03 system (copyright 2003, Gaussian, Inc.),
 the Gaussian(R) 98 system (copyright 1998, Gaussian, Inc.),
 the Gaussian(R) 94 system (copyright 1995, Gaussian, Inc.),
 the Gaussian 92(TM) system (copyright 1992, Gaussian, Inc.),
 the Gaussian 90(TM) system (copyright 1990, Gaussian, Inc.),
 the Gaussian 88(TM) system (copyright 1988, Gaussian, Inc.),
 the Gaussian 86(TM) system (copyright 1986, Carnegie Mellon
 University), and the Gaussian 82(TM) system (copyright 1983,
 Carnegie Mellon University). Gaussian is a federally registered
 trademark of Gaussian, Inc.
  
 This software contains proprietary and confidential information,
 including trade secrets, belonging to Gaussian, Inc.
  
 This software is provided under written license and may be
 used, copied, transmitted, or stored only in accord with that
 written license.
  
 The following legend is applicable only to US Government
 contracts under FAR:
  
                    RESTRICTED RIGHTS LEGEND
  
 Use, reproduction and disclosure by the US Government is
 subject to restrictions as set forth in subparagraphs (a)
 and (c) of the Commercial Computer Software - Restricted
 Rights clause in FAR 52.227-19.
  
 Gaussian, Inc.
 340 Quinnipiac St., Bldg. 40, Wallingford CT 06492
  
  
 ---------------------------------------------------------------
 Warning -- This program may not be used in any manner that
 competes with the business of Gaussian, Inc. or will provide
 assistance to any competitor of Gaussian, Inc.  The licensee
 of this program is prohibited from giving any competitor of
 Gaussian, Inc. access to this program.  By using this program,
 the user acknowledges that Gaussian, Inc. is engaged in the
 business of creating and licensing software in the field of
 computational chemistry and represents and warrants to the
 licensee that it is not a competitor of Gaussian, Inc. and that
 it will not use this program in any manner prohibited above.
 ---------------------------------------------------------------
  

 Cite this work as:
 Gaussian 09, Revision D.01,
 M. J. Frisch, G. W. Trucks, H. B. Schlegel, G. E. Scuseria, 
 M. A. Robb, J. R. Cheeseman, G. Scalmani, V. Barone, B. Mennucci, 
 G. A. Petersson, H. Nakatsuji, M. Caricato, X. Li, H. P. Hratchian, 
 A. F. Izmaylov, J. Bloino, G. Zheng, J. L. Sonnenberg, M. Hada, 
 M. Ehara, K. Toyota, R. Fukuda, J. Hasegawa, M. Ishida, T. Nakajima, 
 Y. Honda, O. Kitao, H. Nakai, T. Vreven, J. A. Montgomery, Jr., 
 J. E. Peralta, F. Ogliaro, M. Bearpark, J. J. Heyd, E. Brothers, 
 K. N. Kudin, V. N. Staroverov, T. Keith, R. Kobayashi, J. Normand, 
 K. Raghavachari, A. Rendell, J. C. Burant, S. S. Iyengar, J. Tomasi, 
 M. Cossi, N. Rega, J. M. Millam, M. Klene, J. E. Knox, J. B. Cross, 
 V. Bakken, C. Adamo, J. Jaramillo, R. Gomperts, R. E. Stratmann, 
 O. Yazyev, A. J. Austin, R. Cammi, C. Pomelli, J. W. Ochterski, 
 R. L. Martin, K. Morokuma, V. G. Zakrzewski, G. A. Voth, 
 P. Salvador, J. J. Dannenberg, S. Dapprich, A. D. Daniels, 
 O. Farkas, J. B. Foresman, J. V. Ortiz, J. Cioslowski, 
 and D. J. Fox, Gaussian, Inc., Wallingford CT, 2013.
 
 ******************************************
 Gaussian 09:  ES64L-G09RevD.01 24-Apr-2013
                28-Jul-2021 
 ******************************************
 %mem=2gb
 %nproc=4
 Will use up to    4 processors via shared memory.
 %chk=conf-455.chk
 ----------------------------------------------------------------------
 # B3LYP/6-31G(d,p) opt=calcfc freq=noraman nosymm integral(ultrafinegr
 id)
 ----------------------------------------------------------------------
 1/10=4,14=-1,18=20,19=15,26=4,38=1/1,3;
 2/9=110,12=2,15=1,17=6,18=5,40=1/2;
 3/5=1,6=6,7=101,11=2,16=1,25=1,30=1,71=2,74=-5,75=-5,140=1/1,2,3;
 4//1;
 5/5=2,38=5/2;
 8/6=4,10=90,11=11/1;
 11/6=1,8=1,9=11,15=111,16=1,31=1/1,2,10;
 10/6=1,13=1,31=1/2;
 6/7=2,8=2,9=2,10=2,28=1/1;
 7/10=1,18=20,25=1,30=1/1,2,3,16;
 1/10=4,14=-1,18=20,19=15,26=4/3(2);
 2/9=110,15=1/2;
 99//99;
 2/9=110,15=1/2;
 3/5=1,6=6,7=101,11=2,16=1,25=1,30=1,71=1,74=-5,75=-5/1,2,3;
 4/5=5,16=3,69=1/1;
 5/5=2,38=5/2;
 7/30=1/1,2,3,16;
 1/14=-1,18=20,19=15,26=4/3(-5);
 2/9=110,15=1/2;
 6/7=2,8=2,9=2,10=2,19=2,28=1/1;
 99/9=1/99;
 ------------------------------------------------------------
 Candidate Structure: Conf:455 OPT and FREQ calc in gas phase
 ------------------------------------------------------------
 Symbolic Z-matrix:
 Charge =  0 Multiplicity = 1
 O                     0.28008  -0.25923  -1.27944 
 C                     0.9495   -0.15887  -0.2498 
 N                     0.4937   -0.52865   0.97949 
 C                    -0.61605  -1.43415   1.23982 
 C                    -0.16578  -2.89331   1.09177 
 O                    -1.0117   -3.80859   1.62216 
 O                     0.85198  -3.23587   0.56269 
 C                    -1.87574  -1.18421   0.39051 
 C                    -2.39463   0.209     0.52312 
 C                    -3.31851   0.77342   1.35646 
 N                    -3.40808   2.13496   1.12826 
 C                    -2.54901   2.37777   0.1668 
 N                    -1.91356   1.2507   -0.23435 
 C                     2.35746   0.42422  -0.24031 
 C                     2.66699   1.2558   -1.48472 
 N                     3.99632   1.85969  -1.50811 
 H                     1.17862  -0.50482   1.71547 
 H                    -0.87804  -1.28132   2.29154 
 H                    -1.75658  -3.37408   2.04376 
 H                    -2.65134  -1.87719   0.72534 
 H                    -1.66079  -1.41998  -0.64787 
 H                    -3.9224    0.28943   2.11093 
 H                    -2.33695   3.33354  -0.27858 
 H                    -1.20225   1.15599  -0.94843 
 H                     2.49242   1.02514   0.66613 
 H                     3.07123  -0.40887  -0.17155 
 H                     2.56078   0.62307  -2.36526 
 H                     1.9279    2.05322  -1.57997 
 H                     4.12507   2.46199  -0.70287 
 H                     4.70929   1.14111  -1.45005 
 

 GradGradGradGradGradGradGradGradGradGradGradGradGradGradGradGradGradGrad
 Berny optimization.
 Initialization pass.
                           ----------------------------
                           !    Initial Parameters    !
                           ! (Angstroms and Degrees)  !
 --------------------------                            --------------------------
 ! Name  Definition              Value          Derivative Info.                !
 --------------------------------------------------------------------------------
 ! R1    R(1,2)                  1.2322         calculate D2E/DX2 analytically  !
 ! R2    R(2,3)                  1.3622         calculate D2E/DX2 analytically  !
 ! R3    R(2,14)                 1.524          calculate D2E/DX2 analytically  !
 ! R4    R(3,4)                  1.4558         calculate D2E/DX2 analytically  !
 ! R5    R(3,17)                 1.0057         calculate D2E/DX2 analytically  !
 ! R6    R(4,5)                  1.5342         calculate D2E/DX2 analytically  !
 ! R7    R(4,8)                  1.5397         calculate D2E/DX2 analytically  !
 ! R8    R(4,18)                 1.0946         calculate D2E/DX2 analytically  !
 ! R9    R(5,6)                  1.3545         calculate D2E/DX2 analytically  !
 ! R10   R(5,7)                  1.1971         calculate D2E/DX2 analytically  !
 ! R11   R(6,19)                 0.9599         calculate D2E/DX2 analytically  !
 ! R12   R(8,9)                  1.4926         calculate D2E/DX2 analytically  !
 ! R13   R(8,20)                 1.0927         calculate D2E/DX2 analytically  !
 ! R14   R(8,21)                 1.0863         calculate D2E/DX2 analytically  !
 ! R15   R(9,10)                 1.3662         calculate D2E/DX2 analytically  !
 ! R16   R(9,13)                 1.3749         calculate D2E/DX2 analytically  !
 ! R17   R(10,11)                1.3834         calculate D2E/DX2 analytically  !
 ! R18   R(10,22)                1.0808         calculate D2E/DX2 analytically  !
 ! R19   R(11,12)                1.312          calculate D2E/DX2 analytically  !
 ! R20   R(12,13)                1.3546         calculate D2E/DX2 analytically  !
 ! R21   R(12,23)                1.0756         calculate D2E/DX2 analytically  !
 ! R22   R(13,24)                1.0123         calculate D2E/DX2 analytically  !
 ! R23   R(14,15)                1.5284         calculate D2E/DX2 analytically  !
 ! R24   R(14,25)                1.0959         calculate D2E/DX2 analytically  !
 ! R25   R(14,26)                1.0992         calculate D2E/DX2 analytically  !
 ! R26   R(15,16)                1.4603         calculate D2E/DX2 analytically  !
 ! R27   R(15,27)                1.0895         calculate D2E/DX2 analytically  !
 ! R28   R(15,28)                1.0914         calculate D2E/DX2 analytically  !
 ! R29   R(16,29)                1.0138         calculate D2E/DX2 analytically  !
 ! R30   R(16,30)                1.0139         calculate D2E/DX2 analytically  !
 ! A1    A(1,2,3)              123.3788         calculate D2E/DX2 analytically  !
 ! A2    A(1,2,14)             122.5669         calculate D2E/DX2 analytically  !
 ! A3    A(3,2,14)             114.0402         calculate D2E/DX2 analytically  !
 ! A4    A(2,3,4)              125.8242         calculate D2E/DX2 analytically  !
 ! A5    A(2,3,17)             115.2206         calculate D2E/DX2 analytically  !
 ! A6    A(4,3,17)             113.7692         calculate D2E/DX2 analytically  !
 ! A7    A(3,4,5)              110.5236         calculate D2E/DX2 analytically  !
 ! A8    A(3,4,8)              115.0915         calculate D2E/DX2 analytically  !
 ! A9    A(3,4,18)             105.512          calculate D2E/DX2 analytically  !
 ! A10   A(5,4,8)              109.9549         calculate D2E/DX2 analytically  !
 ! A11   A(5,4,18)             107.2037         calculate D2E/DX2 analytically  !
 ! A12   A(8,4,18)             108.1509         calculate D2E/DX2 analytically  !
 ! A13   A(4,5,6)              114.9362         calculate D2E/DX2 analytically  !
 ! A14   A(4,5,7)              124.355          calculate D2E/DX2 analytically  !
 ! A15   A(6,5,7)              120.707          calculate D2E/DX2 analytically  !
 ! A16   A(5,6,19)             110.5326         calculate D2E/DX2 analytically  !
 ! A17   A(4,8,9)              112.7642         calculate D2E/DX2 analytically  !
 ! A18   A(4,8,20)             107.9844         calculate D2E/DX2 analytically  !
 ! A19   A(4,8,21)             109.2787         calculate D2E/DX2 analytically  !
 ! A20   A(9,8,20)             108.5416         calculate D2E/DX2 analytically  !
 ! A21   A(9,8,21)             110.8736         calculate D2E/DX2 analytically  !
 ! A22   A(20,8,21)            107.201          calculate D2E/DX2 analytically  !
 ! A23   A(8,9,10)             132.4452         calculate D2E/DX2 analytically  !
 ! A24   A(8,9,13)             122.4539         calculate D2E/DX2 analytically  !
 ! A25   A(10,9,13)            105.0494         calculate D2E/DX2 analytically  !
 ! A26   A(9,10,11)            110.4721         calculate D2E/DX2 analytically  !
 ! A27   A(9,10,22)            128.2159         calculate D2E/DX2 analytically  !
 ! A28   A(11,10,22)           121.311          calculate D2E/DX2 analytically  !
 ! A29   A(10,11,12)           105.1067         calculate D2E/DX2 analytically  !
 ! A30   A(11,12,13)           111.7273         calculate D2E/DX2 analytically  !
 ! A31   A(11,12,23)           126.6557         calculate D2E/DX2 analytically  !
 ! A32   A(13,12,23)           121.6167         calculate D2E/DX2 analytically  !
 ! A33   A(9,13,12)            107.644          calculate D2E/DX2 analytically  !
 ! A34   A(9,13,24)            124.304          calculate D2E/DX2 analytically  !
 ! A35   A(12,13,24)           128.0481         calculate D2E/DX2 analytically  !
 ! A36   A(2,14,15)            112.968          calculate D2E/DX2 analytically  !
 ! A37   A(2,14,25)            109.1919         calculate D2E/DX2 analytically  !
 ! A38   A(2,14,26)            108.079          calculate D2E/DX2 analytically  !
 ! A39   A(15,14,25)           110.4976         calculate D2E/DX2 analytically  !
 ! A40   A(15,14,26)           109.3782         calculate D2E/DX2 analytically  !
 ! A41   A(25,14,26)           106.4924         calculate D2E/DX2 analytically  !
 ! A42   A(14,15,16)           114.9869         calculate D2E/DX2 analytically  !
 ! A43   A(14,15,27)           108.8035         calculate D2E/DX2 analytically  !
 ! A44   A(14,15,28)           109.3562         calculate D2E/DX2 analytically  !
 ! A45   A(16,15,27)           108.4196         calculate D2E/DX2 analytically  !
 ! A46   A(16,15,28)           108.2352         calculate D2E/DX2 analytically  !
 ! A47   A(27,15,28)           106.7251         calculate D2E/DX2 analytically  !
 ! A48   A(15,16,29)           110.4008         calculate D2E/DX2 analytically  !
 ! A49   A(15,16,30)           110.2504         calculate D2E/DX2 analytically  !
 ! A50   A(29,16,30)           106.6351         calculate D2E/DX2 analytically  !
 ! D1    D(1,2,3,4)             19.7155         calculate D2E/DX2 analytically  !
 ! D2    D(1,2,3,17)           172.5228         calculate D2E/DX2 analytically  !
 ! D3    D(14,2,3,4)          -161.625          calculate D2E/DX2 analytically  !
 ! D4    D(14,2,3,17)           -8.8176         calculate D2E/DX2 analytically  !
 ! D5    D(1,2,14,15)           18.4503         calculate D2E/DX2 analytically  !
 ! D6    D(1,2,14,25)          141.8325         calculate D2E/DX2 analytically  !
 ! D7    D(1,2,14,26)         -102.7103         calculate D2E/DX2 analytically  !
 ! D8    D(3,2,14,15)         -160.2215         calculate D2E/DX2 analytically  !
 ! D9    D(3,2,14,25)          -36.8393         calculate D2E/DX2 analytically  !
 ! D10   D(3,2,14,26)           78.6178         calculate D2E/DX2 analytically  !
 ! D11   D(2,3,4,5)             79.9655         calculate D2E/DX2 analytically  !
 ! D12   D(2,3,4,8)            -45.3216         calculate D2E/DX2 analytically  !
 ! D13   D(2,3,4,18)          -164.4618         calculate D2E/DX2 analytically  !
 ! D14   D(17,3,4,5)           -73.1791         calculate D2E/DX2 analytically  !
 ! D15   D(17,3,4,8)           161.5337         calculate D2E/DX2 analytically  !
 ! D16   D(17,3,4,18)           42.3935         calculate D2E/DX2 analytically  !
 ! D17   D(3,4,5,6)            164.5717         calculate D2E/DX2 analytically  !
 ! D18   D(3,4,5,7)            -14.9493         calculate D2E/DX2 analytically  !
 ! D19   D(8,4,5,6)            -67.2837         calculate D2E/DX2 analytically  !
 ! D20   D(8,4,5,7)            113.1952         calculate D2E/DX2 analytically  !
 ! D21   D(18,4,5,6)            50.062          calculate D2E/DX2 analytically  !
 ! D22   D(18,4,5,7)          -129.4591         calculate D2E/DX2 analytically  !
 ! D23   D(3,4,8,9)            -56.2643         calculate D2E/DX2 analytically  !
 ! D24   D(3,4,8,20)          -176.1842         calculate D2E/DX2 analytically  !
 ! D25   D(3,4,8,21)            67.5248         calculate D2E/DX2 analytically  !
 ! D26   D(5,4,8,9)            178.1539         calculate D2E/DX2 analytically  !
 ! D27   D(5,4,8,20)            58.234          calculate D2E/DX2 analytically  !
 ! D28   D(5,4,8,21)           -58.057          calculate D2E/DX2 analytically  !
 ! D29   D(18,4,8,9)            61.3994         calculate D2E/DX2 analytically  !
 ! D30   D(18,4,8,20)          -58.5205         calculate D2E/DX2 analytically  !
 ! D31   D(18,4,8,21)         -174.8115         calculate D2E/DX2 analytically  !
 ! D32   D(4,5,6,19)            -2.2359         calculate D2E/DX2 analytically  !
 ! D33   D(7,5,6,19)           177.3042         calculate D2E/DX2 analytically  !
 ! D34   D(4,8,9,10)           -91.9136         calculate D2E/DX2 analytically  !
 ! D35   D(4,8,9,13)            85.0596         calculate D2E/DX2 analytically  !
 ! D36   D(20,8,9,10)           27.6848         calculate D2E/DX2 analytically  !
 ! D37   D(20,8,9,13)         -155.3421         calculate D2E/DX2 analytically  !
 ! D38   D(21,8,9,10)          145.1832         calculate D2E/DX2 analytically  !
 ! D39   D(21,8,9,13)          -37.8436         calculate D2E/DX2 analytically  !
 ! D40   D(8,9,10,11)          177.1271         calculate D2E/DX2 analytically  !
 ! D41   D(8,9,10,22)           -2.4995         calculate D2E/DX2 analytically  !
 ! D42   D(13,9,10,11)          -0.2284         calculate D2E/DX2 analytically  !
 ! D43   D(13,9,10,22)        -179.855          calculate D2E/DX2 analytically  !
 ! D44   D(8,9,13,12)         -177.4772         calculate D2E/DX2 analytically  !
 ! D45   D(8,9,13,24)            1.8542         calculate D2E/DX2 analytically  !
 ! D46   D(10,9,13,12)           0.2103         calculate D2E/DX2 analytically  !
 ! D47   D(10,9,13,24)         179.5417         calculate D2E/DX2 analytically  !
 ! D48   D(9,10,11,12)           0.157          calculate D2E/DX2 analytically  !
 ! D49   D(22,10,11,12)        179.8136         calculate D2E/DX2 analytically  !
 ! D50   D(10,11,12,13)         -0.0184         calculate D2E/DX2 analytically  !
 ! D51   D(10,11,12,23)       -179.8148         calculate D2E/DX2 analytically  !
 ! D52   D(11,12,13,9)          -0.1235         calculate D2E/DX2 analytically  !
 ! D53   D(11,12,13,24)       -179.4222         calculate D2E/DX2 analytically  !
 ! D54   D(23,12,13,9)         179.6847         calculate D2E/DX2 analytically  !
 ! D55   D(23,12,13,24)          0.386          calculate D2E/DX2 analytically  !
 ! D56   D(2,14,15,16)         178.7562         calculate D2E/DX2 analytically  !
 ! D57   D(2,14,15,27)         -59.4451         calculate D2E/DX2 analytically  !
 ! D58   D(2,14,15,28)          56.7759         calculate D2E/DX2 analytically  !
 ! D59   D(25,14,15,16)         56.0991         calculate D2E/DX2 analytically  !
 ! D60   D(25,14,15,27)        177.8978         calculate D2E/DX2 analytically  !
 ! D61   D(25,14,15,28)        -65.8812         calculate D2E/DX2 analytically  !
 ! D62   D(26,14,15,16)        -60.8223         calculate D2E/DX2 analytically  !
 ! D63   D(26,14,15,27)         60.9764         calculate D2E/DX2 analytically  !
 ! D64   D(26,14,15,28)        177.1974         calculate D2E/DX2 analytically  !
 ! D65   D(14,15,16,29)        -58.4127         calculate D2E/DX2 analytically  !
 ! D66   D(14,15,16,30)         59.1529         calculate D2E/DX2 analytically  !
 ! D67   D(27,15,16,29)        179.5809         calculate D2E/DX2 analytically  !
 ! D68   D(27,15,16,30)        -62.8534         calculate D2E/DX2 analytically  !
 ! D69   D(28,15,16,29)         64.1716         calculate D2E/DX2 analytically  !
 ! D70   D(28,15,16,30)       -178.2628         calculate D2E/DX2 analytically  !
 --------------------------------------------------------------------------------
 Trust Radius=3.00D-01 FncErr=1.00D-07 GrdErr=1.00D-06
 Number of steps in this run=    160 maximum allowed number of steps=    180.
 GradGradGradGradGradGradGradGradGradGradGradGradGradGradGradGradGradGrad

                          Input orientation:                          
 ---------------------------------------------------------------------
 Center     Atomic      Atomic             Coordinates (Angstroms)
 Number     Number       Type             X           Y           Z
 ---------------------------------------------------------------------
      1          8           0        0.280076   -0.259227   -1.279438
      2          6           0        0.949501   -0.158872   -0.249798
      3          7           0        0.493702   -0.528654    0.979487
      4          6           0       -0.616052   -1.434154    1.239824
      5          6           0       -0.165782   -2.893307    1.091772
      6          8           0       -1.011697   -3.808590    1.622156
      7          8           0        0.851977   -3.235870    0.562694
      8          6           0       -1.875739   -1.184206    0.390509
      9          6           0       -2.394627    0.209002    0.523119
     10          6           0       -3.318514    0.773416    1.356456
     11          7           0       -3.408081    2.134965    1.128260
     12          6           0       -2.549011    2.377768    0.166802
     13          7           0       -1.913559    1.250695   -0.234345
     14          6           0        2.357461    0.424218   -0.240307
     15          6           0        2.666987    1.255801   -1.484724
     16          7           0        3.996323    1.859687   -1.508106
     17          1           0        1.178621   -0.504817    1.715468
     18          1           0       -0.878044   -1.281316    2.291542
     19          1           0       -1.756579   -3.374081    2.043759
     20          1           0       -2.651343   -1.877186    0.725335
     21          1           0       -1.660789   -1.419981   -0.647874
     22          1           0       -3.922403    0.289426    2.110935
     23          1           0       -2.336948    3.333540   -0.278585
     24          1           0       -1.202253    1.155990   -0.948429
     25          1           0        2.492418    1.025139    0.666134
     26          1           0        3.071227   -0.408875   -0.171547
     27          1           0        2.560782    0.623066   -2.365263
     28          1           0        1.927898    2.053224   -1.579966
     29          1           0        4.125069    2.461991   -0.702866
     30          1           0        4.709286    1.141108   -1.450048
 ---------------------------------------------------------------------
                    Distance matrix (angstroms):
                    1          2          3          4          5
     1  O    0.000000
     2  C    1.232217   0.000000
     3  N    2.284943   1.362216   0.000000
     4  C    2.920647   2.509237   1.455768   0.000000
     5  C    3.572087   3.243578   2.457460   1.534205   0.000000
     6  O    4.762972   4.546531   3.665682   2.437346   1.354482
     7  O    3.546961   3.183955   2.762444   2.420701   1.197125
     8  C    2.879558   3.072993   2.528022   1.539683   2.517289
     9  C    3.259216   3.451945   3.015767   2.525264   3.862051
    10  C    4.578661   4.654585   4.046045   3.491457   4.842997
    11  N    5.013150   5.113634   4.726617   4.532823   5.983088
    12  C    4.129053   4.341391   4.285539   4.406638   5.858291
    13  N    2.860790   3.191274   3.230228   3.326427   4.688930
    14  C    2.421243   1.523954   2.422696   3.806062   4.375747
    15  C    2.834571   2.544819   3.738955   5.043547   5.646062
    16  N    4.283990   3.865365   4.915348   6.298770   6.831796
    17  H    3.136425   2.008593   1.005660   2.076236   2.810925
    18  H    3.890734   3.325389   2.041979   1.094583   2.131965
    19  H    4.989381   4.787572   3.780595   2.389651   1.915217
    20  H    3.902579   4.107257   3.431390   2.145550   2.710127
    21  H    2.348017   2.926171   2.843343   2.157564   2.726189
    22  H    5.427382   5.432262   4.631567   3.829037   5.027989
    23  H    4.556149   4.795677   4.950946   5.291310   6.735388
    24  H    2.075983   2.616676   3.071017   3.441065   4.651182
    25  H    3.213923   2.149746   2.550947   4.004975   4.754095
    26  H    3.006715   2.137837   2.825396   4.079117   4.271605
    27  H    2.675644   2.771795   4.097148   5.226956   5.634724
    28  H    2.855356   2.760430   3.908172   5.156035   5.999154
    29  H    4.745674   4.142273   4.996108   6.436786   7.093049
    30  H    4.648434   4.155301   5.144112   6.498200   6.819358
                    6          7          8          9         10
     6  O    0.000000
     7  O    2.218952   0.000000
     8  C    3.025048   3.417515   0.000000
     9  C    4.388784   4.733831   1.492602   0.000000
    10  C    5.136806   5.839300   2.616665   1.366228   0.000000
    11  N    6.427475   6.878505   3.729510   2.258897   1.383442
    12  C    6.538533   6.575438   3.631941   2.203256   2.140410
    13  N    5.464094   5.330360   2.514084   1.374883   2.175395
    14  C    5.721595   4.038259   4.572192   4.817829   5.906630
    15  C    6.988095   5.259401   5.486939   5.545012   6.643133
    16  N    8.185851   6.335600   6.881216   6.906147   7.930481
    17  H    3.964986   2.982321   3.397970   3.833971   4.689028
    18  H    2.617834   3.130842   2.149128   2.765573   3.324485
    19  H    0.959894   3.002869   2.746450   3.944355   4.484836
    20  H    2.687573   3.761080   1.092652   2.111628   2.805195
    21  H    3.358543   3.328202   1.086293   2.136195   3.402407
    22  H    5.050233   6.133471   3.052915   2.204932   1.080818
    23  H    7.508604   7.350792   4.590254   3.226266   3.192345
    24  H    5.593860   5.078562   2.779003   2.117545   3.152367
    25  H    6.046300   4.567051   4.902854   4.956787   5.857204
    26  H    5.607647   3.668254   5.038802   5.544357   6.675432
    27  H    6.949941   5.136568   5.526593   5.750676   6.959879
    28  H    7.297648   5.807161   5.369486   5.148625   6.146976
    29  H    8.432809   6.691815   7.106330   7.006099   7.905632
    30  H    8.165022   6.171539   7.222000   7.431540   8.512181
                   11         12         13         14         15
    11  N    0.000000
    12  C    1.312005   0.000000
    13  N    2.207312   1.354626   0.000000
    14  C    6.167747   5.296749   4.350254   0.000000
    15  C    6.671362   5.585068   4.748144   1.528369   0.000000
    16  N    7.864566   6.776069   6.076186   2.520666   1.460259
    17  H    5.324574   4.960130   4.055264   2.465324   3.944140
    18  H    4.407413   4.549236   3.723370   4.448325   5.767530
    19  H    5.823674   6.102022   5.157806   6.047260   7.311220
    20  H    4.102725   4.292675   3.353946   5.596162   6.556264
    21  H    4.341120   3.984411   2.714297   4.439990   5.156528
    22  H    2.153181   3.166548   3.234166   6.706951   7.568534
    23  H    2.136147   1.075566   2.125902   5.522960   5.550778
    24  H    3.183820   2.133129   1.012344   3.702498   3.907505
    25  H    6.021724   5.243561   4.502707   1.095881   2.170224
    26  H    7.081105   6.282271   5.254161   1.099197   2.158469
    27  H    7.079398   5.966600   4.995443   2.143903   1.089487
    28  H    5.984467   4.816559   4.148679   2.152411   1.091424
    29  H    7.759402   6.731029   6.176712   2.736954   2.047485
    30  H    8.574793   7.538328   6.734390   2.740162   2.045810
                   16         17         18         19         20
    16  N    0.000000
    17  H    4.890987   0.000000
    18  H    6.932725   2.272594   0.000000
    19  H    8.550085   4.117749   2.283175   0.000000
    20  H    7.946316   4.187168   2.439806   2.186216   0.000000
    21  H    6.595388   3.805938   3.045010   3.327548   1.753835
    22  H    8.846999   5.177611   3.430448   4.256359   2.868743
    23  H    6.617725   5.573908   5.480041   7.121958   5.315859
    24  H    5.275757   3.939948   4.067307   5.457290   3.755197
    25  H    2.772277   2.273308   4.395646   6.269368   5.906375
    26  H    2.790800   2.674321   4.735473   6.083399   5.975629
    27  H    2.079598   4.453634   6.094098   7.352296   6.555097
    28  H    2.078702   4.238499   5.829326   7.494157   6.460029
    29  H    1.013783   4.830305   6.928922   8.729116   8.172390
    30  H    1.013925   5.019478   7.147439   8.625603   8.247499
                   21         22         23         24         25
    21  H    0.000000
    22  H    3.955755   0.000000
    23  H    4.815551   4.182117   0.000000
    24  H    2.633669   4.184478   2.545182   0.000000
    25  H    4.995434   6.616543   5.435437   4.034170   0.000000
    26  H    4.862222   7.389737   6.577650   4.616815   1.758729
    27  H    4.994510   7.885388   5.973998   4.056089   3.058709
    28  H    5.080416   7.138610   4.639150   3.316883   2.533891
    29  H    6.967703   8.797688   6.534315   5.490564   2.569874
    30  H    6.912345   9.376140   7.471847   5.932801   3.066949
                   26         27         28         29         30
    26  H    0.000000
    27  H    2.477467   0.000000
    28  H    3.058230   1.750024   0.000000
    29  H    3.103989   2.931245   2.400823   0.000000
    30  H    2.592343   2.392081   2.930009   1.626137   0.000000
 Symmetry turned off by external request.
 Stoichiometry    C9H14N4O3
 Framework group  C1[X(C9H14N4O3)]
 Deg. of freedom    84
 Full point group                 C1      NOp   1
 Rotational constants (GHZ):      0.5402563      0.4097795      0.2497933
 Standard basis: 6-31G(d,p) (6D, 7F)
   310 basis functions,   546 primitive gaussians,   310 cartesian basis functions
    60 alpha electrons       60 beta electrons
       nuclear repulsion energy      1133.9479686227 Hartrees.
 NAtoms=   30 NActive=   30 NUniq=   30 SFac= 1.00D+00 NAtFMM=   60 NAOKFM=F Big=F
 Integral buffers will be    131072 words long.
 Raffenetti 2 integral format.
 Two-electron integral symmetry is turned off.
 One-electron integrals computed using PRISM.
 NBasis=   310 RedAO= T EigKep=  1.12D-03  NBF=   310
 NBsUse=   310 1.00D-06 EigRej= -1.00D+00 NBFU=   310
 ExpMin= 1.61D-01 ExpMax= 5.48D+03 ExpMxC= 8.25D+02 IAcc=3 IRadAn=         5 AccDes= 0.00D+00
 Harris functional with IExCor=  402 and IRadAn=       5 diagonalized for initial guess.
 HarFok:  IExCor=  402 AccDes= 0.00D+00 IRadAn=         5 IDoV= 1 UseB2=F ITyADJ=14
 ICtDFT=  3500011 ScaDFX=  1.000000  1.000000  1.000000  1.000000
 FoFCou: FMM=F IPFlag=           0 FMFlag=      100000 FMFlg1=           0
         NFxFlg=           0 DoJE=T BraDBF=F KetDBF=T FulRan=T
         wScrn=  0.000000 ICntrl=     500 IOpCl=  0 I1Cent=   200000004 NGrid=           0
         NMat0=    1 NMatS0=      1 NMatT0=    0 NMatD0=    1 NMtDS0=    0 NMtDT0=    0
 Symmetry not used in FoFCou.
 Requested convergence on RMS density matrix=1.00D-08 within 128 cycles.
 Requested convergence on MAX density matrix=1.00D-06.
 Requested convergence on             energy=1.00D-06.
 No special actions if energy rises.
 Integral accuracy reduced to 1.0D-05 until final iterations.
 Initial convergence to 1.0D-05 achieved.  Increase integral accuracy.
 SCF Done:  E(RB3LYP) =  -796.098518638     A.U. after   14 cycles
            NFock= 14  Conv=0.68D-08     -V/T= 2.0088
 DoSCS=F DFT=T ScalE2(SS,OS)=  1.000000  1.000000
 Range of M.O.s used for correlation:     1   310
 NBasis=   310 NAE=    60 NBE=    60 NFC=     0 NFV=     0
 NROrb=    310 NOA=    60 NOB=    60 NVA=   250 NVB=   250
 Symmetrizing basis deriv contribution to polar:
 IMax=3 JMax=2 DiffMx= 0.00D+00
 G2DrvN: will do    31 centers at a time, making    1 passes.
 Calling FoFCou, ICntrl=  3107 FMM=F I1Cent=   0 AccDes= 0.00D+00.
 End of G2Drv F.D. properties file   721 does not exist.
 End of G2Drv F.D. properties file   722 does not exist.
 End of G2Drv F.D. properties file   788 does not exist.
          IDoAtm=111111111111111111111111111111
          Differentiating once with respect to nuclear coordinates.
          There are    93 degrees of freedom in the 1st order CPHF.  IDoFFX=6 NUNeed=     0.
     87 vectors produced by pass  0 Test12= 1.61D-14 1.08D-09 XBig12= 1.77D-01 8.96D-02.
 AX will form    87 AO Fock derivatives at one time.
     87 vectors produced by pass  1 Test12= 1.61D-14 1.08D-09 XBig12= 2.88D-02 4.49D-02.
     87 vectors produced by pass  2 Test12= 1.61D-14 1.08D-09 XBig12= 3.03D-04 4.50D-03.
     87 vectors produced by pass  3 Test12= 1.61D-14 1.08D-09 XBig12= 1.31D-06 2.19D-04.
     87 vectors produced by pass  4 Test12= 1.61D-14 1.08D-09 XBig12= 2.16D-09 4.12D-06.
     72 vectors produced by pass  5 Test12= 1.61D-14 1.08D-09 XBig12= 1.97D-12 1.13D-07.
     17 vectors produced by pass  6 Test12= 1.61D-14 1.08D-09 XBig12= 1.58D-15 3.76D-09.
 InvSVY:  IOpt=1 It=  1 EMax= 4.44D-16
 Solved reduced A of dimension   524 with    93 vectors.
 End of Minotr F.D. properties file   721 does not exist.
 End of Minotr F.D. properties file   722 does not exist.
 End of Minotr F.D. properties file   788 does not exist.

 **********************************************************************

            Population analysis using the SCF density.

 **********************************************************************

 Alpha  occ. eigenvalues --  -19.21509 -19.15358 -19.13813 -14.38597 -14.37854
 Alpha  occ. eigenvalues --  -14.31986 -14.30384 -10.33459 -10.31200 -10.27047
 Alpha  occ. eigenvalues --  -10.23054 -10.22123 -10.21609 -10.21606 -10.20819
 Alpha  occ. eigenvalues --  -10.19213  -1.12256  -1.05708  -1.04089  -1.00891
 Alpha  occ. eigenvalues --   -0.95331  -0.89058  -0.86206  -0.82086  -0.76987
 Alpha  occ. eigenvalues --   -0.74058  -0.68411  -0.64862  -0.62846  -0.60591
 Alpha  occ. eigenvalues --   -0.59941  -0.58693  -0.56225  -0.53688  -0.52879
 Alpha  occ. eigenvalues --   -0.51255  -0.49353  -0.46989  -0.46171  -0.45419
 Alpha  occ. eigenvalues --   -0.45102  -0.43894  -0.43245  -0.42567  -0.41616
 Alpha  occ. eigenvalues --   -0.40841  -0.40399  -0.40128  -0.39234  -0.38732
 Alpha  occ. eigenvalues --   -0.38036  -0.35369  -0.33566  -0.29989  -0.28366
 Alpha  occ. eigenvalues --   -0.27482  -0.27017  -0.25779  -0.24030  -0.22270
 Alpha virt. eigenvalues --   -0.01136   0.00009   0.02595   0.03747   0.05907
 Alpha virt. eigenvalues --    0.06795   0.07142   0.10443   0.11849   0.12445
 Alpha virt. eigenvalues --    0.13017   0.14091   0.14751   0.15221   0.16306
 Alpha virt. eigenvalues --    0.16951   0.17387   0.18093   0.19510   0.19986
 Alpha virt. eigenvalues --    0.20953   0.22467   0.23759   0.25104   0.25241
 Alpha virt. eigenvalues --    0.28062   0.28297   0.31941   0.32735   0.33628
 Alpha virt. eigenvalues --    0.36326   0.38549   0.40341   0.45598   0.48395
 Alpha virt. eigenvalues --    0.50185   0.50590   0.52288   0.53015   0.53624
 Alpha virt. eigenvalues --    0.54611   0.55349   0.55704   0.57815   0.58277
 Alpha virt. eigenvalues --    0.58894   0.60924   0.61248   0.63385   0.63610
 Alpha virt. eigenvalues --    0.64099   0.65269   0.66135   0.67428   0.68508
 Alpha virt. eigenvalues --    0.69643   0.69971   0.71060   0.72267   0.72891
 Alpha virt. eigenvalues --    0.73236   0.75440   0.77530   0.78760   0.79558
 Alpha virt. eigenvalues --    0.80286   0.81260   0.81997   0.82950   0.83523
 Alpha virt. eigenvalues --    0.83991   0.84527   0.85618   0.86079   0.86803
 Alpha virt. eigenvalues --    0.87821   0.88376   0.89264   0.90426   0.91045
 Alpha virt. eigenvalues --    0.91392   0.92717   0.93043   0.94751   0.95872
 Alpha virt. eigenvalues --    0.98275   0.98842   1.00550   1.03159   1.04957
 Alpha virt. eigenvalues --    1.06726   1.07750   1.09239   1.11403   1.15218
 Alpha virt. eigenvalues --    1.16087   1.19203   1.22011   1.24383   1.27592
 Alpha virt. eigenvalues --    1.27604   1.29269   1.30390   1.32394   1.34198
 Alpha virt. eigenvalues --    1.36242   1.36963   1.37231   1.39635   1.40367
 Alpha virt. eigenvalues --    1.42291   1.43509   1.44820   1.47495   1.47851
 Alpha virt. eigenvalues --    1.49888   1.51192   1.54422   1.55264   1.59823
 Alpha virt. eigenvalues --    1.61339   1.65027   1.67609   1.69837   1.70983
 Alpha virt. eigenvalues --    1.72197   1.73155   1.74193   1.75054   1.75823
 Alpha virt. eigenvalues --    1.77826   1.80608   1.81084   1.82727   1.83969
 Alpha virt. eigenvalues --    1.85065   1.85744   1.86007   1.87213   1.88885
 Alpha virt. eigenvalues --    1.91997   1.92415   1.94123   1.95219   1.96366
 Alpha virt. eigenvalues --    1.98400   1.98740   2.01008   2.02986   2.04709
 Alpha virt. eigenvalues --    2.06945   2.07435   2.07790   2.10613   2.12245
 Alpha virt. eigenvalues --    2.12661   2.15380   2.17128   2.18061   2.19020
 Alpha virt. eigenvalues --    2.21044   2.21930   2.22297   2.24960   2.26127
 Alpha virt. eigenvalues --    2.27766   2.28117   2.28858   2.29788   2.30591
 Alpha virt. eigenvalues --    2.32981   2.34074   2.35684   2.37511   2.40819
 Alpha virt. eigenvalues --    2.41561   2.43806   2.44396   2.45838   2.46447
 Alpha virt. eigenvalues --    2.47663   2.48753   2.51369   2.52986   2.54884
 Alpha virt. eigenvalues --    2.55839   2.57567   2.58698   2.59904   2.60832
 Alpha virt. eigenvalues --    2.62437   2.63216   2.66226   2.68064   2.69059
 Alpha virt. eigenvalues --    2.70102   2.71127   2.72791   2.73839   2.75182
 Alpha virt. eigenvalues --    2.75988   2.77548   2.80816   2.83453   2.85794
 Alpha virt. eigenvalues --    2.86395   2.89055   2.90496   2.91270   2.92200
 Alpha virt. eigenvalues --    2.92959   2.96152   2.98522   2.99909   3.03651
 Alpha virt. eigenvalues --    3.04109   3.06648   3.12759   3.16381   3.23809
 Alpha virt. eigenvalues --    3.25157   3.28739   3.29625   3.30603   3.32212
 Alpha virt. eigenvalues --    3.36195   3.37125   3.45574   3.47316   3.50011
 Alpha virt. eigenvalues --    3.50789   3.57220   3.58738   3.70814   3.93812
 Alpha virt. eigenvalues --    3.99422   4.00508   4.12662   4.13260   4.17498
 Alpha virt. eigenvalues --    4.19481   4.26160   4.33905   4.41915   4.44066
 Alpha virt. eigenvalues --    4.47354   4.54328   4.64888   4.71643   4.78830
          Condensed to atoms (all electrons):
               1          2          3          4          5          6
     1  O    8.162577   0.508135  -0.086542   0.001692  -0.000529  -0.000003
     2  C    0.508135   4.445644   0.261682  -0.032319   0.001634   0.000129
     3  N   -0.086542   0.261682   6.989077   0.230972  -0.048079   0.003141
     4  C    0.001692  -0.032319   0.230972   5.237109   0.262959  -0.097844
     5  C   -0.000529   0.001634  -0.048079   0.262959   4.429416   0.243420
     6  O   -0.000003   0.000129   0.003141  -0.097844   0.243420   8.111589
     7  O   -0.000855   0.010953  -0.006062  -0.085388   0.615161  -0.076697
     8  C   -0.002159  -0.003191  -0.036059   0.315222  -0.038048   0.001820
     9  C   -0.005715  -0.002206   0.001628  -0.049090   0.003312   0.000247
    10  C    0.000055  -0.000078  -0.000501  -0.002581   0.000002   0.000001
    11  N   -0.000009  -0.000022   0.000005   0.000003   0.000001   0.000000
    12  C    0.000293   0.000211   0.000117   0.000124   0.000001   0.000000
    13  N   -0.011775   0.003495  -0.000132  -0.002564  -0.000047  -0.000001
    14  C   -0.088038   0.270753  -0.105948   0.005716  -0.000228   0.000000
    15  C    0.005923  -0.022379   0.002857  -0.000155   0.000000   0.000000
    16  N    0.000261   0.005556  -0.000076   0.000001   0.000000   0.000000
    17  H    0.003595  -0.025701   0.344724  -0.035801   0.000346   0.000052
    18  H   -0.000047   0.004142  -0.039832   0.365955  -0.040749   0.002629
    19  H    0.000001  -0.000024   0.000368   0.005586  -0.025948   0.280651
    20  H    0.000687   0.000377   0.004270  -0.041852  -0.003893   0.004312
    21  H    0.012215   0.002487  -0.006677  -0.038386  -0.001886  -0.000173
    22  H    0.000001   0.000000   0.000002   0.000081  -0.000005   0.000000
    23  H   -0.000006   0.000001   0.000004  -0.000002   0.000000   0.000000
    24  H    0.033812  -0.000933  -0.002374   0.000080  -0.000042   0.000000
    25  H    0.001962  -0.029537   0.001848   0.000526  -0.000005   0.000000
    26  H    0.000179  -0.015846  -0.002464  -0.000504   0.000123   0.000000
    27  H    0.006371  -0.001753   0.000219   0.000012  -0.000001   0.000000
    28  H    0.002191   0.000555   0.000026  -0.000005   0.000000   0.000000
    29  H    0.000003   0.000116  -0.000004   0.000000   0.000000   0.000000
    30  H    0.000005   0.000179  -0.000002   0.000000   0.000000   0.000000
               7          8          9         10         11         12
     1  O   -0.000855  -0.002159  -0.005715   0.000055  -0.000009   0.000293
     2  C    0.010953  -0.003191  -0.002206  -0.000078  -0.000022   0.000211
     3  N   -0.006062  -0.036059   0.001628  -0.000501   0.000005   0.000117
     4  C   -0.085388   0.315222  -0.049090  -0.002581   0.000003   0.000124
     5  C    0.615161  -0.038048   0.003312   0.000002   0.000001   0.000001
     6  O   -0.076697   0.001820   0.000247   0.000001   0.000000   0.000000
     7  O    7.964567  -0.002366  -0.000121   0.000000   0.000000   0.000000
     8  C   -0.002366   5.115303   0.322627  -0.065047   0.007289   0.007025
     9  C   -0.000121   0.322627   4.785772   0.570745  -0.044418  -0.092595
    10  C    0.000000  -0.065047   0.570745   4.879499   0.426332  -0.123178
    11  N    0.000000   0.007289  -0.044418   0.426332   6.689070   0.535390
    12  C    0.000000   0.007025  -0.092595  -0.123178   0.535390   4.676677
    13  N    0.000000  -0.063200   0.363025  -0.069722  -0.088756   0.361407
    14  C   -0.000658   0.000072  -0.000136   0.000001   0.000000   0.000019
    15  C    0.000005   0.000011   0.000001   0.000000   0.000000  -0.000004
    16  N    0.000000   0.000000   0.000000   0.000000   0.000000   0.000000
    17  H    0.001803   0.004676  -0.000155  -0.000024   0.000000   0.000014
    18  H    0.001764  -0.032429  -0.004871   0.002808  -0.000068  -0.000068
    19  H    0.004843  -0.000875  -0.000199   0.000001   0.000000   0.000000
    20  H   -0.000095   0.356963  -0.028467  -0.003352   0.000008  -0.000016
    21  H    0.001129   0.368085  -0.018895   0.003028  -0.000190   0.000067
    22  H    0.000000  -0.001080  -0.061328   0.390892  -0.040987   0.007164
    23  H    0.000000  -0.000187   0.003637   0.007147  -0.038037   0.391230
    24  H    0.000001  -0.003456  -0.027863   0.008323   0.004400  -0.023308
    25  H    0.000004  -0.000042   0.000017   0.000000   0.000000  -0.000003
    26  H    0.000659  -0.000001   0.000001   0.000000   0.000000   0.000000
    27  H   -0.000001  -0.000002   0.000001   0.000000   0.000000   0.000000
    28  H    0.000000  -0.000001  -0.000001   0.000000   0.000000   0.000006
    29  H    0.000000   0.000000   0.000000   0.000000   0.000000   0.000000
    30  H    0.000000   0.000000   0.000000   0.000000   0.000000   0.000000
              13         14         15         16         17         18
     1  O   -0.011775  -0.088038   0.005923   0.000261   0.003595  -0.000047
     2  C    0.003495   0.270753  -0.022379   0.005556  -0.025701   0.004142
     3  N   -0.000132  -0.105948   0.002857  -0.000076   0.344724  -0.039832
     4  C   -0.002564   0.005716  -0.000155   0.000001  -0.035801   0.365955
     5  C   -0.000047  -0.000228   0.000000   0.000000   0.000346  -0.040749
     6  O   -0.000001   0.000000   0.000000   0.000000   0.000052   0.002629
     7  O    0.000000  -0.000658   0.000005   0.000000   0.001803   0.001764
     8  C   -0.063200   0.000072   0.000011   0.000000   0.004676  -0.032429
     9  C    0.363025  -0.000136   0.000001   0.000000  -0.000155  -0.004871
    10  C   -0.069722   0.000001   0.000000   0.000000  -0.000024   0.002808
    11  N   -0.088756   0.000000   0.000000   0.000000   0.000000  -0.000068
    12  C    0.361407   0.000019  -0.000004   0.000000   0.000014  -0.000068
    13  N    6.761695   0.000055  -0.000074   0.000000   0.000036  -0.000271
    14  C    0.000055   5.335088   0.336331  -0.059993   0.001371  -0.000205
    15  C   -0.000074   0.336331   4.776282   0.320460   0.000090   0.000003
    16  N    0.000000  -0.059993   0.320460   6.712271  -0.000009   0.000000
    17  H    0.000036   0.001371   0.000090  -0.000009   0.438471  -0.005183
    18  H   -0.000271  -0.000205   0.000003   0.000000  -0.005183   0.621180
    19  H    0.000003   0.000000   0.000000   0.000000  -0.000020   0.001447
    20  H    0.003593   0.000011   0.000000   0.000000  -0.000105  -0.005478
    21  H   -0.004736   0.000221  -0.000004   0.000000  -0.000138   0.005759
    22  H    0.004953   0.000000   0.000000   0.000000   0.000000   0.000077
    23  H   -0.056966   0.000001   0.000000   0.000000   0.000000  -0.000001
    24  H    0.319122  -0.000644   0.000369   0.000003  -0.000035   0.000036
    25  H    0.000051   0.356542  -0.036673   0.000782   0.001492  -0.000004
    26  H   -0.000003   0.358636  -0.030108  -0.000062   0.000823  -0.000003
    27  H    0.000004  -0.048504   0.395344  -0.036781  -0.000008   0.000000
    28  H   -0.000025  -0.056306   0.394702  -0.038187   0.000006   0.000000
    29  H    0.000000  -0.003849  -0.045719   0.343643   0.000003   0.000000
    30  H    0.000000  -0.003016  -0.046912   0.345908   0.000001   0.000000
              19         20         21         22         23         24
     1  O    0.000001   0.000687   0.012215   0.000001  -0.000006   0.033812
     2  C   -0.000024   0.000377   0.002487   0.000000   0.000001  -0.000933
     3  N    0.000368   0.004270  -0.006677   0.000002   0.000004  -0.002374
     4  C    0.005586  -0.041852  -0.038386   0.000081  -0.000002   0.000080
     5  C   -0.025948  -0.003893  -0.001886  -0.000005   0.000000  -0.000042
     6  O    0.280651   0.004312  -0.000173   0.000000   0.000000   0.000000
     7  O    0.004843  -0.000095   0.001129   0.000000   0.000000   0.000001
     8  C   -0.000875   0.356963   0.368085  -0.001080  -0.000187  -0.003456
     9  C   -0.000199  -0.028467  -0.018895  -0.061328   0.003637  -0.027863
    10  C    0.000001  -0.003352   0.003028   0.390892   0.007147   0.008323
    11  N    0.000000   0.000008  -0.000190  -0.040987  -0.038037   0.004400
    12  C    0.000000  -0.000016   0.000067   0.007164   0.391230  -0.023308
    13  N    0.000003   0.003593  -0.004736   0.004953  -0.056966   0.319122
    14  C    0.000000   0.000011   0.000221   0.000000   0.000001  -0.000644
    15  C    0.000000   0.000000  -0.000004   0.000000   0.000000   0.000369
    16  N    0.000000   0.000000   0.000000   0.000000   0.000000   0.000003
    17  H   -0.000020  -0.000105  -0.000138   0.000000   0.000000  -0.000035
    18  H    0.001447  -0.005478   0.005759   0.000077  -0.000001   0.000036
    19  H    0.404812   0.005244  -0.000086   0.000009   0.000000   0.000000
    20  H    0.005244   0.630660  -0.026282   0.002351   0.000005  -0.000056
    21  H   -0.000086  -0.026282   0.537049  -0.000034  -0.000007   0.001069
    22  H    0.000009   0.002351  -0.000034   0.621429  -0.000171  -0.000098
    23  H    0.000000   0.000005  -0.000007  -0.000171   0.584912  -0.000028
    24  H    0.000000  -0.000056   0.001069  -0.000098  -0.000028   0.409032
    25  H    0.000000   0.000000  -0.000004   0.000000   0.000000  -0.000122
    26  H    0.000000   0.000000  -0.000009   0.000000   0.000000   0.000020
    27  H    0.000000   0.000000   0.000000   0.000000   0.000000  -0.000016
    28  H    0.000000   0.000000  -0.000002   0.000000   0.000002   0.000569
    29  H    0.000000   0.000000   0.000000   0.000000   0.000000   0.000000
    30  H    0.000000   0.000000   0.000000   0.000000   0.000000   0.000000
              25         26         27         28         29         30
     1  O    0.001962   0.000179   0.006371   0.002191   0.000003   0.000005
     2  C   -0.029537  -0.015846  -0.001753   0.000555   0.000116   0.000179
     3  N    0.001848  -0.002464   0.000219   0.000026  -0.000004  -0.000002
     4  C    0.000526  -0.000504   0.000012  -0.000005   0.000000   0.000000
     5  C   -0.000005   0.000123  -0.000001   0.000000   0.000000   0.000000
     6  O    0.000000   0.000000   0.000000   0.000000   0.000000   0.000000
     7  O    0.000004   0.000659  -0.000001   0.000000   0.000000   0.000000
     8  C   -0.000042  -0.000001  -0.000002  -0.000001   0.000000   0.000000
     9  C    0.000017   0.000001   0.000001  -0.000001   0.000000   0.000000
    10  C    0.000000   0.000000   0.000000   0.000000   0.000000   0.000000
    11  N    0.000000   0.000000   0.000000   0.000000   0.000000   0.000000
    12  C   -0.000003   0.000000   0.000000   0.000006   0.000000   0.000000
    13  N    0.000051  -0.000003   0.000004  -0.000025   0.000000   0.000000
    14  C    0.356542   0.358636  -0.048504  -0.056306  -0.003849  -0.003016
    15  C   -0.036673  -0.030108   0.395344   0.394702  -0.045719  -0.046912
    16  N    0.000782  -0.000062  -0.036781  -0.038187   0.343643   0.345908
    17  H    0.001492   0.000823  -0.000008   0.000006   0.000003   0.000001
    18  H   -0.000004  -0.000003   0.000000   0.000000   0.000000   0.000000
    19  H    0.000000   0.000000   0.000000   0.000000   0.000000   0.000000
    20  H    0.000000   0.000000   0.000000   0.000000   0.000000   0.000000
    21  H   -0.000004  -0.000009   0.000000  -0.000002   0.000000   0.000000
    22  H    0.000000   0.000000   0.000000   0.000000   0.000000   0.000000
    23  H    0.000000   0.000000   0.000000   0.000002   0.000000   0.000000
    24  H   -0.000122   0.000020  -0.000016   0.000569   0.000000   0.000000
    25  H    0.625949  -0.033546   0.005726  -0.004565   0.005325  -0.000296
    26  H   -0.033546   0.576715  -0.005647   0.005524  -0.000421   0.004881
    27  H    0.005726  -0.005647   0.579374  -0.031117   0.006443  -0.005316
    28  H   -0.004565   0.005524  -0.031117   0.616053  -0.005171   0.006798
    29  H    0.005325  -0.000421   0.006443  -0.005171   0.501868  -0.035748
    30  H   -0.000296   0.004881  -0.005316   0.006798  -0.035748   0.497060
 Mulliken charges:
               1
     1  O   -0.544280
     2  C    0.617945
     3  N   -0.506189
     4  C   -0.039546
     5  C    0.603083
     6  O   -0.473273
     7  O   -0.428647
     8  C   -0.250953
     9  C    0.285048
    10  C   -0.024350
    11  N   -0.450009
    12  C    0.259426
    13  N   -0.519168
    14  C   -0.297292
    15  C   -0.050348
    16  N   -0.593778
    17  H    0.269675
    18  H    0.123408
    19  H    0.324186
    20  H    0.101118
    21  H    0.166401
    22  H    0.076743
    23  H    0.108466
    24  H    0.282139
    25  H    0.104575
    26  H    0.141052
    27  H    0.135651
    28  H    0.108947
    29  H    0.233513
    30  H    0.236458
 Sum of Mulliken charges =   0.00000
 Mulliken charges with hydrogens summed into heavy atoms:
               1
     1  O   -0.544280
     2  C    0.617945
     3  N   -0.236514
     4  C    0.083862
     5  C    0.603083
     6  O   -0.149087
     7  O   -0.428647
     8  C    0.016565
     9  C    0.285048
    10  C    0.052393
    11  N   -0.450009
    12  C    0.367892
    13  N   -0.237028
    14  C   -0.051665
    15  C    0.194250
    16  N   -0.123808
 APT charges:
               1
     1  O   -0.441296
     2  C    0.229275
     3  N   -0.653810
     4  C   -0.489093
     5  C   -0.189675
     6  O   -0.119880
     7  O   -0.043778
     8  C   -0.843062
     9  C   -0.441598
    10  C   -0.248250
    11  N    0.267921
    12  C   -0.458274
    13  N   -0.555269
    14  C   -0.701593
    15  C   -0.548139
    16  N   -1.127137
    17  H    0.626049
    18  H    0.450545
    19  H    0.493844
    20  H    0.562594
    21  H    0.263684
    22  H    0.715561
    23  H    0.579599
    24  H    0.161711
    25  H    0.314654
    26  H    0.476635
    27  H    0.369672
    28  H    0.215009
    29  H    0.488438
    30  H    0.645663
 Sum of APT charges =   0.00000
 APT charges with hydrogens summed into heavy atoms:
               1
     1  O   -0.441296
     2  C    0.229275
     3  N   -0.027761
     4  C   -0.038547
     5  C   -0.189675
     6  O    0.373964
     7  O   -0.043778
     8  C   -0.016784
     9  C   -0.441598
    10  C    0.467311
    11  N    0.267921
    12  C    0.121325
    13  N   -0.393558
    14  C    0.089696
    15  C    0.036541
    16  N    0.006964
 Electronic spatial extent (au):  <R**2>=           4356.2287
 Charge=              0.0000 electrons
 Dipole moment (field-independent basis, Debye):
    X=              1.9539    Y=             -0.4033    Z=              3.1058  Tot=              3.6914
 Quadrupole moment (field-independent basis, Debye-Ang):
   XX=            -96.9409   YY=           -108.2077   ZZ=            -92.4337
   XY=             15.2050   XZ=              7.5309   YZ=             -6.2260
 Traceless Quadrupole moment (field-independent basis, Debye-Ang):
   XX=              2.2532   YY=             -9.0136   ZZ=              6.7604
   XY=             15.2050   XZ=              7.5309   YZ=             -6.2260
 Octapole moment (field-independent basis, Debye-Ang**2):
  XXX=            153.5534  YYY=             99.5016  ZZZ=            -38.4307  XYY=             12.3963
  XXY=            -48.8469  XXZ=             -9.5043  XZZ=              9.8329  YZZ=            -16.6777
  YYZ=            -28.6059  XYZ=             50.0444
 Hexadecapole moment (field-independent basis, Debye-Ang**3):
 XXXX=          -2921.8431 YYYY=          -2268.3051 ZZZZ=           -711.9603 XXXY=            156.3852
 XXXZ=            525.1098 YYYX=             81.1958 YYYZ=            287.8792 ZZZX=            453.2002
 ZZZY=            244.9253 XXYY=           -909.4241 XXZZ=           -643.1539 YYZZ=           -478.7014
 XXYZ=             71.0436 YYXZ=            208.1405 ZZXY=              3.4322
 N-N= 1.133947968623D+03 E-N=-4.124253283643D+03  KE= 7.891398131454D+02
  Exact polarizability:   0.000   0.000   0.000   0.000   0.000   0.000
 Approx polarizability: 182.924  -6.824 183.228 -32.105  -7.875 175.213
 Calling FoFJK, ICntrl=    100147 FMM=F ISym2X=0 I1Cent= 0 IOpClX= 0 NMat=1 NMatS=1 NMatT=0.
 -------------------------------------------------------------------
 Center     Atomic                   Forces (Hartrees/Bohr)
 Number     Number              X              Y              Z
 -------------------------------------------------------------------
      1        8           0.002621354    0.002250288    0.000174772
      2        6           0.003619726   -0.002971050   -0.004580525
      3        7          -0.005659992   -0.003338981    0.001539992
      4        6           0.005455277   -0.000262345    0.001812596
      5        6          -0.002304081    0.000315892    0.004016490
      6        8           0.003658492   -0.005270367   -0.002762163
      7        8           0.009894488   -0.003154417   -0.005232821
      8        6          -0.006343496    0.004499346    0.000183180
      9        6           0.003480019   -0.007237981   -0.003996910
     10        6          -0.004158025    0.010812551    0.002924978
     11        7          -0.006455287   -0.001276990    0.006894493
     12        6          -0.000862119   -0.000258691    0.000652337
     13        7           0.004881718   -0.001114106   -0.006147068
     14        6          -0.001333599   -0.001610895    0.000889903
     15        6           0.003623482    0.001731074   -0.000477017
     16        7          -0.001577551    0.001126560   -0.003237267
     17        1           0.003118901    0.000539011    0.003164855
     18        1          -0.002280363    0.000952496    0.001860950
     19        1          -0.007124966    0.002612303    0.003765514
     20        1          -0.001462305   -0.000999351    0.001136500
     21        1           0.000862573   -0.000776789   -0.002421244
     22        1          -0.000868889   -0.000366004    0.000210880
     23        1          -0.000794549    0.004678635   -0.000999546
     24        1           0.000432496   -0.002185163   -0.000410355
     25        1           0.000887203    0.001162144    0.001252539
     26        1          -0.001206147   -0.000930116    0.000654065
     27        1          -0.001513945   -0.000666526   -0.002410074
     28        1          -0.001768944    0.001855573   -0.001170494
     29        1           0.000790779    0.001800628    0.002571953
     30        1           0.002387750   -0.001916729    0.000139489
 -------------------------------------------------------------------
 Cartesian Forces:  Max     0.010812551 RMS     0.003331601
 FormGI is forming the generalized inverse of G from B-inverse, IUseBI=4.

 GradGradGradGradGradGradGradGradGradGradGradGradGradGradGradGradGradGrad
 Berny optimization.
 Internal  Forces:  Max     0.011627451 RMS     0.002990228
 Search for a local minimum.
 Step number   1 out of a maximum of  160
 All quantities printed in internal units (Hartrees-Bohrs-Radians)
 Mixed Optimization -- RFO/linear search
 Second derivative matrix not updated -- analytic derivatives used.
 ITU=  0
     Eigenvalues ---    0.00031   0.00121   0.00241   0.00328   0.00338
     Eigenvalues ---    0.00366   0.00610   0.00873   0.01009   0.01055
     Eigenvalues ---    0.01174   0.02043   0.02408   0.02743   0.02970
     Eigenvalues ---    0.03491   0.04143   0.04252   0.04418   0.04436
     Eigenvalues ---    0.04539   0.04776   0.04866   0.05310   0.05458
     Eigenvalues ---    0.06142   0.06266   0.07099   0.07778   0.08191
     Eigenvalues ---    0.08763   0.10416   0.10782   0.11023   0.11936
     Eigenvalues ---    0.12353   0.12720   0.13646   0.14612   0.16239
     Eigenvalues ---    0.16875   0.18213   0.18389   0.18495   0.19111
     Eigenvalues ---    0.20761   0.21937   0.22092   0.23080   0.23657
     Eigenvalues ---    0.23885   0.24541   0.25234   0.27322   0.28714
     Eigenvalues ---    0.30638   0.32735   0.33043   0.33098   0.33669
     Eigenvalues ---    0.33941   0.34061   0.34480   0.34938   0.35113
     Eigenvalues ---    0.36289   0.37137   0.37476   0.37779   0.38478
     Eigenvalues ---    0.42747   0.42790   0.44747   0.45569   0.45819
     Eigenvalues ---    0.46387   0.46584   0.48333   0.49393   0.55148
     Eigenvalues ---    0.59520   0.62575   0.79437   0.95963
 RFO step:  Lambda=-3.79410429D-03 EMin= 3.07742939D-04
 Linear search not attempted -- first point.
 Iteration  1 RMS(Cart)=  0.09328979 RMS(Int)=  0.00309175
 Iteration  2 RMS(Cart)=  0.00434327 RMS(Int)=  0.00007751
 Iteration  3 RMS(Cart)=  0.00001114 RMS(Int)=  0.00007734
 Iteration  4 RMS(Cart)=  0.00000000 RMS(Int)=  0.00007734
 Variable       Old X    -DE/DX   Delta X   Delta X   Delta X     New X
                                 (Linear)    (Quad)   (Total)
    R1        2.32855  -0.00175   0.00000  -0.00228  -0.00228   2.32627
    R2        2.57421   0.00827   0.00000   0.01643   0.01643   2.59065
    R3        2.87986   0.00123   0.00000  -0.00005  -0.00005   2.87981
    R4        2.75100   0.00270   0.00000  -0.00037  -0.00037   2.75063
    R5        1.90042   0.00445   0.00000   0.00960   0.00960   1.91002
    R6        2.89923   0.00646   0.00000   0.02184   0.02184   2.92107
    R7        2.90958   0.01126   0.00000   0.03274   0.03274   2.94232
    R8        2.06846   0.00247   0.00000   0.00674   0.00674   2.07520
    R9        2.55960   0.00435   0.00000   0.00397   0.00397   2.56357
   R10        2.26224   0.01163   0.00000   0.01185   0.01185   2.27409
   R11        1.81394   0.00837   0.00000   0.01504   0.01504   1.82898
   R12        2.82061   0.00428   0.00000   0.00274   0.00274   2.82334
   R13        2.06481   0.00202   0.00000   0.00615   0.00615   2.07097
   R14        2.05280   0.00265   0.00000   0.00888   0.00888   2.06167
   R15        2.58180   0.01129   0.00000   0.02077   0.02083   2.60263
   R16        2.59815   0.00334   0.00000   0.00896   0.00902   2.60717
   R17        2.61433  -0.00330   0.00000  -0.01461  -0.01463   2.59970
   R18        2.04245   0.00080   0.00000   0.00297   0.00297   2.04542
   R19        2.47933   0.00575   0.00000   0.01171   0.01163   2.49096
   R20        2.55987   0.00920   0.00000   0.01448   0.01446   2.57433
   R21        2.03252   0.00441   0.00000   0.01070   0.01070   2.04323
   R22        1.91305   0.00080   0.00000   0.00330   0.00330   1.91635
   R23        2.88820   0.00626   0.00000   0.01981   0.01981   2.90801
   R24        2.07091   0.00178   0.00000   0.00470   0.00470   2.07561
   R25        2.07718  -0.00004   0.00000   0.00038   0.00038   2.07756
   R26        2.75949   0.00188   0.00000   0.00136   0.00136   2.76085
   R27        2.05883   0.00248   0.00000   0.00667   0.00667   2.06550
   R28        2.06249   0.00266   0.00000   0.00820   0.00820   2.07069
   R29        1.91577   0.00321   0.00000   0.00719   0.00719   1.92296
   R30        1.91604   0.00305   0.00000   0.00681   0.00681   1.92285
    A1        2.15337   0.00230   0.00000  -0.00008  -0.00008   2.15328
    A2        2.13920  -0.00411   0.00000  -0.01103  -0.01104   2.12816
    A3        1.99038   0.00179   0.00000   0.01102   0.01101   2.00139
    A4        2.19605   0.00584   0.00000   0.00233   0.00216   2.19821
    A5        2.01098  -0.00312   0.00000  -0.01112  -0.01129   1.99969
    A6        1.98565  -0.00248   0.00000  -0.00535  -0.00555   1.98010
    A7        1.92900  -0.00592   0.00000  -0.01863  -0.01868   1.91032
    A8        2.00873   0.00631   0.00000   0.00969   0.00974   2.01846
    A9        1.84153   0.00017   0.00000   0.00894   0.00899   1.85052
   A10        1.91907   0.00132   0.00000   0.01477   0.01482   1.93389
   A11        1.87106   0.00171   0.00000   0.00570   0.00580   1.87685
   A12        1.88759  -0.00385   0.00000  -0.02116  -0.02116   1.86643
   A13        2.00601   0.00092   0.00000   0.00973   0.00973   2.01574
   A14        2.17040  -0.00067   0.00000  -0.00758  -0.00758   2.16282
   A15        2.10674  -0.00025   0.00000  -0.00214  -0.00214   2.10460
   A16        1.92916   0.00237   0.00000   0.00880   0.00880   1.93796
   A17        1.96811   0.00978   0.00000   0.03376   0.03378   2.00189
   A18        1.88468  -0.00345   0.00000  -0.01046  -0.01048   1.87420
   A19        1.90727  -0.00248   0.00000  -0.00979  -0.00983   1.89744
   A20        1.89441  -0.00320   0.00000  -0.00733  -0.00730   1.88710
   A21        1.93511  -0.00254   0.00000  -0.00811  -0.00812   1.92699
   A22        1.87101   0.00148   0.00000   0.00032   0.00020   1.87121
   A23        2.31160   0.00005   0.00000   0.00856   0.00822   2.31983
   A24        2.13722   0.00204   0.00000  -0.00068  -0.00102   2.13621
   A25        1.83346  -0.00206   0.00000  -0.00625  -0.00632   1.82714
   A26        1.92810   0.00389   0.00000   0.01025   0.01029   1.93840
   A27        2.23779  -0.00185   0.00000  -0.00911  -0.00922   2.22857
   A28        2.11728  -0.00203   0.00000  -0.00103  -0.00114   2.11614
   A29        1.83446  -0.00194   0.00000  -0.00366  -0.00370   1.83076
   A30        1.95001   0.00222   0.00000   0.00440   0.00438   1.95439
   A31        2.21056  -0.00308   0.00000  -0.01694  -0.01694   2.19362
   A32        2.12261   0.00087   0.00000   0.01256   0.01256   2.13517
   A33        1.87874  -0.00210   0.00000  -0.00473  -0.00465   1.87409
   A34        2.16951  -0.00095   0.00000  -0.01634  -0.01640   2.15311
   A35        2.23486   0.00306   0.00000   0.02092   0.02084   2.25570
   A36        1.97166   0.00094   0.00000   0.00161   0.00157   1.97323
   A37        1.90576   0.00080   0.00000   0.01588   0.01590   1.92166
   A38        1.88634  -0.00201   0.00000  -0.02249  -0.02245   1.86389
   A39        1.92855  -0.00102   0.00000  -0.00345  -0.00351   1.92504
   A40        1.90901   0.00120   0.00000   0.00874   0.00870   1.91771
   A41        1.85864   0.00002   0.00000  -0.00087  -0.00080   1.85785
   A42        2.00690   0.00116   0.00000   0.00746   0.00744   2.01434
   A43        1.89898  -0.00008   0.00000  -0.00023  -0.00028   1.89870
   A44        1.90863   0.00004   0.00000  -0.00206  -0.00207   1.90656
   A45        1.89228  -0.00016   0.00000   0.00484   0.00481   1.89709
   A46        1.88906  -0.00049   0.00000  -0.00045  -0.00044   1.88862
   A47        1.86271  -0.00059   0.00000  -0.01095  -0.01096   1.85175
   A48        1.92686   0.00043   0.00000   0.00175   0.00175   1.92861
   A49        1.92423   0.00047   0.00000   0.00116   0.00116   1.92540
   A50        1.86113  -0.00038   0.00000  -0.00380  -0.00380   1.85734
    D1        0.34410   0.00104   0.00000   0.05663   0.05659   0.40069
    D2        3.01109   0.00073   0.00000   0.01993   0.01999   3.03108
    D3       -2.82089   0.00040   0.00000   0.05187   0.05182  -2.76907
    D4       -0.15390   0.00008   0.00000   0.01518   0.01521  -0.13869
    D5        0.32202   0.00013   0.00000   0.03996   0.03996   0.36198
    D6        2.47544   0.00006   0.00000   0.04833   0.04840   2.52384
    D7       -1.79263  -0.00059   0.00000   0.04351   0.04346  -1.74917
    D8       -2.79639   0.00068   0.00000   0.04451   0.04450  -2.75190
    D9       -0.64297   0.00060   0.00000   0.05288   0.05294  -0.59003
   D10        1.37214  -0.00005   0.00000   0.04806   0.04800   1.42014
   D11        1.39566   0.00009   0.00000  -0.01167  -0.01169   1.38397
   D12       -0.79101  -0.00172   0.00000  -0.02375  -0.02372  -0.81473
   D13       -2.87040  -0.00070   0.00000  -0.00915  -0.00918  -2.87958
   D14       -1.27722   0.00059   0.00000   0.02595   0.02593  -1.25129
   D15        2.81930  -0.00122   0.00000   0.01387   0.01391   2.83320
   D16        0.73991  -0.00019   0.00000   0.02847   0.02845   0.76836
   D17        2.87232  -0.00150   0.00000   0.06441   0.06444   2.93676
   D18       -0.26091  -0.00210   0.00000   0.06364   0.06367  -0.19725
   D19       -1.17432   0.00329   0.00000   0.07424   0.07419  -1.10013
   D20        1.97563   0.00269   0.00000   0.07347   0.07342   2.04905
   D21        0.87375   0.00038   0.00000   0.06020   0.06022   0.93397
   D22       -2.25949  -0.00022   0.00000   0.05943   0.05945  -2.20004
   D23       -0.98200  -0.00192   0.00000   0.02127   0.02132  -0.96068
   D24       -3.07499  -0.00164   0.00000   0.01663   0.01672  -3.05827
   D25        1.17853  -0.00018   0.00000   0.02725   0.02727   1.20580
   D26        3.10937   0.00005   0.00000   0.02656   0.02649   3.13586
   D27        1.01637   0.00033   0.00000   0.02192   0.02189   1.03827
   D28       -1.01329   0.00180   0.00000   0.03254   0.03244  -0.98084
   D29        1.07162  -0.00052   0.00000   0.02371   0.02371   1.09533
   D30       -1.02138  -0.00024   0.00000   0.01907   0.01912  -1.00226
   D31       -3.05104   0.00123   0.00000   0.02968   0.02967  -3.02137
   D32       -0.03902  -0.00005   0.00000   0.01765   0.01765  -0.02137
   D33        3.09454   0.00052   0.00000   0.01837   0.01837   3.11291
   D34       -1.60419   0.00100   0.00000  -0.02254  -0.02261  -1.62680
   D35        1.48457   0.00193   0.00000   0.02526   0.02533   1.50990
   D36        0.48319   0.00063   0.00000  -0.01949  -0.01957   0.46362
   D37       -2.71123   0.00156   0.00000   0.02832   0.02837  -2.68286
   D38        2.53392  -0.00097   0.00000  -0.02821  -0.02827   2.50566
   D39       -0.66050  -0.00004   0.00000   0.01959   0.01967  -0.64083
   D40        3.09145   0.00096   0.00000   0.04470   0.04485   3.13630
   D41       -0.04363   0.00030   0.00000   0.02446   0.02455  -0.01907
   D42       -0.00399   0.00007   0.00000   0.00289   0.00296  -0.00102
   D43       -3.13906  -0.00060   0.00000  -0.01736  -0.01734   3.12679
   D44       -3.09756  -0.00089   0.00000  -0.03935  -0.03916  -3.13672
   D45        0.03236  -0.00034   0.00000  -0.05125  -0.05090  -0.01854
   D46        0.00367  -0.00015   0.00000  -0.00246  -0.00250   0.00117
   D47        3.13359   0.00039   0.00000  -0.01436  -0.01425   3.11935
   D48        0.00274   0.00003   0.00000  -0.00224  -0.00228   0.00046
   D49        3.13834   0.00063   0.00000   0.01635   0.01647  -3.12837
   D50       -0.00032  -0.00012   0.00000   0.00064   0.00064   0.00032
   D51       -3.13836  -0.00045   0.00000  -0.00715  -0.00695   3.13787
   D52       -0.00216   0.00017   0.00000   0.00114   0.00119  -0.00097
   D53       -3.13151  -0.00037   0.00000   0.01396   0.01420  -3.11731
   D54        3.13609   0.00047   0.00000   0.00841   0.00842  -3.13868
   D55        0.00674  -0.00007   0.00000   0.02123   0.02143   0.02816
   D56        3.11988   0.00079   0.00000   0.04396   0.04396  -3.11934
   D57       -1.03751   0.00132   0.00000   0.05523   0.05523  -0.98229
   D58        0.99093   0.00059   0.00000   0.04087   0.04088   1.03180
   D59        0.97911  -0.00016   0.00000   0.02472   0.02472   1.00384
   D60        3.10490   0.00037   0.00000   0.03598   0.03599   3.14089
   D61       -1.14984  -0.00036   0.00000   0.02162   0.02164  -1.12821
   D62       -1.06155  -0.00030   0.00000   0.02257   0.02255  -1.03900
   D63        1.06424   0.00023   0.00000   0.03383   0.03382   1.09806
   D64        3.09268  -0.00050   0.00000   0.01947   0.01947   3.11214
   D65       -1.01949   0.00007   0.00000   0.01304   0.01305  -1.00644
   D66        1.03241   0.00015   0.00000   0.01015   0.01016   1.04258
   D67        3.13428  -0.00050   0.00000   0.00457   0.00455   3.13883
   D68       -1.09700  -0.00042   0.00000   0.00168   0.00166  -1.09534
   D69        1.12001   0.00054   0.00000   0.01516   0.01517   1.13517
   D70       -3.11127   0.00062   0.00000   0.01227   0.01228  -3.09899
         Item               Value     Threshold  Converged?
 Maximum Force            0.011627     0.000450     NO 
 RMS     Force            0.002990     0.000300     NO 
 Maximum Displacement     0.395603     0.001800     NO 
 RMS     Displacement     0.094943     0.001200     NO 
 Predicted change in Energy=-2.064201D-03
 GradGradGradGradGradGradGradGradGradGradGradGradGradGradGradGradGradGrad

                          Input orientation:                          
 ---------------------------------------------------------------------
 Center     Atomic      Atomic             Coordinates (Angstroms)
 Number     Number       Type             X           Y           Z
 ---------------------------------------------------------------------
      1          8           0        0.287701   -0.176045   -1.246612
      2          6           0        0.973114   -0.129088   -0.225148
      3          7           0        0.512842   -0.506241    1.009884
      4          6           0       -0.592881   -1.416921    1.268211
      5          6           0       -0.110057   -2.875094    1.095040
      6          8           0       -0.963088   -3.829775    1.543631
      7          8           0        0.947349   -3.178955    0.607466
      8          6           0       -1.885341   -1.160156    0.438815
      9          6           0       -2.433366    0.225324    0.549721
     10          6           0       -3.380543    0.796268    1.370513
     11          7           0       -3.537800    2.133520    1.088417
     12          6           0       -2.694231    2.373715    0.104423
     13          7           0       -2.003784    1.257091   -0.259209
     14          6           0        2.403505    0.396443   -0.237672
     15          6           0        2.705874    1.292253   -1.451822
     16          7           0        4.073078    1.801199   -1.530473
     17          1           0        1.214776   -0.509299    1.737122
     18          1           0       -0.858271   -1.279539    2.324918
     19          1           0       -1.756520   -3.432771    1.930402
     20          1           0       -2.649330   -1.858743    0.798415
     21          1           0       -1.686615   -1.408260   -0.604838
     22          1           0       -3.965957    0.312538    2.141784
     23          1           0       -2.546292    3.328691   -0.380544
     24          1           0       -1.283816    1.149548   -0.965227
     25          1           0        2.615939    0.935197    0.695617
     26          1           0        3.064549   -0.481965   -0.247389
     27          1           0        2.487145    0.732979   -2.365088
     28          1           0        2.021579    2.148072   -1.448405
     29          1           0        4.305235    2.330063   -0.692683
     30          1           0        4.735112    1.029851   -1.576313
 ---------------------------------------------------------------------
                    Distance matrix (angstroms):
                    1          2          3          4          5
     1  O    0.000000
     2  C    1.231010   0.000000
     3  N    2.291613   1.370911   0.000000
     4  C    2.939308   2.518129   1.455573   0.000000
     5  C    3.595332   3.233683   2.450861   1.545761   0.000000
     6  O    4.764418   4.535697   3.675478   2.456579   1.356581
     7  O    3.590293   3.161581   2.737542   2.431801   1.203398
     8  C    2.920831   3.110421   2.550492   1.557010   2.554071
     9  C    3.285135   3.511430   3.070355   2.569159   3.912509
    10  C    4.609854   4.728293   4.121291   3.560861   4.924517
    11  N    5.041916   5.214710   4.835516   4.616330   6.069241
    12  C    4.149517   4.452198   4.404467   4.487649   5.933741
    13  N    2.877455   3.283988   3.324657   3.387330   4.742906
    14  C    2.412951   1.523929   2.438409   3.812388   4.335559
    15  C    2.836472   2.554877   3.755525   5.061619   5.637620
    16  N    4.280088   3.878100   4.944995   6.321400   6.801445
    17  H    3.142164   2.013321   1.010740   2.076361   2.786474
    18  H    3.909831   3.343703   2.051160   1.098151   2.149005
    19  H    4.987837   4.797043   3.816011   2.419960   1.928646
    20  H    3.954713   4.142643   3.445768   2.155203   2.751157
    21  H    2.414157   2.975669   2.873774   2.169019   2.743488
    22  H    5.460179   5.494709   4.691614   3.889962   5.111227
    23  H    4.589637   4.936254   5.098852   5.390272   6.826386
    24  H    2.075100   2.697473   3.141764   3.471656   4.671205
    25  H    3.229211   2.163188   2.568953   4.019558   4.702011
    26  H    2.966971   2.121112   2.844738   4.067921   4.196106
    27  H    2.629614   2.759492   4.101704   5.225849   5.633484
    28  H    2.906643   2.789462   3.919802   5.188890   6.020397
    29  H    4.767389   4.167618   5.032454   6.471208   7.055807
    30  H    4.619779   4.161900   5.184164   6.516557   6.772030
                    6          7          8          9         10
     6  O    0.000000
     7  O    2.224802   0.000000
     8  C    3.032827   3.482546   0.000000
     9  C    4.426444   4.798091   1.494050   0.000000
    10  C    5.222484   5.925816   2.632733   1.377251   0.000000
    11  N    6.511317   6.969237   3.741778   2.269621   1.375700
    12  C    6.599354   6.659302   3.640654   2.209508   2.135965
    13  N    5.496317   5.398039   2.518799   1.379657   2.182617
    14  C    5.689281   3.951977   4.612466   4.903528   6.016755
    15  C    6.976331   5.227311   5.537877   5.617499   6.727262
    16  N    8.156038   6.256429   6.939055   7.010307   8.061147
    17  H    3.975688   2.911135   3.423440   3.906217   4.791228
    18  H    2.669288   3.133319   2.150932   2.810135   3.403193
    19  H    0.967852   3.020843   2.721435   3.968130   4.564614
    20  H    2.698838   3.836082   1.095908   2.109935   2.812660
    21  H    3.317099   3.397471   1.090990   2.135238   3.410476
    22  H    5.151094   6.219746   3.065598   2.211585   1.082388
    23  H    7.579751   7.451922   4.610634   3.241764   3.189881
    24  H    5.584881   5.117362   2.769097   2.114408   3.158600
    25  H    6.019429   4.440519   4.971717   5.101047   6.035941
    26  H    5.535111   3.533705   5.043038   5.600242   6.766883
    27  H    6.928271   5.148814   5.528515   5.741538   6.956184
    28  H    7.320873   5.810146   5.456189   5.247476   6.241523
    29  H    8.408326   6.581418   7.196190   7.168140   8.104351
    30  H    8.112922   6.068780   7.258600   7.520263   8.637257
                   11         12         13         14         15
    11  N    0.000000
    12  C    1.318160   0.000000
    13  N    2.222033   1.362275   0.000000
    14  C    6.330486   5.478462   4.490588   0.000000
    15  C    6.792939   5.722988   4.858440   1.538851   0.000000
    16  N    8.055712   6.985495   6.232208   2.536168   1.460979
    17  H    5.476522   5.124237   4.179067   2.476541   3.954532
    18  H    4.511960   4.652700   3.797948   4.473809   5.794913
    19  H    5.904701   6.158635   5.181732   6.055513   7.326544
    20  H    4.100201   4.289212   3.353166   5.629430   6.608370
    21  H    4.340300   3.977647   2.706317   4.485627   5.225334
    22  H    2.146829   3.164898   3.241462   6.799919   7.641151
    23  H    2.137608   1.081230   2.144892   5.754909   5.734106
    24  H    3.204076   2.152210   1.014091   3.833124   4.021787
    25  H    6.281622   5.533240   4.728335   1.098367   2.178778
    26  H    7.226075   6.437564   5.358401   1.099397   2.174202
    27  H    7.084362   5.969687   4.987772   2.155494   1.093016
    28  H    6.110841   4.970016   4.290872   2.163318   1.095763
    29  H    8.045132   7.044843   6.414272   2.749999   2.052145
    30  H    8.761276   7.734726   6.870162   2.762165   2.049917
                   16         17         18         19         20
    16  N    0.000000
    17  H    4.917872   0.000000
    18  H    6.976618   2.288296   0.000000
    19  H    8.564830   4.172846   2.366200   0.000000
    20  H    8.000604   4.199224   2.423547   2.134495   0.000000
    21  H    6.658190   3.835489   3.047326   3.245146   1.760362
    22  H    8.962571   5.261099   3.496564   4.353578   2.872736
    23  H    6.889966   5.775838   5.603992   7.188990   5.320717
    24  H    5.425907   4.037007   4.111765   5.441118   3.744980
    25  H    2.797980   2.265956   4.430555   6.302558   5.961520
    26  H    2.806469   2.713059   4.758299   6.057453   5.969727
    27  H    2.086351   4.471052   6.102312   7.335762   6.565680
    28  H    2.082235   4.226125   5.854915   7.538978   6.551348
    29  H    1.017588   4.849419   6.985481   8.765598   8.254420
    30  H    1.017530   5.073519   7.199918   8.622838   8.277276
                   21         22         23         24         25
    21  H    0.000000
    22  H    3.962383   0.000000
    23  H    4.819550   4.180283   0.000000
    24  H    2.614289   4.189032   2.585414   0.000000
    25  H    5.069018   6.767604   5.790990   4.244106   0.000000
    26  H    4.853798   7.467758   6.783831   4.699511   1.760357
    27  H    5.010356   7.882335   6.000969   4.043920   3.070081
    28  H    5.206708   7.218673   4.837317   3.486567   2.534001
    29  H    7.062935   8.973140   6.930953   5.718863   2.593598
    30  H    6.937343   9.489331   7.728737   6.051054   3.108298
                   26         27         28         29         30
    26  H    0.000000
    27  H    2.508811   0.000000
    28  H    3.073649   1.749156   0.000000
    29  H    3.105654   2.941609   2.412327   0.000000
    30  H    2.615799   2.400761   2.937693   1.629769   0.000000
 Symmetry turned off by external request.
 Stoichiometry    C9H14N4O3
 Framework group  C1[X(C9H14N4O3)]
 Deg. of freedom    84
 Full point group                 C1      NOp   1
 Rotational constants (GHZ):      0.5391230      0.3973213      0.2442565
 Standard basis: 6-31G(d,p) (6D, 7F)
   310 basis functions,   546 primitive gaussians,   310 cartesian basis functions
    60 alpha electrons       60 beta electrons
       nuclear repulsion energy      1126.4130485750 Hartrees.
 NAtoms=   30 NActive=   30 NUniq=   30 SFac= 1.00D+00 NAtFMM=   60 NAOKFM=F Big=F
 Integral buffers will be    131072 words long.
 Raffenetti 2 integral format.
 Two-electron integral symmetry is turned off.
 One-electron integrals computed using PRISM.
 NBasis=   310 RedAO= T EigKep=  1.15D-03  NBF=   310
 NBsUse=   310 1.00D-06 EigRej= -1.00D+00 NBFU=   310
 Initial guess from the checkpoint file:  "conf-455.chk"
 B after Tr=    -0.001240    0.022595    0.004790
         Rot=    0.999987    0.001834    0.002671   -0.003922 Ang=   0.58 deg.
 ExpMin= 1.61D-01 ExpMax= 5.48D+03 ExpMxC= 8.25D+02 IAcc=2 IRadAn=         4 AccDes= 0.00D+00
[...]
 00013369,-0.00017373,-0.00009367,-0.00005797,0.00004851,0.00012910,0.0
 0005654,-0.00043968,-0.00016529,-0.00137166,-0.00014769,-0.00036758,0.
 00121708,0.00096573,-0.00071456,-0.00036799,0.00033205,-0.05151308,0.0
 6739090,0.00042519,-0.00103927,-0.00365309,-0.00170095,0.00117565,0.00
 255232,0.00075661,-0.00053501,-0.00197769,-0.00031217,0.00064924,-0.00
 026583,-0.00010718,0.00030447,0.00015081,0.00003461,-0.00011774,-0.000
 00491,0.00017103,-0.00019602,-0.00011688,-0.00109046,0.00010719,0.0000
 3504,0.00789803,-0.00854656,-0.01076461,0.00161585,0.00349894,-0.00108
 223,0.00123979,0.00127581,0.00550685,-0.00488440,-0.00312295,-0.002472
 91,0.20721017,-0.03366292,-0.23126762,-0.00030014,0.00008393,-0.000147
 67,-0.00002392,0.00015383,0.00032248,0.00005534,0.00003190,-0.00019704
 ,0.00003973,-0.00001121,-0.00002907,-0.00001148,-0.00001627,0.00000375
 ,0.00000490,0.00011731,-0.00003064,0.00004929,-0.00042636,0.00011078,0
 .00005695,-0.00002814,0.00013315,0.00112977,-0.00018885,0.00068297,-0.
 00060869,-0.00014058,-0.00060136,-0.21172150,0.04081881,0.24317419,-0.
 00864650,-0.00261636,-0.00025238,-0.00324900,-0.00856060,-0.03123529,0
 .00013299,0.00158536,0.00120497,0.00025624,0.00014049,-0.00002866,0.00
 007302,-0.00000834,-0.00010532,0.00001569,0.00006194,0.00001879,0.0000
 0945,0.00001448,0.00005310,-0.00001772,0.00000821,-0.00018116,0.000068
 97,0.00003233,-0.00008446,-0.00001408,0.00002284,0.00002343,-0.0000617
 8,0.00005078,0.00009526,0.00002647,-0.00013834,-0.00001795,-0.00008736
 ,0.00017496,0.00006634,-0.06650656,-0.02595657,-0.05836614,0.00017371,
 0.00066618,0.00333361,0.00098441,0.00117156,0.00020169,-0.00065706,-0.
 00169108,0.00091213,0.00000006,0.00001026,0.00001423,-0.00001671,-0.00
 000089,-0.00001852,0.00002002,-0.00001029,0.00010598,0.00013045,0.0001
 1686,0.00005008,-0.00000947,0.00000084,0.00000368,-0.00001283,0.000008
 48,-0.00001146,0.00020677,-0.00034126,-0.00004701,0.07094356,-0.004067
 26,0.00107221,0.00010665,0.00303761,-0.00482785,-0.01202285,-0.0004356
 8,0.00043290,0.00106324,0.00036345,-0.00002915,0.00006932,-0.00008791,
 0.00004641,-0.00007067,0.00000048,-0.00004878,0.00000746,0.00008829,-0
 .00001117,0.00018405,0.00001005,0.00005286,-0.00012991,0.00006186,0.00
 006181,-0.00009061,-0.00000982,0.00002496,0.00000674,-0.00007537,0.000
 03653,0.00008020,0.00004002,-0.00016673,-0.00001028,-0.00017094,0.0001
 6882,0.00005037,-0.02716764,-0.08178994,-0.08042941,0.00679668,0.00892
 518,0.02352304,0.00175382,0.00128903,-0.00112255,-0.00132226,-0.000668
 17,0.00089075,-0.00003643,-0.00000089,0.00000984,-0.00000187,0.0000183
 2,-0.00002719,0.00001226,-0.00001349,0.00007604,0.00007096,0.00005820,
 0.00003800,-0.00000700,-0.00000043,0.00000660,-0.00000117,0.00000717,0
 .00000371,0.00020657,-0.00027557,0.00001791,0.02984582,0.08628526,0.00
 064063,-0.00086120,0.00228077,0.00132841,0.00270397,-0.00137586,0.0012
 1663,0.00126113,0.00008939,-0.00032748,-0.00012119,0.00072927,0.000100
 09,-0.00001050,-0.00004126,0.00000486,0.00007183,0.00000207,-0.0000006
 6,0.00003863,0.00008581,0.00001007,0.00005664,-0.00004549,0.00002320,0
 .00002487,-0.00003825,-0.00001563,0.00001639,0.00002534,-0.00002867,0.
 00000192,0.00006773,0.00004293,-0.00005813,-0.00004215,-0.00001032,0.0
 0001608,0.00003300,-0.06171052,-0.08282910,-0.25273721,-0.00749491,-0.
 00902647,-0.02143345,0.00015310,-0.00032944,0.00242694,0.00063005,-0.0
 0032897,0.00071878,-0.00007992,-0.00007741,0.00000744,-0.00001694,-0.0
 0000482,-0.00001318,-0.00000803,-0.00000003,0.00005444,0.00005579,0.00
 001913,0.00002606,-0.00000719,-0.00000171,0.00000232,0.00000031,-0.000
 00725,-0.00000941,0.00007653,-0.00001105,-0.00007294,0.06583683,0.0868
 6038,0.27687095,0.00097426,-0.00457709,-0.00096321,-0.02117545,0.02641
 555,0.00789074,-0.00148958,-0.00264912,-0.00010297,0.00088201,-0.00091
 263,0.00014819,-0.00151214,0.00045164,0.00048988,0.00039009,-0.0001840
 5,-0.00011411,0.00091729,-0.00010363,-0.00044023,0.00008708,0.00000377
 ,-0.00004487,0.00006865,0.00001748,-0.00006089,-0.00000227,0.00000725,
 -0.00000243,-0.00004414,0.00002950,0.00004258,0.00004933,-0.00008446,-
 0.00002787,-0.00008744,-0.00003048,-0.00000234,-0.14404856,0.12196846,
 0.03626004,0.00121792,-0.00236659,-0.00092179,0.00167298,-0.00085399,-
 0.00081210,-0.00037354,0.00031916,0.00029055,-0.00002317,-0.00008616,0
 .00005035,0.00006967,0.00008726,-0.00001823,-0.00004287,-0.00000556,0.
 00003252,0.00004645,0.00005373,-0.00001481,-0.00000207,-0.00000100,0.0
 0000466,0.00000175,0.00000210,0.00000143,0.00016459,0.00001970,0.00005
 443,0.00623886,-0.00742684,-0.00216743,0.15510484,-0.00011208,-0.00128
 925,-0.00059135,-0.00765975,0.01155680,0.00277650,-0.00046950,-0.00091
 162,0.00050491,0.00062403,-0.00082643,0.00000276,-0.00084879,0.0002773
 2,0.00026598,0.00013578,-0.00018564,-0.00006378,0.00048301,-0.00001582
 ,-0.00019248,0.00007522,0.00001255,-0.00002190,0.00004504,-0.00001763,
 -0.00002680,0.00000477,0.00000049,-0.00001246,-0.00000550,0.00004994,0
 .00001453,-0.00000736,-0.00003320,0.00001485,-0.00004298,0.00003579,0.
 00000679,0.11762669,-0.19057542,-0.04706483,0.01544237,-0.02080024,-0.
 00405616,0.00034059,0.00314591,-0.00154755,-0.00012401,-0.00010589,0.0
 0024001,0.00002722,-0.00000340,0.00000645,0.00004516,0.00003162,-0.000
 00767,-0.00000994,0.00000308,0.00001528,0.00003268,0.00003075,-0.00000
 850,0.00000014,0.00000128,-0.00000221,-0.00001833,0.00001375,-0.000008
 61,0.00008427,-0.00011499,0.00001594,0.00679612,-0.00843719,-0.0024590
 8,-0.12999171,0.20977495,-0.00071136,-0.00093608,-0.00053899,0.0013041
 5,-0.00094662,-0.00145216,0.00113800,0.00129945,-0.00001453,-0.0004930
 8,0.00056526,0.00014469,0.00093038,-0.00020230,-0.00023489,-0.00023475
 ,0.00011613,0.00005411,-0.00060823,0.00004497,0.00008022,-0.00005136,0
 .00000433,-0.00001469,0.00000416,0.00000964,-0.00001023,-0.00001294,0.
 00001305,0.00002188,-0.00001425,-0.00000367,0.00003521,0.00001416,-0.0
 0002214,-0.00002328,-0.00002070,0.00002530,0.00001071,0.03506272,-0.04
 696767,-0.05807199,-0.01486804,0.02113202,0.00420817,-0.00173972,-0.00
 193852,0.00116909,0.00029910,-0.00090390,-0.00016352,0.00000204,0.0000
 0179,-0.00000947,-0.00003961,-0.00003950,0.00001718,0.00001827,-0.0000
 0120,0.00000871,0.00002690,0.00000656,0.00000603,-0.00000312,-0.000000
 39,0.00000158,0.00000424,-0.00000386,-0.00000156,0.00010576,-0.0000177
 0,-0.00002390,0.01859880,-0.02148593,-0.00668973,-0.04012099,0.0474167
 2,0.06317858,-0.00135069,-0.00048281,-0.00031805,0.00069985,0.00037321
 ,0.00164538,0.00003912,-0.00012650,-0.00096695,-0.00015473,-0.00005692
 ,0.00003065,0.00006999,-0.00011118,0.00000823,0.00000223,0.00007027,-0
 .00000513,-0.00005739,0.00006124,0.00000296,-0.00000231,0.00002700,0.0
 0003908,-0.00003296,-0.00004789,0.00005409,0.00001462,-0.00000858,-0.0
 0001159,0.00004482,-0.00003183,-0.00006130,-0.00004218,0.00008557,0.00
 002266,0.00003371,-0.00000899,-0.00004960,0.00190052,0.00170180,0.0004
 0729,-0.07423209,-0.02482826,-0.06946394,-0.01659540,-0.01875468,-0.02
 808032,0.00020872,0.00015572,-0.00010001,0.00001575,0.00001956,-0.0000
 1572,-0.00000961,-0.00002139,0.00001006,0.00001553,0.00000411,-0.00002
 439,-0.00002711,-0.00003540,-0.00001026,0.00000353,-0.00000032,-0.0000
 0360,0.00000647,0.00000156,0.00001146,-0.00018481,0.00004354,0.0001258
 1,-0.00000289,-0.00099999,0.00062041,0.00017883,-0.00033335,-0.0003326
 4,0.08805046,-0.00047253,-0.00115661,-0.00083788,0.00073005,0.00094450
 ,0.00149792,-0.00024364,0.00001948,-0.00052826,-0.00012443,-0.00000415
 ,-0.00008299,-0.00000872,0.00001018,0.00003077,0.00000500,0.00000086,-
 0.00000246,-0.00000083,-0.00001990,-0.00005198,-0.00002950,-0.00002409
 ,0.00006587,-0.00001128,0.00002552,-0.00000463,-0.00001363,0.00000014,
 0.00001525,-0.00000131,-0.00001987,0.00002771,0.00002424,0.00001026,-0
 .00002957,0.00003745,-0.00003747,0.00001992,0.00683346,0.00723797,0.02
 357141,-0.02774344,-0.08525507,-0.08622457,-0.00614698,-0.00587676,-0.
 00989740,0.00030975,0.00026524,-0.00025930,0.00001220,0.00000484,-0.00
 000572,-0.00000070,0.00000063,0.00000414,-0.00001566,-0.00000203,-0.00
 002305,-0.00002263,-0.00001691,-0.00001112,-0.00000197,-0.00000100,0.0
 0000123,0.00000097,-0.00001284,-0.00001458,-0.00001111,0.00012516,-0.0
 0010143,-0.00098828,-0.00323361,0.00426167,0.00053141,0.00133601,-0.00
 060611,0.03733834,0.09279492,-0.00000886,-0.00093317,0.00359715,-0.003
 21208,-0.00111324,-0.00403615,0.00031469,0.00029697,0.00075629,0.00013
 443,-0.00008112,-0.00004255,-0.00004734,0.00001553,-0.00003345,0.00001
 930,-0.00000191,0.00000675,0.00005533,0.00000531,0.00005140,0.00000170
 ,0.00001256,-0.00007030,0.00003064,0.00005163,-0.00005067,-0.00001633,
 0.00001299,0.00002073,-0.00004477,0.00001766,0.00006919,0.00004798,-0.
 00008617,-0.00003354,-0.00003484,0.00001762,0.00005437,-0.00481913,-0.
 00608785,-0.02296827,-0.07402614,-0.08677157,-0.25600565,0.00151392,0.
 00272588,0.00800364,-0.00009731,-0.00016607,0.00037144,0.00001213,0.00
 001171,-0.00000083,-0.00000387,0.00000857,-0.00001703,-0.00000296,-0.0
 0000517,0.00004906,0.00005010,0.00003279,0.00002581,-0.00000642,-0.000
 00034,0.00000393,-0.00000199,-0.00000497,-0.00000974,0.00017689,-0.000
 04347,-0.00011057,0.00043346,0.00397046,-0.00202144,-0.00017202,-0.000
 07309,0.00119977,0.07996140,0.08949005,0.27482107,0.00015429,0.0002957
 8,0.00014252,0.00028376,-0.00029762,-0.00036980,0.00026110,0.00009746,
 -0.00013160,-0.00001734,-0.00004325,-0.00001361,0.00001180,-0.00002831
 ,0.00000530,0.00000696,0.00002297,-0.00000446,-0.00000333,0.00000116,0
 .00000285,-0.00000335,0.00002341,-0.00001032,-0.00000590,-0.00002244,0
 .00004096,0.00001257,-0.00000035,-0.00001417,0.00001934,-0.00001766,-0
 .00002544,-0.00003936,0.00007530,0.00001391,0.00006826,-0.00003331,-0.
 00002993,0.00279554,-0.00088673,-0.00099528,-0.13053315,0.11136722,0.0
 3235536,-0.02791649,0.02203215,0.01445217,-0.00000444,0.00008412,0.000
 02640,0.00001572,0.00001613,-0.00001028,-0.00000548,-0.00000380,0.0000
 0154,0.00000728,-0.00000108,0.00000120,-0.00000656,-0.00000748,-0.0000
 0275,-0.00000184,-0.00000062,-0.00000070,0.00000262,0.00000003,0.00000
 748,-0.00005055,0.00001946,-0.00001192,-0.00006851,0.00016936,-0.00003
 891,0.00052600,-0.00090900,0.00074773,0.00718311,-0.00794783,-0.001636
 93,0.15314449,-0.00141129,0.00048903,-0.00087064,0.00322196,0.00014761
 ,0.00073568,-0.00085329,-0.00000405,0.00037579,0.00009518,0.00005290,0
 .00003743,0.00025850,-0.00001479,-0.00009429,-0.00014006,-0.00008878,0
 .00002757,-0.00022646,0.00001318,0.00008724,0.00003655,-0.00009060,0.0
 0001552,-0.00001537,-0.00017791,0.00011646,0.00005095,-0.00003839,-0.0
 0007095,0.00010440,0.00008814,-0.00011017,-0.00018322,0.00020650,0.000
 11727,0.00021781,0.00010520,0.00001629,0.01114559,-0.01982635,-0.00454
 143,0.11749034,-0.20763161,-0.05148570,-0.00928485,0.01221230,0.004756
 74,0.00013362,-0.00012033,-0.00014283,-0.00002719,-0.00003195,0.000023
 33,0.00001543,-0.00001594,0.00001051,-0.00001368,0.00002722,-0.0000158
 5,0.00000088,0.00001905,-0.00000097,0.00001011,0.00000160,-0.00001858,
 -0.00004032,0.00003924,-0.00002044,-0.00029547,-0.00036934,-0.00009078
 ,-0.00008554,0.00119099,0.00015826,-0.00098189,-0.00229564,0.00377565,
 0.00662733,-0.00849509,-0.00235955,-0.12277414,0.22314564,-0.00008196,
 0.00026282,0.00037386,-0.00146305,-0.00024681,0.00065477,0.00023574,-0
 .00037626,-0.00028840,-0.00005538,0.00000891,-0.00000511,-0.00013045,-
 0.00002977,0.00003443,0.00006636,0.00005282,-0.00001665,0.00009588,0.0
 0003124,-0.00003639,0.00000134,-0.00000337,0.00000277,0.00000329,-0.00
 003213,0.00002632,0.00001582,0.00000195,-0.00002366,0.00002799,0.00000
 807,-0.00006413,-0.00003862,-0.00001289,0.00006101,-0.00001946,0.00003
 484,-0.00004434,-0.01254315,0.02169459,0.00402650,0.03486684,-0.050728
 69,-0.06682080,0.00407998,-0.00308905,-0.00086042,-0.00004873,0.000113
 80,0.00004441,0.00000734,0.00000574,-0.00000538,-0.00000139,-0.0000043
 8,0.00000395,0.00000168,0.00000595,-0.00000465,-0.00000539,-0.00000525
 ,0.00000016,0.00000439,0.00000352,-0.00000479,-0.00001446,0.00001990,0
 .00001477,-0.00010534,-0.00011965,0.00010095,-0.00050254,-0.00084096,0
 .00125052,0.00058097,0.00422838,-0.00280329,0.01735865,-0.02169490,-0.
 00567542,-0.04270936,0.04913069,0.06848324,0.00026489,-0.00030032,0.00
 093718,-0.00087837,0.00018799,-0.00086797,0.00014726,0.00012382,0.0001
 7087,-0.00001406,-0.00003202,-0.00003120,0.00000103,-0.00004894,-0.000
 00386,0.00001416,0.00003577,-0.00000217,-0.00000103,0.00002863,0.00000
 420,-0.00000310,-0.00000193,-0.00001318,0.00000369,0.00001301,-0.00000
 795,-0.00000818,0.00000346,0.00001212,0.00000274,0.00000753,0.00002059
 ,0.00001027,-0.00001510,-0.00000672,0.00001824,-0.00000590,0.00001746,
 0.00160976,0.00075857,-0.00093049,-0.01401142,-0.01382477,-0.03583663,
 -0.10484371,-0.04605155,-0.10580066,0.00000419,-0.00006926,0.00004591,
 0.00001267,0.00001023,-0.00000497,-0.00000599,-0.00000901,-0.00000044,
 0.00000517,0.00000200,0.00000484,0.00000452,0.00000383,0.00000411,-0.0
 0000229,0.00000114,-0.00000158,-0.00000941,-0.00000182,-0.00001118,0.0
 0002471,0.00000574,-0.00005721,0.00005166,-0.00051283,0.00114729,0.000
 01863,-0.00003159,0.00022273,-0.00673597,-0.00219062,0.00197503,0.0006
 9124,0.00070724,-0.00011516,0.11428869,0.00096946,0.00013274,0.0006630
 8,-0.00183185,-0.00012076,-0.00010157,0.00077279,0.00011292,-0.0004558
 3,-0.00019191,-0.00018213,0.00002539,-0.00015460,-0.00019876,0.0000794
 3,0.00014138,0.00021343,-0.00003968,0.00012269,0.00010128,-0.00005255,
 -0.00002813,0.00009190,-0.00002849,-0.00003924,-0.00001977,0.00006503,
 -0.00000673,0.00000894,0.00001605,0.00004396,-0.00009731,-0.00003369,-
 0.00002683,0.00008898,-0.00000653,0.00010561,-0.00004315,-0.00005166,0
 .00186894,0.00083490,-0.00225003,-0.00942991,-0.00816582,-0.00994982,-
 0.03010787,-0.06836613,-0.10576438,-0.00007189,0.00001882,0.00014604,0
 .00004599,0.00005485,-0.00003375,-0.00003472,-0.00003325,0.00000837,0.
 00004724,-0.00000208,-0.00000226,-0.00002634,-0.00003774,-0.00000337,-
 0.00000333,0.00000137,0.00000026,0.00001097,-0.00000616,0.00001054,-0.
 00014492,0.00013475,-0.00000749,-0.00039927,-0.00010020,0.00067831,-0.
 00010184,-0.00044324,0.00001624,-0.00136262,0.00094800,0.00112550,0.00
 071985,0.00047423,0.00071222,0.05057797,0.08795213,-0.00014602,-0.0000
 2905,-0.00008505,0.00059531,0.00028268,-0.00030019,-0.00020668,-0.0000
 4543,0.00018276,0.00009088,0.00007425,-0.00004765,0.00005854,0.0000948
 7,-0.00003308,-0.00005891,-0.00009775,0.00001969,-0.00004356,-0.000050
 92,0.00002636,0.00000885,-0.00003588,0.00001244,0.00001802,0.00001926,
 -0.00003186,0.00000103,-0.00000181,-0.00000546,-0.00002800,0.00003630,
 0.00002000,0.00002212,-0.00004900,-0.00000402,-0.00005222,0.00001229,0
 .00002572,0.00130603,0.00041948,0.00271030,0.00640058,0.00860117,0.001
 97198,-0.11637217,-0.15481520,-0.32418050,0.00004228,0.00002807,-0.000
 07516,-0.00001113,-0.00001437,0.00001055,0.00001507,0.00001774,-0.0000
 0676,-0.00002069,-0.00000167,0.00000155,0.00001148,0.00001452,-0.00000
 112,0.00000105,-0.00000100,0.00000149,-0.00000105,-0.00000081,-0.00000
 312,0.00007404,-0.00003733,-0.00000876,-0.00025217,-0.00072509,0.00002
 135,-0.00004586,-0.00004671,-0.00008155,0.00002133,0.00089544,0.001782
 20,-0.00062252,-0.00011950,0.00011755,0.11610748,0.14264020,0.33064954
 ,0.00033533,-0.00011775,0.00020634,-0.00031315,-0.00013643,-0.00064435
 ,0.00037233,0.00014721,-0.00010115,-0.00007049,-0.00001784,-0.00003460
 ,-0.00006821,-0.00004273,0.00003523,0.00005357,0.00006604,-0.00001517,
 0.00005941,0.00001692,-0.00004136,-0.00002130,0.00003345,-0.00000337,-
 0.00000669,0.00003154,-0.00000848,-0.00001189,0.00000639,0.00002022,-0
 .00001145,-0.00003727,0.00001629,0.00003221,-0.00001830,-0.00002910,-0
 .00001361,-0.00002993,-0.00001219,0.00188181,0.00081127,-0.00018042,-0
 .02448914,0.03113620,0.00978360,-0.18817680,0.15618881,0.06453623,-0.0
 0001659,0.00000844,0.00003125,0.00001933,0.00002196,-0.00001595,-0.000
 01166,-0.00000568,0.00000238,0.00001130,-0.00000608,0.00000186,-0.0000
 0624,-0.00001155,0.00000069,-0.00000298,-0.00000035,0.00000386,0.00001
 508,-0.00001196,0.00000676,0.00003225,0.00011047,0.00000951,0.00001813
 ,-0.00013426,0.00001946,0.00019200,-0.00119916,0.00077165,0.00096089,0
 .00015222,-0.00059603,-0.00652777,-0.00378314,0.00048819,0.00934000,-0
 .01146487,-0.00691312,0.20642433,0.00030420,0.00003282,0.00015988,-0.0
 0071362,-0.00046405,0.00000113,0.00028032,0.00009740,-0.00017230,-0.00
 012675,-0.00004319,0.00002190,-0.00008025,-0.00010767,0.00003591,0.000
 07802,0.00011893,-0.00002192,0.00006597,0.00005507,-0.00003758,-0.0000
 1233,0.00002501,-0.00000993,-0.00001529,-0.00000915,0.00002583,-0.0000
 0455,0.00000306,0.00000878,0.00003039,-0.00002604,-0.00001406,-0.00001
 563,0.00003093,0.00000957,0.00006269,-0.00001128,-0.00001580,-0.001479
 85,0.00219073,-0.00007746,-0.01429117,0.00682456,0.00952391,0.17780391
 ,-0.25204630,-0.11862504,-0.00001411,-0.00000426,0.00005257,0.00001613
 ,0.00001614,-0.00001372,-0.00001742,-0.00002081,0.00000646,0.00001848,
 0.00000319,-0.00000518,-0.00001415,-0.00001404,-0.00000027,-0.00000137
 ,0.00000214,-0.00000309,-0.00000763,-0.00000068,-0.00000457,-0.0000711
 8,0.00002699,-0.00001936,0.00008932,-0.00006747,-0.00004285,0.00045005
 ,-0.00021462,-0.00035153,0.00070145,0.00043174,-0.00006753,-0.00195077
 ,0.00098793,0.00086866,0.01062874,-0.01335274,0.00293523,-0.17171361,0
 .25553569,-0.00056498,-0.00024416,-0.00053363,0.00105276,0.00065369,0.
 00057737,-0.00066021,-0.00022446,0.00021242,0.00019991,0.00011489,0.00
 000617,0.00010372,0.00021480,-0.00003944,-0.00012246,-0.00020592,0.000
 02506,-0.00009043,-0.00011717,0.00002110,0.00002238,-0.00005279,0.0000
 2790,0.00002761,0.00002309,-0.00005452,0.00000390,-0.00000568,-0.00001
 178,-0.00005157,0.00005121,0.00002443,0.00003225,-0.00006810,-0.000012
 01,-0.00012043,0.00001437,0.00001979,-0.00072283,-0.00197286,-0.000176
 27,0.00717672,-0.00023687,-0.00317214,0.03955219,-0.07806297,-0.057096
 15,0.00004227,0.00000296,-0.00010080,-0.00004095,-0.00004690,0.0000286
 1,0.00003211,0.00003750,-0.00000358,-0.00003756,-0.00000415,0.00000590
 ,0.00002310,0.00002696,0.00000150,0.00000326,-0.00000224,0.00000489,0.
 00001064,0.00000162,0.00000669,0.00015413,-0.00004018,0.00005442,0.000
 15071,-0.00000934,-0.00017180,0.00018581,0.00067406,-0.00000216,-0.000
 87596,0.00049459,0.00026282,-0.00116943,0.00055725,0.00145824,0.023021
 56,-0.02740557,-0.01268921,-0.06733823,0.10583237,0.07132617\\0.000003
 19,-0.00000036,-0.00000124,-0.00000047,0.00000334,0.00000357,-0.000002
 03,-0.00000388,-0.00000192,-0.00000030,0.00000673,0.00000470,0.0000041
 5,0.00000140,-0.00000309,-0.00000329,0.00000129,-0.00000046,-0.0000008
 8,-0.00000243,0.00000067,-0.00000592,-0.00000604,-0.00000096,0.0000011
 3,0.00000103,-0.00000052,0.00000004,0.00000085,-0.00000114,0.00000019,
 0.00000005,-0.00000053,0.00000005,-0.00000014,-0.00000051,0.00000147,-
 0.00000042,-0.00000057,-0.00000227,0.00000183,-0.00000072,0.00000169,0
 .00000073,0.00000031,0.00000045,-0.00000083,0.00000036,-0.00000034,-0.
 00000017,-0.00000029,-0.00000059,-0.00000057,-0.00000006,-0.00000216,0
 .00000202,0.00000054,0.00000179,-0.00000275,0.00000015,-0.00000103,0.0
 0000043,0.00000013,-0.00000053,0.00000053,-0.00000081,0.00000052,0.000
 00026,-0.00000061,0.00000198,0.00000009,-0.00000010,0.00000096,-0.0000
 0027,-0.00000001,0.00000018,-0.00000097,0.00000136,-0.00000112,-0.0000
 0010,0.00000053,0.00000192,-0.00000055,-0.00000029,0.00000057,-0.00000
 057,0.00000089,0.00000064,-0.00000054,0.00000062\\\@


      LET US REMEMBER, PLEASE, THAT THE SEARCH FOR THE CONSTITUTION
      OF THE WORLD IS ONE OF THE GREATEST AND NOBLEST PROBLEMS PRESENTED 
      BY NATURE.

                                                  -- GALILEO
 Job cpu time:       0 days  1 hours 20 minutes  9.9 seconds.
 File lengths (MBytes):  RWF=    320 Int=      0 D2E=      0 Chk=      9 Scr=      1
 Normal termination of Gaussian 09 at Wed Jul 28 22:49:51 2021.
