 Entering Gaussian System, Link 0=g09
 Input=opt_freq-conf-422.com
 Output=opt_freq-conf-422.log
 Initial command:
 /aerosol/software/g09/l1.exe "/scratch/nicole/10602/Gau-84458.inp" -scrdir="/scratch/nicole/10602/"
 Entering Link 1 = /aerosol/software/g09/l1.exe PID=     84462.
  
 Copyright (c) 1988,1990,1992,1993,1995,1998,2003,2009,2013,
            Gaussian, Inc.  All Rights Reserved.
  
 This is part of the Gaussian(R) 09 program.  It is based on
 the Gaussian(R) 03 system (copyright 2003, Gaussian, Inc.),
 the Gaussian(R) 98 system (copyright 1998, Gaussian, Inc.),
 the Gaussian(R) 94 system (copyright 1995, Gaussian, Inc.),
 the Gaussian 92(TM) system (copyright 1992, Gaussian, Inc.),
 the Gaussian 90(TM) system (copyright 1990, Gaussian, Inc.),
 the Gaussian 88(TM) system (copyright 1988, Gaussian, Inc.),
 the Gaussian 86(TM) system (copyright 1986, Carnegie Mellon
 University), and the Gaussian 82(TM) system (copyright 1983,
 Carnegie Mellon University). Gaussian is a federally registered
 trademark of Gaussian, Inc.
  
 This software contains proprietary and confidential information,
 including trade secrets, belonging to Gaussian, Inc.
  
 This software is provided under written license and may be
 used, copied, transmitted, or stored only in accord with that
 written license.
  
 The following legend is applicable only to US Government
 contracts under FAR:
  
                    RESTRICTED RIGHTS LEGEND
  
 Use, reproduction and disclosure by the US Government is
 subject to restrictions as set forth in subparagraphs (a)
 and (c) of the Commercial Computer Software - Restricted
 Rights clause in FAR 52.227-19.
  
 Gaussian, Inc.
 340 Quinnipiac St., Bldg. 40, Wallingford CT 06492
  
  
 ---------------------------------------------------------------
 Warning -- This program may not be used in any manner that
 competes with the business of Gaussian, Inc. or will provide
 assistance to any competitor of Gaussian, Inc.  The licensee
 of this program is prohibited from giving any competitor of
 Gaussian, Inc. access to this program.  By using this program,
 the user acknowledges that Gaussian, Inc. is engaged in the
 business of creating and licensing software in the field of
 computational chemistry and represents and warrants to the
 licensee that it is not a competitor of Gaussian, Inc. and that
 it will not use this program in any manner prohibited above.
 ---------------------------------------------------------------
  

 Cite this work as:
 Gaussian 09, Revision D.01,
 M. J. Frisch, G. W. Trucks, H. B. Schlegel, G. E. Scuseria, 
 M. A. Robb, J. R. Cheeseman, G. Scalmani, V. Barone, B. Mennucci, 
 G. A. Petersson, H. Nakatsuji, M. Caricato, X. Li, H. P. Hratchian, 
 A. F. Izmaylov, J. Bloino, G. Zheng, J. L. Sonnenberg, M. Hada, 
 M. Ehara, K. Toyota, R. Fukuda, J. Hasegawa, M. Ishida, T. Nakajima, 
 Y. Honda, O. Kitao, H. Nakai, T. Vreven, J. A. Montgomery, Jr., 
 J. E. Peralta, F. Ogliaro, M. Bearpark, J. J. Heyd, E. Brothers, 
 K. N. Kudin, V. N. Staroverov, T. Keith, R. Kobayashi, J. Normand, 
 K. Raghavachari, A. Rendell, J. C. Burant, S. S. Iyengar, J. Tomasi, 
 M. Cossi, N. Rega, J. M. Millam, M. Klene, J. E. Knox, J. B. Cross, 
 V. Bakken, C. Adamo, J. Jaramillo, R. Gomperts, R. E. Stratmann, 
 O. Yazyev, A. J. Austin, R. Cammi, C. Pomelli, J. W. Ochterski, 
 R. L. Martin, K. Morokuma, V. G. Zakrzewski, G. A. Voth, 
 P. Salvador, J. J. Dannenberg, S. Dapprich, A. D. Daniels, 
 O. Farkas, J. B. Foresman, J. V. Ortiz, J. Cioslowski, 
 and D. J. Fox, Gaussian, Inc., Wallingford CT, 2013.
 
 ******************************************
 Gaussian 09:  ES64L-G09RevD.01 24-Apr-2013
                28-Jul-2021 
 ******************************************
 %mem=2gb
 %nproc=4
 Will use up to    4 processors via shared memory.
 %chk=conf-422.chk
 ----------------------------------------------------------------------
 # B3LYP/6-31G(d,p) opt=calcfc freq=noraman nosymm integral(ultrafinegr
 id)
 ----------------------------------------------------------------------
 1/10=4,14=-1,18=20,19=15,26=4,38=1/1,3;
 2/9=110,12=2,15=1,17=6,18=5,40=1/2;
 3/5=1,6=6,7=101,11=2,16=1,25=1,30=1,71=2,74=-5,75=-5,140=1/1,2,3;
 4//1;
 5/5=2,38=5/2;
 8/6=4,10=90,11=11/1;
 11/6=1,8=1,9=11,15=111,16=1,31=1/1,2,10;
 10/6=1,13=1,31=1/2;
 6/7=2,8=2,9=2,10=2,28=1/1;
 7/10=1,18=20,25=1,30=1/1,2,3,16;
 1/10=4,14=-1,18=20,19=15,26=4/3(2);
 2/9=110,15=1/2;
 99//99;
 2/9=110,15=1/2;
 3/5=1,6=6,7=101,11=2,16=1,25=1,30=1,71=1,74=-5,75=-5/1,2,3;
 4/5=5,16=3,69=1/1;
 5/5=2,38=5/2;
 7/30=1/1,2,3,16;
 1/14=-1,18=20,19=15,26=4/3(-5);
 2/9=110,15=1/2;
 6/7=2,8=2,9=2,10=2,19=2,28=1/1;
 99/9=1/99;
 ------------------------------------------------------------
 Candidate Structure: Conf:422 OPT and FREQ calc in gas phase
 ------------------------------------------------------------
 Symbolic Z-matrix:
 Charge =  0 Multiplicity = 1
 O                     0.78587   0.73522   1.52987 
 C                     1.13924   0.16266   0.50415 
 N                     0.30312  -0.6476   -0.20788 
 C                    -0.93596  -1.13451   0.35649 
 C                    -0.81707  -2.6235    0.61379 
 O                    -1.7968   -3.06349   1.42956 
 O                     0.01444  -3.34827   0.13314 
 C                    -2.14447  -0.88748  -0.55894 
 C                    -2.4521    0.57028  -0.73406 
 C                    -1.92298   1.70746  -0.19576 
 N                    -2.57575   2.83084  -0.66942 
 C                    -3.49191   2.37231  -1.48728 
 N                    -3.46244   1.01624  -1.56355 
 C                     2.50615   0.36515  -0.11942 
 C                     3.56376   0.75402   0.90212 
 N                     4.8435    0.9524    0.2166 
 H                     0.71291  -1.23242  -0.92015 
 H                    -1.09373  -0.61786   1.30258 
 H                    -1.66124  -4.01486   1.51849 
 H                    -3.01463  -1.38629  -0.12674 
 H                    -1.97303  -1.34889  -1.5332 
 H                    -1.09974   1.7603    0.50126 
 H                    -4.19675   2.96499  -2.04443 
 H                    -4.06566   0.4341   -2.11923 
 H                     2.80637  -0.54103  -0.65153 
 H                     2.42751   1.16022  -0.8652 
 H                     3.59987  -0.00614   1.69242 
 H                     3.26508   1.69306   1.37245 
 H                     5.20434   0.0605   -0.10256 
 H                     5.53209   1.31249   0.86643 
 

 GradGradGradGradGradGradGradGradGradGradGradGradGradGradGradGradGradGrad
 Berny optimization.
 Initialization pass.
                           ----------------------------
                           !    Initial Parameters    !
                           ! (Angstroms and Degrees)  !
 --------------------------                            --------------------------
 ! Name  Definition              Value          Derivative Info.                !
 --------------------------------------------------------------------------------
 ! R1    R(1,2)                  1.2267         calculate D2E/DX2 analytically  !
 ! R2    R(2,3)                  1.3648         calculate D2E/DX2 analytically  !
 ! R3    R(2,14)                 1.516          calculate D2E/DX2 analytically  !
 ! R4    R(3,4)                  1.446          calculate D2E/DX2 analytically  !
 ! R5    R(3,17)                 1.0086         calculate D2E/DX2 analytically  !
 ! R6    R(4,5)                  1.5157         calculate D2E/DX2 analytically  !
 ! R7    R(4,8)                  1.5361         calculate D2E/DX2 analytically  !
 ! R8    R(4,18)                 1.0894         calculate D2E/DX2 analytically  !
 ! R9    R(5,6)                  1.3487         calculate D2E/DX2 analytically  !
 ! R10   R(5,7)                  1.2032         calculate D2E/DX2 analytically  !
 ! R11   R(6,19)                 0.9651         calculate D2E/DX2 analytically  !
 ! R12   R(8,9)                  1.5001         calculate D2E/DX2 analytically  !
 ! R13   R(8,20)                 1.0921         calculate D2E/DX2 analytically  !
 ! R14   R(8,21)                 1.0915         calculate D2E/DX2 analytically  !
 ! R15   R(9,10)                 1.3649         calculate D2E/DX2 analytically  !
 ! R16   R(9,13)                 1.3812         calculate D2E/DX2 analytically  !
 ! R17   R(10,11)                1.3829         calculate D2E/DX2 analytically  !
 ! R18   R(10,22)                1.08           calculate D2E/DX2 analytically  !
 ! R19   R(11,12)                1.3109         calculate D2E/DX2 analytically  !
 ! R20   R(12,13)                1.3585         calculate D2E/DX2 analytically  !
 ! R21   R(12,23)                1.0763         calculate D2E/DX2 analytically  !
 ! R22   R(13,24)                1.0058         calculate D2E/DX2 analytically  !
 ! R23   R(14,15)                1.521          calculate D2E/DX2 analytically  !
 ! R24   R(14,25)                1.0929         calculate D2E/DX2 analytically  !
 ! R25   R(14,26)                1.0929         calculate D2E/DX2 analytically  !
 ! R26   R(15,16)                1.4653         calculate D2E/DX2 analytically  !
 ! R27   R(15,27)                1.0971         calculate D2E/DX2 analytically  !
 ! R28   R(15,28)                1.0919         calculate D2E/DX2 analytically  !
 ! R29   R(16,29)                1.0137         calculate D2E/DX2 analytically  !
 ! R30   R(16,30)                1.013          calculate D2E/DX2 analytically  !
 ! A1    A(1,2,3)              122.4707         calculate D2E/DX2 analytically  !
 ! A2    A(1,2,14)             122.7738         calculate D2E/DX2 analytically  !
 ! A3    A(3,2,14)             114.6511         calculate D2E/DX2 analytically  !
 ! A4    A(2,3,4)              121.4169         calculate D2E/DX2 analytically  !
 ! A5    A(2,3,17)             117.6301         calculate D2E/DX2 analytically  !
 ! A6    A(4,3,17)             115.3752         calculate D2E/DX2 analytically  !
 ! A7    A(3,4,5)              109.2586         calculate D2E/DX2 analytically  !
 ! A8    A(3,4,8)              112.7937         calculate D2E/DX2 analytically  !
 ! A9    A(3,4,18)             107.659          calculate D2E/DX2 analytically  !
 ! A10   A(5,4,8)              108.7149         calculate D2E/DX2 analytically  !
 ! A11   A(5,4,18)             109.2572         calculate D2E/DX2 analytically  !
 ! A12   A(8,4,18)             109.1064         calculate D2E/DX2 analytically  !
 ! A13   A(4,5,6)              111.4804         calculate D2E/DX2 analytically  !
 ! A14   A(4,5,7)              125.3192         calculate D2E/DX2 analytically  !
 ! A15   A(6,5,7)              123.1704         calculate D2E/DX2 analytically  !
 ! A16   A(5,6,19)             105.9801         calculate D2E/DX2 analytically  !
 ! A17   A(4,8,9)              112.7792         calculate D2E/DX2 analytically  !
 ! A18   A(4,8,20)             108.5143         calculate D2E/DX2 analytically  !
 ! A19   A(4,8,21)             109.8992         calculate D2E/DX2 analytically  !
 ! A20   A(9,8,20)             109.065          calculate D2E/DX2 analytically  !
 ! A21   A(9,8,21)             109.8033         calculate D2E/DX2 analytically  !
 ! A22   A(20,8,21)            106.5766         calculate D2E/DX2 analytically  !
 ! A23   A(8,9,10)             133.1654         calculate D2E/DX2 analytically  !
 ! A24   A(8,9,13)             122.2672         calculate D2E/DX2 analytically  !
 ! A25   A(10,9,13)            104.5614         calculate D2E/DX2 analytically  !
 ! A26   A(9,10,11)            111.0225         calculate D2E/DX2 analytically  !
 ! A27   A(9,10,22)            126.2145         calculate D2E/DX2 analytically  !
 ! A28   A(11,10,22)           122.7606         calculate D2E/DX2 analytically  !
 ! A29   A(10,11,12)           105.0368         calculate D2E/DX2 analytically  !
 ! A30   A(11,12,13)           111.6547         calculate D2E/DX2 analytically  !
 ! A31   A(11,12,23)           126.0151         calculate D2E/DX2 analytically  !
 ! A32   A(13,12,23)           122.3301         calculate D2E/DX2 analytically  !
 ! A33   A(9,13,12)            107.7245         calculate D2E/DX2 analytically  !
 ! A34   A(9,13,24)            125.7077         calculate D2E/DX2 analytically  !
 ! A35   A(12,13,24)           126.5676         calculate D2E/DX2 analytically  !
 ! A36   A(2,14,15)            112.635          calculate D2E/DX2 analytically  !
 ! A37   A(2,14,25)            109.7065         calculate D2E/DX2 analytically  !
 ! A38   A(2,14,26)            108.2383         calculate D2E/DX2 analytically  !
 ! A39   A(15,14,25)           110.3638         calculate D2E/DX2 analytically  !
 ! A40   A(15,14,26)           108.8048         calculate D2E/DX2 analytically  !
 ! A41   A(25,14,26)           106.9003         calculate D2E/DX2 analytically  !
 ! A42   A(14,15,16)           109.1295         calculate D2E/DX2 analytically  !
 ! A43   A(14,15,27)           109.2413         calculate D2E/DX2 analytically  !
 ! A44   A(14,15,28)           108.6012         calculate D2E/DX2 analytically  !
 ! A45   A(16,15,27)           113.7074         calculate D2E/DX2 analytically  !
 ! A46   A(16,15,28)           108.9045         calculate D2E/DX2 analytically  !
 ! A47   A(27,15,28)           107.1327         calculate D2E/DX2 analytically  !
 ! A48   A(15,16,29)           109.8205         calculate D2E/DX2 analytically  !
 ! A49   A(15,16,30)           109.9805         calculate D2E/DX2 analytically  !
 ! A50   A(29,16,30)           105.8294         calculate D2E/DX2 analytically  !
 ! D1    D(1,2,3,4)            -14.8681         calculate D2E/DX2 analytically  !
 ! D2    D(1,2,3,17)          -167.3086         calculate D2E/DX2 analytically  !
 ! D3    D(14,2,3,4)           168.753          calculate D2E/DX2 analytically  !
 ! D4    D(14,2,3,17)           16.3125         calculate D2E/DX2 analytically  !
 ! D5    D(1,2,14,15)           27.4052         calculate D2E/DX2 analytically  !
 ! D6    D(1,2,14,25)          150.7604         calculate D2E/DX2 analytically  !
 ! D7    D(1,2,14,26)          -92.9343         calculate D2E/DX2 analytically  !
 ! D8    D(3,2,14,15)         -156.2282         calculate D2E/DX2 analytically  !
 ! D9    D(3,2,14,25)          -32.8731         calculate D2E/DX2 analytically  !
 ! D10   D(3,2,14,26)           83.4323         calculate D2E/DX2 analytically  !
 ! D11   D(2,3,4,5)           -109.934          calculate D2E/DX2 analytically  !
 ! D12   D(2,3,4,8)            129.0356         calculate D2E/DX2 analytically  !
 ! D13   D(2,3,4,18)             8.6119         calculate D2E/DX2 analytically  !
 ! D14   D(17,3,4,5)            43.0861         calculate D2E/DX2 analytically  !
 ! D15   D(17,3,4,8)           -77.9442         calculate D2E/DX2 analytically  !
 ! D16   D(17,3,4,18)          161.6321         calculate D2E/DX2 analytically  !
 ! D17   D(3,4,5,6)            164.7753         calculate D2E/DX2 analytically  !
 ! D18   D(3,4,5,7)            -17.1721         calculate D2E/DX2 analytically  !
 ! D19   D(8,4,5,6)            -71.7445         calculate D2E/DX2 analytically  !
 ! D20   D(8,4,5,7)            106.3081         calculate D2E/DX2 analytically  !
 ! D21   D(18,4,5,6)            47.2307         calculate D2E/DX2 analytically  !
 ! D22   D(18,4,5,7)          -134.7167         calculate D2E/DX2 analytically  !
 ! D23   D(3,4,8,9)            -65.9015         calculate D2E/DX2 analytically  !
 ! D24   D(3,4,8,20)           173.1523         calculate D2E/DX2 analytically  !
 ! D25   D(3,4,8,21)            56.9725         calculate D2E/DX2 analytically  !
 ! D26   D(5,4,8,9)            172.7591         calculate D2E/DX2 analytically  !
 ! D27   D(5,4,8,20)            51.8129         calculate D2E/DX2 analytically  !
 ! D28   D(5,4,8,21)           -64.3669         calculate D2E/DX2 analytically  !
 ! D29   D(18,4,8,9)            53.6893         calculate D2E/DX2 analytically  !
 ! D30   D(18,4,8,20)          -67.2569         calculate D2E/DX2 analytically  !
 ! D31   D(18,4,8,21)          176.5633         calculate D2E/DX2 analytically  !
 ! D32   D(4,5,6,19)           178.4285         calculate D2E/DX2 analytically  !
 ! D33   D(7,5,6,19)             0.3268         calculate D2E/DX2 analytically  !
 ! D34   D(4,8,9,10)            -3.9207         calculate D2E/DX2 analytically  !
 ! D35   D(4,8,9,13)           177.1137         calculate D2E/DX2 analytically  !
 ! D36   D(20,8,9,10)          116.711          calculate D2E/DX2 analytically  !
 ! D37   D(20,8,9,13)          -62.2546         calculate D2E/DX2 analytically  !
 ! D38   D(21,8,9,10)         -126.8482         calculate D2E/DX2 analytically  !
 ! D39   D(21,8,9,13)           54.1862         calculate D2E/DX2 analytically  !
 ! D40   D(8,9,10,11)         -179.1307         calculate D2E/DX2 analytically  !
 ! D41   D(8,9,10,22)            1.423          calculate D2E/DX2 analytically  !
 ! D42   D(13,9,10,11)          -0.0344         calculate D2E/DX2 analytically  !
 ! D43   D(13,9,10,22)        -179.4807         calculate D2E/DX2 analytically  !
 ! D44   D(8,9,13,12)          179.2645         calculate D2E/DX2 analytically  !
 ! D45   D(8,9,13,24)           -0.5735         calculate D2E/DX2 analytically  !
 ! D46   D(10,9,13,12)           0.044          calculate D2E/DX2 analytically  !
 ! D47   D(10,9,13,24)        -179.794          calculate D2E/DX2 analytically  !
 ! D48   D(9,10,11,12)           0.0111         calculate D2E/DX2 analytically  !
 ! D49   D(22,10,11,12)        179.4798         calculate D2E/DX2 analytically  !
 ! D50   D(10,11,12,13)          0.0182         calculate D2E/DX2 analytically  !
 ! D51   D(10,11,12,23)        179.9527         calculate D2E/DX2 analytically  !
 ! D52   D(11,12,13,9)          -0.0403         calculate D2E/DX2 analytically  !
 ! D53   D(11,12,13,24)        179.7959         calculate D2E/DX2 analytically  !
 ! D54   D(23,12,13,9)        -179.9776         calculate D2E/DX2 analytically  !
 ! D55   D(23,12,13,24)         -0.1414         calculate D2E/DX2 analytically  !
 ! D56   D(2,14,15,16)        -179.0201         calculate D2E/DX2 analytically  !
 ! D57   D(2,14,15,27)          56.1032         calculate D2E/DX2 analytically  !
 ! D58   D(2,14,15,28)         -60.4282         calculate D2E/DX2 analytically  !
 ! D59   D(25,14,15,16)         57.9915         calculate D2E/DX2 analytically  !
 ! D60   D(25,14,15,27)        -66.8853         calculate D2E/DX2 analytically  !
 ! D61   D(25,14,15,28)        176.5834         calculate D2E/DX2 analytically  !
 ! D62   D(26,14,15,16)        -59.007          calculate D2E/DX2 analytically  !
 ! D63   D(26,14,15,27)        176.1163         calculate D2E/DX2 analytically  !
 ! D64   D(26,14,15,28)         59.5849         calculate D2E/DX2 analytically  !
 ! D65   D(14,15,16,29)        -70.2728         calculate D2E/DX2 analytically  !
 ! D66   D(14,15,16,30)        173.651          calculate D2E/DX2 analytically  !
 ! D67   D(27,15,16,29)         51.9538         calculate D2E/DX2 analytically  !
 ! D68   D(27,15,16,30)        -64.1224         calculate D2E/DX2 analytically  !
 ! D69   D(28,15,16,29)        171.325          calculate D2E/DX2 analytically  !
 ! D70   D(28,15,16,30)         55.2488         calculate D2E/DX2 analytically  !
 --------------------------------------------------------------------------------
 Trust Radius=3.00D-01 FncErr=1.00D-07 GrdErr=1.00D-06
 Number of steps in this run=    160 maximum allowed number of steps=    180.
 GradGradGradGradGradGradGradGradGradGradGradGradGradGradGradGradGradGrad

                          Input orientation:                          
 ---------------------------------------------------------------------
 Center     Atomic      Atomic             Coordinates (Angstroms)
 Number     Number       Type             X           Y           Z
 ---------------------------------------------------------------------
      1          8           0        0.785871    0.735223    1.529867
      2          6           0        1.139240    0.162661    0.504155
      3          7           0        0.303118   -0.647601   -0.207881
      4          6           0       -0.935956   -1.134511    0.356493
      5          6           0       -0.817066   -2.623497    0.613794
      6          8           0       -1.796797   -3.063489    1.429557
      7          8           0        0.014438   -3.348268    0.133141
      8          6           0       -2.144474   -0.887478   -0.558942
      9          6           0       -2.452097    0.570279   -0.734056
     10          6           0       -1.922975    1.707460   -0.195764
     11          7           0       -2.575751    2.830835   -0.669422
     12          6           0       -3.491909    2.372307   -1.487278
     13          7           0       -3.462438    1.016238   -1.563554
     14          6           0        2.506147    0.365153   -0.119418
     15          6           0        3.563763    0.754017    0.902119
     16          7           0        4.843498    0.952401    0.216596
     17          1           0        0.712914   -1.232417   -0.920148
     18          1           0       -1.093734   -0.617860    1.302577
     19          1           0       -1.661238   -4.014865    1.518489
     20          1           0       -3.014626   -1.386288   -0.126735
     21          1           0       -1.973031   -1.348886   -1.533202
     22          1           0       -1.099736    1.760297    0.501259
     23          1           0       -4.196751    2.964992   -2.044427
     24          1           0       -4.065659    0.434098   -2.119228
     25          1           0        2.806372   -0.541031   -0.651533
     26          1           0        2.427514    1.160219   -0.865199
     27          1           0        3.599871   -0.006139    1.692423
     28          1           0        3.265084    1.693065    1.372450
     29          1           0        5.204337    0.060503   -0.102565
     30          1           0        5.532093    1.312491    0.866431
 ---------------------------------------------------------------------
                    Distance matrix (angstroms):
                    1          2          3          4          5
     1  O    0.000000
     2  C    1.226696   0.000000
     3  N    2.272667   1.364778   0.000000
     4  C    2.799535   2.451713   1.445995   0.000000
     5  C    3.832700   3.406146   2.415394   1.515724   0.000000
     6  O    4.594611   4.459230   3.595464   2.369277   1.348679
     7  O    4.384158   3.705327   2.737377   2.419474   1.203212
     8  C    3.947557   3.607734   2.484248   1.536086   2.480138
     9  C    3.954364   3.820605   3.057990   2.528693   3.832784
    10  C    3.355726   3.500493   3.240671   3.058757   4.542643
    11  N    4.530890   4.722033   4.538768   4.411961   5.872764
    12  C    5.484762   5.504170   5.015868   4.714887   6.043786
    13  N    5.262733   5.116587   4.334238   3.833460   4.998651
    14  C    2.411730   1.516008   2.426280   3.784648   4.529169
    15  C    2.848000   2.527131   3.718661   4.910368   5.539169
    16  N    4.270384   3.798408   4.832725   6.146288   6.707219
    17  H    3.143167   2.038782   1.008597   2.087623   2.574669
    18  H    2.327103   2.496571   2.057562   1.089449   2.138585
    19  H    5.343389   5.130621   4.263510   3.189468   1.861989
    20  H    4.657136   4.477931   3.399951   2.148900   2.628372
    21  H    4.619246   4.015199   2.725643   2.166201   2.751450
    22  H    2.379984   2.750539   2.875560   2.903049   4.394339
    23  H    6.524873   6.543786   6.055786   5.762215   7.051214
    24  H    6.078150   5.834962   4.889737   4.287746   5.231792
    25  H    3.235700   2.147120   2.544497   3.920887   4.366580
    26  H    2.934613   2.128356   2.865892   4.251029   5.199156
    27  H    2.914556   2.737732   3.858913   4.861240   5.246268
    28  H    2.662468   2.759580   4.092604   5.164890   5.989341
    29  H    4.758458   4.111393   4.953227   6.272319   6.631313
    30  H    4.827008   4.555273   5.686677   6.934228   7.474466
                    6          7          8          9         10
     6  O    0.000000
     7  O    2.245521   0.000000
     8  C    2.968170   3.345947   0.000000
     9  C    4.279593   4.710715   1.500118   0.000000
    10  C    5.041780   5.424217   2.629575   1.364884   0.000000
    11  N    6.305200   6.747925   3.744872   2.264858   1.382910
    12  C    6.397595   6.902551   3.647409   2.212658   2.138126
    13  N    5.327030   5.832354   2.523967   1.381208   2.172230
    14  C    5.715789   4.479050   4.836377   5.000405   4.628687
    15  C    6.602057   5.478848   6.116631   6.237099   5.676152
    16  N    7.854436   6.467034   7.267624   7.367188   6.820946
    17  H    3.895201   2.464571   2.900710   3.647141   4.014414
    18  H    2.547847   3.170292   2.154531   2.721158   2.887868
    19  H    0.965091   2.274078   3.785470   5.169426   5.979312
    20  H    2.591941   3.618305   1.092144   2.124484   3.281424
    21  H    3.427661   3.274791   1.091546   2.133386   3.336540
    22  H    4.961506   5.241595   3.037469   2.184268   1.079979
    23  H    7.360091   7.895135   4.610861   3.239682   3.188887
    24  H    5.474918   6.002220   2.805709   2.130922   3.148374
    25  H    5.646494   4.036234   4.963817   5.375251   5.256440
    26  H    6.399252   5.210189   5.018957   4.916892   4.435580
    27  H    6.208101   5.143589   6.232407   6.545714   6.083050
    28  H    6.946273   6.125163   6.297047   6.195496   5.419913
    29  H    7.818095   6.213721   7.423744   7.699327   7.315718
    30  H    8.554469   7.259814   8.111796   8.176780   7.540710
                   11         12         13         14         15
    11  N    0.000000
    12  C    1.310909   0.000000
    13  N    2.208721   1.358532   0.000000
    14  C    5.675190   6.471197   6.175229   0.000000
    15  C    6.669074   7.623031   7.450893   1.520955   0.000000
    16  N    7.704465   8.625447   8.494797   2.433305   1.465270
    17  H    5.233373   5.567424   4.785811   2.531617   3.923508
    18  H    4.240125   4.740848   4.061496   3.993436   4.871826
    19  H    7.244784   7.292596   6.168898   6.263737   7.100900
    20  H    4.274488   4.025657   2.834980   5.791937   6.993901
    21  H    4.310390   4.019500   2.795187   4.999975   6.403833
    22  H    2.166833   3.170383   3.224816   3.915873   4.787642
    23  H    2.129854   1.076333   2.137311   7.442692   8.590467
    24  H    3.172714   2.117830   1.005751   6.869689   8.212123
    25  H    6.351145   6.989589   6.523408   1.092909   2.159774
    26  H    5.278441   6.074184   5.932956   1.092933   2.139971
    27  H    7.194792   8.127783   7.843650   2.148687   1.097142
    28  H    6.291193   7.368607   7.371416   2.136588   1.091894
    29  H    8.278033   9.104206   8.840866   2.715386   2.044953
    30  H    8.390551   9.385935   9.321706   3.320497   2.046336
                   16         17         18         19         20
    16  N    0.000000
    17  H    4.809089   0.000000
    18  H    6.236649   2.929533   0.000000
    19  H    8.287354   4.396085   3.450843   0.000000
    20  H    8.205940   3.814149   2.514606   3.383465   0.000000
    21  H    7.404240   2.757480   3.057647   4.064169   1.750562
    22  H    6.004644   3.776563   2.509537   5.890886   3.736600
    23  H    9.533564   6.556451   5.802412   8.236601   4.899857
    24  H    9.224846   5.200944   4.652709   6.229566   2.896291
    25  H    2.670930   2.220976   4.362944   6.061028   5.905412
    26  H    2.655268   2.944075   4.501111   7.012942   6.053669
    27  H    2.154871   4.082132   4.749327   6.616601   6.997551
    28  H    2.091883   4.508660   4.934019   7.541249   7.152952
    29  H    1.013682   4.744783   6.488474   8.146936   8.345367
    30  H    1.012973   5.735234   6.915061   8.974961   9.017550
                   21         22         23         24         25
    21  H    0.000000
    22  H    3.816896   0.000000
    23  H    4.880147   4.186085   0.000000
    24  H    2.810970   4.174021   2.535391   0.000000
    25  H    4.926729   4.677897   7.954626   7.094350   0.000000
    26  H    5.109465   3.829985   6.966252   6.652904   1.755972
    27  H    6.577603   5.159988   9.142154   8.572213   2.531774
    28  H    6.718193   4.451420   8.304928   8.216848   3.049280
    29  H    7.453034   6.557075  10.029324   9.494173   2.532478
    30  H    8.316733   6.656954  10.288550  10.089726   3.628955
                   26         27         28         29         30
    26  H    0.000000
    27  H    3.045692   0.000000
    28  H    2.447963   1.761181   0.000000
    29  H    3.082488   2.408471   2.932854   0.000000
    30  H    3.558110   2.480832   2.353768   1.616741   0.000000
 Symmetry turned off by external request.
 Stoichiometry    C9H14N4O3
 Framework group  C1[X(C9H14N4O3)]
 Deg. of freedom    84
 Full point group                 C1      NOp   1
 Rotational constants (GHZ):      0.5777314      0.3337382      0.2304002
 Standard basis: 6-31G(d,p) (6D, 7F)
   310 basis functions,   546 primitive gaussians,   310 cartesian basis functions
    60 alpha electrons       60 beta electrons
       nuclear repulsion energy      1109.2545423011 Hartrees.
 NAtoms=   30 NActive=   30 NUniq=   30 SFac= 1.00D+00 NAtFMM=   60 NAOKFM=F Big=F
 Integral buffers will be    131072 words long.
 Raffenetti 2 integral format.
 Two-electron integral symmetry is turned off.
 One-electron integrals computed using PRISM.
 NBasis=   310 RedAO= T EigKep=  1.12D-03  NBF=   310
 NBsUse=   310 1.00D-06 EigRej= -1.00D+00 NBFU=   310
 ExpMin= 1.61D-01 ExpMax= 5.48D+03 ExpMxC= 8.25D+02 IAcc=3 IRadAn=         5 AccDes= 0.00D+00
 Harris functional with IExCor=  402 and IRadAn=       5 diagonalized for initial guess.
 HarFok:  IExCor=  402 AccDes= 0.00D+00 IRadAn=         5 IDoV= 1 UseB2=F ITyADJ=14
 ICtDFT=  3500011 ScaDFX=  1.000000  1.000000  1.000000  1.000000
 FoFCou: FMM=F IPFlag=           0 FMFlag=      100000 FMFlg1=           0
         NFxFlg=           0 DoJE=T BraDBF=F KetDBF=T FulRan=T
         wScrn=  0.000000 ICntrl=     500 IOpCl=  0 I1Cent=   200000004 NGrid=           0
         NMat0=    1 NMatS0=      1 NMatT0=    0 NMatD0=    1 NMtDS0=    0 NMtDT0=    0
 Symmetry not used in FoFCou.
 Requested convergence on RMS density matrix=1.00D-08 within 128 cycles.
 Requested convergence on MAX density matrix=1.00D-06.
 Requested convergence on             energy=1.00D-06.
 No special actions if energy rises.
 Integral accuracy reduced to 1.0D-05 until final iterations.
 Initial convergence to 1.0D-05 achieved.  Increase integral accuracy.
 SCF Done:  E(RB3LYP) =  -796.106257323     A.U. after   14 cycles
            NFock= 14  Conv=0.66D-08     -V/T= 2.0088
 DoSCS=F DFT=T ScalE2(SS,OS)=  1.000000  1.000000
 Range of M.O.s used for correlation:     1   310
 NBasis=   310 NAE=    60 NBE=    60 NFC=     0 NFV=     0
 NROrb=    310 NOA=    60 NOB=    60 NVA=   250 NVB=   250
 Symmetrizing basis deriv contribution to polar:
 IMax=3 JMax=2 DiffMx= 0.00D+00
 G2DrvN: will do    31 centers at a time, making    1 passes.
 Calling FoFCou, ICntrl=  3107 FMM=F I1Cent=   0 AccDes= 0.00D+00.
 End of G2Drv F.D. properties file   721 does not exist.
 End of G2Drv F.D. properties file   722 does not exist.
 End of G2Drv F.D. properties file   788 does not exist.
          IDoAtm=111111111111111111111111111111
          Differentiating once with respect to nuclear coordinates.
          There are    93 degrees of freedom in the 1st order CPHF.  IDoFFX=6 NUNeed=     0.
     87 vectors produced by pass  0 Test12= 1.61D-14 1.08D-09 XBig12= 1.66D-01 9.23D-02.
 AX will form    87 AO Fock derivatives at one time.
     87 vectors produced by pass  1 Test12= 1.61D-14 1.08D-09 XBig12= 3.20D-02 4.29D-02.
     87 vectors produced by pass  2 Test12= 1.61D-14 1.08D-09 XBig12= 2.68D-04 2.34D-03.
     87 vectors produced by pass  3 Test12= 1.61D-14 1.08D-09 XBig12= 1.21D-06 9.50D-05.
     87 vectors produced by pass  4 Test12= 1.61D-14 1.08D-09 XBig12= 1.96D-09 4.13D-06.
     69 vectors produced by pass  5 Test12= 1.61D-14 1.08D-09 XBig12= 1.97D-12 1.22D-07.
     16 vectors produced by pass  6 Test12= 1.61D-14 1.08D-09 XBig12= 1.80D-15 3.60D-09.
 InvSVY:  IOpt=1 It=  1 EMax= 6.11D-16
 Solved reduced A of dimension   520 with    93 vectors.
 End of Minotr F.D. properties file   721 does not exist.
 End of Minotr F.D. properties file   722 does not exist.
 End of Minotr F.D. properties file   788 does not exist.

 **********************************************************************

            Population analysis using the SCF density.

 **********************************************************************

 Alpha  occ. eigenvalues --  -19.21557 -19.16122 -19.11687 -14.38491 -14.36460
 Alpha  occ. eigenvalues --  -14.30981 -14.29992 -10.33744 -10.28927 -10.25119
 Alpha  occ. eigenvalues --  -10.22972 -10.21742 -10.21297 -10.20494 -10.19068
 Alpha  occ. eigenvalues --  -10.18049  -1.12985  -1.04190  -1.03582  -1.00783
 Alpha  occ. eigenvalues --   -0.93582  -0.87955  -0.86130  -0.81298  -0.75953
 Alpha  occ. eigenvalues --   -0.73681  -0.68046  -0.64549  -0.60871  -0.60452
 Alpha  occ. eigenvalues --   -0.59036  -0.57633  -0.54233  -0.51886  -0.50802
 Alpha  occ. eigenvalues --   -0.49867  -0.48306  -0.48035  -0.47256  -0.45070
 Alpha  occ. eigenvalues --   -0.44498  -0.43463  -0.42816  -0.41682  -0.41222
 Alpha  occ. eigenvalues --   -0.40295  -0.39569  -0.39150  -0.38186  -0.37719
 Alpha  occ. eigenvalues --   -0.35390  -0.34301  -0.33985  -0.29874  -0.27057
 Alpha  occ. eigenvalues --   -0.26680  -0.25512  -0.25228  -0.23342  -0.21640
 Alpha virt. eigenvalues --   -0.00825   0.01915   0.03621   0.06318   0.07397
 Alpha virt. eigenvalues --    0.07771   0.08275   0.08771   0.11593   0.13347
 Alpha virt. eigenvalues --    0.14366   0.14578   0.14825   0.16104   0.16861
 Alpha virt. eigenvalues --    0.18636   0.18932   0.19783   0.20702   0.21421
 Alpha virt. eigenvalues --    0.21972   0.23333   0.24002   0.24847   0.26105
 Alpha virt. eigenvalues --    0.28067   0.29578   0.32282   0.34109   0.34872
 Alpha virt. eigenvalues --    0.36435   0.38837   0.41953   0.44599   0.49874
 Alpha virt. eigenvalues --    0.50727   0.51774   0.52833   0.54241   0.54810
 Alpha virt. eigenvalues --    0.55977   0.56417   0.57310   0.58689   0.59193
 Alpha virt. eigenvalues --    0.61932   0.62680   0.63779   0.64286   0.64892
 Alpha virt. eigenvalues --    0.65661   0.66456   0.66999   0.67826   0.69376
 Alpha virt. eigenvalues --    0.69771   0.72794   0.73012   0.73200   0.75045
 Alpha virt. eigenvalues --    0.76254   0.77840   0.78931   0.79879   0.80885
 Alpha virt. eigenvalues --    0.81098   0.81528   0.81726   0.83586   0.84658
 Alpha virt. eigenvalues --    0.85003   0.85255   0.86646   0.87291   0.87497
 Alpha virt. eigenvalues --    0.88049   0.88510   0.89470   0.90714   0.92086
 Alpha virt. eigenvalues --    0.92453   0.93340   0.93734   0.95658   0.96124
 Alpha virt. eigenvalues --    0.98709   1.00669   1.01936   1.03174   1.05426
 Alpha virt. eigenvalues --    1.06705   1.07508   1.09645   1.11381   1.14116
 Alpha virt. eigenvalues --    1.16372   1.19904   1.20622   1.23924   1.24138
 Alpha virt. eigenvalues --    1.28811   1.29665   1.31066   1.32750   1.33721
 Alpha virt. eigenvalues --    1.34011   1.36253   1.38299   1.39835   1.42497
 Alpha virt. eigenvalues --    1.43065   1.45098   1.46539   1.49690   1.50630
 Alpha virt. eigenvalues --    1.52888   1.54892   1.56532   1.58943   1.60414
 Alpha virt. eigenvalues --    1.63188   1.64019   1.67004   1.69047   1.70359
 Alpha virt. eigenvalues --    1.72436   1.73081   1.73805   1.75719   1.77139
 Alpha virt. eigenvalues --    1.77993   1.79612   1.80038   1.82811   1.83821
 Alpha virt. eigenvalues --    1.85121   1.86949   1.87424   1.88929   1.91392
 Alpha virt. eigenvalues --    1.92844   1.94653   1.95955   1.96693   1.98093
 Alpha virt. eigenvalues --    1.99642   2.01025   2.04451   2.05566   2.06141
 Alpha virt. eigenvalues --    2.07241   2.07710   2.08380   2.10365   2.11697
 Alpha virt. eigenvalues --    2.12301   2.13525   2.15622   2.18334   2.19749
 Alpha virt. eigenvalues --    2.20725   2.22936   2.24551   2.24986   2.27343
 Alpha virt. eigenvalues --    2.27485   2.27937   2.29514   2.31263   2.34011
 Alpha virt. eigenvalues --    2.35549   2.36424   2.37542   2.39231   2.41174
 Alpha virt. eigenvalues --    2.45177   2.45770   2.46118   2.47581   2.49647
 Alpha virt. eigenvalues --    2.50881   2.52746   2.53077   2.54841   2.55637
 Alpha virt. eigenvalues --    2.58218   2.59015   2.60141   2.61613   2.62459
 Alpha virt. eigenvalues --    2.63463   2.65231   2.66597   2.67718   2.68391
 Alpha virt. eigenvalues --    2.71400   2.71757   2.72391   2.75314   2.76728
 Alpha virt. eigenvalues --    2.79627   2.80690   2.82271   2.82780   2.85766
 Alpha virt. eigenvalues --    2.86808   2.87946   2.89625   2.92116   2.94224
 Alpha virt. eigenvalues --    2.95355   2.96819   2.98402   2.99765   3.00931
 Alpha virt. eigenvalues --    3.04190   3.04638   3.12930   3.18656   3.24187
 Alpha virt. eigenvalues --    3.26679   3.28047   3.31137   3.31431   3.34197
 Alpha virt. eigenvalues --    3.38427   3.40322   3.42865   3.49535   3.51391
 Alpha virt. eigenvalues --    3.52598   3.57267   3.58513   3.68400   3.93040
 Alpha virt. eigenvalues --    4.00485   4.01553   4.09386   4.14399   4.17260
 Alpha virt. eigenvalues --    4.21979   4.27977   4.35226   4.38552   4.43725
 Alpha virt. eigenvalues --    4.47764   4.52953   4.62400   4.70823   4.82489
          Condensed to atoms (all electrons):
               1          2          3          4          5          6
     1  O    8.123551   0.527630  -0.094931  -0.004751   0.000182  -0.000004
     2  C    0.527630   4.408058   0.263015  -0.023899   0.002272   0.000029
     3  N   -0.094931   0.263015   7.016830   0.255858  -0.048648   0.002438
     4  C   -0.004751  -0.023899   0.255858   5.086781   0.294925  -0.099440
     5  C    0.000182   0.002272  -0.048648   0.294925   4.407966   0.258056
     6  O   -0.000004   0.000029   0.002438  -0.099440   0.258056   8.118021
     7  O   -0.000001   0.001374  -0.008616  -0.078100   0.590539  -0.086137
     8  C    0.000477   0.002330  -0.054091   0.337399  -0.039268   0.001405
     9  C   -0.000735   0.000161  -0.003129  -0.028606   0.002240   0.000038
    10  C   -0.008833   0.001660   0.003394  -0.005059   0.000315   0.000001
    11  N    0.000047  -0.000002  -0.000009  -0.000155  -0.000001   0.000000
    12  C   -0.000003  -0.000005   0.000038  -0.000080   0.000002   0.000000
    13  N   -0.000001  -0.000013  -0.000146   0.002746  -0.000101   0.000000
    14  C   -0.080819   0.301310  -0.108090   0.007373  -0.000306   0.000000
    15  C    0.002092  -0.022586   0.003140  -0.000141   0.000010   0.000000
    16  N    0.000222   0.003546  -0.000037   0.000001   0.000000   0.000000
    17  H    0.003204  -0.018082   0.331113  -0.037912  -0.004120   0.000324
    18  H    0.022998  -0.002576  -0.048670   0.371896  -0.023986   0.002780
    19  H    0.000001  -0.000006  -0.000296   0.010480  -0.010786   0.270937
    20  H   -0.000004   0.000007   0.004379  -0.034916  -0.001053   0.006061
    21  H   -0.000012  -0.000195  -0.004601  -0.028173  -0.002735   0.000012
    22  H    0.023440   0.001211  -0.006978   0.001572  -0.000040   0.000001
    23  H    0.000000   0.000000   0.000000   0.000002   0.000000   0.000000
    24  H    0.000000   0.000000   0.000000  -0.000061  -0.000002   0.000000
    25  H    0.003025  -0.029993   0.000832  -0.000236   0.000026   0.000000
    26  H   -0.001075  -0.018952  -0.001082  -0.000141  -0.000005   0.000000
    27  H    0.000745   0.005776   0.000088   0.000010   0.000000   0.000000
    28  H    0.008503  -0.005405   0.000330   0.000001   0.000000   0.000000
    29  H    0.000001  -0.000281  -0.000001   0.000000   0.000000   0.000000
    30  H    0.000007  -0.000192   0.000002   0.000000   0.000000   0.000000
               7          8          9         10         11         12
     1  O   -0.000001   0.000477  -0.000735  -0.008833   0.000047  -0.000003
     2  C    0.001374   0.002330   0.000161   0.001660  -0.000002  -0.000005
     3  N   -0.008616  -0.054091  -0.003129   0.003394  -0.000009   0.000038
     4  C   -0.078100   0.337399  -0.028606  -0.005059  -0.000155  -0.000080
     5  C    0.590539  -0.039268   0.002240   0.000315  -0.000001   0.000002
     6  O   -0.086137   0.001405   0.000038   0.000001   0.000000   0.000000
     7  O    8.018189  -0.002417  -0.000063  -0.000001   0.000000   0.000000
     8  C   -0.002417   5.092132   0.328607  -0.064366   0.008181   0.007052
     9  C   -0.000063   0.328607   4.786366   0.593897  -0.047626  -0.088054
    10  C   -0.000001  -0.064366   0.593897   4.882518   0.415769  -0.124481
    11  N    0.000000   0.008181  -0.047626   0.415769   6.691561   0.540553
    12  C    0.000000   0.007052  -0.088054  -0.124481   0.540553   4.682144
    13  N    0.000000  -0.061696   0.323775  -0.067707  -0.086706   0.346940
    14  C   -0.000148  -0.000255  -0.000041  -0.000252   0.000000   0.000000
    15  C    0.000001   0.000000   0.000000   0.000007   0.000000   0.000000
    16  N    0.000000   0.000000   0.000000   0.000000   0.000000   0.000000
    17  H    0.016096  -0.000551  -0.000255   0.000077   0.000002  -0.000001
    18  H    0.001765  -0.034253  -0.004907   0.001880  -0.000018  -0.000026
    19  H    0.009640  -0.000228   0.000016   0.000000   0.000000   0.000000
    20  H    0.000105   0.366804  -0.032141   0.000499  -0.000098   0.000212
    21  H    0.001297   0.355269  -0.033984   0.001238  -0.000131   0.000175
    22  H   -0.000001  -0.002439  -0.054824   0.377582  -0.035521   0.006182
    23  H    0.000000  -0.000124   0.003141   0.006872  -0.037124   0.391574
    24  H    0.000000  -0.002743  -0.032707   0.008983   0.005523  -0.025231
    25  H    0.000045  -0.000006   0.000001   0.000000   0.000000   0.000000
    26  H    0.000000   0.000025   0.000018   0.000136  -0.000001   0.000000
    27  H    0.000000   0.000000   0.000000   0.000000   0.000000   0.000000
    28  H    0.000000   0.000000   0.000000  -0.000002   0.000000   0.000000
    29  H    0.000000   0.000000   0.000000   0.000000   0.000000   0.000000
    30  H    0.000000   0.000000   0.000000   0.000000   0.000000   0.000000
              13         14         15         16         17         18
     1  O   -0.000001  -0.080819   0.002092   0.000222   0.003204   0.022998
     2  C   -0.000013   0.301310  -0.022586   0.003546  -0.018082  -0.002576
     3  N   -0.000146  -0.108090   0.003140  -0.000037   0.331113  -0.048670
     4  C    0.002746   0.007373  -0.000141   0.000001  -0.037912   0.371896
     5  C   -0.000101  -0.000306   0.000010   0.000000  -0.004120  -0.023986
     6  O    0.000000   0.000000   0.000000   0.000000   0.000324   0.002780
     7  O    0.000000  -0.000148   0.000001   0.000000   0.016096   0.001765
     8  C   -0.061696  -0.000255   0.000000   0.000000  -0.000551  -0.034253
     9  C    0.323775  -0.000041   0.000000   0.000000  -0.000255  -0.004907
    10  C   -0.067707  -0.000252   0.000007   0.000000   0.000077   0.001880
    11  N   -0.086706   0.000000   0.000000   0.000000   0.000002  -0.000018
    12  C    0.346940   0.000000   0.000000   0.000000  -0.000001  -0.000026
    13  N    6.803710   0.000000   0.000000   0.000000   0.000001   0.000086
    14  C    0.000000   5.220282   0.345671  -0.057248  -0.001655   0.001357
    15  C    0.000000   0.345671   4.789655   0.291442  -0.000130  -0.000006
    16  N    0.000000  -0.057248   0.291442   6.779203  -0.000012   0.000000
    17  H    0.000001  -0.001655  -0.000130  -0.000012   0.434513   0.005158
    18  H    0.000086   0.001357  -0.000006   0.000000   0.005158   0.528346
    19  H    0.000000   0.000000   0.000000   0.000000  -0.000035  -0.000407
    20  H   -0.002139   0.000004   0.000000   0.000000  -0.000138  -0.003240
    21  H   -0.002335  -0.000001   0.000000   0.000000   0.002623   0.005628
    22  H    0.004881   0.000507  -0.000027   0.000000   0.000019   0.000272
    23  H   -0.058022   0.000000   0.000000   0.000000   0.000000   0.000000
    24  H    0.338171   0.000000   0.000000   0.000000   0.000000   0.000003
    25  H    0.000000   0.359583  -0.040274  -0.002664   0.003526  -0.000084
    26  H    0.000000   0.362531  -0.027158   0.005646   0.000157  -0.000025
    27  H    0.000000  -0.062910   0.389983  -0.047365   0.000005  -0.000005
    28  H    0.000000  -0.029615   0.390035  -0.037914  -0.000004  -0.000008
    29  H    0.000000  -0.005264  -0.036324   0.335458   0.000000   0.000000
    30  H    0.000000   0.006079  -0.033860   0.338489   0.000000   0.000000
              19         20         21         22         23         24
     1  O    0.000001  -0.000004  -0.000012   0.023440   0.000000   0.000000
     2  C   -0.000006   0.000007  -0.000195   0.001211   0.000000   0.000000
     3  N   -0.000296   0.004379  -0.004601  -0.006978   0.000000   0.000000
     4  C    0.010480  -0.034916  -0.028173   0.001572   0.000002  -0.000061
     5  C   -0.010786  -0.001053  -0.002735  -0.000040   0.000000  -0.000002
     6  O    0.270937   0.006061   0.000012   0.000001   0.000000   0.000000
     7  O    0.009640   0.000105   0.001297  -0.000001   0.000000   0.000000
     8  C   -0.000228   0.366804   0.355269  -0.002439  -0.000124  -0.002743
     9  C    0.000016  -0.032141  -0.033984  -0.054824   0.003141  -0.032707
    10  C    0.000000   0.000499   0.001238   0.377582   0.006872   0.008983
    11  N    0.000000  -0.000098  -0.000131  -0.035521  -0.037124   0.005523
    12  C    0.000000   0.000212   0.000175   0.006182   0.391574  -0.025231
    13  N    0.000000  -0.002139  -0.002335   0.004881  -0.058022   0.338171
    14  C    0.000000   0.000004  -0.000001   0.000507   0.000000   0.000000
    15  C    0.000000   0.000000   0.000000  -0.000027   0.000000   0.000000
    16  N    0.000000   0.000000   0.000000   0.000000   0.000000   0.000000
    17  H   -0.000035  -0.000138   0.002623   0.000019   0.000000   0.000000
    18  H   -0.000407  -0.003240   0.005628   0.000272   0.000000   0.000003
    19  H    0.394685  -0.000118  -0.000072   0.000000   0.000000   0.000000
    20  H   -0.000118   0.600128  -0.040241  -0.000104   0.000000   0.000894
    21  H   -0.000072  -0.040241   0.634975  -0.000094  -0.000002   0.001281
    22  H    0.000000  -0.000104  -0.000094   0.564470  -0.000147  -0.000100
    23  H    0.000000   0.000000  -0.000002  -0.000147   0.585678   0.000346
    24  H    0.000000   0.000894   0.001281  -0.000100   0.000346   0.449697
    25  H    0.000000   0.000000  -0.000001   0.000001   0.000000   0.000000
    26  H    0.000000   0.000000  -0.000002  -0.000082   0.000000   0.000000
    27  H    0.000000   0.000000   0.000000   0.000000   0.000000   0.000000
    28  H    0.000000   0.000000   0.000000   0.000007   0.000000   0.000000
    29  H    0.000000   0.000000   0.000000   0.000000   0.000000   0.000000
    30  H    0.000000   0.000000   0.000000   0.000000   0.000000   0.000000
              25         26         27         28         29         30
     1  O    0.003025  -0.001075   0.000745   0.008503   0.000001   0.000007
     2  C   -0.029993  -0.018952   0.005776  -0.005405  -0.000281  -0.000192
     3  N    0.000832  -0.001082   0.000088   0.000330  -0.000001   0.000002
     4  C   -0.000236  -0.000141   0.000010   0.000001   0.000000   0.000000
     5  C    0.000026  -0.000005   0.000000   0.000000   0.000000   0.000000
     6  O    0.000000   0.000000   0.000000   0.000000   0.000000   0.000000
     7  O    0.000045   0.000000   0.000000   0.000000   0.000000   0.000000
     8  C   -0.000006   0.000025   0.000000   0.000000   0.000000   0.000000
     9  C    0.000001   0.000018   0.000000   0.000000   0.000000   0.000000
    10  C    0.000000   0.000136   0.000000  -0.000002   0.000000   0.000000
    11  N    0.000000  -0.000001   0.000000   0.000000   0.000000   0.000000
    12  C    0.000000   0.000000   0.000000   0.000000   0.000000   0.000000
    13  N    0.000000   0.000000   0.000000   0.000000   0.000000   0.000000
    14  C    0.359583   0.362531  -0.062910  -0.029615  -0.005264   0.006079
    15  C   -0.040274  -0.027158   0.389983   0.390035  -0.036324  -0.033860
    16  N   -0.002664   0.005646  -0.047365  -0.037914   0.335458   0.338489
    17  H    0.003526   0.000157   0.000005  -0.000004   0.000000   0.000000
    18  H   -0.000084  -0.000025  -0.000005  -0.000008   0.000000   0.000000
    19  H    0.000000   0.000000   0.000000   0.000000   0.000000   0.000000
    20  H    0.000000   0.000000   0.000000   0.000000   0.000000   0.000000
    21  H   -0.000001  -0.000002   0.000000   0.000000   0.000000   0.000000
    22  H    0.000001  -0.000082   0.000000   0.000007   0.000000   0.000000
    23  H    0.000000   0.000000   0.000000   0.000000   0.000000   0.000000
    24  H    0.000000   0.000000   0.000000   0.000000   0.000000   0.000000
    25  H    0.640255  -0.032969  -0.006102   0.005893   0.005011  -0.000015
    26  H   -0.032969   0.559582   0.006591  -0.007258  -0.000813  -0.000034
    27  H   -0.006102   0.006591   0.679584  -0.043744  -0.006740  -0.002204
    28  H    0.005893  -0.007258  -0.043744   0.584556   0.006341  -0.004608
    29  H    0.005011  -0.000813  -0.006740   0.006341   0.504425  -0.034588
    30  H   -0.000015  -0.000034  -0.002204  -0.004608  -0.034588   0.491526
 Mulliken charges:
               1
     1  O   -0.524957
     2  C    0.603810
     3  N   -0.502129
     4  C   -0.027372
     5  C    0.574517
     6  O   -0.474524
     7  O   -0.463566
     8  C   -0.237246
     9  C    0.288811
    10  C   -0.024127
    11  N   -0.454244
    12  C    0.263009
    13  N   -0.541445
    14  C   -0.258096
    15  C   -0.051531
    16  N   -0.608767
    17  H    0.266074
    18  H    0.176041
    19  H    0.326190
    20  H    0.135100
    21  H    0.110079
    22  H    0.120214
    23  H    0.107806
    24  H    0.255946
    25  H    0.094146
    26  H    0.154910
    27  H    0.086287
    28  H    0.132893
    29  H    0.232773
    30  H    0.239399
 Sum of Mulliken charges =   0.00000
 Mulliken charges with hydrogens summed into heavy atoms:
               1
     1  O   -0.524957
     2  C    0.603810
     3  N   -0.236055
     4  C    0.148669
     5  C    0.574517
     6  O   -0.148334
     7  O   -0.463566
     8  C    0.007934
     9  C    0.288811
    10  C    0.096086
    11  N   -0.454244
    12  C    0.370815
    13  N   -0.285499
    14  C   -0.009041
    15  C    0.167649
    16  N   -0.136595
 APT charges:
               1
     1  O   -0.295168
     2  C    0.122343
     3  N   -0.569347
     4  C   -0.357357
     5  C   -0.228532
     6  O   -0.852781
     7  O    0.082756
     8  C   -0.914091
     9  C   -0.102381
    10  C   -0.315125
    11  N   -0.380190
    12  C   -0.260248
    13  N   -0.905607
    14  C   -0.554997
    15  C   -0.443731
    16  N   -1.750346
    17  H    0.519875
    18  H    0.320188
    19  H    1.073441
    20  H    0.554643
    21  H    0.365668
    22  H    0.043981
    23  H    1.046008
    24  H    0.894660
    25  H    0.327563
    26  H    0.348609
    27  H    0.330398
    28  H    0.330902
    29  H    0.545206
    30  H    1.023663
 Sum of APT charges =   0.00000
 APT charges with hydrogens summed into heavy atoms:
               1
     1  O   -0.295168
     2  C    0.122343
     3  N   -0.049472
     4  C   -0.037170
     5  C   -0.228532
     6  O    0.220660
     7  O    0.082756
     8  C    0.006219
     9  C   -0.102381
    10  C   -0.271143
    11  N   -0.380190
    12  C    0.785760
    13  N   -0.010947
    14  C    0.121174
    15  C    0.217569
    16  N   -0.181478
 Electronic spatial extent (au):  <R**2>=           4708.7467
 Charge=              0.0000 electrons
 Dipole moment (field-independent basis, Debye):
    X=             -1.4027    Y=             -5.4458    Z=             -2.1909  Tot=              6.0352
 Quadrupole moment (field-independent basis, Debye-Ang):
   XX=            -71.5747   YY=           -101.1969   ZZ=            -89.6098
   XY=              7.1366   XZ=             12.3191   YZ=             -3.5448
 Traceless Quadrupole moment (field-independent basis, Debye-Ang):
   XX=             15.8857   YY=            -13.7365   ZZ=             -2.1493
   XY=              7.1366   XZ=             12.3191   YZ=             -3.5448
 Octapole moment (field-independent basis, Debye-Ang**2):
  XXX=             79.3010  YYY=            -62.6949  ZZZ=            -16.8209  XYY=             17.9855
  XXY=            -24.2118  XXZ=            -18.7234  XZZ=              6.3963  YZZ=             -8.1561
  YYZ=             22.5866  XYZ=             21.1625
 Hexadecapole moment (field-independent basis, Debye-Ang**3):
 XXXX=          -2973.7854 YYYY=          -1812.6080 ZZZZ=           -544.1718 XXXY=            -34.4807
 XXXZ=             31.9547 YYYX=            246.7812 YYYZ=             92.3800 ZZZX=           -283.8942
 ZZZY=            177.1471 XXYY=           -906.5364 XXZZ=           -580.1151 YYZZ=           -344.6738
 XXYZ=             68.4174 YYXZ=           -107.2747 ZZXY=              2.1612
 N-N= 1.109254542301D+03 E-N=-4.075844857886D+03  KE= 7.891737687375D+02
  Exact polarizability:   0.000   0.000   0.000   0.000   0.000   0.000
 Approx polarizability: 176.710  -0.111 196.560  12.931  17.976 161.387
 Calling FoFJK, ICntrl=    100147 FMM=F ISym2X=0 I1Cent= 0 IOpClX= 0 NMat=1 NMatS=1 NMatT=0.
 -------------------------------------------------------------------
 Center     Atomic                   Forces (Hartrees/Bohr)
 Number     Number              X              Y              Z
 -------------------------------------------------------------------
      1        8           0.000405863   -0.000347392    0.002311229
      2        6           0.002270477    0.005623944    0.001556394
      3        7          -0.003335896   -0.004730198   -0.000376365
      4        6           0.000544466    0.001671557   -0.003980993
      5        6          -0.008085457    0.004206427    0.006576284
      6        8          -0.001772622    0.004818577    0.000516548
      7        8           0.010288154   -0.008213710   -0.005957285
      8        6          -0.007217633    0.009370124   -0.000270098
      9        6           0.000095941   -0.006614002   -0.001073143
     10        6           0.003125511    0.006847857    0.003069893
     11        7           0.003029116    0.001240789    0.002739158
     12        6           0.001088164    0.005244696    0.001607867
     13        7          -0.002178826   -0.008899000   -0.003148261
     14        6          -0.001715422    0.000470422    0.000601192
     15        6           0.003708995    0.000880704   -0.001326394
     16        7          -0.001544496    0.003581566   -0.001369749
     17        1           0.001067986   -0.001892023   -0.001230497
     18        1           0.000924372    0.001063631    0.002247887
     19        1          -0.000243005   -0.007644908    0.001527054
     20        1          -0.001738541   -0.003491173    0.001813275
     21        1           0.002450439   -0.003687837   -0.003859103
     22        1          -0.000311313    0.003439999    0.000979181
     23        1          -0.002537187    0.002146039   -0.001986252
     24        1          -0.002082068   -0.000989728   -0.001823847
     25        1           0.001437763   -0.002297489   -0.002322232
     26        1           0.000230932    0.001391778   -0.002476687
     27        1          -0.000974436   -0.001574638    0.003512181
     28        1          -0.000085529    0.000188925    0.001121781
     29        1           0.001181462   -0.003375708   -0.001328959
     30        1           0.001972790    0.001570770    0.002349943
 -------------------------------------------------------------------
 Cartesian Forces:  Max     0.010288154 RMS     0.003525088
 FormGI is forming the generalized inverse of G from B-inverse, IUseBI=4.

 GradGradGradGradGradGradGradGradGradGradGradGradGradGradGradGradGradGrad
 Berny optimization.
 Internal  Forces:  Max     0.014437372 RMS     0.002736465
 Search for a local minimum.
 Step number   1 out of a maximum of  160
 All quantities printed in internal units (Hartrees-Bohrs-Radians)
 Mixed Optimization -- RFO/linear search
 Second derivative matrix not updated -- analytic derivatives used.
 ITU=  0
     Eigenvalues ---    0.00026   0.00110   0.00189   0.00231   0.00271
     Eigenvalues ---    0.00416   0.00463   0.00622   0.00776   0.00964
     Eigenvalues ---    0.01755   0.02113   0.02160   0.02840   0.03197
     Eigenvalues ---    0.03521   0.04047   0.04161   0.04245   0.04438
     Eigenvalues ---    0.04567   0.04641   0.05173   0.05216   0.05282
     Eigenvalues ---    0.05567   0.05791   0.06179   0.07711   0.08126
     Eigenvalues ---    0.08321   0.10367   0.10813   0.11365   0.11827
     Eigenvalues ---    0.12097   0.12358   0.13588   0.15069   0.15236
     Eigenvalues ---    0.15905   0.16847   0.18167   0.18526   0.18933
     Eigenvalues ---    0.20817   0.21743   0.22236   0.23228   0.23839
     Eigenvalues ---    0.24591   0.24816   0.24961   0.27287   0.30151
     Eigenvalues ---    0.30546   0.32116   0.33543   0.33738   0.33980
     Eigenvalues ---    0.34339   0.34467   0.34556   0.34809   0.34963
     Eigenvalues ---    0.35772   0.36976   0.37603   0.38210   0.38327
     Eigenvalues ---    0.41295   0.42799   0.43752   0.45603   0.45845
     Eigenvalues ---    0.46063   0.47453   0.47688   0.48830   0.49855
     Eigenvalues ---    0.53808   0.59432   0.82794   0.93686
 RFO step:  Lambda=-3.36839757D-03 EMin= 2.58940070D-04
 Linear search not attempted -- first point.
 Iteration  1 RMS(Cart)=  0.07317416 RMS(Int)=  0.00120686
 Iteration  2 RMS(Cart)=  0.00297961 RMS(Int)=  0.00008290
 Iteration  3 RMS(Cart)=  0.00000403 RMS(Int)=  0.00008288
 Iteration  4 RMS(Cart)=  0.00000000 RMS(Int)=  0.00008288
 Variable       Old X    -DE/DX   Delta X   Delta X   Delta X     New X
                                 (Linear)    (Quad)   (Total)
    R1        2.31812   0.00165   0.00000   0.00045   0.00045   2.31857
    R2        2.57906   0.00922   0.00000   0.01646   0.01646   2.59551
    R3        2.86484   0.00442   0.00000   0.01158   0.01158   2.87642
    R4        2.73253   0.00339   0.00000   0.00304   0.00304   2.73557
    R5        1.90597   0.00240   0.00000   0.00487   0.00487   1.91085
    R6        2.86430   0.00718   0.00000   0.02112   0.02112   2.88542
    R7        2.90278   0.00684   0.00000   0.02235   0.02235   2.92513
    R8        2.05876   0.00232   0.00000   0.00768   0.00768   2.06644
    R9        2.54863   0.00362   0.00000   0.00155   0.00155   2.55018
   R10        2.27374   0.01444   0.00000   0.01542   0.01542   2.28916
   R11        1.82376   0.00764   0.00000   0.01387   0.01387   1.83762
   R12        2.83481   0.00226   0.00000  -0.00332  -0.00332   2.83150
   R13        2.06385   0.00370   0.00000   0.01070   0.01070   2.07455
   R14        2.06272   0.00539   0.00000   0.01571   0.01571   2.07843
   R15        2.57926   0.01186   0.00000   0.02015   0.02015   2.59941
   R16        2.61010   0.00421   0.00000   0.00858   0.00858   2.61869
   R17        2.61332  -0.00069   0.00000  -0.00391  -0.00392   2.60940
   R18        2.04086   0.00056   0.00000   0.00230   0.00230   2.04316
   R19        2.47726   0.00321   0.00000   0.00288   0.00287   2.48013
   R20        2.56725   0.00872   0.00000   0.01841   0.01842   2.58567
   R21        2.03397   0.00387   0.00000   0.00976   0.00976   2.04373
   R22        1.90059   0.00283   0.00000   0.00537   0.00537   1.90596
   R23        2.87419   0.00527   0.00000   0.01572   0.01572   2.88991
   R24        2.06530   0.00343   0.00000   0.01001   0.01001   2.07531
   R25        2.06534   0.00269   0.00000   0.00776   0.00776   2.07311
   R26        2.76896   0.00181   0.00000   0.00162   0.00162   2.77058
   R27        2.07330   0.00359   0.00000   0.01114   0.01114   2.08444
   R28        2.06338   0.00067   0.00000   0.00221   0.00221   2.06560
   R29        1.91558   0.00381   0.00000   0.00843   0.00843   1.92401
   R30        1.91424   0.00341   0.00000   0.00733   0.00733   1.92157
    A1        2.13752  -0.00087   0.00000  -0.00151  -0.00153   2.13599
    A2        2.14281  -0.00179   0.00000  -0.00418  -0.00420   2.13861
    A3        2.00104   0.00268   0.00000   0.00636   0.00634   2.00737
    A4        2.11912   0.00209   0.00000   0.00695   0.00666   2.12579
    A5        2.05303  -0.00098   0.00000   0.00620   0.00589   2.05893
    A6        2.01368  -0.00077   0.00000   0.00509   0.00478   2.01846
    A7        1.90692  -0.00118   0.00000  -0.00455  -0.00461   1.90231
    A8        1.96862   0.00160   0.00000   0.00932   0.00933   1.97795
    A9        1.87900  -0.00049   0.00000  -0.00912  -0.00917   1.86983
   A10        1.89743   0.00009   0.00000   0.00413   0.00414   1.90157
   A11        1.90690  -0.00013   0.00000  -0.00581  -0.00586   1.90104
   A12        1.90427   0.00007   0.00000   0.00549   0.00552   1.90979
   A13        1.94570   0.00156   0.00000   0.00729   0.00729   1.95299
   A14        2.18723  -0.00145   0.00000  -0.00864  -0.00864   2.17860
   A15        2.14973  -0.00010   0.00000   0.00137   0.00137   2.15110
   A16        1.84970   0.00283   0.00000   0.01184   0.01184   1.86154
   A17        1.96837   0.00615   0.00000   0.01629   0.01632   1.98469
   A18        1.89393  -0.00222   0.00000  -0.01305  -0.01340   1.88053
   A19        1.91810  -0.00418   0.00000  -0.03060  -0.03073   1.88737
   A20        1.90354  -0.00086   0.00000   0.01985   0.01985   1.92339
   A21        1.91643  -0.00008   0.00000   0.00933   0.00946   1.92589
   A22        1.86011   0.00089   0.00000  -0.00269  -0.00320   1.85691
   A23        2.32418   0.00476   0.00000   0.01656   0.01654   2.34071
   A24        2.13396  -0.00418   0.00000  -0.01626  -0.01627   2.11769
   A25        1.82494  -0.00058   0.00000  -0.00043  -0.00043   1.82451
   A26        1.93771   0.00006   0.00000  -0.00048  -0.00048   1.93722
   A27        2.20286   0.00351   0.00000   0.02153   0.02153   2.22439
   A28        2.14258  -0.00357   0.00000  -0.02104  -0.02104   2.12154
   A29        1.83324   0.00126   0.00000   0.00483   0.00481   1.83805
   A30        1.94874   0.00110   0.00000   0.00082   0.00082   1.94956
   A31        2.19938  -0.00057   0.00000   0.00144   0.00144   2.20082
   A32        2.13506  -0.00053   0.00000  -0.00226  -0.00226   2.13280
   A33        1.88015  -0.00185   0.00000  -0.00474  -0.00472   1.87542
   A34        2.19401   0.00168   0.00000   0.00816   0.00815   2.20216
   A35        2.20902   0.00017   0.00000  -0.00343  -0.00343   2.20559
   A36        1.96585  -0.00117   0.00000  -0.00717  -0.00717   1.95868
   A37        1.91474   0.00105   0.00000   0.01101   0.01101   1.92575
   A38        1.88911   0.00027   0.00000   0.00024   0.00022   1.88934
   A39        1.92621   0.00019   0.00000   0.00517   0.00518   1.93139
   A40        1.89900   0.00033   0.00000  -0.00098  -0.00099   1.89801
   A41        1.86576  -0.00066   0.00000  -0.00864  -0.00863   1.85713
   A42        1.90467   0.00182   0.00000   0.01161   0.01154   1.91621
   A43        1.90662  -0.00070   0.00000  -0.00151  -0.00168   1.90494
   A44        1.89545  -0.00030   0.00000  -0.00650  -0.00650   1.88895
   A45        1.98457   0.00053   0.00000   0.01267   0.01261   1.99718
   A46        1.90074  -0.00097   0.00000  -0.00394  -0.00389   1.89685
   A47        1.86982  -0.00048   0.00000  -0.01364  -0.01366   1.85616
   A48        1.91673  -0.00002   0.00000   0.00127   0.00127   1.91800
   A49        1.91952  -0.00049   0.00000  -0.00580  -0.00580   1.91373
   A50        1.84707   0.00037   0.00000   0.00145   0.00145   1.84852
    D1       -0.25950   0.00145   0.00000   0.07460   0.07464  -0.18486
    D2       -2.92009   0.00091   0.00000   0.03106   0.03103  -2.88905
    D3        2.94530   0.00102   0.00000   0.06314   0.06316   3.00846
    D4        0.28471   0.00048   0.00000   0.01959   0.01956   0.30426
    D5        0.47831  -0.00044   0.00000  -0.01396  -0.01395   0.46436
    D6        2.63126  -0.00024   0.00000  -0.00423  -0.00422   2.62704
    D7       -1.62201  -0.00030   0.00000  -0.00841  -0.00841  -1.63042
    D8       -2.72670   0.00003   0.00000  -0.00235  -0.00235  -2.72904
    D9       -0.57374   0.00023   0.00000   0.00739   0.00738  -0.56636
   D10        1.45617   0.00017   0.00000   0.00320   0.00320   1.45936
   D11       -1.91871   0.00022   0.00000  -0.07529  -0.07533  -1.99404
   D12        2.25210  -0.00012   0.00000  -0.08350  -0.08353   2.16857
   D13        0.15031  -0.00086   0.00000  -0.08995  -0.08993   0.06037
   D14        0.75199   0.00067   0.00000  -0.03239  -0.03240   0.71960
   D15       -1.36038   0.00033   0.00000  -0.04060  -0.04059  -1.40098
   D16        2.82101  -0.00041   0.00000  -0.04705  -0.04700   2.77402
   D17        2.87587  -0.00082   0.00000  -0.00098  -0.00096   2.87491
   D18       -0.29971  -0.00083   0.00000  -0.00009  -0.00008  -0.29979
   D19       -1.25218   0.00046   0.00000   0.01030   0.01030  -1.24188
   D20        1.85543   0.00045   0.00000   0.01119   0.01118   1.86661
   D21        0.82433   0.00052   0.00000   0.01598   0.01597   0.84030
   D22       -2.35125   0.00051   0.00000   0.01687   0.01686  -2.33439
   D23       -1.15020  -0.00064   0.00000  -0.00883  -0.00882  -1.15902
   D24        3.02208  -0.00198   0.00000  -0.03530  -0.03512   2.98696
   D25        0.99436   0.00052   0.00000  -0.00780  -0.00797   0.98639
   D26        3.01521  -0.00025   0.00000  -0.01203  -0.01204   3.00318
   D27        0.90431  -0.00160   0.00000  -0.03850  -0.03834   0.86597
   D28       -1.12341   0.00090   0.00000  -0.01100  -0.01119  -1.13460
   D29        0.93706  -0.00019   0.00000  -0.01062  -0.01061   0.92645
   D30       -1.17385  -0.00154   0.00000  -0.03709  -0.03691  -1.21076
   D31        3.08161   0.00096   0.00000  -0.00959  -0.00976   3.07185
   D32        3.11416  -0.00014   0.00000  -0.00327  -0.00327   3.11090
   D33        0.00570  -0.00011   0.00000  -0.00390  -0.00391   0.00180
   D34       -0.06843  -0.00128   0.00000  -0.07750  -0.07758  -0.14601
   D35        3.09122  -0.00104   0.00000  -0.06663  -0.06671   3.02451
   D36        2.03699  -0.00068   0.00000  -0.06966  -0.06959   1.96740
   D37       -1.08655  -0.00043   0.00000  -0.05879  -0.05872  -1.14526
   D38       -2.21392  -0.00014   0.00000  -0.05624  -0.05623  -2.27015
   D39        0.94573   0.00010   0.00000  -0.04537  -0.04536   0.90037
   D40       -3.12642   0.00029   0.00000   0.01051   0.01061  -3.11581
   D41        0.02484  -0.00025   0.00000   0.00972   0.00978   0.03462
   D42       -0.00060   0.00004   0.00000   0.00085   0.00086   0.00026
   D43       -3.13253  -0.00050   0.00000   0.00007   0.00003  -3.13250
   D44        3.12876  -0.00014   0.00000  -0.00958  -0.00947   3.11929
   D45       -0.01001  -0.00009   0.00000  -0.00799  -0.00789  -0.01790
   D46        0.00077  -0.00002   0.00000  -0.00161  -0.00162  -0.00085
   D47       -3.13800   0.00003   0.00000  -0.00001  -0.00004  -3.13804
   D48        0.00019  -0.00004   0.00000   0.00025   0.00025   0.00045
   D49        3.13251   0.00052   0.00000   0.00127   0.00130   3.13381
   D50        0.00032   0.00002   0.00000  -0.00131  -0.00133  -0.00101
   D51        3.14077  -0.00001   0.00000   0.00043   0.00044   3.14121
   D52       -0.00070   0.00000   0.00000   0.00189   0.00191   0.00121
   D53        3.13803  -0.00006   0.00000   0.00031   0.00036   3.13839
   D54       -3.14120   0.00003   0.00000   0.00023   0.00022  -3.14098
   D55       -0.00247  -0.00002   0.00000  -0.00136  -0.00134  -0.00381
   D56       -3.12449   0.00106   0.00000   0.04701   0.04701  -3.07748
   D57        0.97919  -0.00036   0.00000   0.02441   0.02442   1.00361
   D58       -1.05467   0.00077   0.00000   0.04515   0.04513  -1.00954
   D59        1.01214   0.00039   0.00000   0.03402   0.03403   1.04617
   D60       -1.16737  -0.00103   0.00000   0.01143   0.01144  -1.15593
   D61        3.08196   0.00009   0.00000   0.03217   0.03215   3.11411
   D62       -1.02987   0.00088   0.00000   0.04210   0.04211  -0.98775
   D63        3.07381  -0.00053   0.00000   0.01950   0.01952   3.09333
   D64        1.03995   0.00059   0.00000   0.04025   0.04023   1.08018
   D65       -1.22649  -0.00021   0.00000  -0.01715  -0.01721  -1.24370
   D66        3.03078  -0.00036   0.00000  -0.01629  -0.01635   3.01443
   D67        0.90677   0.00060   0.00000  -0.00183  -0.00175   0.90501
   D68       -1.11915   0.00045   0.00000  -0.00097  -0.00090  -1.12004
   D69        2.99019  -0.00034   0.00000  -0.01373  -0.01374   2.97644
   D70        0.96427  -0.00049   0.00000  -0.01287  -0.01289   0.95139
         Item               Value     Threshold  Converged?
 Maximum Force            0.014437     0.000450     NO 
 RMS     Force            0.002736     0.000300     NO 
 Maximum Displacement     0.293108     0.001800     NO 
 RMS     Displacement     0.073865     0.001200     NO 
 Predicted change in Energy=-1.831563D-03
 GradGradGradGradGradGradGradGradGradGradGradGradGradGradGradGradGradGrad

                          Input orientation:                          
 ---------------------------------------------------------------------
 Center     Atomic      Atomic             Coordinates (Angstroms)
 Number     Number       Type             X           Y           Z
 ---------------------------------------------------------------------
      1          8           0        0.803235    0.698793    1.519255
      2          6           0        1.152209    0.115159    0.498001
      3          7           0        0.317995   -0.736452   -0.184135
      4          6           0       -0.943526   -1.176962    0.372701
      5          6           0       -0.876509   -2.681117    0.626559
      6          8           0       -1.871301   -3.099616    1.436740
      7          8           0       -0.058149   -3.429225    0.138668
      8          6           0       -2.155786   -0.874892   -0.541196
      9          6           0       -2.435282    0.587729   -0.707677
     10          6           0       -1.945201    1.729450   -0.117403
     11          7           0       -2.572575    2.853318   -0.617433
     12          6           0       -3.434216    2.405377   -1.500268
     13          7           0       -3.395153    1.041179   -1.598371
     14          6           0        2.514067    0.334597   -0.145494
     15          6           0        3.568414    0.778945    0.869195
     16          7           0        4.832572    1.058653    0.181299
     17          1           0        0.728274   -1.348451   -0.876671
     18          1           0       -1.071323   -0.661382    1.328534
     19          1           0       -1.773465   -4.063218    1.523441
     20          1           0       -3.031027   -1.381958   -0.114567
     21          1           0       -1.972140   -1.342889   -1.519430
     22          1           0       -1.170636    1.800770    0.633559
     23          1           0       -4.107335    3.006966   -2.095783
     24          1           0       -3.962956    0.468591   -2.204174
     25          1           0        2.839395   -0.573962   -0.669650
     26          1           0        2.410877    1.113724   -0.910879
     27          1           0        3.641866    0.023013    1.669112
     28          1           0        3.218285    1.698227    1.345769
     29          1           0        5.254671    0.187947   -0.135434
     30          1           0        5.494742    1.467597    0.835732
 ---------------------------------------------------------------------
                    Distance matrix (angstroms):
                    1          2          3          4          5
     1  O    0.000000
     2  C    1.226936   0.000000
     3  N    2.279676   1.373486   0.000000
     4  C    2.807884   2.465235   1.447602   0.000000
     5  C    3.878432   3.457078   2.421939   1.526898   0.000000
     6  O    4.646274   4.511942   3.606217   2.385277   1.349498
     7  O    4.437176   3.762544   2.738012   2.431327   1.211370
     8  C    3.934176   3.605962   2.503248   1.547911   2.502529
     9  C    3.931863   3.814062   3.099691   2.550821   3.859445
    10  C    3.360774   3.546633   3.347713   3.113003   4.598770
    11  N    4.539108   4.755599   4.629211   4.458399   5.920653
    12  C    5.475941   5.502133   5.067778   4.748126   6.077637
    13  N    5.240541   5.092228   4.352873   3.849123   5.014914
    14  C    2.414741   1.522135   2.443639   3.808974   4.602891
    15  C    2.841693   2.533070   3.737801   4.942639   5.638107
    16  N    4.260890   3.812552   4.872099   6.196605   6.839426
    17  H    3.152346   2.052217   1.011176   2.094100   2.571192
    18  H    2.323880   2.497378   2.055239   1.093513   2.147103
    19  H    5.414439   5.202877   4.284554   3.216128   1.875935
    20  H    4.658376   4.485094   3.411374   2.153396   2.622790
    21  H    4.593993   3.994682   2.719466   2.160032   2.756181
    22  H    2.427957   2.873198   3.053217   2.997751   4.491533
    23  H    6.519958   6.538583   6.103370   5.797271   7.085455
    24  H    6.052561   5.795824   4.884591   4.297103   5.240216
    25  H    3.249178   2.164461   2.572855   3.969962   4.464102
    26  H    2.943167   2.136895   2.886427   4.259911   5.250852
    27  H    2.921808   2.752886   3.880648   4.913903   5.367956
    28  H    2.619434   2.737423   4.084109   5.151140   6.038481
    29  H    4.776425   4.151714   5.022713   6.367010   6.812014
    30  H    4.802968   4.560783   5.718100   6.975628   7.605815
                    6          7          8          9         10
     6  O    0.000000
     7  O    2.254142   0.000000
     8  C    2.990412   3.374451   0.000000
     9  C    4.302687   4.743731   1.498364   0.000000
    10  C    5.073530   5.498951   2.646988   1.375547   0.000000
    11  N    6.336311   6.809139   3.752209   2.271538   1.380836
    12  C    6.432237   6.937327   3.648885   2.220340   2.141578
    13  N    5.355391   5.842723   2.514950   1.385751   2.183883
    14  C    5.790401   4.567647   4.840142   4.987602   4.672416
    15  C    6.704912   5.603063   6.122977   6.210269   5.681266
    16  N    7.988069   6.637922   7.286820   7.337148   6.817433
    17  H    3.895669   2.445198   2.941871   3.712875   4.146979
    18  H    2.568396   3.178562   2.171989   2.750784   2.927538
    19  H    0.972429   2.293874   3.817634   5.200693   6.023029
    20  H    2.588797   3.618485   1.097805   2.141579   3.295435
    21  H    3.440233   3.281075   1.099859   2.144931   3.377229
    22  H    5.014959   5.369859   3.083786   2.206742   1.081194
    23  H    7.400602   7.925480   4.614553   3.251970   3.197008
    24  H    5.510298   5.994114   2.799340   2.141842   3.164762
    25  H    5.745125   4.147488   5.005886   5.401221   5.338824
    26  H    6.449853   5.275985   4.994564   4.878854   4.470362
    27  H    6.340333   5.286805   6.269327   6.549790   6.108917
    28  H    6.995103   6.203456   6.249977   6.116589   5.366882
    29  H    8.003704   6.433126   7.497276   7.721571   7.363063
    30  H    8.687878   7.436353   8.118729   8.126595   7.505316
                   11         12         13         14         15
    11  N    0.000000
    12  C    1.312430   0.000000
    13  N    2.218720   1.368278   0.000000
    14  C    5.695666   6.442484   6.126091   0.000000
    15  C    6.650175   7.569442   7.392490   1.529276   0.000000
    16  N    7.661267   8.542898   8.418016   2.450820   1.466129
    17  H    5.349549   5.639718   4.820149   2.560532   3.954776
    18  H    4.288783   4.794829   4.106783   4.002469   4.879825
    19  H    7.284257   7.331005   6.199230   6.364673   7.239493
    20  H    4.289594   4.052978   2.864586   5.804790   7.013552
    21  H    4.333852   4.023372   2.777585   4.982741   6.395736
    22  H    2.153665   3.169000   3.241445   4.041487   4.853683
    23  H    2.136496   1.081498   2.149172   7.401901   8.524804
    24  H    3.183996   2.127484   1.008591   6.797643   8.140237
    25  H    6.406122   6.994611   6.506980   1.098207   2.174826
    26  H    5.286501   6.015052   5.847042   1.097042   2.149565
    27  H    7.201263   8.111199   7.825135   2.159123   1.103039
    28  H    6.222737   7.270196   7.268922   2.139924   1.093066
    29  H    8.282651   9.070640   8.814059   2.744543   2.049882
    30  H    8.313454   9.276993   9.226967   3.336303   2.045996
                   16         17         18         19         20
    16  N    0.000000
    17  H    4.874291   0.000000
    18  H    6.255450   2.928061   0.000000
    19  H    8.466088   4.403317   3.479006   0.000000
    20  H    8.238951   3.835919   2.538151   3.384330   0.000000
    21  H    7.413770   2.775861   3.063792   4.086409   1.759662
    22  H    6.065788   3.975455   2.560282   5.961682   3.761716
    23  H    9.428837   6.621103   5.865159   8.278480   4.934198
    24  H    9.132359   5.203033   4.703021   6.263089   2.942700
    25  H    2.713356   2.258212   4.392505   6.185712   5.951709
    26  H    2.657158   2.982387   4.504630   7.087691   6.039608
    27  H    2.168852   4.104989   4.774782   6.785596   7.048614
    28  H    2.090686   4.519031   4.895793   7.625181   7.118569
    29  H    1.018143   4.837170   6.548493   8.379676   8.433139
    30  H    1.016851   5.794968   6.920160   9.159131   9.039456
                   21         22         23         24         25
    21  H    0.000000
    22  H    3.893630   0.000000
    23  H    4.879803   4.186695   0.000000
    24  H    2.777352   4.198152   2.544787   0.000000
    25  H    4.946134   4.839220   7.944430   7.050792   0.000000
    26  H    5.061237   3.960373   6.890243   6.535638   1.757870
    27  H    6.599208   5.233828   9.117484   8.546005   2.543648
    28  H    6.663202   4.447514   8.198889   8.104586   3.060770
    29  H    7.515696   6.669116   9.971810   9.451090   2.588329
    30  H    8.318650   6.676761  10.156934   9.984342   3.672193
                   26         27         28         29         30
    26  H    0.000000
    27  H    3.059630   0.000000
    28  H    2.466984   1.757929   0.000000
    29  H    3.089586   2.425846   2.936286   0.000000
    30  H    3.561754   2.492889   2.344266   1.624284   0.000000
 Symmetry turned off by external request.
 Stoichiometry    C9H14N4O3
 Framework group  C1[X(C9H14N4O3)]
 Deg. of freedom    84
 Full point group                 C1      NOp   1
 Rotational constants (GHZ):      0.5554380      0.3361952      0.2284809
 Standard basis: 6-31G(d,p) (6D, 7F)
   310 basis functions,   546 primitive gaussians,   310 cartesian basis functions
    60 alpha electrons       60 beta electrons
       nuclear repulsion energy      1103.6506688998 Hartrees.
 NAtoms=   30 NActive=   30 NUniq=   30 SFac= 1.00D+00 NAtFMM=   60 NAOKFM=F Big=F
 Integral buffers will be    131072 words long.
 Raffenetti 2 integral format.
 Two-electron integral symmetry is turned off.
 One-electron integrals computed using PRISM.
 NBasis=   310 RedAO= T EigKep=  1.16D-03  NBF=   310
 NBsUse=   310 1.00D-06 EigRej= -1.00D+00 NBFU=   310
 Initial guess from the checkpoint file:  "conf-422.chk"
 B after Tr=    -0.006974   -0.017911    0.005786
         Rot=    0.999997   -0.001127   -0.000945    0.001705 Ang=  -0.26 deg.
 ExpMin= 1.61D-01 ExpMax= 5.48D+03 ExpMxC= 8.25D+02 IAcc=2 IRadAn=         4 AccDes= 0.00D+00
[...]
 .00433146,-0.00259791,0.00463719,-0.00067666,-0.00865936,-0.00270550,-
 0.01953435,0.00199188,-0.02190910,-0.10246901,-0.19161295,-0.14530723,
 -0.00002309,-0.00000508,-0.00002195,0.00000111,0.00000427,0.00000619,-
 0.00000437,-0.00001175,0.00000417,0.00001955,0.00000847,0.00002233,-0.
 00013937,0.00009910,-0.00010601,0.00001816,-0.00001164,0.00004075,-0.0
 0003988,-0.00023116,0.00033863,0.00039965,-0.00037055,-0.00047793,0.00
 005714,0.00111140,0.00007826,0.00055047,-0.00003238,0.00074475,0.11316
 331,0.18538175,0.00003553,0.00014871,0.00005850,-0.00016657,-0.0002802
 0,-0.00017431,0.00038569,0.00018751,0.00005991,-0.00030430,-0.00014145
 ,-0.00006577,-0.00009820,0.00033999,0.00016664,0.00007552,-0.00006062,
 -0.00000033,0.00011784,-0.00019183,-0.00011631,0.00100102,-0.00018129,
 0.00052699,0.00057280,-0.01523440,-0.00879185,-0.00390886,0.00128381,-
 0.00230098,-0.00238367,0.00125259,0.00409298,0.00635845,0.00137942,-0.
 00122837,-0.16406241,-0.14467228,-0.21643598,0.00002711,0.00003413,0.0
 0000925,-0.00002645,-0.00001212,-0.00001714,0.00002771,0.00002352,-0.0
 0001751,0.00001524,-0.00001082,0.00004566,0.00002745,-0.00004501,0.000
 02453,-0.00000670,0.00002032,-0.00001902,0.00002186,0.00059759,-0.0004
 1509,-0.00017044,0.00013546,0.00002883,-0.00093347,-0.00090676,0.00085
 058,0.00047806,-0.00000391,-0.00056585,0.16289185,0.15634199,0.2242677
 4,-0.00567345,-0.00266411,0.00476174,-0.00353884,0.02898634,0.01158169
 ,-0.00008216,-0.00139605,-0.00076425,0.00047262,-0.00045819,-0.0002922
 8,-0.00032883,0.00026593,0.00023195,0.00009468,-0.00007609,-0.00008392
 ,0.00020837,-0.00013510,-0.00009840,0.00010712,0.00004439,-0.00004630,
 0.00004522,0.00005302,0.00003354,0.00002348,0.00002301,0.00010102,-0.0
 0003203,-0.00002540,-0.00002515,-0.00001189,0.00000722,-0.00001839,-0.
 00004932,-0.00002198,-0.00007288,-0.07556516,0.06430627,0.03390434,0.0
 0754054,-0.02158176,-0.01118233,0.00214931,0.00043807,0.00006117,-0.00
 207238,-0.00098143,-0.00006899,0.00039789,0.00026466,0.00009873,-0.000
 02316,-0.00001113,0.00001776,0.00002580,-0.00002083,0.00001700,-0.0000
 3693,-0.00001330,-0.00003075,0.00010608,-0.00007211,-0.00001124,-0.000
 00686,-0.00000260,-0.00000768,-0.00000661,0.00001031,0.00000428,0.0807
 1321,-0.00079918,0.00084715,0.00193695,-0.00404497,0.00335582,0.002166
 69,-0.00047312,0.00005939,0.00055826,0.00035341,0.00060823,-0.00004204
 ,0.00016150,-0.00010714,-0.00007232,-0.00005262,0.00001741,0.00003615,
 -0.00007055,0.00008127,0.00005912,-0.00001004,-0.00001865,-0.00002481,
 -0.00003124,-0.00004795,-0.00002988,-0.00000771,-0.00001147,-0.0000598
 8,0.00004140,0.00004157,0.00001306,-0.00001392,-0.00001604,-0.00001597
 ,0.00004061,0.00003590,0.00007413,0.06666721,-0.22403575,-0.09708116,0
 .00344155,-0.00880809,-0.00458074,0.00012621,0.00075529,0.00071679,-0.
 00010125,0.00065005,0.00033882,-0.00007904,0.00002976,0.00012991,0.000
 00455,-0.00000064,-0.00001175,0.00000736,0.00001493,0.00000018,0.00001
 140,0.00001919,0.00002011,-0.00004814,-0.00000636,0.00003192,0.0000036
 9,0.00000057,0.00000433,0.00000796,-0.00000807,-0.00000677,-0.06923961
 ,0.24362685,0.00428251,0.00105882,-0.00091815,0.00244012,-0.01388218,-
 0.00981230,-0.00139802,0.00038509,0.00045227,0.00006085,0.00060063,-0.
 00026703,0.00035529,-0.00017629,-0.00018054,-0.00012358,0.00001166,0.0
 0010463,-0.00026492,0.00008445,0.00002045,-0.00012026,-0.00002461,0.00
 010391,-0.00001010,-0.00003651,0.00000047,-0.00001728,-0.00002183,-0.0
 0003995,0.00000133,0.00001645,0.00001921,0.00000188,0.00000546,0.00000
 167,0.00001786,0.00001971,0.00001857,0.03481813,-0.09616817,-0.0981250
 5,0.00766334,-0.01964457,-0.01066939,0.00070859,0.00123595,0.00083550,
 0.00030382,0.00006044,0.00112097,-0.00015405,-0.00007597,0.00002680,0.
 00002996,0.00001578,-0.00000996,-0.00003485,0.00001100,-0.00003351,0.0
 0001698,-0.00000288,0.00001373,-0.00003660,0.00003677,-0.00002833,0.00
 000146,0.00000257,0.00000172,0.00000130,-0.00000566,0.00000632,-0.0377
 2627,0.10827166,0.10739817,-0.00270432,0.00274963,-0.00120218,0.005344
 25,-0.02357568,0.02228481,-0.00219457,0.00089924,-0.00130655,-0.000347
 05,0.00085372,-0.00103438,0.00019830,0.00025724,-0.00016127,-0.0000448
 6,-0.00004486,0.00004133,0.00000344,-0.00015219,0.00001981,-0.00028572
 ,-0.00025836,0.00036624,0.00002016,-0.00017237,-0.00005796,0.00013188,
 0.00005891,0.00003725,-0.00001779,0.00009990,-0.00009984,-0.00003896,0
 .00003941,-0.00002567,0.00003241,0.00003879,0.00001380,-0.04733408,0.0
 1803618,-0.01560768,-0.00361203,0.01687754,-0.01825567,0.00181402,0.00
 069513,0.00102954,-0.00004869,-0.00040676,0.00056568,0.00006188,0.0000
 9519,0.00003344,0.00000750,0.00001401,-0.00001567,-0.00016640,0.000065
 32,-0.00009782,0.00000517,-0.00000018,-0.00000175,0.00002818,-0.000100
 41,0.00007313,-0.00000663,0.00000456,0.00000060,-0.00001418,-0.0000155
 0,0.00001808,-0.00122236,0.00774659,-0.00756885,0.05239494,0.00065468,
 -0.00050988,-0.00078858,-0.00070154,-0.00360733,0.00243051,-0.00109238
 ,0.00088649,-0.00031222,-0.00036228,0.00016860,-0.00033096,0.00016770,
 -0.00002632,-0.00007071,-0.00005410,0.00000219,0.00004003,-0.00010865,
 0.00002851,-0.00001086,-0.00008409,-0.00004078,0.00015291,-0.00000421,
 -0.00005002,0.00000392,0.00000894,0.00001286,0.00001820,-0.00001583,-0
 .00000390,-0.00000740,0.00000106,0.00002016,0.00000826,0.00000947,0.00
 000936,-0.00004343,0.02255946,-0.17678072,0.12977244,-0.00193724,0.007
 94878,-0.00825117,0.00073695,0.00005110,-0.00026754,0.00027259,-0.0004
 8104,0.00074381,0.00000801,-0.00000934,-0.00001291,0.00001224,0.000008
 44,-0.00000011,-0.00002989,0.00001415,-0.00003765,-0.00000989,-0.00002
 023,-0.00001304,-0.00003832,0.00002585,-0.00003055,-0.00000178,0.00000
 318,0.00000246,-0.00001726,-0.00000439,0.00001221,0.00272809,-0.019177
 34,0.01883884,-0.02126348,0.19005186,0.00215340,-0.00157909,0.00105834
 ,-0.00116621,0.00977902,-0.01140230,-0.00043720,-0.00069664,0.00021858
 ,0.00046787,-0.00003516,0.00010994,-0.00005315,-0.00000537,0.00004172,
 -0.00002566,-0.00005503,0.00003459,-0.00002682,-0.00000968,0.00001125,
 -0.00000743,0.00004362,-0.00006883,0.00002545,0.00003850,0.00003132,-0
 .00004304,-0.00003512,-0.00001551,-0.00001223,-0.00004199,0.00003428,0
 .00001936,0.00000629,0.00002358,-0.00002513,-0.00002586,-0.00003319,-0
 .01992883,0.13017329,-0.17258147,-0.00460398,0.01641116,-0.01937345,0.
 00178896,-0.00024511,0.00230824,0.00000144,-0.00003699,0.00008770,-0.0
 0007075,-0.00006566,-0.00002512,-0.00000787,-0.00000350,-0.00000252,0.
 00000407,-0.00002263,0.00000777,0.00000661,-0.00000814,0.00000222,0.00
 002564,0.00005980,-0.00004989,-0.00000045,0.00000145,-0.00000078,0.000
 00351,0.00000326,0.00000273,0.00136330,-0.01123507,0.01130608,0.022814
 82,-0.14041990,0.18993413,-0.00006520,-0.00001982,0.00125074,0.0016936
 5,0.00054869,-0.00226328,-0.00049749,-0.00033927,0.00026581,0.00013732
 ,0.00000749,-0.00010571,-0.00003342,0.00011460,-0.00005185,-0.00003180
 ,-0.00007132,0.00005149,0.00001068,-0.00007323,0.00003946,-0.00003383,
 -0.00001125,0.00001792,0.00000852,0.00000740,0.00001988,-0.00001462,-0
 .00001397,0.00000816,-0.00002033,-0.00000055,0.00000830,0.00000680,0.0
 0000068,0.00000146,-0.00001635,-0.00000394,-0.00000608,-0.00460827,0.0
 1635767,-0.01619396,-0.05665567,0.02688746,-0.02548834,-0.00527245,-0.
 02510920,0.02844617,0.00003562,0.00015993,-0.00003069,-0.00002554,0.00
 000912,0.00001434,-0.00000503,-0.00000274,-0.00000761,-0.00002489,0.00
 000197,-0.00000612,0.00001198,0.00000558,0.00000319,0.00001844,0.00000
 646,-0.00002045,-0.00000040,0.00000035,-0.00000370,0.00001279,0.000001
 62,0.00000072,0.00087987,-0.00048542,0.00076594,-0.00338801,-0.0020405
 5,-0.00332302,0.06525057,-0.00009817,0.00040093,-0.00094324,0.00003821
 ,0.00073935,0.00101924,0.00027232,-0.00017074,-0.00017396,0.00003135,0
 .00002460,0.00004327,0.00003373,-0.00004180,0.00004126,-0.00000763,0.0
 0001567,-0.00003249,-0.00002769,0.00001690,-0.00002983,0.00002343,-0.0
 0000418,-0.00000704,-0.00000013,-0.00001334,-0.00000148,0.00000141,-0.
 00000348,-0.00000065,0.00001523,0.00002168,-0.00000844,-0.00001335,-0.
 00000226,-0.00001721,0.00000846,0.00001852,0.00001002,-0.00253513,0.00
 730980,-0.00888719,0.02920964,-0.16901172,0.11170661,-0.00680056,-0.00
 202431,0.00800313,-0.00003413,-0.00006880,0.00001379,0.00001733,-0.000
 01113,0.00000497,0.00001477,0.00000691,0.00001443,0.00000413,0.0000043
 4,0.00000195,-0.00000562,0.00000382,-0.00000529,-0.00000508,-0.0000242
 5,0.00000765,-0.00000301,0.00000023,0.00000040,-0.00000286,-0.00000271
 ,0.00000602,0.00060947,0.00106260,0.00044651,-0.00220403,0.00047207,-0
 .00195837,-0.02260056,0.17885776,-0.00027915,0.00025713,0.00132391,0.0
 0145934,-0.00007744,-0.00203685,-0.00052211,-0.00034058,0.00044340,0.0
 0009944,-0.00007900,-0.00010098,-0.00018006,0.00019691,-0.00000882,0.0
 0002962,-0.00007490,0.00002687,0.00012602,-0.00012571,0.00004929,-0.00
 003843,-0.00001096,0.00000847,0.00000741,0.00001449,0.00001475,-0.0000
 2069,-0.00000155,-0.00000245,-0.00001410,-0.00001166,0.00001929,0.0000
 0970,-0.00000335,0.00000450,-0.00001014,-0.00000792,0.00000742,-0.0073
 3855,0.01543661,-0.01569108,-0.02734185,0.11098589,-0.16406564,0.00919
 935,0.01248921,-0.01238664,-0.00001291,0.00021700,-0.00013866,-0.00002
 722,0.00002307,0.00001112,-0.00002958,-0.00001320,-0.00001179,-0.00002
 153,0.00000055,-0.00000345,0.00001327,0.00000652,0.00000687,0.00000647
 ,0.00000014,-0.00001513,0.00000400,-0.00000077,-0.00000252,0.00001304,
 0.00000463,-0.00000687,0.00100821,0.00014520,0.00066173,-0.00290748,-0
 .00145104,-0.00231082,0.02503965,-0.12786277,0.18247150,-0.00135776,0.
 00093673,0.00098583,0.00079958,-0.00199278,-0.00178712,0.00037719,0.00
 073869,0.00093706,-0.00023027,0.00011447,0.00020244,0.00006630,-0.0001
 4910,-0.00000419,0.00000040,0.00005754,-0.00000644,-0.00005446,0.00009
 408,0.00001004,0.00000637,0.00000044,-0.00002002,-0.00001753,-0.000009
 32,-0.00001878,-0.00002500,0.00000004,-0.00005161,0.00002501,-0.000002
 32,0.00002041,0.00000794,-0.00000666,0.00001061,0.00002778,0.00000690,
 0.00003881,0.00817785,-0.02019778,-0.01111923,-0.07753099,0.07388680,0
 .03795526,-0.01534358,0.02397525,0.01770385,0.00047128,0.00020311,-0.0
 0002005,-0.00013301,-0.00009246,-0.00002158,0.00000118,-0.00000121,-0.
 00000175,0.00001722,0.00000083,0.00000400,0.00000584,0.00000228,0.0000
 0714,-0.00004837,0.00002147,-0.00000043,0.00000489,0.00000043,0.000005
 52,-0.00000067,-0.00000276,-0.00000498,-0.00390741,-0.00196115,-0.0033
 7672,0.00108098,0.00042931,0.00055276,-0.00048237,0.00527225,0.0016714
 4,0.09274710,0.00104629,0.00174069,0.00200890,0.00150980,-0.00172301,-
 0.00329973,-0.00000020,0.00045370,0.00072126,-0.00005747,0.00003618,0.
 00004445,0.00010121,-0.00013502,-0.00002088,-0.00003351,0.00002636,0.0
 0002480,-0.00009412,0.00010073,0.00000625,0.00000138,-0.00000070,-0.00
 000460,-0.00001734,-0.00000998,-0.00001296,-0.00002007,-0.00000664,-0.
 00003871,0.00001139,0.00000422,0.00002100,0.00000547,-0.00000638,0.000
 00572,0.00001874,0.00000964,0.00003085,0.00156568,-0.00923823,-0.00444
 263,0.07706619,-0.23746146,-0.09800334,-0.00386747,0.01059078,0.005410
 45,0.00014637,0.00018104,0.00006236,-0.00008133,-0.00004852,0.00001092
 ,0.00000882,0.00000003,-0.00000268,0.00000586,0.00000242,0.00000017,0.
 00000768,0.00000233,0.00000940,-0.00003513,0.00002232,-0.00000667,0.00
 000394,0.00000047,0.00000278,0.00000347,-0.00000278,-0.00000417,-0.001
 74974,0.00093740,-0.00121658,-0.00026075,0.00109668,0.00025625,0.00708
 519,-0.01908557,-0.00911805,-0.08055081,0.25025516,0.00069240,0.001423
 70,0.00049280,0.00104980,-0.00071121,-0.00082335,-0.00010797,-0.000150
 71,0.00000676,0.00003765,0.00008874,0.00002321,0.00003139,-0.00000248,
 -0.00001778,-0.00002270,-0.00001049,0.00001658,-0.00002846,0.00000288,
 0.00002953,0.00000103,-0.00002481,0.00000094,-0.00001024,-0.00002787,-
 0.00001170,0.,-0.00000768,-0.00002030,0.00002662,0.00003080,-0.0000028
 8,-0.00001506,-0.00000586,-0.00001868,0.00002178,0.00002575,0.00003574
 ,0.00486934,-0.02008199,-0.01135207,0.03923994,-0.09287435,-0.10115625
 ,0.00767136,-0.01312531,-0.00912286,0.00014062,0.00012895,0.00005387,-
 0.00003971,-0.00000916,0.00002696,-0.00000032,0.00000020,-0.00000312,-
 0.00000778,0.00001225,-0.00000474,0.00000164,0.00000895,0.00000195,-0.
 00001885,-0.00001723,0.00001851,-0.00000019,0.00000040,0.00000193,0.00
 000003,-0.00000457,0.00000139,-0.00307266,-0.00128263,-0.00238715,0.00
 092912,0.00000847,0.00061663,-0.00769117,0.01984089,0.01065385,-0.0462
 6865,0.10585607,0.11261449,-0.00000051,-0.00054990,-0.00096243,-0.0006
 9989,-0.00018827,0.00111626,0.00012010,-0.00002725,-0.00015683,-0.0000
 7431,-0.00002192,0.00002712,-0.00008606,-0.00000086,0.00006661,0.00005
 976,0.00003213,-0.00005358,0.00006954,-0.00000828,-0.00003670,-0.00000
 161,0.00001169,-0.00000456,0.00000481,0.00001375,-0.00000150,0.0000080
 5,0.00000545,0.00000722,0.00000268,-0.00001597,-0.00000600,0.00000390,
 0.00000216,0.00000773,-0.00000298,-0.00001366,-0.00001711,0.00097303,0
 .00180061,0.00085348,-0.01469530,0.03203854,0.00906455,-0.13178114,0.1
 3086757,0.06242857,-0.00008796,-0.00005689,-0.00002058,0.00001223,-0.0
 0000056,-0.00001340,-0.00000840,-0.00000548,0.00000889,0.00001051,-0.0
 0000538,0.00000241,-0.00000408,-0.00000743,-0.00000288,0.00000136,0.00
 001102,0.00000467,-0.00000115,-0.00000057,0.00000149,-0.00000882,0.000
 00196,0.00000056,-0.00053555,-0.00108073,-0.00074572,-0.00007617,0.000
 00611,0.00007378,0.00184557,-0.00087797,-0.00015356,-0.00532323,-0.002
 68547,0.00282402,0.13876607,-0.00019905,-0.00004559,0.00007078,0.00008
 813,0.00007842,0.00006069,0.00010662,-0.00001324,-0.00001075,-0.000041
 54,0.00000702,0.00001861,-0.00004465,-0.00001001,0.00002500,0.00003401
 ,0.00002141,-0.00002066,0.00004109,0.00000428,0.00000005,0.00000056,0.
 00000211,-0.00001301,-0.00000432,0.00000474,-0.00000727,-0.00000457,0.
 00000211,-0.00000907,0.00001223,-0.00000123,0.00000948,-0.00000105,-0.
 00000840,-0.00000171,0.00000807,0.00000301,0.00001435,0.00044838,0.000
 97956,0.00046537,-0.00843335,0.00659689,0.00927948,0.13339989,-0.31070
 420,-0.13295460,-0.00002672,0.00000094,-0.00003842,-0.00000018,0.00000
 177,-0.00000286,-0.00001010,-0.00000554,-0.00000149,0.00000706,-0.0000
 0133,0.00000305,-0.00000021,0.00000098,0.00000381,-0.00000787,0.000000
 26,0.00000284,0.00000230,-0.00000118,0.00000129,-0.00000083,0.00000089
 ,-0.00000544,0.00051597,-0.00011360,-0.00009735,0.00007028,-0.00022582
 ,-0.00007308,-0.00066134,0.00183529,0.00008387,-0.00170975,0.00148294,
 0.00095597,-0.13582810,0.31763657,0.00016506,0.00002564,-0.00020958,-0
 .00001437,-0.00018179,-0.00001100,-0.00007267,0.00005561,-0.00006002,-
 0.00000582,-0.00002744,0.00000440,0.00001207,-0.00002935,0.00003503,-0
 .00000043,0.00001048,-0.00002409,-0.00002179,0.00001614,-0.00004399,0.
 00000617,0.00000492,0.00001340,0.00000394,-0.00000471,0.00000311,0.000
 00968,-0.00000027,0.00000514,-0.00000267,-0.00000128,-0.00001346,-0.00
 000105,0.00001024,0.00000152,-0.00000151,-0.00000333,-0.00001811,-0.00
 092046,0.00108345,0.00097961,0.01341285,-0.01599191,-0.01140143,0.0369
 3436,-0.08386213,-0.05394634,-0.00002726,-0.00004549,0.00007622,0.0000
 1109,-0.00000623,0.,0.00001125,0.00000334,0.00001441,0.00000165,0.0000
 0032,-0.00000228,-0.00000461,-0.00000528,-0.00000735,0.00000102,0.0000
 0094,0.00000269,-0.00000375,0.00000118,0.00000086,-0.00000779,-0.00000
 116,0.00000855,0.00022323,-0.00035366,0.00039588,-0.00008597,0.0003042
 0,-0.00007183,-0.00140989,-0.00148914,0.00069017,0.00305168,0.00189844
 ,-0.00057644,-0.06317707,0.12211348,0.07512320,-0.00003862,0.00033935,
 0.00067123,0.00013102,-0.00104596,-0.00276240,-0.00110595,-0.00022064,
 0.00048573,0.00015845,-0.00014883,-0.00020103,-0.00002542,0.00018404,-
 0.00006207,-0.00006304,-0.00011377,0.00007244,-0.00001354,-0.00009911,
 0.00002909,-0.00002583,-0.00004717,0.00005191,0.00000584,-0.00002915,0
 .00001264,-0.00000418,-0.00001014,0.00001212,-0.00000878,0.00003358,-0
 .00000229,-0.00001647,0.00000399,-0.00002453,-0.00000019,0.00002477,0.
 00000992,-0.00623556,-0.00095054,0.00563811,-0.02024895,-0.01180500,-0
 .02568243,-0.20377931,-0.11236639,-0.13955803,0.00000853,0.00009045,0.
 00005385,0.00001415,0.00001516,0.00001417,0.00000175,0.00000202,-0.000
 00330,-0.00004130,0.00001605,-0.00001977,0.00000221,0.00000972,-0.0000
 0533,0.00002142,-0.00003234,-0.00001315,-0.00000225,0.00000126,-0.0000
 0372,0.00000799,-0.00000284,0.00000630,0.00032873,-0.00011475,0.000107
 89,0.00037869,0.00016686,0.00043080,0.00126387,-0.00033580,0.00021037,
 0.00063774,0.00086592,-0.00025300,0.01150956,0.01223903,0.01191307,0.2
 1713944,0.00024644,-0.00014989,0.00006492,-0.00025825,0.00053349,-0.00
 024087,0.00035107,0.00010205,-0.00001437,-0.00005272,0.00000715,0.0000
 5595,-0.00006659,-0.00003823,0.00005222,0.00006086,0.00004442,-0.00003
 920,0.00005764,0.00001777,-0.00001260,0.00000093,0.00002629,-0.0000277
 6,-0.00000047,0.00002154,-0.00000748,-0.00000178,0.00001033,-0.0000129
 9,0.00000173,-0.00003500,0.00000617,0.00001573,0.00000316,0.00002320,-
 0.00000061,-0.00002488,-0.00000788,0.00027986,0.00048358,0.00129617,-0
 .00768966,-0.00566596,-0.00311724,-0.08402794,-0.09771273,-0.10465716,
 -0.00003046,-0.00003025,-0.00004551,-0.00001124,-0.00000261,-0.0000079
 7,-0.00001585,-0.00000578,-0.00000243,0.00002103,-0.00001080,0.0000089
 8,0.00000003,-0.00000841,0.00000320,-0.00001571,0.00002686,0.00000647,
 0.00000367,-0.00000033,0.00000300,-0.00000566,0.00000384,-0.00000619,0
 .00019667,0.00020771,0.00025080,-0.00014706,0.00013681,-0.00022024,0.0
 0023895,-0.00032617,-0.00068233,0.00093547,0.00077520,-0.00004766,-0.0
 2341630,-0.01752908,-0.02352522,0.11333022,0.11913995,-0.00030551,0.00
 010643,0.00012505,0.00082131,-0.00006999,0.00050323,-0.00011853,-0.000
 04273,-0.00010631,0.00008257,0.00006153,-0.00006424,0.00006656,0.00003
 673,-0.00004780,-0.00004843,-0.00003235,0.00003029,-0.00004499,-0.0000
 2179,0.00001658,-0.00000661,-0.00001872,0.00001975,0.00000297,-0.00001
 112,0.00000899,0.00000546,-0.00000696,0.00001497,-0.00000767,0.0000203
 9,-0.00000977,-0.00000738,-0.00000030,-0.00001199,-0.00000680,0.000011
 10,-0.00000257,0.00134855,0.00056541,-0.00087812,0.01837694,0.01451677
 ,0.00813482,-0.15846236,-0.14622130,-0.19678632,0.00002947,-0.00000141
 ,0.00002795,0.00001493,0.00001138,0.00001037,0.00001254,0.00000801,-0.
 00000111,-0.00001571,0.00000669,-0.00000502,0.00000150,0.00000593,-0.0
 0000239,0.00001435,-0.00001665,-0.00000248,-0.00000316,0.00000036,-0.0
 0000291,0.00000601,-0.00000211,0.00000479,0.00009352,0.00029337,-0.000
 01675,0.00020110,-0.00028819,0.00010661,0.00066864,0.00025694,0.000388
 54,-0.00045527,-0.00019906,0.00090216,-0.01113545,0.00012759,-0.010968
 27,0.14887143,0.13090404,0.19861195\\0.,-0.00000060,0.00000019,-0.0000
 0045,0.00000122,-0.00000134,0.00000047,-0.00000094,0.00000117,-0.00000
 049,0.00000033,-0.00000079,-0.00000018,-0.00000038,0.00000023,0.000000
 15,-0.00000019,-0.00000020,-0.00000054,0.00000037,-0.00000017,0.000000
 08,-0.00000018,0.00000021,0.00000110,0.00000057,-0.00000028,-0.0000010
 8,-0.00000004,0.00000040,-0.00000012,0.00000012,0.00000007,-0.00000015
 ,0.00000056,-0.00000006,0.00000010,-0.00000031,0.00000005,-0.00000017,
 -0.00000042,-0.00000091,0.00000069,-0.00000067,0.00000105,0.00000054,0
 .00000017,0.00000047,0.,0.00000032,-0.00000048,-0.00000034,-0.00000035
 ,0.,-0.00000013,0.00000019,-0.00000023,0.00000005,0.00000009,0.0000001
 0,-0.00000013,0.00000005,0.00000004,0.00000054,-0.00000023,-0.00000028
 ,0.00000016,0.00000016,0.00000002,0.00000008,0.00000029,-0.00000002,-0
 .00000039,-0.00000001,0.00000033,-0.00000041,-0.00000048,0.00000034,0.
 00000019,0.00000007,-0.00000013,0.00000047,0.00000038,-0.00000004,-0.0
 0000005,-0.00000002,0.00000020,0.00000006,-0.00000009,0.00000004\\\@


 HE WHO LAUGHS LAST PROBABLY DIDN'T GET THE JOKE.
 Job cpu time:       0 days  1 hours 14 minutes 34.6 seconds.
 File lengths (MBytes):  RWF=    320 Int=      0 D2E=      0 Chk=      9 Scr=      1
 Normal termination of Gaussian 09 at Wed Jul 28 22:44:29 2021.
