 Entering Gaussian System, Link 0=g09
 Input=opt_freq-conf-900.com
 Output=opt_freq-conf-900.log
 Initial command:
 /aerosol/software/g09/l1.exe "/scratch/nicole/10613/Gau-84686.inp" -scrdir="/scratch/nicole/10613/"
 Entering Link 1 = /aerosol/software/g09/l1.exe PID=     84691.
  
 Copyright (c) 1988,1990,1992,1993,1995,1998,2003,2009,2013,
            Gaussian, Inc.  All Rights Reserved.
  
 This is part of the Gaussian(R) 09 program.  It is based on
 the Gaussian(R) 03 system (copyright 2003, Gaussian, Inc.),
 the Gaussian(R) 98 system (copyright 1998, Gaussian, Inc.),
 the Gaussian(R) 94 system (copyright 1995, Gaussian, Inc.),
 the Gaussian 92(TM) system (copyright 1992, Gaussian, Inc.),
 the Gaussian 90(TM) system (copyright 1990, Gaussian, Inc.),
 the Gaussian 88(TM) system (copyright 1988, Gaussian, Inc.),
 the Gaussian 86(TM) system (copyright 1986, Carnegie Mellon
 University), and the Gaussian 82(TM) system (copyright 1983,
 Carnegie Mellon University). Gaussian is a federally registered
 trademark of Gaussian, Inc.
  
 This software contains proprietary and confidential information,
 including trade secrets, belonging to Gaussian, Inc.
  
 This software is provided under written license and may be
 used, copied, transmitted, or stored only in accord with that
 written license.
  
 The following legend is applicable only to US Government
 contracts under FAR:
  
                    RESTRICTED RIGHTS LEGEND
  
 Use, reproduction and disclosure by the US Government is
 subject to restrictions as set forth in subparagraphs (a)
 and (c) of the Commercial Computer Software - Restricted
 Rights clause in FAR 52.227-19.
  
 Gaussian, Inc.
 340 Quinnipiac St., Bldg. 40, Wallingford CT 06492
  
  
 ---------------------------------------------------------------
 Warning -- This program may not be used in any manner that
 competes with the business of Gaussian, Inc. or will provide
 assistance to any competitor of Gaussian, Inc.  The licensee
 of this program is prohibited from giving any competitor of
 Gaussian, Inc. access to this program.  By using this program,
 the user acknowledges that Gaussian, Inc. is engaged in the
 business of creating and licensing software in the field of
 computational chemistry and represents and warrants to the
 licensee that it is not a competitor of Gaussian, Inc. and that
 it will not use this program in any manner prohibited above.
 ---------------------------------------------------------------
  

 Cite this work as:
 Gaussian 09, Revision D.01,
 M. J. Frisch, G. W. Trucks, H. B. Schlegel, G. E. Scuseria, 
 M. A. Robb, J. R. Cheeseman, G. Scalmani, V. Barone, B. Mennucci, 
 G. A. Petersson, H. Nakatsuji, M. Caricato, X. Li, H. P. Hratchian, 
 A. F. Izmaylov, J. Bloino, G. Zheng, J. L. Sonnenberg, M. Hada, 
 M. Ehara, K. Toyota, R. Fukuda, J. Hasegawa, M. Ishida, T. Nakajima, 
 Y. Honda, O. Kitao, H. Nakai, T. Vreven, J. A. Montgomery, Jr., 
 J. E. Peralta, F. Ogliaro, M. Bearpark, J. J. Heyd, E. Brothers, 
 K. N. Kudin, V. N. Staroverov, T. Keith, R. Kobayashi, J. Normand, 
 K. Raghavachari, A. Rendell, J. C. Burant, S. S. Iyengar, J. Tomasi, 
 M. Cossi, N. Rega, J. M. Millam, M. Klene, J. E. Knox, J. B. Cross, 
 V. Bakken, C. Adamo, J. Jaramillo, R. Gomperts, R. E. Stratmann, 
 O. Yazyev, A. J. Austin, R. Cammi, C. Pomelli, J. W. Ochterski, 
 R. L. Martin, K. Morokuma, V. G. Zakrzewski, G. A. Voth, 
 P. Salvador, J. J. Dannenberg, S. Dapprich, A. D. Daniels, 
 O. Farkas, J. B. Foresman, J. V. Ortiz, J. Cioslowski, 
 and D. J. Fox, Gaussian, Inc., Wallingford CT, 2013.
 
 ******************************************
 Gaussian 09:  ES64L-G09RevD.01 24-Apr-2013
                28-Jul-2021 
 ******************************************
 %mem=2gb
 %nproc=4
 Will use up to    4 processors via shared memory.
 %chk=conf-900.chk
 ----------------------------------------------------------------------
 # B3LYP/6-31G(d,p) opt=calcfc freq=noraman nosymm integral(ultrafinegr
 id)
 ----------------------------------------------------------------------
 1/10=4,14=-1,18=20,19=15,26=4,38=1/1,3;
 2/9=110,12=2,15=1,17=6,18=5,40=1/2;
 3/5=1,6=6,7=101,11=2,16=1,25=1,30=1,71=2,74=-5,75=-5,140=1/1,2,3;
 4//1;
 5/5=2,38=5/2;
 8/6=4,10=90,11=11/1;
 11/6=1,8=1,9=11,15=111,16=1,31=1/1,2,10;
 10/6=1,13=1,31=1/2;
 6/7=2,8=2,9=2,10=2,28=1/1;
 7/10=1,18=20,25=1,30=1/1,2,3,16;
 1/10=4,14=-1,18=20,19=15,26=4/3(2);
 2/9=110,15=1/2;
 99//99;
 2/9=110,15=1/2;
 3/5=1,6=6,7=101,11=2,16=1,25=1,30=1,71=1,74=-5,75=-5/1,2,3;
 4/5=5,16=3,69=1/1;
 5/5=2,38=5/2;
 7/30=1/1,2,3,16;
 1/14=-1,18=20,19=15,26=4/3(-5);
 2/9=110,15=1/2;
 6/7=2,8=2,9=2,10=2,19=2,28=1/1;
 99/9=1/99;
 ------------------------------------------------------------
 Candidate Structure: Conf:900 OPT and FREQ calc in gas phase
 ------------------------------------------------------------
 Symbolic Z-matrix:
 Charge =  0 Multiplicity = 1
 O                    -0.82672   0.57174  -0.96785 
 C                    -1.22909  -0.54922  -0.64952 
 N                    -0.43138  -1.42426  -0.00173 
 C                     0.95992  -1.12022   0.27281 
 C                     1.61867  -2.41781   0.68934 
 O                     2.92994  -2.25252   0.9456 
 O                     1.05262  -3.47689   0.78607 
 C                     1.13632  -0.01601   1.36123 
 C                     1.95978   1.13444   0.8748 
 C                     3.19006   1.59905   1.2347 
 N                     3.54237   2.69371   0.46381 
 C                     2.53244   2.87303  -0.35249 
 N                     1.55281   1.95523  -0.14982 
 C                    -2.63628  -1.03664  -0.95808 
 C                    -3.55512   0.07309  -1.43111 
 N                    -3.82051   1.00949  -0.33497 
 H                    -0.72051  -2.37758   0.15843 
 H                     1.43873  -0.80577  -0.66191 
 H                     3.27157  -3.11944   1.20092 
 H                     0.14997   0.336     1.65821 
 H                     1.60794  -0.42166   2.25634 
 H                     3.8462    1.20985   1.99991 
 H                     2.44361   3.63558  -1.10536 
 H                     0.68931   1.84637  -0.65881 
 H                    -3.04854  -1.50417  -0.05902 
 H                    -2.56143  -1.81752  -1.72349 
 H                    -4.50577  -0.3706   -1.73887 
 H                    -3.10828   0.55223  -2.31242 
 H                    -2.96873   1.53246  -0.16398 
 H                    -4.50977   1.68835  -0.63264 
 

 GradGradGradGradGradGradGradGradGradGradGradGradGradGradGradGradGradGrad
 Berny optimization.
 Initialization pass.
                           ----------------------------
                           !    Initial Parameters    !
                           ! (Angstroms and Degrees)  !
 --------------------------                            --------------------------
 ! Name  Definition              Value          Derivative Info.                !
 --------------------------------------------------------------------------------
 ! R1    R(1,2)                  1.2328         calculate D2E/DX2 analytically  !
 ! R2    R(2,3)                  1.3497         calculate D2E/DX2 analytically  !
 ! R3    R(2,14)                 1.5208         calculate D2E/DX2 analytically  !
 ! R4    R(3,4)                  1.4504         calculate D2E/DX2 analytically  !
 ! R5    R(3,17)                 1.009          calculate D2E/DX2 analytically  !
 ! R6    R(4,5)                  1.5137         calculate D2E/DX2 analytically  !
 ! R7    R(4,8)                  1.5605         calculate D2E/DX2 analytically  !
 ! R8    R(4,18)                 1.0963         calculate D2E/DX2 analytically  !
 ! R9    R(5,6)                  1.3463         calculate D2E/DX2 analytically  !
 ! R10   R(5,7)                  1.2047         calculate D2E/DX2 analytically  !
 ! R11   R(6,19)                 0.9661         calculate D2E/DX2 analytically  !
 ! R12   R(8,9)                  1.4961         calculate D2E/DX2 analytically  !
 ! R13   R(8,20)                 1.0886         calculate D2E/DX2 analytically  !
 ! R14   R(8,21)                 1.09           calculate D2E/DX2 analytically  !
 ! R15   R(9,10)                 1.3634         calculate D2E/DX2 analytically  !
 ! R16   R(9,13)                 1.3745         calculate D2E/DX2 analytically  !
 ! R17   R(10,11)                1.3844         calculate D2E/DX2 analytically  !
 ! R18   R(10,22)                1.0805         calculate D2E/DX2 analytically  !
 ! R19   R(11,12)                1.3109         calculate D2E/DX2 analytically  !
 ! R20   R(12,13)                1.3576         calculate D2E/DX2 analytically  !
 ! R21   R(12,23)                1.0753         calculate D2E/DX2 analytically  !
 ! R22   R(13,24)                1.0082         calculate D2E/DX2 analytically  !
 ! R23   R(14,15)                1.5164         calculate D2E/DX2 analytically  !
 ! R24   R(14,25)                1.094          calculate D2E/DX2 analytically  !
 ! R25   R(14,26)                1.096          calculate D2E/DX2 analytically  !
 ! R26   R(15,16)                1.4659         calculate D2E/DX2 analytically  !
 ! R27   R(15,27)                1.0933         calculate D2E/DX2 analytically  !
 ! R28   R(15,28)                1.0982         calculate D2E/DX2 analytically  !
 ! R29   R(16,29)                1.014          calculate D2E/DX2 analytically  !
 ! R30   R(16,30)                1.0122         calculate D2E/DX2 analytically  !
 ! A1    A(1,2,3)              121.3681         calculate D2E/DX2 analytically  !
 ! A2    A(1,2,14)             122.7535         calculate D2E/DX2 analytically  !
 ! A3    A(3,2,14)             115.8782         calculate D2E/DX2 analytically  !
 ! A4    A(2,3,4)              121.4608         calculate D2E/DX2 analytically  !
 ! A5    A(2,3,17)             121.2899         calculate D2E/DX2 analytically  !
 ! A6    A(4,3,17)             116.2892         calculate D2E/DX2 analytically  !
 ! A7    A(3,4,5)              106.8498         calculate D2E/DX2 analytically  !
 ! A8    A(3,4,8)              112.8802         calculate D2E/DX2 analytically  !
 ! A9    A(3,4,18)             108.5241         calculate D2E/DX2 analytically  !
 ! A10   A(5,4,8)              111.4368         calculate D2E/DX2 analytically  !
 ! A11   A(5,4,18)             106.8843         calculate D2E/DX2 analytically  !
 ! A12   A(8,4,18)             110.0208         calculate D2E/DX2 analytically  !
 ! A13   A(4,5,6)              111.7786         calculate D2E/DX2 analytically  !
 ! A14   A(4,5,7)              124.835          calculate D2E/DX2 analytically  !
 ! A15   A(6,5,7)              123.3863         calculate D2E/DX2 analytically  !
 ! A16   A(5,6,19)             106.5317         calculate D2E/DX2 analytically  !
 ! A17   A(4,8,9)              112.3075         calculate D2E/DX2 analytically  !
 ! A18   A(4,8,20)             108.4622         calculate D2E/DX2 analytically  !
 ! A19   A(4,8,21)             110.9981         calculate D2E/DX2 analytically  !
 ! A20   A(9,8,20)             109.8016         calculate D2E/DX2 analytically  !
 ! A21   A(9,8,21)             108.362          calculate D2E/DX2 analytically  !
 ! A22   A(20,8,21)            106.7591         calculate D2E/DX2 analytically  !
 ! A23   A(8,9,10)             132.2888         calculate D2E/DX2 analytically  !
 ! A24   A(8,9,13)             122.5895         calculate D2E/DX2 analytically  !
 ! A25   A(10,9,13)            105.0974         calculate D2E/DX2 analytically  !
 ! A26   A(9,10,11)            110.6144         calculate D2E/DX2 analytically  !
 ! A27   A(9,10,22)            127.7431         calculate D2E/DX2 analytically  !
 ! A28   A(11,10,22)           121.642          calculate D2E/DX2 analytically  !
 ! A29   A(10,11,12)           105.0013         calculate D2E/DX2 analytically  !
 ! A30   A(11,12,13)           111.7452         calculate D2E/DX2 analytically  !
 ! A31   A(11,12,23)           126.6302         calculate D2E/DX2 analytically  !
 ! A32   A(13,12,23)           121.6246         calculate D2E/DX2 analytically  !
 ! A33   A(9,13,12)            107.5381         calculate D2E/DX2 analytically  !
 ! A34   A(9,13,24)            124.433          calculate D2E/DX2 analytically  !
 ! A35   A(12,13,24)           127.9973         calculate D2E/DX2 analytically  !
 ! A36   A(2,14,15)            112.9165         calculate D2E/DX2 analytically  !
 ! A37   A(2,14,25)            108.5965         calculate D2E/DX2 analytically  !
 ! A38   A(2,14,26)            107.8686         calculate D2E/DX2 analytically  !
 ! A39   A(15,14,25)           109.924          calculate D2E/DX2 analytically  !
 ! A40   A(15,14,26)           110.1777         calculate D2E/DX2 analytically  !
 ! A41   A(25,14,26)           107.1681         calculate D2E/DX2 analytically  !
 ! A42   A(14,15,16)           110.1156         calculate D2E/DX2 analytically  !
 ! A43   A(14,15,27)           108.5228         calculate D2E/DX2 analytically  !
 ! A44   A(14,15,28)           108.8501         calculate D2E/DX2 analytically  !
 ! A45   A(16,15,27)           108.1986         calculate D2E/DX2 analytically  !
 ! A46   A(16,15,28)           113.2703         calculate D2E/DX2 analytically  !
 ! A47   A(27,15,28)           107.7561         calculate D2E/DX2 analytically  !
 ! A48   A(15,16,29)           107.666          calculate D2E/DX2 analytically  !
 ! A49   A(15,16,30)           109.3782         calculate D2E/DX2 analytically  !
 ! A50   A(29,16,30)           106.0034         calculate D2E/DX2 analytically  !
 ! D1    D(1,2,3,4)             -4.0497         calculate D2E/DX2 analytically  !
 ! D2    D(1,2,3,17)          -172.4215         calculate D2E/DX2 analytically  !
 ! D3    D(14,2,3,4)           175.7875         calculate D2E/DX2 analytically  !
 ! D4    D(14,2,3,17)            7.4157         calculate D2E/DX2 analytically  !
 ! D5    D(1,2,14,15)          -11.5739         calculate D2E/DX2 analytically  !
 ! D6    D(1,2,14,25)         -133.7551         calculate D2E/DX2 analytically  !
 ! D7    D(1,2,14,26)          110.4154         calculate D2E/DX2 analytically  !
 ! D8    D(3,2,14,15)          168.5914         calculate D2E/DX2 analytically  !
 ! D9    D(3,2,14,25)           46.4101         calculate D2E/DX2 analytically  !
 ! D10   D(3,2,14,26)          -69.4193         calculate D2E/DX2 analytically  !
 ! D11   D(2,3,4,5)           -166.4882         calculate D2E/DX2 analytically  !
 ! D12   D(2,3,4,8)             70.6718         calculate D2E/DX2 analytically  !
 ! D13   D(2,3,4,18)           -51.557          calculate D2E/DX2 analytically  !
 ! D14   D(17,3,4,5)             2.4357         calculate D2E/DX2 analytically  !
 ! D15   D(17,3,4,8)          -120.4043         calculate D2E/DX2 analytically  !
 ! D16   D(17,3,4,18)          117.3668         calculate D2E/DX2 analytically  !
 ! D17   D(3,4,5,6)            178.8366         calculate D2E/DX2 analytically  !
 ! D18   D(3,4,5,7)             -1.2448         calculate D2E/DX2 analytically  !
 ! D19   D(8,4,5,6)            -57.4281         calculate D2E/DX2 analytically  !
 ! D20   D(8,4,5,7)            122.4904         calculate D2E/DX2 analytically  !
 ! D21   D(18,4,5,6)            62.807          calculate D2E/DX2 analytically  !
 ! D22   D(18,4,5,7)          -117.2745         calculate D2E/DX2 analytically  !
 ! D23   D(3,4,8,9)           -124.279          calculate D2E/DX2 analytically  !
 ! D24   D(3,4,8,20)            -2.7444         calculate D2E/DX2 analytically  !
 ! D25   D(3,4,8,21)           114.2409         calculate D2E/DX2 analytically  !
 ! D26   D(5,4,8,9)            115.476          calculate D2E/DX2 analytically  !
 ! D27   D(5,4,8,20)          -122.9893         calculate D2E/DX2 analytically  !
 ! D28   D(5,4,8,21)            -6.004          calculate D2E/DX2 analytically  !
 ! D29   D(18,4,8,9)            -2.894          calculate D2E/DX2 analytically  !
 ! D30   D(18,4,8,20)          118.6406         calculate D2E/DX2 analytically  !
 ! D31   D(18,4,8,21)         -124.374          calculate D2E/DX2 analytically  !
 ! D32   D(4,5,6,19)          -179.9334         calculate D2E/DX2 analytically  !
 ! D33   D(7,5,6,19)             0.1467         calculate D2E/DX2 analytically  !
 ! D34   D(4,8,9,10)          -113.4026         calculate D2E/DX2 analytically  !
 ! D35   D(4,8,9,13)            64.522          calculate D2E/DX2 analytically  !
 ! D36   D(20,8,9,10)          125.8315         calculate D2E/DX2 analytically  !
 ! D37   D(20,8,9,13)          -56.2439         calculate D2E/DX2 analytically  !
 ! D38   D(21,8,9,10)            9.5732         calculate D2E/DX2 analytically  !
 ! D39   D(21,8,9,13)         -172.5022         calculate D2E/DX2 analytically  !
 ! D40   D(8,9,10,11)          178.7649         calculate D2E/DX2 analytically  !
 ! D41   D(8,9,10,22)           -0.9809         calculate D2E/DX2 analytically  !
 ! D42   D(13,9,10,11)           0.5759         calculate D2E/DX2 analytically  !
 ! D43   D(13,9,10,22)        -179.1699         calculate D2E/DX2 analytically  !
 ! D44   D(8,9,13,12)         -178.9923         calculate D2E/DX2 analytically  !
 ! D45   D(8,9,13,24)           -0.8995         calculate D2E/DX2 analytically  !
 ! D46   D(10,9,13,12)          -0.5824         calculate D2E/DX2 analytically  !
 ! D47   D(10,9,13,24)         177.5105         calculate D2E/DX2 analytically  !
 ! D48   D(9,10,11,12)          -0.3412         calculate D2E/DX2 analytically  !
 ! D49   D(22,10,11,12)        179.4226         calculate D2E/DX2 analytically  !
 ! D50   D(10,11,12,13)         -0.0436         calculate D2E/DX2 analytically  !
 ! D51   D(10,11,12,23)        179.9924         calculate D2E/DX2 analytically  !
 ! D52   D(11,12,13,9)           0.4032         calculate D2E/DX2 analytically  !
 ! D53   D(11,12,13,24)       -177.6006         calculate D2E/DX2 analytically  !
 ! D54   D(23,12,13,9)        -179.6307         calculate D2E/DX2 analytically  !
 ! D55   D(23,12,13,24)          2.3654         calculate D2E/DX2 analytically  !
 ! D56   D(2,14,15,16)         -68.0822         calculate D2E/DX2 analytically  !
 ! D57   D(2,14,15,27)         173.6574         calculate D2E/DX2 analytically  !
 ! D58   D(2,14,15,28)          56.6415         calculate D2E/DX2 analytically  !
 ! D59   D(25,14,15,16)         53.3511         calculate D2E/DX2 analytically  !
 ! D60   D(25,14,15,27)        -64.9094         calculate D2E/DX2 analytically  !
 ! D61   D(25,14,15,28)        178.0747         calculate D2E/DX2 analytically  !
 ! D62   D(26,14,15,16)        171.2363         calculate D2E/DX2 analytically  !
 ! D63   D(26,14,15,27)         52.9758         calculate D2E/DX2 analytically  !
 ! D64   D(26,14,15,28)        -64.0401         calculate D2E/DX2 analytically  !
 ! D65   D(14,15,16,29)         71.1881         calculate D2E/DX2 analytically  !
 ! D66   D(14,15,16,30)       -174.0572         calculate D2E/DX2 analytically  !
 ! D67   D(27,15,16,29)       -170.3521         calculate D2E/DX2 analytically  !
 ! D68   D(27,15,16,30)        -55.5974         calculate D2E/DX2 analytically  !
 ! D69   D(28,15,16,29)        -50.9567         calculate D2E/DX2 analytically  !
 ! D70   D(28,15,16,30)         63.7981         calculate D2E/DX2 analytically  !
 --------------------------------------------------------------------------------
 Trust Radius=3.00D-01 FncErr=1.00D-07 GrdErr=1.00D-06
 Number of steps in this run=    160 maximum allowed number of steps=    180.
 GradGradGradGradGradGradGradGradGradGradGradGradGradGradGradGradGradGrad

                          Input orientation:                          
 ---------------------------------------------------------------------
 Center     Atomic      Atomic             Coordinates (Angstroms)
 Number     Number       Type             X           Y           Z
 ---------------------------------------------------------------------
      1          8           0       -0.826723    0.571738   -0.967851
      2          6           0       -1.229094   -0.549225   -0.649519
      3          7           0       -0.431377   -1.424261   -0.001728
      4          6           0        0.959925   -1.120223    0.272813
      5          6           0        1.618670   -2.417810    0.689338
      6          8           0        2.929943   -2.252524    0.945600
      7          8           0        1.052621   -3.476888    0.786072
      8          6           0        1.136320   -0.016008    1.361235
      9          6           0        1.959780    1.134444    0.874800
     10          6           0        3.190060    1.599053    1.234702
     11          7           0        3.542369    2.693712    0.463813
     12          6           0        2.532436    2.873028   -0.352489
     13          7           0        1.552808    1.955230   -0.149818
     14          6           0       -2.636284   -1.036645   -0.958076
     15          6           0       -3.555117    0.073091   -1.431113
     16          7           0       -3.820507    1.009488   -0.334969
     17          1           0       -0.720507   -2.377581    0.158427
     18          1           0        1.438730   -0.805768   -0.661906
     19          1           0        3.271568   -3.119437    1.200919
     20          1           0        0.149967    0.336002    1.658207
     21          1           0        1.607938   -0.421655    2.256343
     22          1           0        3.846198    1.209845    1.999911
     23          1           0        2.443610    3.635583   -1.105356
     24          1           0        0.689308    1.846367   -0.658808
     25          1           0       -3.048535   -1.504174   -0.059019
     26          1           0       -2.561425   -1.817523   -1.723489
     27          1           0       -4.505767   -0.370602   -1.738872
     28          1           0       -3.108278    0.552227   -2.312420
     29          1           0       -2.968731    1.532462   -0.163977
     30          1           0       -4.509771    1.688346   -0.632639
 ---------------------------------------------------------------------
                    Distance matrix (angstroms):
                    1          2          3          4          5
     1  O    0.000000
     2  C    1.232799   0.000000
     3  N    2.252488   1.349694   0.000000
     4  C    2.755738   2.443059   1.450356   0.000000
     5  C    4.202810   3.659769   2.380631   1.513661   0.000000
     6  O    5.074474   4.768985   3.589139   2.369750   1.346263
     7  O    4.795785   3.979743   2.652576   2.413689   1.204747
     8  C    3.102196   3.150021   2.509684   1.560470   2.540228
     9  C    3.387713   3.914998   3.610111   2.538824   3.573411
    10  C    4.694802   5.262538   4.876883   3.645984   4.347629
    11  N    5.063734   5.875628   5.741522   4.609946   5.466180
    12  C    4.118077   5.094030   5.232008   4.337033   5.469309
    13  N    2.871480   3.776371   3.921719   3.160466   4.453313
    14  C    2.421053   1.520845   2.434432   3.801945   4.767203
    15  C    2.812009   2.531511   3.747393   4.971214   6.121190
    16  N    3.091102   3.040387   4.185736   5.268548   6.510010
    17  H    3.158838   2.062601   1.008992   2.101875   2.399007
    18  H    2.668970   2.680159   2.077419   1.096284   2.111141
    19  H    5.926578   5.503278   4.246385   3.194046   1.867102
    20  H    2.811703   2.830377   2.488347   2.167011   3.267916
    21  H    4.160509   4.063134   3.203578   2.200525   2.537766
    22  H    5.572341   5.989357   5.407654   4.091780   4.454140
    23  H    4.483429   5.586516   5.923307   5.168982   6.367497
    24  H    2.004629   3.069073   3.519189   3.121187   4.567758
    25  H    3.173616   2.137986   2.619005   4.040456   4.814309
    26  H    3.047745   2.130047   2.766988   4.107476   4.863669
    27  H    3.875286   3.457627   4.552859   5.872189   6.898985
    28  H    2.648346   2.740396   4.051123   5.102038   6.338431
    29  H    2.481412   2.755995   3.899577   4.760448   6.113677
    30  H    3.863163   3.971127   5.169107   6.214940   7.494393
                    6          7          8          9         10
     6  O    0.000000
     7  O    2.246965   0.000000
     8  C    2.896867   3.509346   0.000000
     9  C    3.523887   4.700553   1.496077   0.000000
    10  C    3.871161   5.525857   2.615776   1.363444   0.000000
    11  N    5.007237   6.661756   3.733231   2.259383   1.384438
    12  C    5.302295   6.618732   3.637653   2.203826   2.138845
    13  N    4.560881   5.534798   2.518437   1.374466   2.173557
    14  C    6.007097   4.754457   4.544605   5.403412   6.760286
    15  C    7.287883   6.224911   5.460286   6.071062   7.411649
    16  N    7.605863   6.718012   5.338435   5.906850   7.208295
    17  H    3.736450   2.178623   3.235981   4.475650   5.680186
    18  H    2.626955   3.062777   2.192777   2.529305   3.528094
    19  H    0.966145   2.285518   3.770445   4.463480   4.719315
    20  H    3.864782   4.014167   1.088575   2.127594   3.319159
    21  H    2.611096   3.435771   1.090042   2.110426   2.762267
    22  H    3.733510   5.589539   3.042049   2.197756   1.080530
    23  H    6.254018   7.489967   4.596433   3.226578   3.190692
    24  H    4.939177   5.527813   2.783672   2.114920   3.146475
    25  H    6.108313   4.628743   4.663129   5.737382   7.086876
    26  H    6.121142   4.702417   5.141429   5.992205   7.314607
    27  H    8.126364   6.849820   6.447445   7.134406   8.482184
    28  H    7.412248   6.568676   5.642273   6.015194   7.303902
    29  H    7.095888   6.493648   4.644941   5.052494   6.315968
    30  H    8.565666   7.722214   6.225648   6.665904   7.923531
                   11         12         13         14         15
    11  N    0.000000
    12  C    1.310904   0.000000
    13  N    2.209129   1.357608   0.000000
    14  C    7.356159   6.509066   5.210862   0.000000
    15  C    7.799532   6.786853   5.592411   1.516421   0.000000
    16  N    7.595170   6.620647   5.459050   2.444853   1.465880
    17  H    6.631996   6.197706   4.902675   2.591310   4.070313
    18  H    4.235433   3.850386   2.810402   4.092280   5.128604
    19  H    5.865949   6.234504   5.525475   6.625858   7.982698
    20  H    4.300437   4.019397   2.803358   4.061070   4.831218
    21  H    4.081751   4.302980   3.382637   5.359489   6.363902
    22  H    2.157259   3.166376   3.230568   7.471210   8.236722
    23  H    2.134639   1.075262   2.128419   6.903385   6.984425
    24  H    3.180916   2.131897   1.008243   4.411448   4.664344
    25  H    7.831706   7.098821   5.757437   1.094001   2.151054
    26  H    7.898850   7.058918   5.799744   1.096007   2.155766
    27  H    8.889001   7.872706   6.681387   2.132657   1.093305
    28  H    7.518280   6.406645   5.326442   2.140453   1.098152
    29  H    6.643572   5.665288   4.541283   2.709506   2.019714
    30  H    8.188402   7.146652   6.087628   3.322866   2.039111
                   16         17         18         19         20
    16  N    0.000000
    17  H    4.617973   0.000000
    18  H    5.573295   2.793894   0.000000
    19  H    8.348923   4.192112   3.490341   0.000000
    20  H    4.493440   3.220341   2.889199   4.679056   0.000000
    21  H    6.183130   3.694395   2.948280   3.340601   1.748568
    22  H    8.016868   6.092247   4.116293   4.439739   3.813461
    23  H    6.835864   6.911362   4.575154   7.185731   4.877019
    24  H    4.598225   4.527381   2.755987   5.897954   2.817915
    25  H    2.643972   2.495964   4.581135   6.643811   4.070078
    26  H    3.391941   2.691515   4.260499   6.653643   4.839957
    27  H    2.084508   4.685712   6.056919   8.757021   5.806488
    28  H    2.150970   4.515563   5.024303   8.156415   5.140894
    29  H    1.014033   4.521824   5.014077   7.902180   3.805017
    30  H    1.012196   5.613917   6.450281   9.328770   5.365629
                   21         22         23         24         25
    21  H    0.000000
    22  H    2.781610   0.000000
    23  H    5.334843   4.182600   0.000000
    24  H    3.806036   4.176111   2.545246   0.000000
    25  H    5.311826   7.690412   7.594445   5.055427   0.000000
    26  H    5.930523   8.005392   7.427573   5.012475   1.762363
    27  H    7.303544   9.286099   8.046410   5.750678   2.496080
    28  H    6.638128   8.209348   6.464329   4.339457   3.051257
    29  H    5.533754   7.157496   5.882411   3.704679   3.039497
    30  H    7.086938   8.773910   7.236346   5.201546   3.557588
                   26         27         28         29         30
    26  H    0.000000
    27  H    2.423691   0.000000
    28  H    2.502319   1.770183   0.000000
    29  H    3.717576   2.909369   2.365617   0.000000
    30  H    4.156576   2.337314   2.465079   1.618254   0.000000
 Symmetry turned off by external request.
 Stoichiometry    C9H14N4O3
 Framework group  C1[X(C9H14N4O3)]
 Deg. of freedom    84
 Full point group                 C1      NOp   1
 Rotational constants (GHZ):      0.6120385      0.3669297      0.2426803
 Standard basis: 6-31G(d,p) (6D, 7F)
   310 basis functions,   546 primitive gaussians,   310 cartesian basis functions
    60 alpha electrons       60 beta electrons
       nuclear repulsion energy      1127.3674257685 Hartrees.
 NAtoms=   30 NActive=   30 NUniq=   30 SFac= 1.00D+00 NAtFMM=   60 NAOKFM=F Big=F
 Integral buffers will be    131072 words long.
 Raffenetti 2 integral format.
 Two-electron integral symmetry is turned off.
 One-electron integrals computed using PRISM.
 NBasis=   310 RedAO= T EigKep=  1.23D-03  NBF=   310
 NBsUse=   310 1.00D-06 EigRej= -1.00D+00 NBFU=   310
 ExpMin= 1.61D-01 ExpMax= 5.48D+03 ExpMxC= 8.25D+02 IAcc=3 IRadAn=         5 AccDes= 0.00D+00
 Harris functional with IExCor=  402 and IRadAn=       5 diagonalized for initial guess.
 HarFok:  IExCor=  402 AccDes= 0.00D+00 IRadAn=         5 IDoV= 1 UseB2=F ITyADJ=14
 ICtDFT=  3500011 ScaDFX=  1.000000  1.000000  1.000000  1.000000
 FoFCou: FMM=F IPFlag=           0 FMFlag=      100000 FMFlg1=           0
         NFxFlg=           0 DoJE=T BraDBF=F KetDBF=T FulRan=T
         wScrn=  0.000000 ICntrl=     500 IOpCl=  0 I1Cent=   200000004 NGrid=           0
         NMat0=    1 NMatS0=      1 NMatT0=    0 NMatD0=    1 NMtDS0=    0 NMtDT0=    0
 Symmetry not used in FoFCou.
 Requested convergence on RMS density matrix=1.00D-08 within 128 cycles.
 Requested convergence on MAX density matrix=1.00D-06.
 Requested convergence on             energy=1.00D-06.
 No special actions if energy rises.
 Integral accuracy reduced to 1.0D-05 until final iterations.
 Initial convergence to 1.0D-05 achieved.  Increase integral accuracy.
 SCF Done:  E(RB3LYP) =  -796.117613161     A.U. after   14 cycles
            NFock= 14  Conv=0.56D-08     -V/T= 2.0088
 DoSCS=F DFT=T ScalE2(SS,OS)=  1.000000  1.000000
 Range of M.O.s used for correlation:     1   310
 NBasis=   310 NAE=    60 NBE=    60 NFC=     0 NFV=     0
 NROrb=    310 NOA=    60 NOB=    60 NVA=   250 NVB=   250
 Symmetrizing basis deriv contribution to polar:
 IMax=3 JMax=2 DiffMx= 0.00D+00
 G2DrvN: will do    31 centers at a time, making    1 passes.
 Calling FoFCou, ICntrl=  3107 FMM=F I1Cent=   0 AccDes= 0.00D+00.
 End of G2Drv F.D. properties file   721 does not exist.
 End of G2Drv F.D. properties file   722 does not exist.
 End of G2Drv F.D. properties file   788 does not exist.
          IDoAtm=111111111111111111111111111111
          Differentiating once with respect to nuclear coordinates.
          There are    93 degrees of freedom in the 1st order CPHF.  IDoFFX=6 NUNeed=     0.
     87 vectors produced by pass  0 Test12= 1.61D-14 1.08D-09 XBig12= 1.49D-01 9.20D-02.
 AX will form    87 AO Fock derivatives at one time.
     87 vectors produced by pass  1 Test12= 1.61D-14 1.08D-09 XBig12= 2.96D-02 5.25D-02.
     87 vectors produced by pass  2 Test12= 1.61D-14 1.08D-09 XBig12= 2.59D-04 3.09D-03.
     87 vectors produced by pass  3 Test12= 1.61D-14 1.08D-09 XBig12= 1.06D-06 1.17D-04.
     87 vectors produced by pass  4 Test12= 1.61D-14 1.08D-09 XBig12= 1.97D-09 4.33D-06.
     71 vectors produced by pass  5 Test12= 1.61D-14 1.08D-09 XBig12= 1.69D-12 1.36D-07.
     17 vectors produced by pass  6 Test12= 1.61D-14 1.08D-09 XBig12= 1.30D-15 3.73D-09.
 InvSVY:  IOpt=1 It=  1 EMax= 5.83D-16
 Solved reduced A of dimension   523 with    93 vectors.
 End of Minotr F.D. properties file   721 does not exist.
 End of Minotr F.D. properties file   722 does not exist.
 End of Minotr F.D. properties file   788 does not exist.

 **********************************************************************

            Population analysis using the SCF density.

 **********************************************************************

 Alpha  occ. eigenvalues --  -19.22145 -19.17010 -19.13716 -14.37588 -14.36512
 Alpha  occ. eigenvalues --  -14.30972 -14.29272 -10.34733 -10.30563 -10.25986
 Alpha  occ. eigenvalues --  -10.22001 -10.21373 -10.21083 -10.20360 -10.20334
 Alpha  occ. eigenvalues --  -10.17954  -1.13692  -1.05703  -1.04796  -0.99731
 Alpha  occ. eigenvalues --   -0.94583  -0.88304  -0.85137  -0.81047  -0.76597
 Alpha  occ. eigenvalues --   -0.73837  -0.68011  -0.65528  -0.61094  -0.60115
 Alpha  occ. eigenvalues --   -0.59323  -0.57432  -0.53725  -0.52780  -0.51228
 Alpha  occ. eigenvalues --   -0.50339  -0.49219  -0.48382  -0.47574  -0.46753
 Alpha  occ. eigenvalues --   -0.44781  -0.43595  -0.42796  -0.42269  -0.41191
 Alpha  occ. eigenvalues --   -0.39557  -0.39178  -0.38857  -0.38720  -0.37908
 Alpha  occ. eigenvalues --   -0.36696  -0.36257  -0.34658  -0.30796  -0.27909
 Alpha  occ. eigenvalues --   -0.27494  -0.25990  -0.24740  -0.23749  -0.21162
 Alpha virt. eigenvalues --   -0.01621   0.00786   0.04326   0.05784   0.07962
 Alpha virt. eigenvalues --    0.08341   0.09352   0.11236   0.11690   0.12683
 Alpha virt. eigenvalues --    0.13095   0.14403   0.15487   0.16023   0.16760
 Alpha virt. eigenvalues --    0.17439   0.18147   0.19298   0.19536   0.21784
 Alpha virt. eigenvalues --    0.23306   0.23452   0.24198   0.24612   0.25259
 Alpha virt. eigenvalues --    0.26387   0.28956   0.30885   0.33052   0.33649
 Alpha virt. eigenvalues --    0.36605   0.39331   0.40736   0.45653   0.50120
 Alpha virt. eigenvalues --    0.51693   0.51769   0.52553   0.53975   0.54462
 Alpha virt. eigenvalues --    0.55247   0.55302   0.56719   0.59001   0.59395
 Alpha virt. eigenvalues --    0.61196   0.61996   0.63229   0.63476   0.64761
 Alpha virt. eigenvalues --    0.65090   0.66044   0.66240   0.68395   0.68717
 Alpha virt. eigenvalues --    0.71338   0.71928   0.72248   0.73043   0.74047
 Alpha virt. eigenvalues --    0.74571   0.75089   0.77501   0.77927   0.79010
 Alpha virt. eigenvalues --    0.80529   0.80578   0.81539   0.83003   0.83519
 Alpha virt. eigenvalues --    0.84593   0.84954   0.85370   0.86084   0.86973
 Alpha virt. eigenvalues --    0.87480   0.88251   0.89310   0.90109   0.90988
 Alpha virt. eigenvalues --    0.92579   0.93187   0.94291   0.95195   0.96638
 Alpha virt. eigenvalues --    0.96966   0.97591   1.01541   1.02322   1.03685
 Alpha virt. eigenvalues --    1.05970   1.06973   1.10630   1.11483   1.13164
 Alpha virt. eigenvalues --    1.15356   1.17414   1.19731   1.24576   1.26309
 Alpha virt. eigenvalues --    1.30019   1.31218   1.31961   1.33181   1.34393
 Alpha virt. eigenvalues --    1.35781   1.37205   1.37649   1.38118   1.41513
 Alpha virt. eigenvalues --    1.43406   1.46210   1.47273   1.49783   1.50732
 Alpha virt. eigenvalues --    1.51818   1.53786   1.55263   1.55436   1.59962
 Alpha virt. eigenvalues --    1.63217   1.66031   1.67337   1.69868   1.70738
 Alpha virt. eigenvalues --    1.72494   1.73283   1.75220   1.76232   1.77444
 Alpha virt. eigenvalues --    1.78977   1.79479   1.81104   1.83192   1.83260
 Alpha virt. eigenvalues --    1.84333   1.85984   1.87685   1.88943   1.89472
 Alpha virt. eigenvalues --    1.90560   1.91054   1.93255   1.94456   1.96793
 Alpha virt. eigenvalues --    1.97832   1.99605   1.99710   2.03439   2.05268
 Alpha virt. eigenvalues --    2.07417   2.07680   2.10277   2.11676   2.12796
 Alpha virt. eigenvalues --    2.14205   2.16081   2.17095   2.17415   2.20283
 Alpha virt. eigenvalues --    2.21249   2.22688   2.24487   2.26087   2.28106
 Alpha virt. eigenvalues --    2.28309   2.28994   2.32106   2.32359   2.33233
 Alpha virt. eigenvalues --    2.34457   2.36865   2.38582   2.39367   2.41782
 Alpha virt. eigenvalues --    2.43380   2.45169   2.45430   2.46933   2.48040
 Alpha virt. eigenvalues --    2.48945   2.50747   2.52746   2.53211   2.55429
 Alpha virt. eigenvalues --    2.56349   2.56631   2.58459   2.60493   2.60920
 Alpha virt. eigenvalues --    2.62743   2.65044   2.65319   2.66396   2.68365
 Alpha virt. eigenvalues --    2.69538   2.71724   2.72726   2.75488   2.76831
 Alpha virt. eigenvalues --    2.78648   2.79970   2.81873   2.83629   2.84304
 Alpha virt. eigenvalues --    2.85995   2.87105   2.87357   2.90501   2.93946
 Alpha virt. eigenvalues --    2.95082   2.95924   2.97560   3.00021   3.01979
 Alpha virt. eigenvalues --    3.05895   3.07450   3.09455   3.21892   3.26972
 Alpha virt. eigenvalues --    3.28059   3.30190   3.31107   3.32032   3.33323
 Alpha virt. eigenvalues --    3.36078   3.40656   3.41510   3.46838   3.51670
 Alpha virt. eigenvalues --    3.53217   3.56689   3.58259   3.71681   3.96314
 Alpha virt. eigenvalues --    3.97944   4.01079   4.11212   4.11881   4.16919
 Alpha virt. eigenvalues --    4.24229   4.25490   4.31149   4.42012   4.44073
 Alpha virt. eigenvalues --    4.50737   4.57619   4.65810   4.73868   4.78074
          Condensed to atoms (all electrons):
               1          2          3          4          5          6
     1  O    8.148623   0.522624  -0.096190   0.008689   0.000621   0.000000
     2  C    0.522624   4.372484   0.287147  -0.022162   0.005561  -0.000040
     3  N   -0.096190   0.287147   7.057321   0.205599  -0.026869   0.001869
     4  C    0.008689  -0.022162   0.205599   5.124456   0.299602  -0.097363
     5  C    0.000621   0.005561  -0.026869   0.299602   4.389723   0.273151
     6  O    0.000000  -0.000040   0.001869  -0.097363   0.273151   8.092861
     7  O   -0.000005   0.000675  -0.013567  -0.082102   0.569778  -0.083167
     8  C    0.003385  -0.003928  -0.048791   0.293458  -0.022368   0.000328
     9  C   -0.003635  -0.000084   0.003147  -0.032803  -0.000665   0.000197
    10  C    0.000047   0.000004  -0.000034  -0.000224  -0.000114   0.000283
    11  N   -0.000009   0.000000   0.000001  -0.000062  -0.000001   0.000001
    12  C    0.000400   0.000017  -0.000015   0.000260   0.000005  -0.000001
    13  N   -0.013571   0.000961   0.000150  -0.004104   0.000182   0.000000
    14  C   -0.084920   0.344270  -0.113855   0.007126  -0.000174   0.000000
    15  C    0.005779  -0.031378   0.004601  -0.000167   0.000000   0.000000
    16  N   -0.006529  -0.003413  -0.000201   0.000009   0.000000   0.000000
    17  H    0.002801  -0.022797   0.330631  -0.041835  -0.005453   0.000726
    18  H    0.005682  -0.002402  -0.049331   0.389587  -0.026921   0.001935
    19  H    0.000000   0.000003  -0.000185   0.010323  -0.011684   0.275027
    20  H    0.001348   0.002403  -0.005363  -0.047585   0.001010   0.000208
    21  H    0.000138   0.000208   0.002946  -0.044226  -0.004225   0.004163
    22  H    0.000000   0.000000   0.000000  -0.000021   0.000006   0.000141
    23  H   -0.000009   0.000001   0.000000   0.000001   0.000000   0.000000
    24  H    0.038779  -0.002718  -0.000296   0.000510   0.000012   0.000000
    25  H    0.001471  -0.033542   0.001599   0.000158  -0.000025   0.000000
    26  H    0.000658  -0.026032  -0.001453  -0.000275  -0.000007   0.000000
    27  H    0.000386   0.004732  -0.000096   0.000001   0.000000   0.000000
    28  H    0.006620  -0.008958   0.000326  -0.000003   0.000000   0.000000
    29  H    0.014288   0.004185  -0.000039  -0.000009   0.000000   0.000000
    30  H    0.000110   0.000073   0.000004   0.000000   0.000000   0.000000
               7          8          9         10         11         12
     1  O   -0.000005   0.003385  -0.003635   0.000047  -0.000009   0.000400
     2  C    0.000675  -0.003928  -0.000084   0.000004   0.000000   0.000017
     3  N   -0.013567  -0.048791   0.003147  -0.000034   0.000001  -0.000015
     4  C   -0.082102   0.293458  -0.032803  -0.000224  -0.000062   0.000260
     5  C    0.569778  -0.022368  -0.000665  -0.000114  -0.000001   0.000005
     6  O   -0.083167   0.000328   0.000197   0.000283   0.000001  -0.000001
     7  O    8.035099   0.000681   0.000028   0.000000   0.000000   0.000000
     8  C    0.000681   5.109992   0.329992  -0.054353   0.006966   0.006641
     9  C    0.000028   0.329992   4.765197   0.578670  -0.046500  -0.093899
    10  C    0.000000  -0.054353   0.578670   4.855620   0.426048  -0.122525
    11  N    0.000000   0.006966  -0.046500   0.426048   6.698756   0.535087
    12  C    0.000000   0.006641  -0.093899  -0.122525   0.535087   4.677226
    13  N    0.000000  -0.072191   0.364179  -0.071046  -0.089777   0.362214
    14  C   -0.000079  -0.000212  -0.000005   0.000000   0.000000   0.000001
    15  C    0.000000   0.000015   0.000000   0.000000   0.000000   0.000000
    16  N    0.000000  -0.000009   0.000000   0.000000   0.000000   0.000000
    17  H    0.031045   0.003214  -0.000122   0.000001   0.000000   0.000000
    18  H    0.000857  -0.053084   0.000323   0.000523  -0.000134  -0.000114
    19  H    0.007740  -0.000235   0.000050   0.000020   0.000000   0.000000
    20  H   -0.000101   0.379134  -0.027293   0.001160  -0.000162   0.000139
    21  H    0.000070   0.374475  -0.026370  -0.003967  -0.000003  -0.000045
    22  H    0.000000  -0.001645  -0.057779   0.389805  -0.041893   0.007152
    23  H    0.000000  -0.000194   0.003550   0.007180  -0.038682   0.390721
    24  H    0.000000  -0.003526  -0.027194   0.008094   0.004217  -0.021296
    25  H   -0.000004  -0.000002   0.000001   0.000000   0.000000   0.000000
    26  H   -0.000001  -0.000004   0.000000   0.000000   0.000000   0.000000
    27  H    0.000000   0.000000   0.000000   0.000000   0.000000   0.000000
    28  H    0.000000  -0.000001   0.000000   0.000000   0.000000   0.000000
    29  H    0.000000   0.000019  -0.000004   0.000000   0.000000   0.000000
    30  H    0.000000   0.000000   0.000000   0.000000   0.000000   0.000000
              13         14         15         16         17         18
     1  O   -0.013571  -0.084920   0.005779  -0.006529   0.002801   0.005682
     2  C    0.000961   0.344270  -0.031378  -0.003413  -0.022797  -0.002402
     3  N    0.000150  -0.113855   0.004601  -0.000201   0.330631  -0.049331
     4  C   -0.004104   0.007126  -0.000167   0.000009  -0.041835   0.389587
     5  C    0.000182  -0.000174   0.000000   0.000000  -0.005453  -0.026921
     6  O    0.000000   0.000000   0.000000   0.000000   0.000726   0.001935
     7  O    0.000000  -0.000079   0.000000   0.000000   0.031045   0.000857
     8  C   -0.072191  -0.000212   0.000015  -0.000009   0.003214  -0.053084
     9  C    0.364179  -0.000005   0.000000   0.000000  -0.000122   0.000323
    10  C   -0.071046   0.000000   0.000000   0.000000   0.000001   0.000523
    11  N   -0.089777   0.000000   0.000000   0.000000   0.000000  -0.000134
    12  C    0.362214   0.000001   0.000000   0.000000   0.000000  -0.000114
    13  N    6.774574  -0.000019   0.000000   0.000000  -0.000002   0.003786
    14  C   -0.000019   5.208008   0.347442  -0.065506  -0.000360   0.000179
    15  C    0.000000   0.347442   4.773492   0.315166  -0.000047  -0.000007
    16  N    0.000000  -0.065506   0.315166   6.773942   0.000009   0.000001
    17  H   -0.000002  -0.000360  -0.000047   0.000009   0.412730   0.003893
    18  H    0.003786   0.000179  -0.000007   0.000001   0.003893   0.552619
    19  H    0.000000   0.000000   0.000000   0.000000  -0.000082  -0.000330
    20  H   -0.002928  -0.000218   0.000002   0.000009   0.000197   0.002577
    21  H    0.003778   0.000009   0.000000   0.000000  -0.000003   0.003971
    22  H    0.005029   0.000000   0.000000   0.000000   0.000000   0.000047
    23  H   -0.057223   0.000000   0.000000   0.000000   0.000000   0.000011
    24  H    0.317968   0.000311  -0.000015  -0.000007  -0.000019   0.000145
    25  H    0.000000   0.356495  -0.030086   0.006262   0.001258  -0.000006
    26  H    0.000000   0.352662  -0.025192   0.004142   0.001000   0.000022
    27  H    0.000000  -0.026134   0.378839  -0.041663  -0.000012   0.000000
    28  H    0.000001  -0.052571   0.379894  -0.043561  -0.000002  -0.000003
    29  H   -0.000013  -0.009209  -0.037823   0.334130  -0.000016  -0.000005
    30  H    0.000000   0.006712  -0.033866   0.337351   0.000000   0.000000
              19         20         21         22         23         24
     1  O    0.000000   0.001348   0.000138   0.000000  -0.000009   0.038779
     2  C    0.000003   0.002403   0.000208   0.000000   0.000001  -0.002718
     3  N   -0.000185  -0.005363   0.002946   0.000000   0.000000  -0.000296
     4  C    0.010323  -0.047585  -0.044226  -0.000021   0.000001   0.000510
     5  C   -0.011684   0.001010  -0.004225   0.000006   0.000000   0.000012
     6  O    0.275027   0.000208   0.004163   0.000141   0.000000   0.000000
     7  O    0.007740  -0.000101   0.000070   0.000000   0.000000   0.000000
     8  C   -0.000235   0.379134   0.374475  -0.001645  -0.000194  -0.003526
     9  C    0.000050  -0.027293  -0.026370  -0.057779   0.003550  -0.027194
    10  C    0.000020   0.001160  -0.003967   0.389805   0.007180   0.008094
    11  N    0.000000  -0.000162  -0.000003  -0.041893  -0.038682   0.004217
    12  C    0.000000   0.000139  -0.000045   0.007152   0.390721  -0.021296
    13  N    0.000000  -0.002928   0.003778   0.005029  -0.057223   0.317968
    14  C    0.000000  -0.000218   0.000009   0.000000   0.000000   0.000311
    15  C    0.000000   0.000002   0.000000   0.000000   0.000000  -0.000015
    16  N    0.000000   0.000009   0.000000   0.000000   0.000000  -0.000007
    17  H   -0.000082   0.000197  -0.000003   0.000000   0.000000  -0.000019
    18  H   -0.000330   0.002577   0.003971   0.000047   0.000011   0.000145
    19  H    0.388302   0.000008  -0.000347  -0.000001   0.000000   0.000000
    20  H    0.000008   0.581869  -0.026745  -0.000030  -0.000004   0.000778
    21  H   -0.000347  -0.026745   0.582790   0.002931   0.000004  -0.000017
    22  H   -0.000001  -0.000030   0.002931   0.617270  -0.000171  -0.000111
    23  H    0.000000  -0.000004   0.000004  -0.000171   0.590866   0.000039
    24  H    0.000000   0.000778  -0.000017  -0.000111   0.000039   0.396153
    25  H    0.000000   0.000001  -0.000003   0.000000   0.000000  -0.000008
    26  H    0.000000   0.000006   0.000000   0.000000   0.000000  -0.000007
    27  H    0.000000   0.000000   0.000000   0.000000   0.000000   0.000000
    28  H    0.000000   0.000000   0.000000   0.000000   0.000000  -0.000014
    29  H    0.000000   0.000094   0.000000   0.000000   0.000000   0.000141
    30  H    0.000000   0.000000   0.000000   0.000000   0.000000   0.000000
              25         26         27         28         29         30
     1  O    0.001471   0.000658   0.000386   0.006620   0.014288   0.000110
     2  C   -0.033542  -0.026032   0.004732  -0.008958   0.004185   0.000073
     3  N    0.001599  -0.001453  -0.000096   0.000326  -0.000039   0.000004
     4  C    0.000158  -0.000275   0.000001  -0.000003  -0.000009   0.000000
     5  C   -0.000025  -0.000007   0.000000   0.000000   0.000000   0.000000
     6  O    0.000000   0.000000   0.000000   0.000000   0.000000   0.000000
     7  O   -0.000004  -0.000001   0.000000   0.000000   0.000000   0.000000
     8  C   -0.000002  -0.000004   0.000000  -0.000001   0.000019   0.000000
     9  C    0.000001   0.000000   0.000000   0.000000  -0.000004   0.000000
    10  C    0.000000   0.000000   0.000000   0.000000   0.000000   0.000000
    11  N    0.000000   0.000000   0.000000   0.000000   0.000000   0.000000
    12  C    0.000000   0.000000   0.000000   0.000000   0.000000   0.000000
    13  N    0.000000   0.000000   0.000000   0.000001  -0.000013   0.000000
    14  C    0.356495   0.352662  -0.026134  -0.052571  -0.009209   0.006712
    15  C   -0.030086  -0.025192   0.378839   0.379894  -0.037823  -0.033866
    16  N    0.006262   0.004142  -0.041663  -0.043561   0.334130   0.337351
    17  H    0.001258   0.001000  -0.000012  -0.000002  -0.000016   0.000000
    18  H   -0.000006   0.000022   0.000000  -0.000003  -0.000005   0.000000
    19  H    0.000000   0.000000   0.000000   0.000000   0.000000   0.000000
    20  H    0.000001   0.000006   0.000000   0.000000   0.000094   0.000000
    21  H   -0.000003   0.000000   0.000000   0.000000   0.000000   0.000000
    22  H    0.000000   0.000000   0.000000   0.000000   0.000000   0.000000
    23  H    0.000000   0.000000   0.000000   0.000000   0.000000   0.000000
    24  H   -0.000008  -0.000007   0.000000  -0.000014   0.000141   0.000000
    25  H    0.584817  -0.025303  -0.004646   0.006964  -0.000831  -0.000089
    26  H   -0.025303   0.596862  -0.003980   0.001706  -0.000045  -0.000251
    27  H   -0.004646  -0.003980   0.638672  -0.046161   0.006995  -0.005281
    28  H    0.006964   0.001706  -0.046161   0.667692  -0.006700  -0.002600
    29  H   -0.000831  -0.000045   0.006995  -0.006700   0.476719  -0.031299
    30  H   -0.000089  -0.000251  -0.005281  -0.002600  -0.031299   0.491104
 Mulliken charges:
               1
     1  O   -0.557580
     2  C    0.612107
     3  N   -0.539055
     4  C    0.033160
     5  C    0.558855
     6  O   -0.470319
     7  O   -0.466949
     8  C   -0.247756
     9  C    0.271020
    10  C   -0.015192
    11  N   -0.453850
    12  C    0.258033
    13  N   -0.521946
    14  C   -0.269955
    15  C   -0.046651
    16  N   -0.610132
    17  H    0.283244
    18  H    0.166179
    19  H    0.331391
    20  H    0.139488
    21  H    0.130468
    22  H    0.079271
    23  H    0.103910
    24  H    0.288081
    25  H    0.135516
    26  H    0.125493
    27  H    0.098347
    28  H    0.097369
    29  H    0.249422
    30  H    0.238031
 Sum of Mulliken charges =   0.00000
 Mulliken charges with hydrogens summed into heavy atoms:
               1
     1  O   -0.557580
     2  C    0.612107
     3  N   -0.255811
     4  C    0.199340
     5  C    0.558855
     6  O   -0.138929
     7  O   -0.466949
     8  C    0.022200
     9  C    0.271020
    10  C    0.064079
    11  N   -0.453850
    12  C    0.361943
    13  N   -0.233865
    14  C   -0.008946
    15  C    0.149065
    16  N   -0.122679
 APT charges:
               1
     1  O   -0.593169
     2  C    0.375045
     3  N   -0.756965
     4  C   -0.303224
     5  C   -0.353529
     6  O   -0.961563
     7  O    0.272519
     8  C   -0.795988
     9  C   -0.575793
    10  C   -0.215866
    11  N    0.377097
    12  C   -0.514492
    13  N   -0.540652
    14  C   -0.761087
    15  C   -0.891480
    16  N   -1.035267
    17  H    0.674013
    18  H    0.313487
    19  H    1.161186
    20  H    0.239591
    21  H    0.533666
    22  H    0.683001
    23  H    0.668882
    24  H    0.142739
    25  H    0.400049
    26  H    0.483814
    27  H    0.759561
    28  H    0.260159
    29  H   -0.001106
    30  H    0.955368
 Sum of APT charges =   0.00000
 APT charges with hydrogens summed into heavy atoms:
               1
     1  O   -0.593169
     2  C    0.375045
     3  N   -0.082952
     4  C    0.010263
     5  C   -0.353529
     6  O    0.199623
     7  O    0.272519
     8  C   -0.022730
     9  C   -0.575793
    10  C    0.467135
    11  N    0.377097
    12  C    0.154391
    13  N   -0.397912
    14  C    0.122776
    15  C    0.128241
    16  N   -0.081005
 Electronic spatial extent (au):  <R**2>=           4454.2110
 Charge=              0.0000 electrons
 Dipole moment (field-independent basis, Debye):
    X=             -2.6469    Y=             -3.4265    Z=             -1.0955  Tot=              4.4662
 Quadrupole moment (field-independent basis, Debye-Ang):
   XX=           -101.3546   YY=            -95.1066   ZZ=            -89.1913
   XY=            -17.8624   XZ=              5.7634   YZ=             -5.0289
 Traceless Quadrupole moment (field-independent basis, Debye-Ang):
   XX=             -6.1371   YY=              0.1109   ZZ=              6.0262
   XY=            -17.8624   XZ=              5.7634   YZ=             -5.0289
 Octapole moment (field-independent basis, Debye-Ang**2):
  XXX=           -169.8709  YYY=              1.7856  ZZZ=            -19.7249  XYY=            -63.4937
  XXY=            -76.0220  XXZ=            -26.3412  XZZ=            -28.6951  YZZ=             -4.6645
  YYZ=            -26.9885  XYZ=            -21.1528
 Hexadecapole moment (field-independent basis, Debye-Ang**3):
 XXXX=          -3451.8560 YYYY=          -2000.1005 ZZZZ=           -529.5969 XXXY=           -585.0518
 XXXZ=           -295.8894 YYYX=           -382.6241 YYYZ=             -0.0304 ZZZX=           -410.8469
 ZZZY=             56.0376 XXYY=           -855.0763 XXZZ=           -585.8034 YYZZ=           -391.4887
 XXYZ=            -71.4821 YYXZ=           -148.9870 ZZXY=            -76.1707
 N-N= 1.127367425768D+03 E-N=-4.111677175902D+03  KE= 7.891659554589D+02
  Exact polarizability:   0.000   0.000   0.000   0.000   0.000   0.000
 Approx polarizability: 192.587  22.821 195.645  22.555 -28.165 147.442
 Calling FoFJK, ICntrl=    100147 FMM=F ISym2X=0 I1Cent= 0 IOpClX= 0 NMat=1 NMatS=1 NMatT=0.
 -------------------------------------------------------------------
 Center     Atomic                   Forces (Hartrees/Bohr)
 Number     Number              X              Y              Z
 -------------------------------------------------------------------
      1        8          -0.001524911    0.007725287   -0.002982716
      2        6          -0.001016513   -0.001985338   -0.000401139
      3        7           0.000993150   -0.001851814    0.000353896
      4        6          -0.004716447   -0.004584867   -0.001020164
      5        6           0.008961194    0.008798220   -0.000570460
      6        8          -0.002605847    0.004858350   -0.002032395
      7        8          -0.007088981   -0.013654424    0.001345996
      8        6           0.006345422    0.008942029   -0.003381437
      9        6          -0.005792883   -0.008509802    0.003307685
     10        6           0.009502246    0.008907326   -0.001194388
     11        7           0.007953608   -0.000893103    0.006492159
     12        6          -0.000533243   -0.002287028    0.000799151
     13        7          -0.004163397    0.002596171   -0.002415670
     14        6           0.002333292   -0.004353422    0.000866365
     15        6          -0.002685716    0.004843340    0.000807879
     16        7           0.000120702   -0.003484788    0.001424247
     17        1          -0.001341772   -0.003138812    0.001686394
     18        1           0.001654308    0.003042984    0.001825036
     19        1           0.002837461   -0.005201522    0.001806775
     20        1          -0.004520504   -0.001222200    0.000044217
     21        1           0.001135159   -0.001332607    0.000850367
     22        1           0.000550916    0.000251243    0.000613393
     23        1           0.001173738    0.003877597   -0.002940883
     24        1          -0.005442109   -0.003305396   -0.001369923
     25        1          -0.001417221   -0.000595949    0.000731602
     26        1           0.000305082   -0.001218155   -0.001167626
     27        1          -0.000982681   -0.000629405   -0.000791287
     28        1           0.000438062   -0.000581675   -0.002608543
     29        1           0.002804553    0.002175035    0.000786302
     30        1          -0.003276667    0.002812725   -0.000864833
 -------------------------------------------------------------------
 Cartesian Forces:  Max     0.013654424 RMS     0.003941833
 FormGI is forming the generalized inverse of G from B-inverse, IUseBI=4.

 GradGradGradGradGradGradGradGradGradGradGradGradGradGradGradGradGradGrad
 Berny optimization.
 Internal  Forces:  Max     0.015441978 RMS     0.002959330
 Search for a local minimum.
 Step number   1 out of a maximum of  160
 All quantities printed in internal units (Hartrees-Bohrs-Radians)
 Mixed Optimization -- RFO/linear search
 Second derivative matrix not updated -- analytic derivatives used.
 ITU=  0
     Eigenvalues ---    0.00030   0.00190   0.00293   0.00380   0.00382
     Eigenvalues ---    0.00438   0.00542   0.00727   0.00921   0.01434
     Eigenvalues ---    0.02025   0.02113   0.02348   0.02798   0.03503
     Eigenvalues ---    0.03646   0.04122   0.04193   0.04332   0.04494
     Eigenvalues ---    0.04586   0.04646   0.05281   0.05362   0.05428
     Eigenvalues ---    0.06186   0.06248   0.06311   0.07879   0.07894
     Eigenvalues ---    0.08434   0.10557   0.11021   0.11046   0.11747
     Eigenvalues ---    0.11885   0.12543   0.12774   0.15026   0.15406
     Eigenvalues ---    0.15801   0.17504   0.18147   0.19531   0.20495
     Eigenvalues ---    0.21865   0.22350   0.22738   0.23253   0.23605
     Eigenvalues ---    0.25117   0.25195   0.25532   0.27688   0.29953
     Eigenvalues ---    0.31624   0.32087   0.32777   0.33382   0.33736
     Eigenvalues ---    0.34150   0.34389   0.34663   0.34927   0.35380
     Eigenvalues ---    0.36830   0.37632   0.37782   0.38522   0.38741
     Eigenvalues ---    0.42870   0.43527   0.45201   0.45828   0.46287
     Eigenvalues ---    0.47214   0.47717   0.47976   0.49552   0.53505
     Eigenvalues ---    0.59912   0.67910   0.81630   0.92927
 RFO step:  Lambda=-3.74111012D-03 EMin= 3.03145867D-04
 Linear search not attempted -- first point.
 Iteration  1 RMS(Cart)=  0.06614851 RMS(Int)=  0.00128765
 Iteration  2 RMS(Cart)=  0.00227958 RMS(Int)=  0.00010343
 Iteration  3 RMS(Cart)=  0.00000226 RMS(Int)=  0.00010343
 Iteration  4 RMS(Cart)=  0.00000000 RMS(Int)=  0.00010343
 Variable       Old X    -DE/DX   Delta X   Delta X   Delta X     New X
                                 (Linear)    (Quad)   (Total)
    R1        2.32965   0.00730   0.00000   0.00849   0.00849   2.33814
    R2        2.55055   0.00796   0.00000   0.01085   0.01085   2.56140
    R3        2.87398   0.00268   0.00000   0.00831   0.00831   2.88229
    R4        2.74078   0.00551   0.00000   0.00360   0.00360   2.74437
    R5        1.90672   0.00362   0.00000   0.00791   0.00791   1.91463
    R6        2.86040   0.00552   0.00000   0.01309   0.01309   2.87350
    R7        2.94886   0.00623   0.00000   0.02800   0.02800   2.97686
    R8        2.07168   0.00004   0.00000  -0.00016  -0.00016   2.07151
    R9        2.54407   0.00014   0.00000  -0.00515  -0.00515   2.53892
   R10        2.27664   0.01544   0.00000   0.01689   0.01689   2.29353
   R11        1.82575   0.00615   0.00000   0.01151   0.01151   1.83726
   R12        2.82718   0.00121   0.00000  -0.00753  -0.00753   2.81965
   R13        2.05711   0.00371   0.00000   0.01223   0.01223   2.06934
   R14        2.05988   0.00169   0.00000   0.00533   0.00533   2.06521
   R15        2.57654   0.01285   0.00000   0.02318   0.02320   2.59974
   R16        2.59737   0.00387   0.00000   0.01258   0.01261   2.60997
   R17        2.61621  -0.00339   0.00000  -0.01404  -0.01406   2.60215
   R18        2.04190   0.00068   0.00000   0.00255   0.00255   2.04446
   R19        2.47725   0.00735   0.00000   0.01357   0.01353   2.49078
   R20        2.56551   0.00746   0.00000   0.01033   0.01033   2.57583
   R21        2.03195   0.00471   0.00000   0.01154   0.01154   2.04349
   R22        1.90530   0.00571   0.00000   0.01600   0.01600   1.92130
   R23        2.86562   0.00632   0.00000   0.02237   0.02237   2.88799
   R24        2.06736   0.00139   0.00000   0.00382   0.00382   2.07118
   R25        2.07115   0.00170   0.00000   0.00438   0.00438   2.07554
   R26        2.77011   0.00203   0.00000  -0.00031  -0.00031   2.76980
   R27        2.06605   0.00133   0.00000   0.00413   0.00413   2.07018
   R28        2.07521   0.00202   0.00000   0.00639   0.00639   2.08160
   R29        1.91624   0.00361   0.00000   0.00718   0.00718   1.92342
   R30        1.91277   0.00437   0.00000   0.00905   0.00905   1.92182
    A1        2.11827   0.00619   0.00000   0.01648   0.01648   2.13475
    A2        2.14245  -0.00348   0.00000  -0.00878  -0.00878   2.13367
    A3        2.02246  -0.00271   0.00000  -0.00770  -0.00770   2.01476
    A4        2.11989   0.00664   0.00000   0.02097   0.02092   2.14081
    A5        2.11691  -0.00324   0.00000  -0.00870  -0.00875   2.10816
    A6        2.02963  -0.00330   0.00000  -0.00919  -0.00924   2.02039
    A7        1.86488  -0.00254   0.00000   0.00026   0.00016   1.86504
    A8        1.97013   0.00293   0.00000   0.01061   0.01060   1.98073
    A9        1.89410   0.00118   0.00000   0.01262   0.01265   1.90676
   A10        1.94494   0.00060   0.00000   0.00593   0.00587   1.95080
   A11        1.86548   0.00078   0.00000   0.00642   0.00634   1.87182
   A12        1.92023  -0.00300   0.00000  -0.03469  -0.03465   1.88557
   A13        1.95090  -0.00056   0.00000  -0.00067  -0.00067   1.95024
   A14        2.17878   0.00052   0.00000  -0.00183  -0.00183   2.17695
   A15        2.15350   0.00004   0.00000   0.00249   0.00249   2.15599
   A16        1.85933   0.00137   0.00000   0.00708   0.00708   1.86641
   A17        1.96014   0.00723   0.00000   0.02495   0.02502   1.98515
   A18        1.89302  -0.00450   0.00000  -0.03500  -0.03522   1.85780
   A19        1.93728  -0.00200   0.00000  -0.01106  -0.01133   1.92596
   A20        1.91640   0.00043   0.00000   0.01587   0.01614   1.93254
   A21        1.89127  -0.00288   0.00000   0.00347   0.00351   1.89478
   A22        1.86330   0.00150   0.00000   0.00107   0.00061   1.86391
   A23        2.30888   0.00212   0.00000   0.02050   0.02039   2.32927
   A24        2.13959  -0.00122   0.00000  -0.01588  -0.01599   2.12360
   A25        1.83430  -0.00089   0.00000  -0.00398  -0.00400   1.83030
   A26        1.93059   0.00237   0.00000   0.00655   0.00656   1.93714
   A27        2.22954  -0.00076   0.00000  -0.00359  -0.00360   2.22593
   A28        2.12305  -0.00161   0.00000  -0.00293  -0.00295   2.12010
   A29        1.83262  -0.00161   0.00000  -0.00194  -0.00198   1.83064
   A30        1.95032   0.00290   0.00000   0.00581   0.00580   1.95612
   A31        2.21011  -0.00316   0.00000  -0.01746  -0.01746   2.19266
   A32        2.12275   0.00026   0.00000   0.01165   0.01166   2.13441
   A33        1.87689  -0.00277   0.00000  -0.00634  -0.00633   1.87056
   A34        2.17176  -0.00159   0.00000  -0.02381  -0.02384   2.14792
   A35        2.23397   0.00433   0.00000   0.02966   0.02958   2.26355
   A36        1.97076  -0.00045   0.00000  -0.00285  -0.00285   1.96791
   A37        1.89537   0.00062   0.00000   0.00576   0.00574   1.90111
   A38        1.88266   0.00017   0.00000   0.00315   0.00315   1.88581
   A39        1.91854  -0.00041   0.00000  -0.00598  -0.00597   1.91256
   A40        1.92296   0.00017   0.00000  -0.00118  -0.00118   1.92178
   A41        1.87044  -0.00007   0.00000   0.00158   0.00155   1.87199
   A42        1.92188   0.00071   0.00000   0.00352   0.00351   1.92539
   A43        1.89408  -0.00047   0.00000  -0.00843  -0.00845   1.88563
   A44        1.89979  -0.00068   0.00000  -0.00430  -0.00438   1.89542
   A45        1.88842   0.00006   0.00000   0.00323   0.00325   1.89167
   A46        1.97694   0.00067   0.00000   0.01373   0.01372   1.99066
   A47        1.88070  -0.00035   0.00000  -0.00888  -0.00895   1.87175
   A48        1.87913   0.00064   0.00000   0.00391   0.00390   1.88303
   A49        1.90901   0.00049   0.00000   0.00304   0.00303   1.91204
   A50        1.85011  -0.00025   0.00000   0.00348   0.00346   1.85357
    D1       -0.07068  -0.00021   0.00000  -0.01105  -0.01105  -0.08173
    D2       -3.00932  -0.00040   0.00000  -0.02851  -0.02850  -3.03783
    D3        3.06807  -0.00015   0.00000  -0.01172  -0.01173   3.05634
    D4        0.12943  -0.00034   0.00000  -0.02918  -0.02918   0.10024
    D5       -0.20200   0.00010   0.00000   0.02527   0.02527  -0.17674
    D6       -2.33447   0.00047   0.00000   0.03067   0.03069  -2.30378
    D7        1.92711   0.00014   0.00000   0.02415   0.02414   1.95125
    D8        2.94247   0.00002   0.00000   0.02591   0.02590   2.96838
    D9        0.81001   0.00039   0.00000   0.03131   0.03132   0.84133
   D10       -1.21160   0.00006   0.00000   0.02479   0.02478  -1.18682
   D11       -2.90577   0.00072   0.00000   0.04422   0.04422  -2.86155
   D12        1.23346  -0.00013   0.00000   0.02988   0.02988   1.26333
   D13       -0.89984   0.00091   0.00000   0.05800   0.05800  -0.84184
   D14        0.04251   0.00083   0.00000   0.06069   0.06069   0.10320
   D15       -2.10145  -0.00002   0.00000   0.04635   0.04635  -2.05510
   D16        2.04844   0.00102   0.00000   0.07446   0.07447   2.12291
   D17        3.12129  -0.00082   0.00000  -0.03235  -0.03234   3.08895
   D18       -0.02173  -0.00068   0.00000  -0.03525  -0.03524  -0.05696
   D19       -1.00231   0.00149   0.00000  -0.01527  -0.01526  -1.01757
   D20        2.13786   0.00163   0.00000  -0.01818  -0.01816   2.11970
   D21        1.09619  -0.00133   0.00000  -0.05013  -0.05016   1.04602
   D22       -2.04683  -0.00119   0.00000  -0.05304  -0.05306  -2.09989
   D23       -2.16908  -0.00185   0.00000   0.03392   0.03404  -2.13504
   D24       -0.04790   0.00025   0.00000   0.04591   0.04571  -0.00219
   D25        1.99388  -0.00177   0.00000   0.01988   0.02008   2.01396
   D26        2.01544  -0.00106   0.00000   0.02190   0.02198   2.03742
   D27       -2.14657   0.00104   0.00000   0.03389   0.03365  -2.11291
   D28       -0.10479  -0.00098   0.00000   0.00786   0.00802  -0.09677
   D29       -0.05051  -0.00047   0.00000   0.03252   0.03256  -0.01795
   D30        2.07067   0.00163   0.00000   0.04451   0.04423   2.11490
   D31       -2.17074  -0.00039   0.00000   0.01847   0.01860  -2.15214
   D32       -3.14043  -0.00002   0.00000  -0.00803  -0.00803   3.13472
   D33        0.00256  -0.00015   0.00000  -0.00517  -0.00517  -0.00261
   D34       -1.97925  -0.00084   0.00000  -0.07500  -0.07501  -2.05426
   D35        1.12612  -0.00040   0.00000  -0.04739  -0.04732   1.07880
   D36        2.19617  -0.00022   0.00000  -0.05814  -0.05826   2.13791
   D37       -0.98164   0.00021   0.00000  -0.03052  -0.03057  -1.01221
   D38        0.16708  -0.00063   0.00000  -0.07006  -0.07005   0.09704
   D39       -3.01073  -0.00019   0.00000  -0.04245  -0.04236  -3.05309
   D40        3.12004   0.00013   0.00000   0.01733   0.01766   3.13770
   D41       -0.01712  -0.00003   0.00000   0.00946   0.00966  -0.00746
   D42        0.01005  -0.00023   0.00000  -0.00647  -0.00643   0.00362
   D43       -3.12710  -0.00040   0.00000  -0.01435  -0.01444  -3.14155
   D44       -3.12401   0.00007   0.00000  -0.01173  -0.01149  -3.13550
   D45       -0.01570  -0.00034   0.00000  -0.02583  -0.02531  -0.04101
   D46       -0.01016   0.00046   0.00000   0.00997   0.00985  -0.00031
   D47        3.09814   0.00005   0.00000  -0.00413  -0.00397   3.09417
   D48       -0.00596  -0.00004   0.00000   0.00045   0.00043  -0.00553
   D49        3.13152   0.00012   0.00000   0.00776   0.00787   3.13938
   D50       -0.00076   0.00033   0.00000   0.00609   0.00610   0.00534
   D51        3.14146   0.00014   0.00000   0.00381   0.00398  -3.13774
   D52        0.00704  -0.00049   0.00000  -0.01034  -0.01030  -0.00326
   D53       -3.09972   0.00010   0.00000   0.00579   0.00617  -3.09355
   D54       -3.13515  -0.00031   0.00000  -0.00820  -0.00828   3.13976
   D55        0.04128   0.00027   0.00000   0.00793   0.00819   0.04947
   D56       -1.18826   0.00000   0.00000   0.02822   0.02822  -1.16004
   D57        3.03089  -0.00020   0.00000   0.02729   0.02732   3.05821
   D58        0.98858   0.00085   0.00000   0.04491   0.04488   1.03346
   D59        0.93115   0.00020   0.00000   0.02937   0.02938   0.96053
   D60       -1.13288   0.00000   0.00000   0.02844   0.02847  -1.10441
   D61        3.10799   0.00105   0.00000   0.04606   0.04603  -3.12916
   D62        2.98864  -0.00003   0.00000   0.02695   0.02696   3.01560
   D63        0.92460  -0.00023   0.00000   0.02603   0.02605   0.95065
   D64       -1.11771   0.00082   0.00000   0.04364   0.04361  -1.07410
   D65        1.24247   0.00011   0.00000   0.02379   0.02381   1.26628
   D66       -3.03787   0.00041   0.00000   0.03154   0.03157  -3.00630
   D67       -2.97321  -0.00002   0.00000   0.01754   0.01753  -2.95568
   D68       -0.97036   0.00028   0.00000   0.02529   0.02529  -0.94507
   D69       -0.88936   0.00000   0.00000   0.01712   0.01709  -0.87227
   D70        1.11349   0.00030   0.00000   0.02487   0.02485   1.13834
         Item               Value     Threshold  Converged?
 Maximum Force            0.015442     0.000450     NO 
 RMS     Force            0.002959     0.000300     NO 
 Maximum Displacement     0.266601     0.001800     NO 
 RMS     Displacement     0.066177     0.001200     NO 
 Predicted change in Energy=-2.035531D-03
 GradGradGradGradGradGradGradGradGradGradGradGradGradGradGradGradGradGrad

                          Input orientation:                          
 ---------------------------------------------------------------------
 Center     Atomic      Atomic             Coordinates (Angstroms)
 Number     Number       Type             X           Y           Z
 ---------------------------------------------------------------------
      1          8           0       -0.857353    0.582015   -0.996102
      2          6           0       -1.241959   -0.538986   -0.640677
      3          7           0       -0.436230   -1.405464    0.020554
      4          6           0        0.966482   -1.130895    0.277598
      5          6           0        1.612170   -2.453790    0.658687
      6          8           0        2.934720   -2.323426    0.856079
      7          8           0        1.016915   -3.504718    0.778063
      8          6           0        1.198943   -0.028597    1.378701
      9          6           0        1.999531    1.136929    0.902306
     10          6           0        3.215713    1.663675    1.271156
     11          7           0        3.527424    2.766631    0.507975
     12          6           0        2.511818    2.902794   -0.321062
     13          7           0        1.559338    1.947509   -0.125668
     14          6           0       -2.654354   -1.041715   -0.921321
     15          6           0       -3.578965    0.055901   -1.446594
     16          7           0       -3.810385    1.065717   -0.409753
     17          1           0       -0.744266   -2.349417    0.222045
     18          1           0        1.443905   -0.791157   -0.648844
     19          1           0        3.272575   -3.201748    1.100314
     20          1           0        0.205953    0.292790    1.710077
     21          1           0        1.697947   -0.460752    2.249672
     22          1           0        3.879996    1.307895    2.047436
     23          1           0        2.413906    3.670201   -1.076614
     24          1           0        0.694587    1.779389   -0.633249
     25          1           0       -3.071334   -1.463305    0.000448
     26          1           0       -2.585750   -1.859206   -1.651611
     27          1           0       -4.540063   -0.403616   -1.702001
     28          1           0       -3.151814    0.458916   -2.378528
     29          1           0       -2.955410    1.607966   -0.305056
     30          1           0       -4.523900    1.718755   -0.723905
 ---------------------------------------------------------------------
                    Distance matrix (angstroms):
                    1          2          3          4          5
     1  O    0.000000
     2  C    1.237293   0.000000
     3  N    2.271785   1.355437   0.000000
     4  C    2.807623   2.463899   1.452261   0.000000
     5  C    4.248881   3.674353   2.387916   1.520590   0.000000
     6  O    5.123670   4.782171   3.592223   2.372917   1.343540
     7  O    4.833417   3.988846   2.663140   2.426529   1.213683
     8  C    3.200140   3.208799   2.532611   1.575287   2.563346
     9  C    3.474719   3.961912   3.629625   2.569139   3.619760
    10  C    4.785427   5.327069   4.931562   3.722340   4.460940
    11  N    5.124555   5.915532   5.775336   4.669283   5.562707
    12  C    4.146445   5.102828   5.231517   4.360860   5.519264
    13  N    2.909059   3.780894   3.904625   3.160802   4.470955
    14  C    2.423077   1.525240   2.437113   3.815209   4.763781
    15  C    2.808364   2.542634   3.763628   5.004240   6.138293
    16  N    3.049290   3.037303   4.204381   5.302454   6.552297
    17  H    3.176470   2.066312   1.013179   2.101081   2.398821
    18  H    2.702217   2.697688   2.088151   1.096197   2.121863
    19  H    5.980646   5.522895   4.260018   3.206767   1.873878
    20  H    2.921930   2.883461   2.480112   2.158073   3.259842
    21  H    4.260513   4.123504   3.227407   2.207535   2.551626
    22  H    5.677367   6.072178   5.486380   4.191489   4.606727
    23  H    4.499390   5.592195   5.923632   5.194174   6.415397
    24  H    1.993461   3.020783   3.442309   3.061588   4.520051
    25  H    3.174611   2.147561   2.635816   4.060945   4.832137
    26  H    3.062124   2.137929   2.760879   4.107388   4.828409
    27  H    3.877127   3.467308   4.562055   5.896591   6.901162
    28  H    2.681568   2.768299   4.075034   5.151977   6.356420
    29  H    2.435562   2.767302   3.941199   4.818930   6.187847
    30  H    3.848355   3.984402   5.198462   6.266403   7.548049
                    6          7          8          9         10
     6  O    0.000000
     7  O    2.253778   0.000000
     8  C    2.924432   3.532325   0.000000
     9  C    3.584798   4.746141   1.492093   0.000000
    10  C    4.018485   5.638274   2.634902   1.375722   0.000000
    11  N    5.136259   6.760578   3.740759   2.268454   1.376997
    12  C    5.373815   6.670758   3.633990   2.208472   2.136830
    13  N    4.593081   5.553173   2.509583   1.381138   2.185236
    14  C    6.003307   4.736296   4.600480   5.452591   6.825231
    15  C    7.306956   6.224887   5.551382   6.148623   7.492579
    16  N    7.654089   6.752969   5.430420   5.956651   7.249073
    17  H    3.733312   2.178448   3.240389   4.488405   5.734717
    18  H    2.614417   3.095448   2.180010   2.536198   3.584955
    19  H    0.972237   2.298617   3.800834   4.525922   4.868754
    20  H    3.875574   3.993416   1.095047   2.140557   3.336260
    21  H    2.634629   3.448937   1.092864   2.111618   2.788243
    22  H    3.936924   5.741932   3.069439   2.208325   1.081879
    23  H    6.319028   7.541277   4.602805   3.241188   3.190778
    24  H    4.906056   5.478820   2.751568   2.115079   3.161680
    25  H    6.127366   4.635281   4.710970   5.769596   7.135802
    26  H    6.081086   4.646527   5.182454   6.043518   7.389873
    27  H    8.130304   6.829901   6.524382   7.205691   8.559522
    28  H    7.433035   6.561460   5.769188   6.144911   7.437542
    29  H    7.176191   6.564453   4.772005   5.121624   6.369482
    30  H    8.629403   7.761520   6.342328   6.748202   7.992803
                   11         12         13         14         15
    11  N    0.000000
    12  C    1.318066   0.000000
    13  N    2.223922   1.363072   0.000000
    14  C    7.400052   6.527541   5.227210   0.000000
    15  C    7.852971   6.816836   5.632511   1.528260   0.000000
    16  N    7.588068   6.584297   5.449054   2.457514   1.465716
    17  H    6.671059   6.203448   4.887849   2.581822   4.074976
    18  H    4.282188   3.859165   2.790578   4.114942   5.155883
    19  H    6.003112   6.313834   5.563548   6.624292   8.002663
    20  H    4.312436   4.031706   2.817748   4.109321   4.934197
    21  H    4.098353   4.310974   3.385436   5.416201   6.463367
    22  H    2.149921   3.166291   3.242984   7.551948   8.331376
    23  H    2.137121   1.081369   2.145286   6.921960   7.008177
    24  H    3.209673   2.159126   1.016708   4.388282   4.679229
    25  H    7.854524   7.094912   5.752624   1.096024   2.158612
    26  H    7.964488   7.101563   5.831066   1.098327   2.167058
    27  H    8.945323   7.910017   6.724233   2.138347   1.095490
    28  H    7.633457   6.502494   5.430123   2.150073   1.101535
    29  H    6.635560   5.618489   4.531050   2.737010   2.025052
    30  H    8.212149   7.146017   6.116862   3.339815   2.044569
                   16         17         18         19         20
    16  N    0.000000
    17  H    4.632860   0.000000
    18  H    5.577876   2.823954   0.000000
    19  H    8.405943   4.199147   3.494930   0.000000
    20  H    4.606742   3.177800   2.876104   4.689112   0.000000
    21  H    6.304313   3.693607   2.928327   3.363561   1.756426
    22  H    8.077028   6.171854   4.196484   4.647890   3.826596
    23  H    6.780106   6.920720   4.585586   7.259477   4.903836
    24  H    4.566624   4.455206   2.677578   5.870518   2.817785
    25  H    2.666535   2.499909   4.610938   6.669113   4.092349
    26  H    3.405453   2.672444   4.287702   6.610255   4.870897
    27  H    2.088366   4.679334   6.088284   8.758985   5.886589
    28  H    2.162868   4.521725   5.067062   8.171632   5.293287
    29  H    1.017830   4.563756   5.022743   7.993511   3.972992
    30  H    1.016983   5.632981   6.474564   9.398092   5.507191
                   21         22         23         24         25
    21  H    0.000000
    22  H    2.816087   0.000000
    23  H    5.351780   4.182057   0.000000
    24  H    3.786316   4.189893   2.593800   0.000000
    25  H    5.367510   7.758266   7.589519   5.009870   0.000000
    26  H    5.960347   8.094402   7.476731   5.003703   1.766870
    27  H    7.384562   9.374697   8.083612   5.771422   2.485646
    28  H    6.766550   8.352022   6.556261   4.425432   3.059565
    29  H    5.697364   7.235125   5.803246   3.668730   3.088604
    30  H    7.232136   8.858589   7.215656   5.219627   3.572133
                   26         27         28         29         30
    26  H    0.000000
    27  H    2.437339   0.000000
    28  H    2.494499   1.768867   0.000000
    29  H    3.737799   2.917026   2.378692   0.000000
    30  H    4.173591   2.336962   2.491504   1.627227   0.000000
 Symmetry turned off by external request.
 Stoichiometry    C9H14N4O3
 Framework group  C1[X(C9H14N4O3)]
 Deg. of freedom    84
 Full point group                 C1      NOp   1
 Rotational constants (GHZ):      0.5989583      0.3639636      0.2389695
 Standard basis: 6-31G(d,p) (6D, 7F)
   310 basis functions,   546 primitive gaussians,   310 cartesian basis functions
    60 alpha electrons       60 beta electrons
       nuclear repulsion energy      1121.0049482854 Hartrees.
 NAtoms=   30 NActive=   30 NUniq=   30 SFac= 1.00D+00 NAtFMM=   60 NAOKFM=F Big=F
 Integral buffers will be    131072 words long.
 Raffenetti 2 integral format.
 Two-electron integral symmetry is turned off.
 One-electron integrals computed using PRISM.
 NBasis=   310 RedAO= T EigKep=  1.25D-03  NBF=   310
 NBsUse=   310 1.00D-06 EigRej= -1.00D+00 NBFU=   310
 Initial guess from the checkpoint file:  "conf-900.chk"
 B after Tr=    -0.002798    0.006610   -0.002924
         Rot=    0.999995   -0.003103    0.000377    0.000052 Ang=  -0.36 deg.
 ExpMin= 1.61D-01 ExpMax= 5.48D+03 ExpMxC= 8.25D+02 IAcc=2 IRadAn=         4 AccDes= 0.00D+00
[...]
 00123903,-0.00060398,-0.00048737,0.00058097,-0.00008372,0.00034882,-0.
 00046169,-0.00019925,-0.00022758,-0.00020108,0.00013395,0.00043911,-0.
 00087010,-0.00022075,0.00006792,0.00000777,0.00004391,-0.00022190,-0.0
 0012264,0.00025674,-0.00012335,-0.00012664,-0.00022556,0.00059997,0.00
 140334,0.00080215,0.00074104,-0.00047319,0.00000986,0.06581823,0.06153
 646,-0.00154726,0.00163722,-0.00638377,0.00207811,-0.00260290,0.002337
 51,-0.00072922,0.00116270,-0.00144544,0.00055147,0.00039272,0.00074707
 ,0.00025671,0.00024965,-0.00024196,-0.00013146,-0.00006810,-0.00010034
 ,-0.00025075,-0.00014636,0.00006411,0.00064974,-0.00028795,0.00033779,
 -0.01451773,-0.01105895,-0.00797780,-0.00202487,0.00399491,-0.00271128
 ,0.00299021,0.00511234,0.00474849,0.00930330,-0.00823528,0.00522847,-0
 .17240887,-0.00959374,-0.14197433,-0.00017394,0.00082020,0.00035112,-0
 .00025923,0.00015524,0.00016187,0.00013054,-0.00012781,-0.00030669,-0.
 00012199,-0.00003957,0.00002902,0.00010590,-0.00022323,0.00012524,-0.0
 0001112,0.00002401,0.00004048,0.00034329,0.00040047,-0.00050203,0.0000
 7138,-0.00048655,0.00000617,-0.00114953,0.00015390,0.00101279,0.000248
 63,-0.00021251,-0.00081541,0.17630647,0.01879883,0.14710778,-0.0044111
 8,-0.00310746,-0.00294910,-0.00923406,-0.00846906,0.03040920,0.0003069
 5,0.00031519,-0.00279711,0.00037591,-0.00025844,-0.00055858,-0.0000063
 5,-0.00018673,0.00004301,0.00006797,0.00002445,0.00000764,0.00007816,0
 .00014279,-0.00006918,-0.00021546,0.00005439,0.00000483,0.00006148,-0.
 00009000,0.00009707,-0.00005534,-0.00004043,-0.00001060,-0.00013462,-0
 .00001086,-0.00008302,0.00011239,0.00019177,-0.00007793,-0.00029409,-0
 .00027213,-0.00004109,-0.08872722,-0.02850175,0.09132406,0.00806155,0.
 00685267,-0.01992724,0.00039298,-0.00173923,0.00050210,-0.00118043,0.0
 0063598,0.00030273,0.00014567,-0.00004910,0.00006638,-0.00000306,-0.00
 000503,0.00000669,-0.00001831,0.00000398,0.00003898,-0.00003906,-0.000
 03236,-0.00005307,-0.00001224,-0.00000113,-0.00000664,-0.00000188,-0.0
 0000459,0.00000269,0.00047629,0.00040839,0.00005742,0.09615784,-0.0028
 9914,-0.00166739,-0.00149695,-0.00492818,-0.00540772,0.01126981,0.0015
 7896,0.00017275,-0.00000388,-0.00010522,-0.00022953,-0.00059194,0.0000
 7560,0.00013947,-0.00005497,-0.00002856,-0.00004120,0.00001291,-0.0000
 5012,-0.00007874,0.00001801,-0.00012438,0.00001313,0.00005540,0.000026
 43,-0.00005983,0.00004001,-0.00002790,-0.00001934,-0.00001551,-0.00005
 453,0.00000538,-0.00004102,0.00004547,0.00008040,-0.00003414,-0.000141
 08,-0.00014109,-0.00003318,-0.02870907,-0.06548017,0.06607125,-0.00875
 806,-0.00698845,0.02179042,-0.00147162,0.00202747,-0.00071001,0.000372
 51,0.00036375,0.00028381,0.00017008,-0.00004650,0.00004402,0.00000812,
 0.00000092,0.00000577,-0.00000528,-0.00000184,-0.00001718,0.00000351,-
 0.00000614,-0.00001245,-0.00000668,-0.00000014,-0.00000176,-0.00000082
 ,0.00000062,0.00000256,0.00022809,0.00020860,0.00006192,0.03121107,0.0
 7035271,-0.00056869,-0.00206597,-0.00038399,-0.00305559,-0.00012597,0.
 00560277,-0.00108414,0.00016039,0.00003942,0.00044081,-0.00015188,0.00
 051966,0.00020880,0.00007710,-0.00002797,-0.00011259,-0.00001277,0.000
 00430,-0.00011812,-0.00004978,0.00000759,-0.00003135,0.00004128,0.0000
 1176,0.00000400,0.00001201,-0.00002339,0.00001503,0.00000204,0.0000043
 9,-0.00000469,-0.00002523,0.00002364,-0.00002073,-0.00001001,-0.000009
 73,-0.00003291,-0.00002889,-0.00000937,0.08923611,0.06657643,-0.246654
 60,0.00481527,0.00435236,-0.01443237,0.00050420,-0.00134800,0.00214418
 ,0.00047301,-0.00037763,-0.00015453,-0.00020329,-0.00004493,-0.0000279
 1,0.00002291,-0.00000470,-0.00000368,0.00000056,0.00000346,-0.00000490
 ,-0.00000426,-0.00001275,-0.00001647,0.00000228,0.00000105,0.00000181,
 -0.00000351,-0.00000667,0.00000176,0.00002904,0.00004445,-0.00004231,-
 0.09477329,-0.07409231,0.26920690,-0.00471108,-0.00060266,0.00273029,0
 .00355773,-0.02690188,-0.02093876,-0.00102380,0.00151990,0.00089709,-0
 .00008597,0.00043012,0.00073906,-0.00008096,-0.00034997,0.00011059,-0.
 00010093,0.00012896,-0.00004951,-0.00001013,0.00019046,0.00001384,0.00
 010276,0.00013681,0.00008874,0.00003228,-0.00003640,0.00004503,0.00001
 199,-0.00001624,0.00000952,-0.00008130,-0.00004852,-0.00000953,0.00004
 540,0.00006036,-0.00003554,-0.00015215,-0.00008988,-0.00014180,-0.0462
 1468,0.00535650,0.00079357,0.00005864,0.01320691,0.01436322,-0.0033919
 8,0.00369879,-0.00181302,-0.00035103,-0.00003004,-0.00063272,-0.000148
 56,0.00003935,-0.00012028,-0.00001352,-0.00000321,-0.00002539,0.000029
 05,0.00002025,0.00004409,-0.00002571,-0.00000888,-0.00001212,-0.000003
 93,0.00000052,-0.00000256,-0.00000363,-0.00000531,0.00000458,0.0001967
 0,0.00032060,0.00024185,-0.00042563,0.01085349,0.00706744,0.05192342,-
 0.00291810,0.00037144,0.00057176,0.00017765,-0.01111233,-0.00608556,0.
 00099758,0.00066712,0.00121653,-0.00065867,0.00026391,0.00030791,-0.00
 007701,-0.00006306,-0.00003672,0.00001643,0.00001788,0.00001431,0.0000
 3202,0.00003447,0.00002226,0.00018642,-0.00001705,0.00002575,0.0000427
 7,-0.00003871,0.00009863,-0.00003229,-0.00000617,-0.00000870,-0.000048
 74,0.00001374,-0.00004080,0.00006086,0.00006974,-0.00002279,-0.0001215
 5,-0.00006777,-0.00005010,0.00822699,-0.21087505,-0.12361734,-0.000991
 68,-0.01532487,-0.01586572,0.00446664,-0.00245922,0.00262602,0.0001894
 2,0.00007988,-0.00050928,0.00000927,-0.00001267,-0.00006517,-0.0000070
 0,-0.00000071,-0.00001173,0.00001202,-0.00001746,-0.00000578,0.0000164
 0,0.00003615,0.00002742,-0.00000481,-0.00000227,-0.00000381,0.00000403
 ,-0.00000095,-0.00000383,0.00017836,0.00014914,0.00010447,0.00023331,0
 .00884335,0.00574805,-0.00905667,0.22937852,0.00022911,0.00052730,-0.0
 0063288,0.00171762,-0.00249635,-0.00225426,-0.00124999,0.00060827,0.00
 079112,-0.00016208,0.00025119,0.00011538,-0.00018371,-0.00035319,0.000
 06847,0.00006200,0.00009466,-0.00002225,0.00011461,0.00022275,0.000008
 98,0.00007148,0.00006241,-0.00001511,0.00000777,0.00000163,0.00003486,
 -0.00000149,-0.00000246,0.00000464,-0.00002661,-0.00001198,-0.00001002
 ,0.00002072,0.00002575,-0.00000688,-0.00004893,-0.00002159,-0.00000936
 ,0.00408005,-0.12345486,-0.13885688,0.00037145,0.01160664,0.00900367,-
 0.00139788,0.00113307,-0.00066882,-0.00052994,-0.00018766,-0.00083412,
 -0.00003987,0.00002125,-0.00002952,-0.00002261,-0.00000272,-0.00001070
 ,0.00000586,0.00000859,0.00002462,-0.00001103,-0.00000756,-0.00001065,
 -0.00000151,-0.00000012,-0.00000279,0.00000089,-0.00000011,0.00000018,
 0.00007313,0.00004730,-0.00000022,-0.00011308,-0.02335605,-0.01594951,
 -0.00364637,0.13546014,0.14788104,-0.00012842,0.00046391,-0.00049644,0
 .00011718,0.00269372,-0.00107352,-0.00163916,-0.00025008,-0.00042200,0
 .00028401,0.00031681,-0.00014327,0.00012099,-0.00032522,0.00004188,-0.
 00019053,0.00012650,-0.00003546,-0.00010069,0.00016989,-0.00004551,-0.
 00004754,0.00005729,0.00002098,0.00003576,-0.00003442,0.00001399,0.000
 01343,-0.00000884,0.00000771,-0.00007920,-0.00005459,-0.00000861,0.000
 04838,0.00006074,-0.00001560,-0.00011545,-0.00005700,-0.00006161,-0.01
 729479,-0.00733870,-0.00196887,-0.26061183,-0.09564637,-0.03737873,0.0
 0695525,0.00231700,0.00058586,-0.00002898,-0.00017671,0.00010703,-0.00
 001692,-0.00001773,0.00000572,0.00001179,-0.00000923,0.00000224,-0.000
 00332,0.00000047,0.00003503,-0.00002533,-0.00002000,-0.00002699,-0.000
 00302,0.00000341,-0.00000338,0.00000139,-0.00000145,0.00000341,0.00017
 056,0.00015109,0.00006117,0.00083993,-0.00020713,-0.00024539,0.0002307
 8,0.00009341,0.00053866,0.27960590,-0.00042758,0.00112820,-0.00054474,
 0.00158764,-0.00513933,0.00300610,0.00179773,0.00084909,0.00017101,-0.
 00000222,-0.00038483,0.00021979,0.00002521,0.00019568,-0.00001282,0.00
 011015,-0.00008805,0.00002667,0.00003843,-0.00006601,0.00001659,0.0000
 4180,-0.00005919,-0.00003023,0.00000295,-0.00001592,0.00004389,-0.0000
 2057,0.00000028,-0.00000604,-0.00000361,0.00003025,-0.00002660,0.00003
 551,0.00001980,0.00001054,-0.00000851,0.00003573,0.00002271,0.02320441
 ,0.00922488,0.00399262,-0.09231109,-0.09002218,-0.01544911,-0.02519632
 ,-0.01599235,-0.00942421,0.00001540,0.00010692,-0.00006487,0.00001159,
 0.00000056,-0.00000371,0.00000914,-0.00000417,-0.00000101,-0.00000075,
 -0.00000298,0.00000059,0.00000785,0.00002159,0.00001679,-0.00000182,-0
 .00000134,-0.00000330,0.00000828,0.00000587,-0.00000640,0.00000539,-0.
 00010788,-0.00002173,-0.00062026,0.00077372,-0.00033645,-0.00033230,0.
 00105856,-0.00047224,0.10122547,0.10565659,0.00068812,-0.00066143,0.00
 105697,-0.00007922,0.00379936,-0.00093591,-0.00103537,-0.00043975,-0.0
 0015689,0.00000021,0.00015072,-0.00018179,-0.00001867,-0.00012475,0.00
 001840,-0.00004126,0.00004809,-0.00000992,-0.00000339,0.00005063,-0.00
 001609,-0.00002575,0.00001684,-0.00001238,0.00000484,0.00000072,-0.000
 00816,0.00000760,-0.00000057,0.00000433,-0.00000825,-0.00000857,0.0000
 0788,0.00000114,0.00000272,0.00000003,-0.00001860,0.00001642,0.0000109
 9,-0.01441819,-0.00462978,-0.00318609,-0.03151703,-0.01512918,-0.05777
 241,-0.02188746,-0.01282438,-0.00653791,-0.00003497,-0.00008773,0.0000
 6422,-0.00000440,-0.00000442,0.00000759,-0.00000454,0.00000003,-0.0000
 0004,-0.00000447,-0.00000786,0.00001255,-0.00001129,-0.00000877,-0.000
 00738,0.00000066,0.00000026,-0.00000081,0.00000164,-0.00000389,-0.0000
 0313,0.00001001,-0.00003070,-0.00004843,0.00004483,-0.00077418,0.00020
 773,0.00072210,-0.00015427,0.00055851,0.04102559,0.02314594,0.06243129
 ,-0.00062891,-0.00065129,0.00025466,0.00108500,0.00078723,-0.00121894,
 0.00008569,-0.00050989,0.00043170,-0.00014583,-0.00007270,0.00011667,-
 0.00001004,0.00010694,-0.00001380,0.00002320,-0.00003440,0.00000264,0.
 00000402,-0.00007673,0.00001445,0.00000701,0.00000123,0.00000019,-0.00
 002913,0.00003272,-0.00004022,0.00001075,0.00000832,-0.00000104,0.0000
 5120,0.00001354,0.00002006,-0.00004651,-0.00006143,0.00001835,0.000090
 42,0.00004304,0.00001306,0.00728194,0.00777510,-0.01831568,-0.08962345
 ,-0.03040779,0.08126627,0.00197438,0.00318819,0.00550188,0.00030903,-0
 .00004968,-0.00002121,-0.00004946,0.00001768,-0.00002159,-0.00000179,0
 .00000407,0.00000242,0.00000358,0.00000646,-0.00002130,0.00000912,-0.0
 0000132,0.00000590,0.00000265,0.00000050,0.00000336,-0.00000241,0.0000
 0149,0.00000169,-0.00013660,-0.00008549,-0.00000526,-0.00226129,0.0029
 3477,-0.00247019,0.00068317,-0.00063106,0.00054850,-0.01075910,-0.0099
 7570,0.02561299,0.09188728,0.00024511,0.00128713,-0.00065394,-0.001905
 01,-0.00117261,-0.00001492,0.00047727,0.00001550,0.00002434,-0.0001556
 2,-0.00004149,-0.00009772,-0.00014090,0.00001665,0.00000459,0.00012342
 ,-0.00002530,0.00001147,0.00010400,-0.00000092,-0.00000298,0.00003276,
 -0.00003432,-0.00002190,-0.00000712,0.00000669,0.00001218,-0.00000993,
 0.00000159,-0.00000102,0.00002500,0.00003001,-0.00000480,-0.00000268,-
 0.00000788,0.00000552,0.00003703,0.00003745,0.00003367,-0.00795003,-0.
 00791379,0.02178118,-0.02931180,-0.07360019,0.06436192,0.01239377,0.00
 160540,-0.03315832,-0.00023257,0.00019507,0.00001998,0.00006446,0.0000
 2596,0.00000731,-0.00001419,0.00000269,0.00000167,0.00000298,-0.000017
 54,-0.00000735,0.00000668,0.00001058,0.00001235,0.00000058,-0.00000226
 ,-0.00000041,0.00000112,0.00000132,-0.00000448,-0.00006331,-0.00008045
 ,-0.00004714,0.00365294,-0.00311188,0.00200508,-0.00060471,0.00030000,
 -0.00035986,-0.00440996,-0.00329348,0.01108535,0.02690300,0.08272759,0
 .00009275,-0.00156023,0.00220035,0.00208313,0.00243101,-0.00115714,-0.
 00012937,-0.00061900,0.00040101,-0.00007968,-0.00001862,-0.00002552,0.
 00001857,0.00005378,-0.00001877,-0.00002601,-0.00000615,0.00001622,-0.
 00001883,-0.00005210,0.00003627,0.00003567,-0.00000049,-0.00003971,-0.
 00001458,0.00003397,-0.00002202,0.00001340,0.00001048,0.00001019,0.000
 02754,-0.00000468,0.00004141,-0.00004149,-0.00003107,-0.00000366,0.000
 02077,0.00005425,0.00005564,0.00433492,0.00702778,-0.01240963,0.077973
 22,0.06535677,-0.22851364,0.00914841,-0.00819243,-0.02408411,0.0002189
 7,-0.00017658,-0.00004780,-0.00004432,-0.00000366,-0.00000343,0.000003
 15,-0.00000046,-0.00001318,-0.00001053,-0.00000683,0.00000582,0.000001
 23,-0.00000018,0.00000924,0.00000729,-0.00000286,0.00000076,-0.0000004
 9,-0.00001337,-0.00000757,-0.00006651,-0.00009803,-0.00012877,-0.00145
 961,0.00175354,-0.00008082,-0.00037688,0.00062092,0.00014893,-0.001377
 15,-0.00074449,0.00584322,-0.09063741,-0.06553470,0.25594979,-0.002239
 06,-0.00253614,0.00058675,0.00104497,0.00501076,-0.00171301,0.00031241
 ,-0.00145794,0.00104818,-0.00051204,-0.00008407,-0.00011678,-0.0002598
 0,0.00025726,-0.00004096,0.00020161,-0.00009696,0.00002960,0.00014639,
 -0.00018104,0.00004933,0.00004099,-0.00004474,-0.00001958,-0.00009368,
 0.00010862,-0.00010996,0.00002016,0.00003162,0.00000184,0.00016592,0.0
 0008193,0.00006583,-0.00015227,-0.00019599,0.00004479,0.00025321,0.000
 06109,0.00006138,0.00038385,-0.00040876,-0.00039584,0.00520729,0.00206
 984,0.00326215,-0.32672501,-0.15598405,-0.02417544,0.00013573,0.000117
 24,0.00012463,0.00001401,0.00005351,-0.00002183,-0.00002786,0.00001226
 ,-0.00000342,0.00000749,0.00000104,-0.00007931,0.00004254,0.00000444,0
 .00002704,0.00001089,-0.00000245,0.00000669,0.00000096,0.00000221,-0.0
 0000664,-0.00054996,-0.00015507,-0.00002983,-0.00007897,-0.00007553,-0
 .00004611,-0.00024947,-0.00009344,-0.00001941,0.00175003,0.00143733,0.
 00102358,0.00050411,0.00125888,0.00075500,0.34446393,-0.00147745,0.003
 20904,0.00030493,0.00048587,-0.00575201,0.00179826,-0.00041513,0.00125
 732,-0.00098418,0.00057890,0.00008457,0.00007270,0.00032756,-0.0002519
 0,0.00002291,-0.00024792,0.00010178,-0.00003311,-0.00018860,0.00017651
 ,-0.00003942,0.00000848,0.00008416,-0.00000361,0.00007540,-0.00002641,
 0.00002491,0.00002433,-0.00001125,0.00002389,-0.00010824,-0.00012964,0
 .00000689,0.00002305,0.00010385,-0.00007147,-0.00016633,-0.00019346,-0
 .00011379,-0.00084812,-0.00011546,-0.00006842,-0.02876643,-0.01677663,
 0.00153368,-0.16634480,-0.15900833,-0.02154605,-0.00011614,-0.00013403
 ,-0.00007678,0.00000495,-0.00005188,0.00003219,0.00003307,-0.00001265,
 0.00000294,-0.00002053,0.00000676,0.00009196,-0.00004939,-0.00001590,-
 0.00002492,-0.00000288,0.00000282,0.00000235,-0.00002583,-0.00001544,0
 .00002504,0.00032542,0.00051878,0.00010974,-0.00003818,-0.00011901,-0.
 00004500,0.00048607,0.00020024,0.00003761,0.00152855,-0.00436548,-0.00
 402351,0.00074298,0.00174257,-0.00007475,0.16901568,0.16645435,-0.0005
 7098,0.00102594,-0.00179994,-0.00077932,-0.00100403,0.00181112,-0.0001
 3518,0.00065724,-0.00073577,0.00017556,0.00005149,0.00012596,0.0000315
 7,0.00005719,-0.00002458,-0.00001415,-0.00001691,-0.00002167,-0.000047
 72,-0.00001997,-0.00001515,-0.00015921,0.00002885,0.00014633,-0.000038
 69,-0.00002261,-0.00003944,-0.00001550,-0.00001327,-0.00003080,0.00000
 233,0.00002788,-0.00003654,-0.00000119,-0.00003560,0.00002003,0.000070
 56,-0.00010584,-0.00010913,0.00070640,0.00090653,0.00106015,-0.0236295
 4,-0.02026321,-0.00871149,0.02307397,0.00823643,-0.01733077,-0.0000544
 8,0.00006317,0.00000928,0.00002121,-0.00003158,-0.00000257,-0.00000501
 ,0.00000713,0.00001468,0.00002585,0.00006450,-0.00007978,0.00002921,-0
 .00002364,-0.00003155,-0.00000827,0.00000455,0.00000252,0.00000405,0.0
 0002096,0.00001140,0.00005644,0.00015938,0.00033161,0.00019970,0.00016
 126,-0.00013603,-0.00018663,0.00011014,-0.00018314,0.00114115,-0.00416
 583,-0.00246041,-0.00164790,0.00087181,0.00145186,0.01641713,0.0195164
 2,0.03102447,-0.00068383,0.00109677,0.00042012,-0.00038513,-0.00126749
 ,0.00046489,0.00010541,0.00021604,-0.00018837,0.00005979,-0.00001631,-
 0.00000031,0.00001218,0.00001359,-0.00001096,0.00000075,-0.00000433,0.
 00000510,-0.00000482,-0.00000201,0.00001072,0.00001478,0.00000691,-0.0
 0000895,0.00001026,0.00000704,-0.00000060,0.00000190,-0.00000133,0.000
 00592,0.00000340,-0.00002041,0.00001510,-0.00001841,0.00001340,-0.0000
 2508,-0.00000387,-0.00002065,0.00001121,0.00134010,-0.00069912,0.00094
 441,-0.00201242,0.00168786,-0.00173520,-0.22908406,0.14755970,-0.09412
 426,-0.00003000,0.00002861,-0.00004468,0.00001104,-0.00000805,0.000008
 87,0.,0.00000059,-0.00000381,-0.00000821,-0.00000487,0.00001218,-0.000
 00418,-0.00000022,0.00000268,0.00000200,-0.00000219,0.00000285,-0.0000
 1181,-0.00000836,0.00000545,0.00003581,0.00007088,-0.00003512,0.000022
 09,0.00008519,-0.00004461,0.00020252,-0.00030257,-0.00038733,0.0008588
 8,-0.00066355,-0.00003044,-0.00031803,-0.00052117,-0.00045118,-0.02381
 838,0.02515562,-0.01466135,0.25370224,-0.00020628,0.00134164,0.0001231
 8,-0.00153589,-0.00118890,0.00004549,0.00032689,0.00022323,0.00005934,
 -0.00009378,-0.00001641,0.00001679,-0.00007887,0.00002575,-0.00001401,
 0.00007292,-0.00001944,0.00001104,0.00005500,-0.00000567,0.00001958,0.
 00003464,-0.00001909,-0.00001323,0.00000217,0.00000029,0.00001593,-0.0
 0001125,0.00000035,-0.00000276,0.00001166,0.00000976,-0.00000590,0.000
 00108,0.00000596,-0.00000321,0.00001671,0.00001625,0.00002045,0.000098
 42,-0.00514115,-0.00582369,0.02017234,-0.01785796,0.01710770,0.1711259
 2,-0.19435210,0.06342966,-0.00007856,0.00006824,-0.00013116,0.00002425
 ,-0.00000111,0.00000473,-0.00000932,0.00000270,-0.00000414,-0.00000070
 ,-0.00000684,0.00000023,0.00000474,0.00000969,0.00001059,0.00000006,-0
 .00000194,0.00000075,-0.00000293,0.00000039,0.00000143,0.00000112,-0.0
 0003852,-0.00002650,-0.00030021,0.00041671,-0.00028475,0.00163759,-0.0
 0148583,0.00061820,-0.00065085,0.00043548,0.00059667,-0.00000976,0.001
 29590,-0.00020181,-0.01820754,0.01303671,-0.00626838,-0.17239958,0.203
 24588,-0.00001814,0.00037587,-0.00004274,0.00046417,-0.00087150,0.0000
 4637,-0.00019866,0.00021598,-0.00014119,0.00016243,0.00005246,0.000043
 79,0.00011927,-0.00011500,0.00003005,-0.00010359,0.00004583,-0.0000216
 1,-0.00007137,0.00007070,-0.00003119,0.00001255,0.00002798,-0.00000805
 ,0.00003292,-0.00003113,0.00003311,0.00000312,-0.00000625,0.00000077,-
 0.00006210,-0.00004288,-0.00002813,0.00005363,0.00005247,-0.00000163,-
 0.00009026,-0.00003845,-0.00005327,0.00021028,-0.00160139,-0.00237850,
 0.02232438,-0.02047319,0.00208039,-0.13630833,0.08862530,-0.07540676,-
 0.00001026,-0.00007201,-0.00001106,-0.00001580,-0.00000937,0.00000164,
 0.00001492,-0.00000573,0.00000758,0.00000387,0.00000374,0.00004430,-0.
 00002423,-0.00000060,-0.00000860,-0.00000567,0.00000460,-0.00000193,0.
 00000120,0.00000530,0.00000736,0.00014450,0.00008710,0.00004926,-0.000
 18781,-0.00033516,0.00018170,0.00012011,-0.00047273,0.00085670,-0.0002
 8786,0.00064055,0.00111404,0.00059974,-0.00032888,0.00038505,0.0032742
 3,0.00349859,-0.00426066,0.10984276,-0.06930221,0.07751322\\0.00000120
 ,0.00000090,0.00000106,-0.00000661,0.00000462,-0.00000366,0.00000531,-
 0.00000190,-0.00000294,0.00000502,0.00000637,0.00000952,0.00000074,-0.
 00000158,0.00000156,0.00000086,-0.00000128,0.00000042,-0.00000047,0.00
 000342,-0.00000147,-0.00000526,-0.00000950,0.00000169,0.00000075,-0.00
 000034,0.00000025,-0.00000122,-0.00000194,-0.00000019,-0.00000264,-0.0
 0000108,-0.00000091,0.00000163,0.00000335,-0.00000057,-0.00000263,-0.0
 0000579,0.00000046,-0.00000087,0.00000062,-0.00000044,0.00000105,-0.00
 000012,0.00000009,0.00000003,-0.00000066,0.00000021,-0.00000115,0.0000
 0059,-0.00000016,-0.00000009,-0.00000078,-0.00000127,-0.00000029,-0.00
 000055,-0.00000061,0.00000253,0.00000034,-0.00000099,0.00000037,-0.000
 00209,-0.00000015,-0.00000035,-0.00000067,0.00000030,0.00000025,-0.000
 00040,0.00000110,0.,0.00000492,-0.00000078,0.00000001,0.00000061,-0.00
 000014,-0.00000044,0.00000060,-0.00000089,0.00000028,0.00000027,-0.000
 00048,0.00000051,0.00000106,-0.00000007,0.00000056,0.00000033,-0.00000
 081,0.00000089,0.00000069,-0.00000012\\\@


 A SCIENTIST IS SOMEONE WHOSE CURIOSITY SURVIVES
 EDUCATION'S ASSAULTS ON IT.
                          - SIR HERMANN BONDI
 Job cpu time:       0 days  1 hours 17 minutes 22.5 seconds.
 File lengths (MBytes):  RWF=    320 Int=      0 D2E=      0 Chk=      9 Scr=      1
 Normal termination of Gaussian 09 at Wed Jul 28 22:48:06 2021.
