 Entering Gaussian System, Link 0=g09
 Input=opt_freq-conf-591.com
 Output=opt_freq-conf-591.log
 Initial command:
 /aerosol/software/g09/l1.exe "/scratch/nicole/10605/Gau-84460.inp" -scrdir="/scratch/nicole/10605/"
 Entering Link 1 = /aerosol/software/g09/l1.exe PID=     84465.
  
 Copyright (c) 1988,1990,1992,1993,1995,1998,2003,2009,2013,
            Gaussian, Inc.  All Rights Reserved.
  
 This is part of the Gaussian(R) 09 program.  It is based on
 the Gaussian(R) 03 system (copyright 2003, Gaussian, Inc.),
 the Gaussian(R) 98 system (copyright 1998, Gaussian, Inc.),
 the Gaussian(R) 94 system (copyright 1995, Gaussian, Inc.),
 the Gaussian 92(TM) system (copyright 1992, Gaussian, Inc.),
 the Gaussian 90(TM) system (copyright 1990, Gaussian, Inc.),
 the Gaussian 88(TM) system (copyright 1988, Gaussian, Inc.),
 the Gaussian 86(TM) system (copyright 1986, Carnegie Mellon
 University), and the Gaussian 82(TM) system (copyright 1983,
 Carnegie Mellon University). Gaussian is a federally registered
 trademark of Gaussian, Inc.
  
 This software contains proprietary and confidential information,
 including trade secrets, belonging to Gaussian, Inc.
  
 This software is provided under written license and may be
 used, copied, transmitted, or stored only in accord with that
 written license.
  
 The following legend is applicable only to US Government
 contracts under FAR:
  
                    RESTRICTED RIGHTS LEGEND
  
 Use, reproduction and disclosure by the US Government is
 subject to restrictions as set forth in subparagraphs (a)
 and (c) of the Commercial Computer Software - Restricted
 Rights clause in FAR 52.227-19.
  
 Gaussian, Inc.
 340 Quinnipiac St., Bldg. 40, Wallingford CT 06492
  
  
 ---------------------------------------------------------------
 Warning -- This program may not be used in any manner that
 competes with the business of Gaussian, Inc. or will provide
 assistance to any competitor of Gaussian, Inc.  The licensee
 of this program is prohibited from giving any competitor of
 Gaussian, Inc. access to this program.  By using this program,
 the user acknowledges that Gaussian, Inc. is engaged in the
 business of creating and licensing software in the field of
 computational chemistry and represents and warrants to the
 licensee that it is not a competitor of Gaussian, Inc. and that
 it will not use this program in any manner prohibited above.
 ---------------------------------------------------------------
  

 Cite this work as:
 Gaussian 09, Revision D.01,
 M. J. Frisch, G. W. Trucks, H. B. Schlegel, G. E. Scuseria, 
 M. A. Robb, J. R. Cheeseman, G. Scalmani, V. Barone, B. Mennucci, 
 G. A. Petersson, H. Nakatsuji, M. Caricato, X. Li, H. P. Hratchian, 
 A. F. Izmaylov, J. Bloino, G. Zheng, J. L. Sonnenberg, M. Hada, 
 M. Ehara, K. Toyota, R. Fukuda, J. Hasegawa, M. Ishida, T. Nakajima, 
 Y. Honda, O. Kitao, H. Nakai, T. Vreven, J. A. Montgomery, Jr., 
 J. E. Peralta, F. Ogliaro, M. Bearpark, J. J. Heyd, E. Brothers, 
 K. N. Kudin, V. N. Staroverov, T. Keith, R. Kobayashi, J. Normand, 
 K. Raghavachari, A. Rendell, J. C. Burant, S. S. Iyengar, J. Tomasi, 
 M. Cossi, N. Rega, J. M. Millam, M. Klene, J. E. Knox, J. B. Cross, 
 V. Bakken, C. Adamo, J. Jaramillo, R. Gomperts, R. E. Stratmann, 
 O. Yazyev, A. J. Austin, R. Cammi, C. Pomelli, J. W. Ochterski, 
 R. L. Martin, K. Morokuma, V. G. Zakrzewski, G. A. Voth, 
 P. Salvador, J. J. Dannenberg, S. Dapprich, A. D. Daniels, 
 O. Farkas, J. B. Foresman, J. V. Ortiz, J. Cioslowski, 
 and D. J. Fox, Gaussian, Inc., Wallingford CT, 2013.
 
 ******************************************
 Gaussian 09:  ES64L-G09RevD.01 24-Apr-2013
                28-Jul-2021 
 ******************************************
 %mem=2gb
 %nproc=4
 Will use up to    4 processors via shared memory.
 %chk=conf-591.chk
 ----------------------------------------------------------------------
 # B3LYP/6-31G(d,p) opt=calcfc freq=noraman nosymm integral(ultrafinegr
 id)
 ----------------------------------------------------------------------
 1/10=4,14=-1,18=20,19=15,26=4,38=1/1,3;
 2/9=110,12=2,15=1,17=6,18=5,40=1/2;
 3/5=1,6=6,7=101,11=2,16=1,25=1,30=1,71=2,74=-5,75=-5,140=1/1,2,3;
 4//1;
 5/5=2,38=5/2;
 8/6=4,10=90,11=11/1;
 11/6=1,8=1,9=11,15=111,16=1,31=1/1,2,10;
 10/6=1,13=1,31=1/2;
 6/7=2,8=2,9=2,10=2,28=1/1;
 7/10=1,18=20,25=1,30=1/1,2,3,16;
 1/10=4,14=-1,18=20,19=15,26=4/3(2);
 2/9=110,15=1/2;
 99//99;
 2/9=110,15=1/2;
 3/5=1,6=6,7=101,11=2,16=1,25=1,30=1,71=1,74=-5,75=-5/1,2,3;
 4/5=5,16=3,69=1/1;
 5/5=2,38=5/2;
 7/30=1/1,2,3,16;
 1/14=-1,18=20,19=15,26=4/3(-5);
 2/9=110,15=1/2;
 6/7=2,8=2,9=2,10=2,19=2,28=1/1;
 99/9=1/99;
 ------------------------------------------------------------
 Candidate Structure: Conf:591 OPT and FREQ calc in gas phase
 ------------------------------------------------------------
 Symbolic Z-matrix:
 Charge =  0 Multiplicity = 1
 O                    -1.50958  -0.24594  -1.12071 
 C                    -1.65441  -0.21585   0.0925 
 N                    -0.5916   -0.29727   0.93485 
 C                     0.76368  -0.4252    0.42429 
 C                     1.58669  -1.02445   1.54156 
 O                     2.3125   -2.09563   1.1682 
 O                     1.5985   -0.57963   2.66283 
 C                     1.31394   0.95998   0.02517 
 C                     2.70026   0.91407  -0.52907 
 C                     3.9178    1.22596   0.01077 
 N                     4.93794   0.98003  -0.89233 
 C                     4.33935   0.52657  -1.96961 
 N                     2.98641   0.46695  -1.80145 
 C                    -3.00269  -0.05793   0.77323 
 C                    -4.17095  -0.43485  -0.12418 
 N                    -5.42234  -0.19908   0.60083 
 H                    -0.71097  -0.23088   1.93345 
 H                     0.74552  -1.08257  -0.44413 
 H                     2.80172  -2.37166   1.95519 
 H                     1.31406   1.5975    0.90708 
 H                     0.6228    1.38591  -0.69981 
 H                     4.1116    1.5998    1.00794 
 H                     4.81374   0.23118  -2.88829 
 H                     2.31183   0.15899  -2.48369 
 H                    -3.02322  -0.65284   1.69002 
 H                    -3.1142    0.9894    1.07929 
 H                    -4.11323  -1.49734  -0.37067 
 H                    -4.08587   0.12045  -1.06646 
 H                    -6.20558  -0.54364   0.05872 
 H                    -5.57369   0.79812   0.70512 
 

 GradGradGradGradGradGradGradGradGradGradGradGradGradGradGradGradGradGrad
 Berny optimization.
 Initialization pass.
                           ----------------------------
                           !    Initial Parameters    !
                           ! (Angstroms and Degrees)  !
 --------------------------                            --------------------------
 ! Name  Definition              Value          Derivative Info.                !
 --------------------------------------------------------------------------------
 ! R1    R(1,2)                  1.2222         calculate D2E/DX2 analytically  !
 ! R2    R(2,3)                  1.3586         calculate D2E/DX2 analytically  !
 ! R3    R(2,14)                 1.5186         calculate D2E/DX2 analytically  !
 ! R4    R(3,4)                  1.4539         calculate D2E/DX2 analytically  !
 ! R5    R(3,17)                 1.0079         calculate D2E/DX2 analytically  !
 ! R6    R(4,5)                  1.5115         calculate D2E/DX2 analytically  !
 ! R7    R(4,8)                  1.543          calculate D2E/DX2 analytically  !
 ! R8    R(4,18)                 1.0893         calculate D2E/DX2 analytically  !
 ! R9    R(5,6)                  1.3467         calculate D2E/DX2 analytically  !
 ! R10   R(5,7)                  1.2063         calculate D2E/DX2 analytically  !
 ! R11   R(6,19)                 0.9669         calculate D2E/DX2 analytically  !
 ! R12   R(8,9)                  1.4937         calculate D2E/DX2 analytically  !
 ! R13   R(8,20)                 1.0882         calculate D2E/DX2 analytically  !
 ! R14   R(8,21)                 1.0884         calculate D2E/DX2 analytically  !
 ! R15   R(9,10)                 1.3679         calculate D2E/DX2 analytically  !
 ! R16   R(9,13)                 1.3787         calculate D2E/DX2 analytically  !
 ! R17   R(10,11)                1.3845         calculate D2E/DX2 analytically  !
 ! R18   R(10,22)                1.0824         calculate D2E/DX2 analytically  !
 ! R19   R(11,12)                1.3132         calculate D2E/DX2 analytically  !
 ! R20   R(12,13)                1.3647         calculate D2E/DX2 analytically  !
 ! R21   R(12,23)                1.0753         calculate D2E/DX2 analytically  !
 ! R22   R(13,24)                1.0076         calculate D2E/DX2 analytically  !
 ! R23   R(14,15)                1.5206         calculate D2E/DX2 analytically  !
 ! R24   R(14,25)                1.0931         calculate D2E/DX2 analytically  !
 ! R25   R(14,26)                1.0968         calculate D2E/DX2 analytically  !
 ! R26   R(15,16)                1.4653         calculate D2E/DX2 analytically  !
 ! R27   R(15,27)                1.0922         calculate D2E/DX2 analytically  !
 ! R28   R(15,28)                1.097          calculate D2E/DX2 analytically  !
 ! R29   R(16,29)                1.013          calculate D2E/DX2 analytically  !
 ! R30   R(16,30)                1.014          calculate D2E/DX2 analytically  !
 ! A1    A(1,2,3)              121.4187         calculate D2E/DX2 analytically  !
 ! A2    A(1,2,14)             123.5544         calculate D2E/DX2 analytically  !
 ! A3    A(3,2,14)             115.0146         calculate D2E/DX2 analytically  !
 ! A4    A(2,3,4)              121.1161         calculate D2E/DX2 analytically  !
 ! A5    A(2,3,17)             121.1786         calculate D2E/DX2 analytically  !
 ! A6    A(4,3,17)             117.6531         calculate D2E/DX2 analytically  !
 ! A7    A(3,4,5)              106.432          calculate D2E/DX2 analytically  !
 ! A8    A(3,4,8)              110.1376         calculate D2E/DX2 analytically  !
 ! A9    A(3,4,18)             108.5126         calculate D2E/DX2 analytically  !
 ! A10   A(5,4,8)              110.6663         calculate D2E/DX2 analytically  !
 ! A11   A(5,4,18)             111.0446         calculate D2E/DX2 analytically  !
 ! A12   A(8,4,18)             109.9672         calculate D2E/DX2 analytically  !
 ! A13   A(4,5,6)              113.8206         calculate D2E/DX2 analytically  !
 ! A14   A(4,5,7)              123.1051         calculate D2E/DX2 analytically  !
 ! A15   A(6,5,7)              123.073          calculate D2E/DX2 analytically  !
 ! A16   A(5,6,19)             105.9096         calculate D2E/DX2 analytically  !
 ! A17   A(4,8,9)              113.5389         calculate D2E/DX2 analytically  !
 ! A18   A(4,8,20)             108.4415         calculate D2E/DX2 analytically  !
 ! A19   A(4,8,21)             107.2857         calculate D2E/DX2 analytically  !
 ! A20   A(9,8,20)             108.5794         calculate D2E/DX2 analytically  !
 ! A21   A(9,8,21)             110.7451         calculate D2E/DX2 analytically  !
 ! A22   A(20,8,21)            108.0966         calculate D2E/DX2 analytically  !
 ! A23   A(8,9,10)             132.2717         calculate D2E/DX2 analytically  !
 ! A24   A(8,9,13)             123.0274         calculate D2E/DX2 analytically  !
 ! A25   A(10,9,13)            104.681          calculate D2E/DX2 analytically  !
 ! A26   A(9,10,11)            110.9726         calculate D2E/DX2 analytically  !
 ! A27   A(9,10,22)            126.9908         calculate D2E/DX2 analytically  !
 ! A28   A(11,10,22)           122.0282         calculate D2E/DX2 analytically  !
 ! A29   A(10,11,12)           105.1044         calculate D2E/DX2 analytically  !
 ! A30   A(11,12,13)           111.4636         calculate D2E/DX2 analytically  !
 ! A31   A(11,12,23)           126.4854         calculate D2E/DX2 analytically  !
 ! A32   A(13,12,23)           122.0508         calculate D2E/DX2 analytically  !
 ! A33   A(9,13,12)            107.7781         calculate D2E/DX2 analytically  !
 ! A34   A(9,13,24)            125.8051         calculate D2E/DX2 analytically  !
 ! A35   A(12,13,24)           126.4152         calculate D2E/DX2 analytically  !
 ! A36   A(2,14,15)            113.0663         calculate D2E/DX2 analytically  !
 ! A37   A(2,14,25)            109.6361         calculate D2E/DX2 analytically  !
 ! A38   A(2,14,26)            108.3393         calculate D2E/DX2 analytically  !
 ! A39   A(15,14,25)           110.2211         calculate D2E/DX2 analytically  !
 ! A40   A(15,14,26)           108.8604         calculate D2E/DX2 analytically  !
 ! A41   A(25,14,26)           106.4831         calculate D2E/DX2 analytically  !
 ! A42   A(14,15,16)           108.9191         calculate D2E/DX2 analytically  !
 ! A43   A(14,15,27)           109.4936         calculate D2E/DX2 analytically  !
 ! A44   A(14,15,28)           108.7749         calculate D2E/DX2 analytically  !
 ! A45   A(16,15,27)           108.259          calculate D2E/DX2 analytically  !
 ! A46   A(16,15,28)           114.1907         calculate D2E/DX2 analytically  !
 ! A47   A(27,15,28)           107.125          calculate D2E/DX2 analytically  !
 ! A48   A(15,16,29)           109.9255         calculate D2E/DX2 analytically  !
 ! A49   A(15,16,30)           109.6695         calculate D2E/DX2 analytically  !
 ! A50   A(29,16,30)           105.9114         calculate D2E/DX2 analytically  !
 ! D1    D(1,2,3,4)             -0.0656         calculate D2E/DX2 analytically  !
 ! D2    D(1,2,3,17)           177.2451         calculate D2E/DX2 analytically  !
 ! D3    D(14,2,3,4)          -178.8382         calculate D2E/DX2 analytically  !
 ! D4    D(14,2,3,17)           -1.5275         calculate D2E/DX2 analytically  !
 ! D5    D(1,2,14,15)           20.6569         calculate D2E/DX2 analytically  !
 ! D6    D(1,2,14,25)          144.0797         calculate D2E/DX2 analytically  !
 ! D7    D(1,2,14,26)         -100.0943         calculate D2E/DX2 analytically  !
 ! D8    D(3,2,14,15)         -160.6            calculate D2E/DX2 analytically  !
 ! D9    D(3,2,14,25)          -37.1772         calculate D2E/DX2 analytically  !
 ! D10   D(3,2,14,26)           78.6488         calculate D2E/DX2 analytically  !
 ! D11   D(2,3,4,5)           -158.086          calculate D2E/DX2 analytically  !
 ! D12   D(2,3,4,8)             81.9102         calculate D2E/DX2 analytically  !
 ! D13   D(2,3,4,18)           -38.5106         calculate D2E/DX2 analytically  !
 ! D14   D(17,3,4,5)            24.5115         calculate D2E/DX2 analytically  !
 ! D15   D(17,3,4,8)           -95.4923         calculate D2E/DX2 analytically  !
 ! D16   D(17,3,4,18)          144.0868         calculate D2E/DX2 analytically  !
 ! D17   D(3,4,5,6)            129.2775         calculate D2E/DX2 analytically  !
 ! D18   D(3,4,5,7)            -51.1291         calculate D2E/DX2 analytically  !
 ! D19   D(8,4,5,6)           -111.0615         calculate D2E/DX2 analytically  !
 ! D20   D(8,4,5,7)             68.5318         calculate D2E/DX2 analytically  !
 ! D21   D(18,4,5,6)            11.3623         calculate D2E/DX2 analytically  !
 ! D22   D(18,4,5,7)          -169.0443         calculate D2E/DX2 analytically  !
 ! D23   D(3,4,8,9)           -179.2007         calculate D2E/DX2 analytically  !
 ! D24   D(3,4,8,20)            60.0281         calculate D2E/DX2 analytically  !
 ! D25   D(3,4,8,21)           -56.5037         calculate D2E/DX2 analytically  !
 ! D26   D(5,4,8,9)             63.3907         calculate D2E/DX2 analytically  !
 ! D27   D(5,4,8,20)           -57.3805         calculate D2E/DX2 analytically  !
 ! D28   D(5,4,8,21)          -173.9123         calculate D2E/DX2 analytically  !
 ! D29   D(18,4,8,9)           -59.6599         calculate D2E/DX2 analytically  !
 ! D30   D(18,4,8,20)          179.5689         calculate D2E/DX2 analytically  !
 ! D31   D(18,4,8,21)           63.0371         calculate D2E/DX2 analytically  !
 ! D32   D(4,5,6,19)           178.8488         calculate D2E/DX2 analytically  !
 ! D33   D(7,5,6,19)            -0.7447         calculate D2E/DX2 analytically  !
 ! D34   D(4,8,9,10)          -102.8953         calculate D2E/DX2 analytically  !
 ! D35   D(4,8,9,13)            75.2209         calculate D2E/DX2 analytically  !
 ! D36   D(20,8,9,10)           17.7983         calculate D2E/DX2 analytically  !
 ! D37   D(20,8,9,13)         -164.0855         calculate D2E/DX2 analytically  !
 ! D38   D(21,8,9,10)          136.3359         calculate D2E/DX2 analytically  !
 ! D39   D(21,8,9,13)          -45.5479         calculate D2E/DX2 analytically  !
 ! D40   D(8,9,10,11)          178.2377         calculate D2E/DX2 analytically  !
 ! D41   D(8,9,10,22)           -0.7218         calculate D2E/DX2 analytically  !
 ! D42   D(13,9,10,11)          -0.1296         calculate D2E/DX2 analytically  !
 ! D43   D(13,9,10,22)        -179.0891         calculate D2E/DX2 analytically  !
 ! D44   D(8,9,13,12)         -178.5056         calculate D2E/DX2 analytically  !
 ! D45   D(8,9,13,24)            1.9218         calculate D2E/DX2 analytically  !
 ! D46   D(10,9,13,12)           0.0535         calculate D2E/DX2 analytically  !
 ! D47   D(10,9,13,24)        -179.5191         calculate D2E/DX2 analytically  !
 ! D48   D(9,10,11,12)           0.1564         calculate D2E/DX2 analytically  !
 ! D49   D(22,10,11,12)        179.1761         calculate D2E/DX2 analytically  !
 ! D50   D(10,11,12,13)         -0.1201         calculate D2E/DX2 analytically  !
 ! D51   D(10,11,12,23)        179.7237         calculate D2E/DX2 analytically  !
 ! D52   D(11,12,13,9)           0.0439         calculate D2E/DX2 analytically  !
 ! D53   D(11,12,13,24)        179.6132         calculate D2E/DX2 analytically  !
 ! D54   D(23,12,13,9)        -179.808          calculate D2E/DX2 analytically  !
 ! D55   D(23,12,13,24)         -0.2387         calculate D2E/DX2 analytically  !
 ! D56   D(2,14,15,16)        -177.7752         calculate D2E/DX2 analytically  !
 ! D57   D(2,14,15,27)          64.0166         calculate D2E/DX2 analytically  !
 ! D58   D(2,14,15,28)         -52.7432         calculate D2E/DX2 analytically  !
 ! D59   D(25,14,15,16)         59.1254         calculate D2E/DX2 analytically  !
 ! D60   D(25,14,15,27)        -59.0828         calculate D2E/DX2 analytically  !
 ! D61   D(25,14,15,28)       -175.8427         calculate D2E/DX2 analytically  !
 ! D62   D(26,14,15,16)        -57.3205         calculate D2E/DX2 analytically  !
 ! D63   D(26,14,15,27)       -175.5287         calculate D2E/DX2 analytically  !
 ! D64   D(26,14,15,28)         67.7115         calculate D2E/DX2 analytically  !
 ! D65   D(14,15,16,29)       -173.5509         calculate D2E/DX2 analytically  !
 ! D66   D(14,15,16,30)         70.3928         calculate D2E/DX2 analytically  !
 ! D67   D(27,15,16,29)        -54.5684         calculate D2E/DX2 analytically  !
 ! D68   D(27,15,16,30)       -170.6246         calculate D2E/DX2 analytically  !
 ! D69   D(28,15,16,29)         64.6492         calculate D2E/DX2 analytically  !
 ! D70   D(28,15,16,30)        -51.4071         calculate D2E/DX2 analytically  !
 --------------------------------------------------------------------------------
 Trust Radius=3.00D-01 FncErr=1.00D-07 GrdErr=1.00D-06
 Number of steps in this run=    160 maximum allowed number of steps=    180.
 GradGradGradGradGradGradGradGradGradGradGradGradGradGradGradGradGradGrad

                          Input orientation:                          
 ---------------------------------------------------------------------
 Center     Atomic      Atomic             Coordinates (Angstroms)
 Number     Number       Type             X           Y           Z
 ---------------------------------------------------------------------
      1          8           0       -1.509581   -0.245936   -1.120711
      2          6           0       -1.654408   -0.215845    0.092497
      3          7           0       -0.591603   -0.297270    0.934847
      4          6           0        0.763675   -0.425200    0.424293
      5          6           0        1.586691   -1.024454    1.541556
      6          8           0        2.312500   -2.095628    1.168200
      7          8           0        1.598497   -0.579631    2.662833
      8          6           0        1.313942    0.959980    0.025173
      9          6           0        2.700265    0.914070   -0.529073
     10          6           0        3.917795    1.225960    0.010771
     11          7           0        4.937944    0.980033   -0.892326
     12          6           0        4.339346    0.526565   -1.969614
     13          7           0        2.986410    0.466949   -1.801446
     14          6           0       -3.002685   -0.057933    0.773225
     15          6           0       -4.170954   -0.434851   -0.124179
     16          7           0       -5.422337   -0.199076    0.600835
     17          1           0       -0.710969   -0.230878    1.933447
     18          1           0        0.745517   -1.082571   -0.444126
     19          1           0        2.801724   -2.371659    1.955187
     20          1           0        1.314056    1.597504    0.907083
     21          1           0        0.622798    1.385906   -0.699814
     22          1           0        4.111603    1.599804    1.007935
     23          1           0        4.813744    0.231179   -2.888290
     24          1           0        2.311827    0.158989   -2.483687
     25          1           0       -3.023218   -0.652842    1.690023
     26          1           0       -3.114197    0.989396    1.079293
     27          1           0       -4.113228   -1.497344   -0.370668
     28          1           0       -4.085865    0.120445   -1.066461
     29          1           0       -6.205576   -0.543642    0.058721
     30          1           0       -5.573690    0.798119    0.705120
 ---------------------------------------------------------------------
                    Distance matrix (angstroms):
                    1          2          3          4          5
     1  O    0.000000
     2  C    1.222193   0.000000
     3  N    2.251807   1.358579   0.000000
     4  C    2.754427   2.449703   1.453895   0.000000
     5  C    4.157000   3.641201   2.375259   1.511534   0.000000
     6  O    4.823772   4.519633   3.423793   2.396369   1.346702
     7  O    4.907820   4.161773   2.803962   2.394125   1.206345
     8  C    3.277128   3.193463   2.457496   1.542989   2.512327
     9  C    4.406637   4.541612   3.800894   2.540262   3.047200
    10  C    5.736126   5.756295   4.848589   3.584104   3.583534
    11  N    6.567019   6.771936   5.962042   4.597030   4.601375
    12  C    5.960482   6.381894   5.781769   4.407048   4.723462
    13  N    4.602775   5.058698   4.568753   3.269617   3.919077
    14  C    2.419029   1.518610   2.428317   3.800278   4.752564
    15  C    2.848100   2.535333   3.735267   4.965026   6.022688
    16  N    4.274995   3.802101   4.843263   6.192661   7.119879
    17  H    3.156880   2.068671   1.007899   2.118935   2.462231
    18  H    2.498637   2.607454   2.075127   1.089320   2.157286
    19  H    5.706768   5.289070   4.105954   3.207177   1.860741
    20  H    3.934863   3.572613   2.687466   2.151124   2.711374
    21  H    2.717922   2.894655   2.641962   2.136251   3.429674
    22  H    6.287734   6.114041   5.071920   3.955995   3.680579
    23  H    6.583039   7.135960   6.641793   5.273244   5.622635
    24  H    4.077355   4.744286   4.508264   3.345803   4.257809
    25  H    3.218213   2.148649   2.570890   3.999307   4.627245
    26  H    2.990126   2.134796   2.835463   4.179473   5.134941
    27  H    2.984555   2.811149   3.942891   5.056248   6.030696
    28  H    2.602772   2.714453   4.048406   5.102756   6.347475
    29  H    4.850985   4.563082   5.687265   6.979838   7.946659
    30  H    4.576100   4.094411   5.106255   6.460462   7.435889
                    6          7          8          9         10
     6  O    0.000000
     7  O    2.245433   0.000000
     8  C    3.411798   3.067348   0.000000
     9  C    3.476978   3.692330   1.493716   0.000000
    10  C    3.866466   3.958881   2.617442   1.367876   0.000000
    11  N    4.538547   5.120900   3.738395   2.267931   1.384474
    12  C    4.563976   5.495042   3.649670   2.216282   2.142144
    13  N    3.979919   4.790764   2.525226   1.378670   2.174329
    14  C    5.706084   5.001366   4.497666   5.929959   7.079743
    15  C    6.816421   6.408975   5.661444   7.014070   8.258593
    16  N    7.984141   7.327262   6.859465   8.276016   9.466624
    17  H    3.633767   2.446889   3.026536   4.360210   5.219629
    18  H    2.466032   3.260938   2.171489   2.795502   3.949632
    19  H    0.966893   2.271538   4.127744   4.120420   4.239013
    20  H    3.834617   2.811313   1.088211   2.109787   2.778647
    21  H    4.297167   4.015310   1.088439   2.137206   3.374540
    22  H    4.113231   3.715417   3.033497   2.196474   1.082432
    23  H    5.303335   6.466080   4.611727   3.240222   3.193253
    24  H    4.291803   5.247958   2.816334   2.131091   3.152757
    25  H    5.551920   4.723555   4.917711   6.335445   7.384270
    26  H    6.242941   5.213341   4.551972   6.033281   7.116643
    27  H    6.634458   6.532084   5.970704   7.229364   8.488770
    28  H    7.130481   6.834450   5.572648   6.853480   8.151145
    29  H    8.729102   8.227165   7.668452   9.043474  10.276985
    30  H    8.413097   7.561157   6.923005   8.366302   9.526461
                   11         12         13         14         15
    11  N    0.000000
    12  C    1.313203   0.000000
    13  N    2.213197   1.364650   0.000000
    14  C    8.179549   7.859404   6.540160   0.000000
    15  C    9.250079   8.761002   7.406371   1.520609   0.000000
    16  N   10.533530  10.120485   8.770494   2.429888   1.465331
    17  H    6.431292   6.427542   5.301604   2.574488   4.030747
    18  H    4.693790   4.222801   3.043835   4.071958   4.969265
    19  H    4.889336   5.115471   4.712123   6.359366   7.529491
    20  H    4.092885   4.309835   3.378026   4.625218   5.939638
    21  H    4.338465   4.020397   2.764912   4.171168   5.160093
    22  H    2.162857   3.173249   3.231415   7.308644   8.603618
    23  H    2.135435   1.075301   2.139151   8.636368   9.423837
    24  H    3.178527   2.123727   1.007648   6.236872   6.924332
    25  H    8.527304   8.306100   7.039881   1.093095   2.157810
    26  H    8.290014   8.066309   6.766758   1.096818   2.143259
    27  H    9.398577   8.837356   7.504028   2.147953   1.092237
    28  H    9.066330   8.483207   7.118802   2.142322   1.097037
    29  H   11.287343  10.791426   9.432609   3.317369   2.045721
    30  H   10.633879  10.271136   8.925685   2.710632   2.043433
                   16         17         18         19         20
    16  N    0.000000
    17  H    4.896310   0.000000
    18  H    6.317826   2.915405   0.000000
    19  H    8.613337   4.113689   3.412688   0.000000
    20  H    6.978573   2.914984   3.054800   4.366455   0.000000
    21  H    6.383377   3.365559   2.484716   5.090780   1.762025
    22  H    9.710701   5.240722   4.542483   4.287842   2.799365
    23  H   10.822960   7.347456   4.924465   5.855106   5.340367
    24  H    8.334253   5.366598   2.855627   5.133009   3.816044
    25  H    2.673575   2.363008   4.352312   6.079030   4.948636
    26  H    2.639867   2.827393   4.638021   6.860175   4.473128
    27  H    2.084007   4.299796   4.876970   7.347829   6.377001
    28  H    2.160585   4.529106   5.017649   7.923372   5.935969
    29  H    1.012954   5.814045   6.990063   9.384545   7.864419
    30  H    1.013992   5.119929   6.692543   9.041998   6.936919
                   21         22         23         24         25
    21  H    0.000000
    22  H    3.890234   0.000000
    23  H    4.866914   4.188880   0.000000
    24  H    2.745969   4.184085   2.535449   0.000000
    25  H    4.812613   7.513011   9.119233   6.822143   0.000000
    26  H    4.157832   7.251887   8.897688   6.544168   1.754484
    27  H    5.554404   8.896107   9.434885   6.963449   2.479466
    28  H    4.889512   8.584294   9.084843   6.552899   3.053751
    29  H    7.136190  10.580148  11.432875   8.916484   3.577774
    30  H    6.380893   9.723132  11.006035   8.529851   3.095194
                   26         27         28         29         30
    26  H    0.000000
    27  H    3.047020   0.000000
    28  H    2.510672   1.761284   0.000000
    29  H    3.598388   2.339197   2.490024   0.000000
    30  H    2.495135   2.925649   2.410677   1.617849   0.000000
 Symmetry turned off by external request.
 Stoichiometry    C9H14N4O3
 Framework group  C1[X(C9H14N4O3)]
 Deg. of freedom    84
 Full point group                 C1      NOp   1
 Rotational constants (GHZ):      1.0600287      0.2293246      0.2040481
 Standard basis: 6-31G(d,p) (6D, 7F)
   310 basis functions,   546 primitive gaussians,   310 cartesian basis functions
    60 alpha electrons       60 beta electrons
       nuclear repulsion energy      1097.9016211535 Hartrees.
 NAtoms=   30 NActive=   30 NUniq=   30 SFac= 1.00D+00 NAtFMM=   60 NAOKFM=F Big=F
 Integral buffers will be    131072 words long.
 Raffenetti 2 integral format.
 Two-electron integral symmetry is turned off.
 One-electron integrals computed using PRISM.
 NBasis=   310 RedAO= T EigKep=  1.16D-03  NBF=   310
 NBsUse=   310 1.00D-06 EigRej= -1.00D+00 NBFU=   310
 ExpMin= 1.61D-01 ExpMax= 5.48D+03 ExpMxC= 8.25D+02 IAcc=3 IRadAn=         5 AccDes= 0.00D+00
 Harris functional with IExCor=  402 and IRadAn=       5 diagonalized for initial guess.
 HarFok:  IExCor=  402 AccDes= 0.00D+00 IRadAn=         5 IDoV= 1 UseB2=F ITyADJ=14
 ICtDFT=  3500011 ScaDFX=  1.000000  1.000000  1.000000  1.000000
 FoFCou: FMM=F IPFlag=           0 FMFlag=      100000 FMFlg1=           0
         NFxFlg=           0 DoJE=T BraDBF=F KetDBF=T FulRan=T
         wScrn=  0.000000 ICntrl=     500 IOpCl=  0 I1Cent=   200000004 NGrid=           0
         NMat0=    1 NMatS0=      1 NMatT0=    0 NMatD0=    1 NMtDS0=    0 NMtDT0=    0
 Symmetry not used in FoFCou.
 Requested convergence on RMS density matrix=1.00D-08 within 128 cycles.
 Requested convergence on MAX density matrix=1.00D-06.
 Requested convergence on             energy=1.00D-06.
 No special actions if energy rises.
 Integral accuracy reduced to 1.0D-05 until final iterations.
 Initial convergence to 1.0D-05 achieved.  Increase integral accuracy.
 SCF Done:  E(RB3LYP) =  -796.108903490     A.U. after   14 cycles
            NFock= 14  Conv=0.57D-08     -V/T= 2.0088
 DoSCS=F DFT=T ScalE2(SS,OS)=  1.000000  1.000000
 Range of M.O.s used for correlation:     1   310
 NBasis=   310 NAE=    60 NBE=    60 NFC=     0 NFV=     0
 NROrb=    310 NOA=    60 NOB=    60 NVA=   250 NVB=   250
 Symmetrizing basis deriv contribution to polar:
 IMax=3 JMax=2 DiffMx= 0.00D+00
 G2DrvN: will do    31 centers at a time, making    1 passes.
 Calling FoFCou, ICntrl=  3107 FMM=F I1Cent=   0 AccDes= 0.00D+00.
 End of G2Drv F.D. properties file   721 does not exist.
 End of G2Drv F.D. properties file   722 does not exist.
 End of G2Drv F.D. properties file   788 does not exist.
          IDoAtm=111111111111111111111111111111
          Differentiating once with respect to nuclear coordinates.
          There are    93 degrees of freedom in the 1st order CPHF.  IDoFFX=6 NUNeed=     0.
     87 vectors produced by pass  0 Test12= 1.61D-14 1.08D-09 XBig12= 1.51D-01 8.46D-02.
 AX will form    87 AO Fock derivatives at one time.
     87 vectors produced by pass  1 Test12= 1.61D-14 1.08D-09 XBig12= 3.59D-02 5.43D-02.
     87 vectors produced by pass  2 Test12= 1.61D-14 1.08D-09 XBig12= 2.33D-04 2.41D-03.
     87 vectors produced by pass  3 Test12= 1.61D-14 1.08D-09 XBig12= 1.06D-06 1.19D-04.
     87 vectors produced by pass  4 Test12= 1.61D-14 1.08D-09 XBig12= 2.32D-09 3.66D-06.
     68 vectors produced by pass  5 Test12= 1.61D-14 1.08D-09 XBig12= 1.97D-12 1.14D-07.
     17 vectors produced by pass  6 Test12= 1.61D-14 1.08D-09 XBig12= 1.61D-15 3.46D-09.
 InvSVY:  IOpt=1 It=  1 EMax= 5.00D-16
 Solved reduced A of dimension   520 with    93 vectors.
 End of Minotr F.D. properties file   721 does not exist.
 End of Minotr F.D. properties file   722 does not exist.
 End of Minotr F.D. properties file   788 does not exist.

 **********************************************************************

            Population analysis using the SCF density.

 **********************************************************************

 Alpha  occ. eigenvalues --  -19.21420 -19.15825 -19.11894 -14.38852 -14.36863
 Alpha  occ. eigenvalues --  -14.31422 -14.30715 -10.33742 -10.29217 -10.25138
 Alpha  occ. eigenvalues --  -10.23543 -10.21693 -10.20990 -10.20845 -10.19674
 Alpha  occ. eigenvalues --  -10.19190  -1.12706  -1.04382  -1.03650  -1.01099
 Alpha  occ. eigenvalues --   -0.93669  -0.88438  -0.86590  -0.81011  -0.76466
 Alpha  occ. eigenvalues --   -0.73662  -0.68624  -0.64334  -0.61229  -0.60289
 Alpha  occ. eigenvalues --   -0.59521  -0.58717  -0.53715  -0.53082  -0.50459
 Alpha  occ. eigenvalues --   -0.49340  -0.49012  -0.48224  -0.46981  -0.45602
 Alpha  occ. eigenvalues --   -0.44642  -0.43590  -0.42757  -0.42215  -0.41596
 Alpha  occ. eigenvalues --   -0.40281  -0.39883  -0.38888  -0.38597  -0.37516
 Alpha  occ. eigenvalues --   -0.36925  -0.34612  -0.33611  -0.29764  -0.27627
 Alpha  occ. eigenvalues --   -0.26779  -0.26074  -0.25980  -0.23494  -0.22179
 Alpha virt. eigenvalues --   -0.01258   0.02096   0.03128   0.06664   0.06980
 Alpha virt. eigenvalues --    0.07486   0.07960   0.08648   0.12560   0.12880
 Alpha virt. eigenvalues --    0.13293   0.13905   0.14710   0.16543   0.16627
 Alpha virt. eigenvalues --    0.17355   0.17730   0.19371   0.20078   0.21049
 Alpha virt. eigenvalues --    0.22248   0.22959   0.23950   0.24923   0.25119
 Alpha virt. eigenvalues --    0.27456   0.28183   0.30839   0.31851   0.34006
 Alpha virt. eigenvalues --    0.37886   0.38811   0.41302   0.44157   0.47380
 Alpha virt. eigenvalues --    0.50225   0.51868   0.52341   0.52982   0.53910
 Alpha virt. eigenvalues --    0.55291   0.56164   0.57360   0.57746   0.59910
 Alpha virt. eigenvalues --    0.60164   0.60992   0.63259   0.64173   0.65029
 Alpha virt. eigenvalues --    0.65360   0.65947   0.66675   0.68418   0.68728
 Alpha virt. eigenvalues --    0.70007   0.72496   0.73301   0.73912   0.74340
 Alpha virt. eigenvalues --    0.75556   0.76989   0.78088   0.78360   0.79740
 Alpha virt. eigenvalues --    0.80348   0.80713   0.81723   0.83089   0.84496
 Alpha virt. eigenvalues --    0.84633   0.85009   0.85723   0.86785   0.87119
 Alpha virt. eigenvalues --    0.87577   0.87681   0.88835   0.90159   0.91157
 Alpha virt. eigenvalues --    0.92111   0.92606   0.92810   0.93903   0.94872
 Alpha virt. eigenvalues --    0.96409   0.98200   0.98278   1.00461   1.02330
 Alpha virt. eigenvalues --    1.05624   1.07247   1.08874   1.09293   1.13353
 Alpha virt. eigenvalues --    1.14930   1.19484   1.21396   1.23039   1.25525
 Alpha virt. eigenvalues --    1.26958   1.29881   1.31060   1.31856   1.34311
 Alpha virt. eigenvalues --    1.35221   1.36382   1.37934   1.38538   1.39713
 Alpha virt. eigenvalues --    1.42175   1.43506   1.45604   1.46993   1.47954
 Alpha virt. eigenvalues --    1.49844   1.51153   1.57752   1.59032   1.61488
 Alpha virt. eigenvalues --    1.64706   1.65550   1.67070   1.69828   1.71194
 Alpha virt. eigenvalues --    1.72592   1.72971   1.73796   1.74697   1.76692
 Alpha virt. eigenvalues --    1.77828   1.80390   1.81117   1.83417   1.84632
 Alpha virt. eigenvalues --    1.86048   1.86878   1.87473   1.88117   1.89998
 Alpha virt. eigenvalues --    1.91858   1.92601   1.94194   1.95225   1.96284
 Alpha virt. eigenvalues --    1.99534   2.00872   2.03536   2.04248   2.05547
 Alpha virt. eigenvalues --    2.07255   2.08356   2.09131   2.10871   2.12223
 Alpha virt. eigenvalues --    2.13668   2.13910   2.15891   2.18866   2.19602
 Alpha virt. eigenvalues --    2.21379   2.22010   2.24008   2.24716   2.25270
 Alpha virt. eigenvalues --    2.25388   2.27544   2.28362   2.30640   2.32954
 Alpha virt. eigenvalues --    2.35909   2.36667   2.37296   2.39704   2.41718
 Alpha virt. eigenvalues --    2.43890   2.45339   2.45446   2.45962   2.48570
 Alpha virt. eigenvalues --    2.51367   2.51722   2.52690   2.54767   2.55763
 Alpha virt. eigenvalues --    2.57762   2.58203   2.59216   2.59929   2.61265
 Alpha virt. eigenvalues --    2.63262   2.63709   2.65149   2.66754   2.68063
 Alpha virt. eigenvalues --    2.69937   2.71494   2.72551   2.75137   2.76101
 Alpha virt. eigenvalues --    2.77103   2.80636   2.82022   2.83913   2.85835
 Alpha virt. eigenvalues --    2.88030   2.88152   2.89404   2.90982   2.91699
 Alpha virt. eigenvalues --    2.94602   2.95960   2.96661   2.97434   3.03332
 Alpha virt. eigenvalues --    3.03785   3.05869   3.09204   3.18040   3.23691
 Alpha virt. eigenvalues --    3.25733   3.27506   3.30576   3.31257   3.33073
 Alpha virt. eigenvalues --    3.37881   3.39494   3.43619   3.50429   3.51604
 Alpha virt. eigenvalues --    3.55410   3.55846   3.57030   3.68069   3.91674
 Alpha virt. eigenvalues --    3.99699   4.00543   4.11115   4.12780   4.17003
 Alpha virt. eigenvalues --    4.26822   4.28172   4.32335   4.42331   4.46232
 Alpha virt. eigenvalues --    4.51879   4.53211   4.67645   4.73747   4.81676
          Condensed to atoms (all electrons):
               1          2          3          4          5          6
     1  O    8.115254   0.563538  -0.100700   0.007229   0.000689   0.000000
     2  C    0.563538   4.371602   0.263488  -0.024763   0.006019  -0.000095
     3  N   -0.100700   0.263488   7.083561   0.214416  -0.025677   0.000570
     4  C    0.007229  -0.024763   0.214416   5.079117   0.279508  -0.079252
     5  C    0.000689   0.006019  -0.025677   0.279508   4.432267   0.270073
     6  O    0.000000  -0.000095   0.000570  -0.079252   0.270073   8.088757
     7  O   -0.000004   0.000332  -0.007220  -0.082266   0.545400  -0.085759
     8  C   -0.004950  -0.004087  -0.051150   0.328170  -0.034735  -0.000524
     9  C   -0.000156   0.000074   0.004583  -0.050295   0.003026   0.001515
    10  C   -0.000001  -0.000002  -0.000043  -0.003988   0.005263  -0.000551
    11  N    0.000000   0.000000   0.000000  -0.000079  -0.000045  -0.000029
    12  C    0.000000   0.000000   0.000001   0.000254  -0.000072   0.000107
    13  N    0.000000  -0.000005   0.000022  -0.000040  -0.001129  -0.000185
    14  C   -0.082948   0.311106  -0.115082   0.007524  -0.000153   0.000000
    15  C    0.002284  -0.023432   0.003399  -0.000173   0.000001   0.000000
    16  N    0.000231   0.003265  -0.000036   0.000001   0.000000   0.000000
    17  H    0.003174  -0.018969   0.333915  -0.039198  -0.002328   0.000527
    18  H    0.012436  -0.001962  -0.045462   0.376598  -0.033590   0.004059
    19  H    0.000000   0.000003  -0.000269   0.010619  -0.012787   0.271895
    20  H    0.000044   0.000256  -0.000601  -0.035824  -0.009508   0.000241
    21  H    0.008223   0.004738  -0.009987  -0.037880   0.005695  -0.000101
    22  H    0.000000   0.000000  -0.000001   0.000063   0.000181  -0.000032
    23  H    0.000000   0.000000   0.000000   0.000000  -0.000001   0.000001
    24  H    0.000088   0.000006  -0.000038   0.000203   0.000105  -0.000019
    25  H    0.002251  -0.027375   0.002080   0.000116  -0.000030   0.000000
    26  H    0.000180  -0.025598  -0.000971  -0.000208  -0.000003   0.000000
    27  H    0.001491  -0.002678   0.000104  -0.000006   0.000000   0.000000
    28  H    0.007956   0.002792   0.000411   0.000010   0.000000   0.000000
    29  H    0.000007  -0.000187   0.000002   0.000000   0.000000   0.000000
    30  H    0.000009  -0.000169  -0.000001   0.000000   0.000000   0.000000
               7          8          9         10         11         12
     1  O   -0.000004  -0.004950  -0.000156  -0.000001   0.000000   0.000000
     2  C    0.000332  -0.004087   0.000074  -0.000002   0.000000   0.000000
     3  N   -0.007220  -0.051150   0.004583  -0.000043   0.000000   0.000001
     4  C   -0.082266   0.328170  -0.050295  -0.003988  -0.000079   0.000254
     5  C    0.545400  -0.034735   0.003026   0.005263  -0.000045  -0.000072
     6  O   -0.085759  -0.000524   0.001515  -0.000551  -0.000029   0.000107
     7  O    8.068055  -0.000952  -0.002111   0.000180   0.000003   0.000000
     8  C   -0.000952   5.089172   0.333619  -0.052756   0.006710   0.005928
     9  C   -0.002111   0.333619   4.796049   0.573411  -0.046904  -0.089786
    10  C    0.000180  -0.052756   0.573411   4.865010   0.420640  -0.119753
    11  N    0.000003   0.006710  -0.046904   0.420640   6.686853   0.537697
    12  C    0.000000   0.005928  -0.089786  -0.119753   0.537697   4.675160
    13  N    0.000004  -0.067727   0.335883  -0.073863  -0.085786   0.352687
    14  C   -0.000029  -0.000568  -0.000002   0.000000   0.000000   0.000000
    15  C    0.000000   0.000001   0.000000   0.000000   0.000000   0.000000
    16  N    0.000000   0.000000   0.000000   0.000000   0.000000   0.000000
    17  H    0.015980   0.001013  -0.000053  -0.000003   0.000000   0.000000
    18  H    0.003106  -0.040606  -0.003020  -0.000133   0.000011  -0.000017
    19  H    0.008765  -0.000430   0.000121   0.000135  -0.000004  -0.000008
    20  H    0.006350   0.371411  -0.026628  -0.005310   0.000082  -0.000086
    21  H    0.000037   0.367701  -0.023195   0.003026  -0.000167   0.000035
    22  H    0.000166  -0.001397  -0.056720   0.391686  -0.040729   0.006948
    23  H    0.000000  -0.000162   0.003357   0.006911  -0.037286   0.391363
    24  H    0.000000  -0.002849  -0.029831   0.008515   0.005227  -0.024486
    25  H   -0.000003   0.000008   0.000000   0.000000   0.000000   0.000000
    26  H    0.000000   0.000084  -0.000001   0.000000   0.000000   0.000000
    27  H    0.000000   0.000001   0.000000   0.000000   0.000000   0.000000
    28  H    0.000000   0.000000   0.000000   0.000000   0.000000   0.000000
    29  H    0.000000   0.000000   0.000000   0.000000   0.000000   0.000000
    30  H    0.000000   0.000000   0.000000   0.000000   0.000000   0.000000
              13         14         15         16         17         18
     1  O    0.000000  -0.082948   0.002284   0.000231   0.003174   0.012436
     2  C   -0.000005   0.311106  -0.023432   0.003265  -0.018969  -0.001962
     3  N    0.000022  -0.115082   0.003399  -0.000036   0.333915  -0.045462
     4  C   -0.000040   0.007524  -0.000173   0.000001  -0.039198   0.376598
     5  C   -0.001129  -0.000153   0.000001   0.000000  -0.002328  -0.033590
     6  O   -0.000185   0.000000   0.000000   0.000000   0.000527   0.004059
     7  O    0.000004  -0.000029   0.000000   0.000000   0.015980   0.003106
     8  C   -0.067727  -0.000568   0.000001   0.000000   0.001013  -0.040606
     9  C    0.335883  -0.000002   0.000000   0.000000  -0.000053  -0.003020
    10  C   -0.073863   0.000000   0.000000   0.000000  -0.000003  -0.000133
    11  N   -0.085786   0.000000   0.000000   0.000000   0.000000   0.000011
    12  C    0.352687   0.000000   0.000000   0.000000   0.000000  -0.000017
    13  N    6.781980   0.000000   0.000000   0.000000   0.000000   0.003100
    14  C    0.000000   5.216208   0.346204  -0.056677  -0.000256   0.000672
    15  C    0.000000   0.346204   4.788108   0.290722  -0.000043   0.000017
    16  N    0.000000  -0.056677   0.290722   6.781715  -0.000007   0.000000
    17  H    0.000000  -0.000256  -0.000043  -0.000007   0.423906   0.004544
    18  H    0.003100   0.000672   0.000017   0.000000   0.004544   0.578595
    19  H    0.000008   0.000000   0.000000   0.000000  -0.000075  -0.000403
    20  H    0.003954   0.000039   0.000000   0.000000   0.001888   0.005689
    21  H   -0.004837   0.000109   0.000000   0.000000  -0.000301  -0.005108
    22  H    0.004958   0.000000   0.000000   0.000000   0.000000   0.000008
    23  H   -0.056890   0.000000   0.000000   0.000000   0.000000   0.000003
    24  H    0.338814   0.000000   0.000000   0.000000   0.000000   0.000569
    25  H    0.000000   0.358702  -0.033335   0.005922   0.002323  -0.000053
    26  H    0.000000   0.370450  -0.034729  -0.003854   0.000320  -0.000020
    27  H    0.000000  -0.033652   0.391380  -0.040078  -0.000007  -0.000006
    28  H    0.000000  -0.058335   0.391757  -0.045158  -0.000001  -0.000003
    29  H    0.000000   0.006129  -0.033909   0.337856   0.000000   0.000000
    30  H    0.000000  -0.005015  -0.038543   0.336614   0.000000   0.000000
              19         20         21         22         23         24
     1  O    0.000000   0.000044   0.008223   0.000000   0.000000   0.000088
     2  C    0.000003   0.000256   0.004738   0.000000   0.000000   0.000006
     3  N   -0.000269  -0.000601  -0.009987  -0.000001   0.000000  -0.000038
     4  C    0.010619  -0.035824  -0.037880   0.000063   0.000000   0.000203
     5  C   -0.012787  -0.009508   0.005695   0.000181  -0.000001   0.000105
     6  O    0.271895   0.000241  -0.000101  -0.000032   0.000001  -0.000019
     7  O    0.008765   0.006350   0.000037   0.000166   0.000000   0.000000
     8  C   -0.000430   0.371411   0.367701  -0.001397  -0.000162  -0.002849
     9  C    0.000121  -0.026628  -0.023195  -0.056720   0.003357  -0.029831
    10  C    0.000135  -0.005310   0.003026   0.391686   0.006911   0.008515
    11  N   -0.000004   0.000082  -0.000167  -0.040729  -0.037286   0.005227
    12  C   -0.000008  -0.000086   0.000035   0.006948   0.391363  -0.024486
    13  N    0.000008   0.003954  -0.004837   0.004958  -0.056890   0.338814
    14  C    0.000000   0.000039   0.000109   0.000000   0.000000   0.000000
    15  C    0.000000   0.000000   0.000000   0.000000   0.000000   0.000000
    16  N    0.000000   0.000000   0.000000   0.000000   0.000000   0.000000
    17  H   -0.000075   0.001888  -0.000301   0.000000   0.000000   0.000000
    18  H   -0.000403   0.005689  -0.005108   0.000008   0.000003   0.000569
    19  H    0.395038  -0.000025   0.000009   0.000007   0.000000   0.000000
    20  H   -0.000025   0.584503  -0.029280   0.002535   0.000004  -0.000063
    21  H    0.000009  -0.029280   0.582209  -0.000019  -0.000005   0.001795
    22  H    0.000007   0.002535  -0.000019   0.599906  -0.000163  -0.000105
    23  H    0.000000   0.000004  -0.000005  -0.000163   0.580611   0.000230
    24  H    0.000000  -0.000063   0.001795  -0.000105   0.000230   0.432756
    25  H    0.000000  -0.000001  -0.000001   0.000000   0.000000   0.000000
    26  H    0.000000  -0.000013  -0.000034   0.000000   0.000000   0.000000
    27  H    0.000000   0.000000   0.000000   0.000000   0.000000   0.000000
    28  H    0.000000   0.000000  -0.000001   0.000000   0.000000   0.000000
    29  H    0.000000   0.000000   0.000000   0.000000   0.000000   0.000000
    30  H    0.000000   0.000000   0.000000   0.000000   0.000000   0.000000
              25         26         27         28         29         30
     1  O    0.002251   0.000180   0.001491   0.007956   0.000007   0.000009
     2  C   -0.027375  -0.025598  -0.002678   0.002792  -0.000187  -0.000169
     3  N    0.002080  -0.000971   0.000104   0.000411   0.000002  -0.000001
     4  C    0.000116  -0.000208  -0.000006   0.000010   0.000000   0.000000
     5  C   -0.000030  -0.000003   0.000000   0.000000   0.000000   0.000000
     6  O    0.000000   0.000000   0.000000   0.000000   0.000000   0.000000
     7  O   -0.000003   0.000000   0.000000   0.000000   0.000000   0.000000
     8  C    0.000008   0.000084   0.000001   0.000000   0.000000   0.000000
     9  C    0.000000  -0.000001   0.000000   0.000000   0.000000   0.000000
    10  C    0.000000   0.000000   0.000000   0.000000   0.000000   0.000000
    11  N    0.000000   0.000000   0.000000   0.000000   0.000000   0.000000
    12  C    0.000000   0.000000   0.000000   0.000000   0.000000   0.000000
    13  N    0.000000   0.000000   0.000000   0.000000   0.000000   0.000000
    14  C    0.358702   0.370450  -0.033652  -0.058335   0.006129  -0.005015
    15  C   -0.033335  -0.034729   0.391380   0.391757  -0.033909  -0.038543
    16  N    0.005922  -0.003854  -0.040078  -0.045158   0.337856   0.336614
    17  H    0.002323   0.000320  -0.000007  -0.000001   0.000000   0.000000
    18  H   -0.000053  -0.000020  -0.000006  -0.000003   0.000000   0.000000
    19  H    0.000000   0.000000   0.000000   0.000000   0.000000   0.000000
    20  H   -0.000001  -0.000013   0.000000   0.000000   0.000000   0.000000
    21  H   -0.000001  -0.000034   0.000000  -0.000001   0.000000   0.000000
    22  H    0.000000   0.000000   0.000000   0.000000   0.000000   0.000000
    23  H    0.000000   0.000000   0.000000   0.000000   0.000000   0.000000
    24  H    0.000000   0.000000   0.000000   0.000000   0.000000   0.000000
    25  H    0.600470  -0.032981  -0.006970   0.006521  -0.000078  -0.000679
    26  H   -0.032981   0.598381   0.005666  -0.005859   0.000027   0.005491
    27  H   -0.006970   0.005666   0.613832  -0.043274  -0.004886   0.006778
    28  H    0.006521  -0.005859  -0.043274   0.644776  -0.001995  -0.006402
    29  H   -0.000078   0.000027  -0.004886  -0.001995   0.491464  -0.033830
    30  H   -0.000679   0.005491   0.006778  -0.006402  -0.033830   0.501791
 Mulliken charges:
               1
     1  O   -0.536321
     2  C    0.602104
     3  N   -0.549315
     4  C    0.050143
     5  C    0.571833
     6  O   -0.471200
     7  O   -0.470034
     8  C   -0.240925
     9  C    0.277066
    10  C   -0.018375
    11  N   -0.446193
    12  C    0.264028
    13  N   -0.530949
    14  C   -0.264425
    15  C   -0.049709
    16  N   -0.610515
    17  H    0.273653
    18  H    0.140976
    19  H    0.327401
    20  H    0.130346
    21  H    0.137339
    22  H    0.092708
    23  H    0.112028
    24  H    0.269081
    25  H    0.123113
    26  H    0.123672
    27  H    0.112307
    28  H    0.106803
    29  H    0.239402
    30  H    0.233956
 Sum of Mulliken charges =   0.00000
 Mulliken charges with hydrogens summed into heavy atoms:
               1
     1  O   -0.536321
     2  C    0.602104
     3  N   -0.275661
     4  C    0.191119
     5  C    0.571833
     6  O   -0.143799
     7  O   -0.470034
     8  C    0.026760
     9  C    0.277066
    10  C    0.074333
    11  N   -0.446193
    12  C    0.376057
    13  N   -0.261867
    14  C   -0.017640
    15  C    0.169401
    16  N   -0.137157
 APT charges:
               1
     1  O   -0.424546
     2  C    0.269279
     3  N   -0.726119
     4  C   -0.247736
     5  C   -0.298243
     6  O   -0.817421
     7  O    0.150827
     8  C   -0.722724
     9  C   -0.682704
    10  C   -0.143982
    11  N    0.396863
    12  C   -0.559957
    13  N   -0.598762
    14  C   -0.646478
    15  C   -0.361595
    16  N   -1.778352
    17  H    0.594012
    18  H    0.293363
    19  H    1.029911
    20  H    0.388325
    21  H    0.254615
    22  H    0.516231
    23  H    0.923430
    24  H    0.244366
    25  H    0.390044
    26  H    0.368583
    27  H    0.345517
    28  H    0.265354
    29  H    1.052420
    30  H    0.525480
 Sum of APT charges =   0.00000
 APT charges with hydrogens summed into heavy atoms:
               1
     1  O   -0.424546
     2  C    0.269279
     3  N   -0.132108
     4  C    0.045628
     5  C   -0.298243
     6  O    0.212489
     7  O    0.150827
     8  C   -0.079784
     9  C   -0.682704
    10  C    0.372249
    11  N    0.396863
    12  C    0.363474
    13  N   -0.354396
    14  C    0.112149
    15  C    0.249276
    16  N   -0.200452
 Electronic spatial extent (au):  <R**2>=           5351.4442
 Charge=              0.0000 electrons
 Dipole moment (field-independent basis, Debye):
    X=             -2.9636    Y=             -0.8189    Z=             -0.4577  Tot=              3.1085
 Quadrupole moment (field-independent basis, Debye-Ang):
   XX=           -105.5416   YY=            -90.0198   ZZ=            -90.0969
   XY=            -13.1589   XZ=              0.1841   YZ=             -0.5702
 Traceless Quadrupole moment (field-independent basis, Debye-Ang):
   XX=            -10.3222   YY=              5.1997   ZZ=              5.1225
   XY=            -13.1589   XZ=              0.1841   YZ=             -0.5702
 Octapole moment (field-independent basis, Debye-Ang**2):
  XXX=           -328.8799  YYY=             -5.1884  ZZZ=            -68.6141  XYY=            -52.2036
  XXY=            -25.7649  XXZ=            -31.3546  XZZ=             -6.8507  YZZ=             -4.8658
  YYZ=              6.9386  XYZ=             -9.2828
 Hexadecapole moment (field-independent basis, Debye-Ang**3):
 XXXX=          -5915.8745 YYYY=           -491.2549 ZZZZ=           -888.8157 XXXY=           -569.7614
 XXXZ=            540.6263 YYYX=           -277.5448 YYYZ=            124.0645 ZZZX=            153.6727
 ZZZY=            133.3497 XXYY=           -982.6523 XXZZ=          -1005.8829 YYZZ=           -207.7586
 XXYZ=            100.9857 YYXZ=            145.2363 ZZXY=           -116.6001
 N-N= 1.097901621154D+03 E-N=-4.052828746389D+03  KE= 7.891400700365D+02
  Exact polarizability:   0.000   0.000   0.000   0.000   0.000   0.000
 Approx polarizability: 200.623  -1.341 133.596   1.809  22.866 202.393
 Calling FoFJK, ICntrl=    100147 FMM=F ISym2X=0 I1Cent= 0 IOpClX= 0 NMat=1 NMatS=1 NMatT=0.
 -------------------------------------------------------------------
 Center     Atomic                   Forces (Hartrees/Bohr)
 Number     Number              X              Y              Z
 -------------------------------------------------------------------
      1        8           0.000062428   -0.001086741   -0.011950198
      2        6          -0.003489607    0.003041245    0.003994635
      3        7           0.001688259   -0.004373405    0.002408008
      4        6          -0.006626856    0.001891190    0.000858411
      5        6           0.006898058   -0.006536091   -0.007089969
      6        8          -0.004951965    0.003296497   -0.005752059
      7        8          -0.001655518    0.003851731    0.012197034
      8        6           0.009500651    0.000037400   -0.002617458
      9        6          -0.006271508    0.001081565    0.000686964
     10        6           0.008689685   -0.001048814   -0.000541913
     11        7           0.000557125    0.001905744    0.004111165
     12        6          -0.001561010    0.001540134    0.004706422
     13        7          -0.002031127   -0.002253615   -0.004609486
     14        6           0.002000760   -0.000774079    0.001239989
     15        6          -0.003380240    0.001793952    0.000261716
     16        7           0.000262746   -0.003447917    0.002500524
     17        1           0.000346977    0.000962963    0.002346382
     18        1           0.000030584   -0.001447511   -0.000634569
     19        1           0.004457231   -0.002268389    0.004392393
     20        1          -0.000982052    0.001706864    0.003158365
     21        1          -0.003724579    0.001096932   -0.002019739
     22        1           0.001008205    0.000497016   -0.001110826
     23        1           0.002709708   -0.000949016   -0.003415191
     24        1          -0.001246909   -0.000242655   -0.001162144
     25        1          -0.001852980   -0.000297546    0.001936129
     26        1           0.001213183    0.001891881    0.000936960
     27        1           0.000155024   -0.001708577   -0.001051344
     28        1           0.001271601   -0.000513325   -0.002207445
     29        1          -0.002529765   -0.001240708   -0.001997764
     30        1          -0.000548107    0.003593275    0.000425009
 -------------------------------------------------------------------
 Cartesian Forces:  Max     0.012197034 RMS     0.003537323
 FormGI is forming the generalized inverse of G from B-inverse, IUseBI=4.
 GSVD:  received Info=                   1 from GESDD.

 GradGradGradGradGradGradGradGradGradGradGradGradGradGradGradGradGradGrad
 Berny optimization.
 Internal  Forces:  Max     0.012741213 RMS     0.002488544
 Search for a local minimum.
 Step number   1 out of a maximum of  160
 All quantities printed in internal units (Hartrees-Bohrs-Radians)
 Mixed Optimization -- RFO/linear search
 Second derivative matrix not updated -- analytic derivatives used.
 ITU=  0
     Eigenvalues ---   -0.00023   0.00050   0.00211   0.00215   0.00269
     Eigenvalues ---    0.00300   0.00334   0.00495   0.00545   0.00950
     Eigenvalues ---    0.01954   0.02006   0.02242   0.02532   0.03219
     Eigenvalues ---    0.03444   0.03894   0.04176   0.04329   0.04381
     Eigenvalues ---    0.04570   0.04621   0.04658   0.05188   0.05215
     Eigenvalues ---    0.05360   0.05796   0.06158   0.07745   0.07870
     Eigenvalues ---    0.08352   0.10145   0.10720   0.10879   0.11038
     Eigenvalues ---    0.11720   0.11881   0.13553   0.14705   0.15072
     Eigenvalues ---    0.15527   0.15625   0.16313   0.17007   0.18678
     Eigenvalues ---    0.19167   0.20020   0.21420   0.21976   0.23111
     Eigenvalues ---    0.23668   0.24695   0.24776   0.25414   0.27160
     Eigenvalues ---    0.30371   0.32248   0.32590   0.33189   0.33673
     Eigenvalues ---    0.34032   0.34179   0.34362   0.34839   0.34988
     Eigenvalues ---    0.35357   0.35567   0.37244   0.37515   0.38160
     Eigenvalues ---    0.38516   0.41751   0.42559   0.44905   0.45528
     Eigenvalues ---    0.46053   0.47000   0.47864   0.48070   0.48636
     Eigenvalues ---    0.53222   0.58743   0.85657   0.92309
 RFO step:  Lambda=-3.61276852D-03 EMin=-2.26068366D-04
 Linear search not attempted -- first point.
 Iteration  1 RMS(Cart)=  0.12481009 RMS(Int)=  0.04288009
 Iteration  2 RMS(Cart)=  0.10649771 RMS(Int)=  0.00584890
 Iteration  3 RMS(Cart)=  0.00894910 RMS(Int)=  0.00013430
 Iteration  4 RMS(Cart)=  0.00004962 RMS(Int)=  0.00013115
 Iteration  5 RMS(Cart)=  0.00000001 RMS(Int)=  0.00013115
 Variable       Old X    -DE/DX   Delta X   Delta X   Delta X     New X
                                 (Linear)    (Quad)   (Total)
    R1        2.30961   0.01190   0.00000   0.01384   0.01384   2.32345
    R2        2.56734   0.00909   0.00000   0.01256   0.01256   2.57990
    R3        2.86976   0.00387   0.00000   0.00809   0.00809   2.87785
    R4        2.74746   0.00388   0.00000  -0.00454  -0.00454   2.74292
    R5        1.90465   0.00235   0.00000   0.00562   0.00562   1.91027
    R6        2.85639   0.00601   0.00000   0.01562   0.01562   2.87201
    R7        2.91583   0.00612   0.00000   0.03093   0.03093   2.94675
    R8        2.05852   0.00138   0.00000   0.00408   0.00408   2.06259
    R9        2.54490  -0.00071   0.00000  -0.00744  -0.00744   2.53746
   R10        2.27966   0.01274   0.00000   0.01347   0.01347   2.29313
   R11        1.82716   0.00648   0.00000   0.01200   0.01200   1.83916
   R12        2.82271   0.00220   0.00000  -0.00165  -0.00165   2.82107
   R13        2.05642   0.00356   0.00000   0.01081   0.01081   2.06723
   R14        2.05685   0.00414   0.00000   0.01268   0.01268   2.06953
   R15        2.58491   0.00785   0.00000   0.01490   0.01491   2.59982
   R16        2.60531   0.00419   0.00000   0.01135   0.01136   2.61667
   R17        2.61628  -0.00403   0.00000  -0.01338  -0.01338   2.60290
   R18        2.04550  -0.00067   0.00000  -0.00108  -0.00108   2.04442
   R19        2.48159   0.00174   0.00000   0.00287   0.00286   2.48445
   R20        2.57882   0.00345   0.00000   0.00450   0.00449   2.58331
   R21        2.03202   0.00437   0.00000   0.01124   0.01124   2.04326
   R22        1.90418   0.00170   0.00000   0.00331   0.00331   1.90749
   R23        2.87353   0.00526   0.00000   0.02093   0.02093   2.89446
   R24        2.06565   0.00182   0.00000   0.00264   0.00264   2.06829
   R25        2.07269   0.00194   0.00000   0.00586   0.00586   2.07855
   R26        2.76907   0.00269   0.00000   0.00386   0.00386   2.77293
   R27        2.06403   0.00191   0.00000   0.00835   0.00835   2.07238
   R28        2.07310   0.00173   0.00000   0.00343   0.00343   2.07653
   R29        1.91421   0.00345   0.00000   0.00786   0.00786   1.92207
   R30        1.91617   0.00366   0.00000   0.00860   0.00860   1.92477
    A1        2.11916   0.00137   0.00000   0.00273   0.00273   2.12189
    A2        2.15643  -0.00158   0.00000  -0.01010  -0.01010   2.14633
    A3        2.00738   0.00023   0.00000   0.00730   0.00730   2.01468
    A4        2.11388   0.00055   0.00000   0.00059   0.00006   2.11393
    A5        2.11496   0.00027   0.00000   0.00773   0.00717   2.12213
    A6        2.05343  -0.00083   0.00000  -0.01074  -0.01126   2.04218
    A7        1.85759   0.00171   0.00000   0.02269   0.02272   1.88031
    A8        1.92226   0.00281   0.00000   0.02077   0.02080   1.94307
    A9        1.89390  -0.00162   0.00000  -0.00071  -0.00052   1.89338
   A10        1.93149  -0.00243   0.00000  -0.01236  -0.01284   1.91865
   A11        1.93809  -0.00022   0.00000  -0.01400  -0.01428   1.92382
   A12        1.91929  -0.00014   0.00000  -0.01458  -0.01481   1.90448
   A13        1.98654  -0.00379   0.00000  -0.01813  -0.01817   1.96837
   A14        2.14859   0.00139   0.00000   0.00569   0.00564   2.15423
   A15        2.14803   0.00241   0.00000   0.01233   0.01228   2.16031
   A16        1.84847   0.00230   0.00000   0.01710   0.01710   1.86557
   A17        1.98163   0.00180   0.00000   0.01421   0.01419   1.99582
   A18        1.89266  -0.00112   0.00000  -0.00507  -0.00528   1.88738
   A19        1.87249  -0.00147   0.00000  -0.02101  -0.02106   1.85143
   A20        1.89507   0.00043   0.00000   0.01289   0.01284   1.90791
   A21        1.93287   0.00013   0.00000   0.00447   0.00457   1.93743
   A22        1.88664   0.00014   0.00000  -0.00691  -0.00708   1.87956
   A23        2.30858   0.00121   0.00000   0.00745   0.00743   2.31600
   A24        2.14723   0.00039   0.00000  -0.00164  -0.00166   2.14558
   A25        1.82703  -0.00159   0.00000  -0.00583  -0.00579   1.82123
   A26        1.93684   0.00169   0.00000   0.00632   0.00627   1.94311
   A27        2.21641   0.00041   0.00000   0.00459   0.00450   2.22090
   A28        2.12979  -0.00209   0.00000  -0.01054  -0.01063   2.11916
   A29        1.83442  -0.00026   0.00000  -0.00119  -0.00119   1.83323
   A30        1.94541   0.00244   0.00000   0.00577   0.00576   1.95117
   A31        2.20759  -0.00211   0.00000  -0.00936  -0.00935   2.19823
   A32        2.13019  -0.00033   0.00000   0.00358   0.00359   2.13377
   A33        1.88108  -0.00227   0.00000  -0.00505  -0.00505   1.87604
   A34        2.19571   0.00102   0.00000   0.00139   0.00137   2.19708
   A35        2.20636   0.00125   0.00000   0.00361   0.00359   2.20995
   A36        1.97338  -0.00111   0.00000  -0.01500  -0.01520   1.95818
   A37        1.91351   0.00197   0.00000   0.04087   0.04100   1.95451
   A38        1.89088  -0.00097   0.00000  -0.02591  -0.02606   1.86482
   A39        1.92372  -0.00106   0.00000  -0.00395  -0.00395   1.91977
   A40        1.89997   0.00172   0.00000   0.00102   0.00058   1.90055
   A41        1.85848  -0.00053   0.00000   0.00323   0.00344   1.86192
   A42        1.90100   0.00252   0.00000   0.01522   0.01517   1.91616
   A43        1.91102  -0.00059   0.00000  -0.00753  -0.00754   1.90349
   A44        1.89848  -0.00112   0.00000  -0.01025  -0.01047   1.88801
   A45        1.88948  -0.00107   0.00000  -0.00928  -0.00920   1.88027
   A46        1.99300   0.00047   0.00000   0.01721   0.01722   2.01022
   A47        1.86968  -0.00031   0.00000  -0.00663  -0.00668   1.86300
   A48        1.91856  -0.00036   0.00000  -0.00680  -0.00682   1.91175
   A49        1.91409   0.00010   0.00000  -0.00283  -0.00284   1.91125
   A50        1.84850   0.00010   0.00000  -0.00190  -0.00193   1.84658
    D1       -0.00115   0.00088   0.00000   0.05015   0.05032   0.04917
    D2        3.09351   0.00038   0.00000  -0.01241  -0.01260   3.08091
    D3       -3.12132   0.00041   0.00000   0.05358   0.05376  -3.06755
    D4       -0.02666  -0.00009   0.00000  -0.00898  -0.00915  -0.03581
    D5        0.36053   0.00031   0.00000   0.39236   0.39252   0.75305
    D6        2.51466  -0.00038   0.00000   0.40708   0.40717   2.92184
    D7       -1.74698  -0.00048   0.00000   0.41861   0.41834  -1.32863
    D8       -2.80300   0.00083   0.00000   0.38903   0.38920  -2.41380
    D9       -0.64886   0.00014   0.00000   0.40375   0.40385  -0.24501
   D10        1.37268   0.00003   0.00000   0.41528   0.41503   1.78771
   D11       -2.75912   0.00006   0.00000  -0.01449  -0.01418  -2.77330
   D12        1.42960   0.00041   0.00000  -0.02460  -0.02462   1.40498
   D13       -0.67214  -0.00010   0.00000  -0.01885  -0.01872  -0.69086
   D14        0.42781   0.00052   0.00000   0.04547   0.04550   0.47330
   D15       -1.66666   0.00087   0.00000   0.03536   0.03505  -1.63160
   D16        2.51479   0.00035   0.00000   0.04110   0.04096   2.55575
   D17        2.25632  -0.00071   0.00000   0.17865   0.17864   2.43496
   D18       -0.89237  -0.00043   0.00000   0.16166   0.16168  -0.73070
   D19       -1.93839   0.00235   0.00000   0.21046   0.21034  -1.72805
   D20        1.19611   0.00263   0.00000   0.19347   0.19338   1.38948
   D21        0.19831   0.00033   0.00000   0.17360   0.17369   0.37200
   D22       -2.95038   0.00062   0.00000   0.15661   0.15672  -2.79366
   D23       -3.12764   0.00136   0.00000   0.04470   0.04471  -3.08294
   D24        1.04769   0.00044   0.00000   0.02273   0.02278   1.07047
   D25       -0.98618   0.00163   0.00000   0.04453   0.04443  -0.94174
   D26        1.10638  -0.00099   0.00000   0.01154   0.01167   1.11804
   D27       -1.00148  -0.00191   0.00000  -0.01043  -0.01026  -1.01174
   D28       -3.03534  -0.00072   0.00000   0.01137   0.01139  -3.02395
   D29       -1.04126   0.00103   0.00000   0.04767   0.04759  -0.99367
   D30        3.13407   0.00011   0.00000   0.02569   0.02567  -3.12345
   D31        1.10021   0.00130   0.00000   0.04750   0.04732   1.14752
   D32        3.12150  -0.00062   0.00000  -0.05561  -0.05563   3.06587
   D33       -0.01300  -0.00090   0.00000  -0.03859  -0.03857  -0.05156
   D34       -1.79586  -0.00016   0.00000  -0.02429  -0.02435  -1.82021
   D35        1.31285  -0.00021   0.00000  -0.02557  -0.02561   1.28724
   D36        0.31064  -0.00011   0.00000  -0.01239  -0.01233   0.29830
   D37       -2.86383  -0.00015   0.00000  -0.01367  -0.01360  -2.87743
   D38        2.37951   0.00039   0.00000  -0.01028  -0.01030   2.36921
   D39       -0.79496   0.00035   0.00000  -0.01156  -0.01157  -0.80653
   D40        3.11083   0.00015   0.00000   0.00266   0.00267   3.11350
   D41       -0.01260  -0.00044   0.00000  -0.02082  -0.02088  -0.03347
   D42       -0.00226   0.00016   0.00000   0.00375   0.00375   0.00149
   D43       -3.12570  -0.00043   0.00000  -0.01972  -0.01979   3.13770
   D44       -3.11551  -0.00009   0.00000  -0.00163  -0.00164  -3.11715
   D45        0.03354   0.00008   0.00000   0.00633   0.00632   0.03986
   D46        0.00093  -0.00009   0.00000  -0.00240  -0.00239  -0.00146
   D47       -3.13320   0.00009   0.00000   0.00556   0.00557  -3.12763
   D48        0.00273  -0.00018   0.00000  -0.00367  -0.00365  -0.00092
   D49        3.12721   0.00040   0.00000   0.01862   0.01848  -3.13749
   D50       -0.00210   0.00012   0.00000   0.00207   0.00204  -0.00005
   D51        3.13677  -0.00003   0.00000  -0.00037  -0.00035   3.13642
   D52        0.00077  -0.00003   0.00000   0.00019   0.00022   0.00099
   D53        3.13484  -0.00020   0.00000  -0.00784  -0.00783   3.12701
   D54       -3.13824   0.00012   0.00000   0.00252   0.00254  -3.13570
   D55       -0.00417  -0.00006   0.00000  -0.00551  -0.00551  -0.00968
   D56       -3.10276  -0.00006   0.00000   0.04729   0.04728  -3.05548
   D57        1.11730   0.00010   0.00000   0.05395   0.05397   1.17127
   D58       -0.92054   0.00143   0.00000   0.07193   0.07185  -0.84870
   D59        1.03193  -0.00104   0.00000   0.00778   0.00782   1.03975
   D60       -1.03119  -0.00088   0.00000   0.01445   0.01450  -1.01668
   D61       -3.06903   0.00045   0.00000   0.03243   0.03238  -3.03665
   D62       -1.00043  -0.00080   0.00000   0.00553   0.00556  -0.99487
   D63       -3.06355  -0.00065   0.00000   0.01220   0.01225  -3.05130
   D64        1.18179   0.00069   0.00000   0.03018   0.03013   1.21192
   D65       -3.02904   0.00018   0.00000   0.00377   0.00388  -3.02516
   D66        1.22859   0.00021   0.00000   0.01161   0.01170   1.24029
   D67       -0.95240   0.00029   0.00000  -0.00197  -0.00195  -0.95435
   D68       -2.97796   0.00032   0.00000   0.00587   0.00588  -2.97209
   D69        1.12834  -0.00055   0.00000  -0.00601  -0.00611   1.12223
   D70       -0.89722  -0.00052   0.00000   0.00183   0.00171  -0.89551
         Item               Value     Threshold  Converged?
 Maximum Force            0.012741     0.000450     NO 
 RMS     Force            0.002489     0.000300     NO 
 Maximum Displacement     1.038036     0.001800     NO 
 RMS     Displacement     0.210238     0.001200     NO 
 Predicted change in Energy=-2.578809D-03
 GradGradGradGradGradGradGradGradGradGradGradGradGradGradGradGradGradGrad

                          Input orientation:                          
 ---------------------------------------------------------------------
 Center     Atomic      Atomic             Coordinates (Angstroms)
 Number     Number       Type             X           Y           Z
 ---------------------------------------------------------------------
      1          8           0       -1.513197   -0.041674   -1.159211
      2          6           0       -1.675643   -0.062911    0.059341
      3          7           0       -0.632882   -0.269200    0.916043
      4          6           0        0.725146   -0.412434    0.424038
      5          6           0        1.531495   -1.131052    1.493236
      6          8           0        2.378638   -2.039311    0.982911
      7          8           0        1.436299   -0.888360    2.678374
      8          6           0        1.366659    0.975384    0.117429
      9          6           0        2.737987    0.903760   -0.468160
     10          6           0        3.989547    1.128932    0.056845
     11          7           0        4.974096    0.898852   -0.878538
     12          6           0        4.332363    0.534833   -1.966721
     13          7           0        2.978729    0.519376   -1.776456
     14          6           0       -3.028238    0.169433    0.719419
     15          6           0       -4.158919   -0.570013   -0.002266
     16          7           0       -5.448497   -0.217505    0.602637
     17          1           0       -0.756691   -0.235337    1.918732
     18          1           0        0.700531   -1.005140   -0.492159
     19          1           0        2.895455   -2.393693    1.727569
     20          1           0        1.400389    1.548211    1.048782
     21          1           0        0.675730    1.485436   -0.562143
     22          1           0        4.230127    1.450014    1.061559
     23          1           0        4.784894    0.277119   -2.914294
     24          1           0        2.276779    0.285969   -2.463239
     25          1           0       -3.019232   -0.103537    1.779287
     26          1           0       -3.223740    1.250871    0.673580
     27          1           0       -4.016317   -1.650338    0.121090
     28          1           0       -4.074057   -0.360270   -1.077573
     29          1           0       -6.183120   -0.791587    0.196086
     30          1           0       -5.684308    0.744312    0.364447
 ---------------------------------------------------------------------
                    Distance matrix (angstroms):
                    1          2          3          4          5
     1  O    0.000000
     2  C    1.229516   0.000000
     3  N    2.265701   1.365226   0.000000
     4  C    2.766645   2.453357   1.451491   0.000000
     5  C    4.182389   3.671881   2.400098   1.519801   0.000000
     6  O    4.870895   4.603947   3.493854   2.386022   1.342765
     7  O    4.913600   4.150287   2.787594   2.411281   1.213472
     8  C    3.310255   3.215125   2.486953   1.559354   2.521327
     9  C    4.409531   4.548938   3.828135   2.565134   3.072973
    10  C    5.755806   5.789203   4.905084   3.628630   3.634937
    11  N    6.561124   6.784072   6.001923   4.633546   4.647293
    12  C    5.929166   6.368544   5.797453   4.430018   4.753035
    13  N    4.568716   5.037101   4.573307   3.284673   3.938183
    14  C    2.422636   1.522892   2.443110   3.809687   4.804292
    15  C    2.935559   2.535273   3.656052   4.905167   5.910339
    16  N    4.315276   3.814905   4.826079   6.179302   7.095634
    17  H    3.175459   2.081235   1.010871   2.112182   2.493821
    18  H    2.504759   2.614986   2.074279   1.091478   2.155957
    19  H    5.770764   5.395412   4.197763   3.214781   1.873382
    20  H    3.986471   3.610634   2.730346   2.165729   2.719040
    21  H    2.734951   2.883154   2.641258   2.139370   3.435539
    22  H    6.335829   6.178309   5.160013   4.019955   3.759105
    23  H    6.545831   7.120159   6.657495   5.301084   5.656313
    24  H    4.021413   4.701783   4.493761   3.351373   4.268149
    25  H    3.302535   2.182910   2.543089   3.994056   4.674048
    26  H    2.820594   2.121300   3.013626   4.292150   5.381231
    27  H    3.239225   2.828868   3.739936   4.909751   5.738524
    28  H    2.581893   2.670840   3.978000   5.028907   6.214932
    29  H    4.920100   4.568044   5.621065   6.922418   7.830270
    30  H    4.509708   4.100499   5.181541   6.513272   7.540488
                    6          7          8          9         10
     6  O    0.000000
     7  O    2.255501   0.000000
     8  C    3.295685   3.168096   0.000000
     9  C    3.300970   3.847956   1.492845   0.000000
    10  C    3.672926   4.178631   2.628077   1.375767   0.000000
    11  N    4.339838   5.325576   3.743182   2.273460   1.377394
    12  C    4.375338   5.655933   3.651461   2.218969   2.136655
    13  N    3.810654   4.919992   2.528539   1.384682   2.180436
    14  C    5.846562   4.988840   4.508555   5.932869   7.113997
    15  C    6.772670   6.212378   5.738867   7.067983   8.323906
    16  N    8.045348   7.222129   6.935760   8.332009   9.549213
    17  H    3.736357   2.410954   3.036306   4.382644   5.277748
    18  H    2.461988   3.256881   2.176648   2.792078   3.958951
    19  H    0.973243   2.301998   4.034904   3.964747   4.049351
    20  H    3.719088   2.931507   1.093932   2.122640   2.804189
    21  H    4.208435   4.088315   1.095150   2.144781   3.389930
    22  H    3.950897   3.985920   3.052230   2.205656   1.081861
    23  H    5.132652   6.621885   4.622039   3.250550   3.191524
    24  H    4.158515   5.340566   2.821960   2.138859   3.161484
    25  H    5.789511   4.612598   4.812679   6.261888   7.321801
    26  H    6.504430   5.505585   4.632165   6.079987   7.240631
    27  H    6.464478   6.070530   5.989229   7.245085   8.474806
    28  H    6.978685   6.689547   5.728297   6.955078   8.278064
    29  H    8.687900   8.014154   7.754195   9.105031  10.353306
    30  H    8.552318   7.663088   7.059075   8.464851   9.686383
                   11         12         13         14         15
    11  N    0.000000
    12  C    1.314714   0.000000
    13  N    2.220754   1.367028   0.000000
    14  C    8.192855   7.843935   6.514254   0.000000
    15  C    9.291792   8.785308   7.435088   1.531682   0.000000
    16  N   10.586340  10.140653   8.787560   2.453775   1.467372
    17  H    6.477115   6.448905   5.308235   2.600407   3.921403
    18  H    4.694447   4.211419   3.027169   4.092831   4.903426
    19  H    4.685445   4.928361   4.557531   6.532697   7.488814
    20  H    4.111887   4.326276   3.395825   4.649972   6.041314
    21  H    4.349729   4.030813   2.776983   4.134446   5.283197
    22  H    2.149708   3.165200   3.238273   7.378402   8.694155
    23  H    2.136973   1.081247   2.148394   8.617453   9.444010
    24  H    3.187856   2.129293   1.009398   6.187576   6.943148
    25  H    8.483049   8.275629   7.000490   1.094492   2.165737
    26  H    8.350898   8.036080   6.708828   1.099922   2.155678
    27  H    9.398147   8.878873   7.565646   2.155427   1.096656
    28  H    9.137510   8.500570   7.141709   2.145577   1.098853
    29  H   11.335603  10.817232   9.463035   3.339269   2.045930
    30  H   10.731751  10.286492   8.926492   2.740656   2.046641
                   16         17         18         19         20
    16  N    0.000000
    17  H    4.872933   0.000000
    18  H    6.295196   2.920357   0.000000
    19  H    8.696138   4.246553   3.416572   0.000000
    20  H    7.086892   2.931015   3.063315   4.270196   0.000000
    21  H    6.462420   3.341800   2.491682   5.021713   1.767527
    22  H    9.831938   5.333246   4.571638   4.122985   2.831471
    23  H   10.832163   7.370883   4.918632   5.678918   5.364375
    24  H    8.326642   5.354939   2.834903   5.012606   3.833485
    25  H    2.701633   2.270663   4.450730   6.342793   4.774406
    26  H    2.666590   3.137762   4.674231   7.199881   4.648844
    27  H    2.082316   3.982324   4.800105   7.134840   6.358618
    28  H    2.175447   4.471953   4.853376   7.783170   6.175212
    29  H    1.017116   5.720407   6.921268   9.345198   7.981939
    30  H    1.018545   5.258985   6.675367   9.236748   7.162924
                   21         22         23         24         25
    21  H    0.000000
    22  H    3.907864   0.000000
    23  H    4.886499   4.182207   0.000000
    24  H    2.759755   4.194612   2.548366   0.000000
    25  H    4.654017   7.448615   9.114767   6.796946   0.000000
    26  H    4.097303   7.466614   8.829453   6.405183   1.760350
    27  H    5.684645   8.860051   9.507363   7.073267   2.477173
    28  H    5.121794   8.764274   9.069775   6.532290   3.056176
    29  H    7.266607  10.686887  11.450499   8.933255   3.604181
    30  H    6.469769   9.963935  10.980555   8.460780   3.134206
                   26         27         28         29         30
    26  H    0.000000
    27  H    3.057848   0.000000
    28  H    2.526925   1.761932   0.000000
    29  H    3.627336   2.331977   2.501278   0.000000
    30  H    2.531118   2.928441   2.427433   1.623621   0.000000
 Symmetry turned off by external request.
 Stoichiometry    C9H14N4O3
 Framework group  C1[X(C9H14N4O3)]
 Deg. of freedom    84
 Full point group                 C1      NOp   1
 Rotational constants (GHZ):      1.0731845      0.2279174      0.2027061
 Standard basis: 6-31G(d,p) (6D, 7F)
   310 basis functions,   546 primitive gaussians,   310 cartesian basis functions
    60 alpha electrons       60 beta electrons
       nuclear repulsion energy      1095.0537920860 Hartrees.
 NAtoms=   30 NActive=   30 NUniq=   30 SFac= 1.00D+00 NAtFMM=   60 NAOKFM=F Big=F
 Integral buffers will be    131072 words long.
 Raffenetti 2 integral format.
 Two-electron integral symmetry is turned off.
 One-electron integrals computed using PRISM.
 NBasis=   310 RedAO= T EigKep=  1.19D-03  NBF=   310
 NBsUse=   310 1.00D-06 EigRej= -1.00D+00 NBFU=   310
 Initial guess from the checkpoint file:  "conf-591.chk"
 B after Tr=    -0.011253    0.021408    0.000963
         Rot=    0.999730   -0.022278   -0.000725    0.006561 Ang=  -2.66 deg.
[...]
 -0.00014202,-0.00007418,-0.00016037,0.00020520,0.00002288,-0.00001167,
 -0.00004376,0.00006259,0.00003807,0.00014857,-0.00081958,0.00067056,0.
 00003993,0.00002973,0.00001813,-0.00001167,-0.00033653,0.00014046,0.00
 018399,-0.00023150,-0.00056959,-0.00010143,0.00194831,-0.00001747,0.00
 019951,-0.00119154,-0.00003439,0.06512964,0.03297272,-0.00464456,-0.00
 238639,0.00259225,0.00139504,0.00110889,-0.00794654,0.00130468,-0.0003
 8119,0.00180827,-0.00034877,0.00033005,-0.00062817,-0.00072811,0.00070
 826,-0.00039221,0.00060722,-0.00032911,0.00018972,0.00033078,-0.000324
 45,0.00035245,0.00003819,-0.00026561,0.00094425,-0.02764057,-0.0042834
 2,0.00977378,-0.00492873,-0.00070895,-0.00719864,0.00611922,0.00038596
 ,-0.00435230,0.01879556,0.00373337,0.01448382,-0.02946499,-0.00651816,
 -0.07885392,-0.00031804,0.00029742,0.00072811,0.00031158,0.00021238,0.
 00045084,-0.00026273,-0.00013092,-0.00008672,0.00013194,-0.00005468,-0
 .00019943,-0.00006435,0.00057601,-0.00028405,-0.00006114,0.00001745,-0
 .00000883,0.00018421,-0.00001372,0.00022355,0.00023964,-0.00035363,-0.
 00063285,-0.00131216,-0.00010711,0.00087369,-0.00054325,-0.00008824,-0
 .00045666,0.04130330,0.00850488,0.06845067,-0.00856529,0.00176491,0.00
 330241,0.00018047,-0.01113095,0.03083602,0.00043521,0.00036541,-0.0013
 0409,0.00036958,-0.00000171,-0.00008064,-0.00020179,-0.00000995,0.0002
 4552,0.00016707,-0.00004723,-0.00003951,0.00017522,0.00002810,-0.00017
 895,0.00006608,-0.00004599,0.00003182,0.00011993,0.00004349,0.00020643
 ,-0.00007675,-0.00000547,0.00003131,-0.00018642,-0.00002050,-0.0000517
 8,0.00014768,-0.00000482,-0.00024214,-0.00045125,-0.00014389,0.0001730
 6,-0.06231199,-0.01468843,0.05100526,0.00393200,0.00575894,-0.01972690
 ,0.00151678,0.00041826,0.00067969,-0.00224076,0.00037079,-0.00063910,0
 .00017699,-0.00006632,0.00006292,-0.00002458,0.00000350,-0.00000139,-0
 .00000079,0.00001933,-0.00002135,0.00001544,0.00002492,0.00001246,-0.0
 0001814,-0.00000246,-0.00000118,-0.00000096,0.00000125,0.00000297,0.00
 070742,0.00033070,-0.00032001,0.06685463,0.00147131,0.00204052,-0.0008
 6350,0.00167175,-0.00166934,-0.00539718,-0.00017571,-0.00029159,-0.000
 35558,-0.00010327,-0.00001732,-0.00021877,0.00000018,0.00000071,0.0000
 5943,-0.00002118,0.00001459,-0.00001894,-0.00002648,-0.00005586,-0.000
 05443,-0.00001873,0.00001565,-0.00001242,0.00000259,-0.00001119,-0.000
 00291,0.00000245,-0.00000171,0.00000070,-0.00000142,0.00000146,-0.0000
 0049,0.00001453,0.00000398,0.00000099,0.00005646,0.00001439,-0.0000275
 8,-0.01631345,-0.07028904,0.07191852,0.00353031,0.00479656,-0.01792011
 ,0.00093593,0.00005166,0.00107892,0.00009128,0.00085821,-0.00001032,0.
 00006242,-0.00000746,-0.00001347,0.00000488,0.00000958,0.00000552,-0.0
 0001823,-0.00000181,0.00000006,-0.00000148,-0.00000696,0.00002471,-0.0
 0000068,0.00000107,-0.00000089,0.00000129,-0.00000153,-0.00000182,-0.0
 0005297,-0.00001054,0.00004244,0.01734096,0.07273749,0.00198448,0.0002
 5531,0.00165548,-0.00251618,0.00114649,-0.00742793,-0.00152746,-0.0000
 4346,0.00076089,0.00039336,-0.00050896,0.00042403,0.00027731,0.0000269
 5,-0.00018876,-0.00010781,0.00001937,0.00004224,-0.00016271,-0.0000347
 4,0.00011158,-0.00008945,0.00006688,-0.00001184,-0.00006723,-0.0000433
 0,-0.00008903,0.00005421,-0.00000172,-0.00001066,0.00007878,0.00001446
 ,0.00005692,-0.00009010,-0.00000886,0.00010295,0.00013756,0.00002790,-
 0.00008344,0.05374954,0.07066762,-0.27846052,0.00490522,0.00572163,-0.
 02188796,0.00064005,0.00061113,0.00252503,0.00021491,0.00010337,0.0012
 1356,-0.00007636,0.00005627,0.00004073,0.00002423,-0.00000526,0.000001
 71,-0.00000504,-0.00001867,0.00001553,-0.00000752,-0.00000522,-0.00000
 771,0.00001031,0.00000057,0.00000165,-0.00000466,-0.00000037,0.0000053
 7,-0.00025778,-0.00006284,0.00008967,-0.05556210,-0.07543572,0.3035141
 2,0.00023140,-0.00401746,-0.00027688,-0.00765923,0.03589809,-0.0036540
 7,-0.00321136,-0.00141184,0.00043714,-0.00046090,-0.00159039,-0.000639
 41,0.00009825,-0.00027983,0.00027583,-0.00014277,0.00012148,-0.0000902
 8,-0.00006416,0.00007583,-0.00018088,-0.00039990,0.00039423,-0.0001354
 8,-0.00002492,-0.00007713,-0.00002404,0.00001617,-0.00002389,0.0000150
 3,-0.00005322,0.00000767,0.00004736,-0.00000486,0.00000419,-0.00004548
 ,-0.00010621,-0.00003598,0.00008850,-0.05564983,0.05333683,-0.00156599
 ,0.00289931,-0.02121700,0.00128814,0.00206053,-0.00027987,0.00055781,-
 0.00009129,0.00072101,0.00044883,0.00012159,-0.00001548,0.00001968,0.0
 0000942,0.00000905,0.00000883,-0.00009451,-0.00013464,0.00003263,-0.00
 001166,-0.00000530,-0.00001114,-0.00000121,0.00000241,-0.00000300,-0.0
 0000308,0.00000165,0.00000899,0.00020063,0.00000985,-0.00016839,0.0014
 4070,-0.00717765,0.00029150,0.06255518,-0.00017560,0.00138737,-0.00015
 780,0.00143991,-0.00425630,0.00180494,0.00068742,0.00024879,-0.0008622
 6,0.00000280,0.00004549,0.00011231,-0.00004798,0.00000821,-0.00002363,
 0.00006863,-0.00002329,0.00002510,0.00006129,0.00001956,0.00000769,0.0
 0005578,-0.00008267,0.00002696,0.00002112,0.00002589,0.00002748,-0.000
 01422,0.00000662,-0.00000287,-0.00000354,0.00000071,-0.00001655,0.0000
 1757,0.00000171,-0.00000996,-0.00000270,0.00002617,-0.00001102,0.05048
 690,-0.28955557,0.02318924,0.00225203,-0.01927492,0.00017507,0.0009546
 6,0.00199246,0.00055031,-0.00023672,-0.00017174,-0.00025035,-0.0000133
 1,-0.00001367,-0.00000645,-0.00000773,-0.00000802,-0.00000435,0.000022
 97,0.00001626,-0.00001420,0.00000480,-0.00000893,-0.00000014,-0.000001
 15,-0.00000270,0.00000053,0.00000160,-0.00000421,-0.00000225,0.0000375
 0,-0.00004749,0.00000922,0.00172016,-0.00807202,0.00057919,-0.05395775
 ,0.31650749,0.00091302,0.00146199,-0.00038268,0.00022300,-0.00671089,-
 0.00065833,-0.00063346,-0.00018082,0.00002356,-0.00000376,-0.00042759,
 0.00002993,0.00012665,0.00001182,-0.00003124,-0.00006659,0.00002117,0.
 00000266,-0.00009400,-0.00003486,0.00000953,-0.00011938,0.00010601,0.0
 0000884,-0.00003440,-0.00004415,-0.00003066,0.00002208,-0.00000620,0.0
 0000045,0.00002095,0.00001283,0.00001096,-0.00001654,-0.00000347,0.000
 04390,0.00006486,0.00001216,-0.00004946,-0.00161277,0.02282941,-0.0483
 3697,0.00273426,-0.02461006,0.00060650,0.00172614,0.00101634,0.0004314
 1,0.00035417,0.00059664,0.00039516,0.00001905,0.00001540,0.00001603,0.
 00001035,0.00000199,0.00000385,-0.00002064,-0.00002061,0.00000589,0.00
 000037,-0.00001508,0.00001046,0.00000184,0.00000008,-0.00000095,0.0000
 0275,-0.00000340,-0.00000298,-0.00013835,-0.00000485,0.00008589,-0.007
 16849,0.02966060,-0.00187964,0.00597750,-0.02202725,0.05038334,-0.0003
 1266,0.00055677,0.00046794,0.00185100,-0.00124964,-0.00022852,-0.00008
 953,0.00039796,-0.00007717,-0.00001639,-0.00005345,-0.00003661,-0.0000
 1203,-0.00000709,-0.00002205,-0.00000215,0.00000714,0.00000508,0.00000
 050,0.00001095,0.00001902,0.00000450,-0.00002273,-0.00000047,0.0000027
 6,0.00000564,-0.00000079,-0.00000071,0.00000255,-0.00000062,-0.0000006
 1,0.00000161,0.00000244,-0.00000178,-0.00000091,0.00000023,-0.00000935
 ,0.00001265,0.00000320,0.00226363,-0.02047574,0.00232252,-0.05450167,0
 .03311193,-0.00333442,-0.01237914,0.03783680,-0.00130016,0.00002843,-0
 .00009202,-0.00003311,-0.00002274,-0.00001429,0.00001184,-0.00000256,-
 0.00000304,-0.00000335,0.00000201,0.00000568,-0.00000105,0.00000228,0.
 00000860,0.00000417,0.00000043,-0.00000088,0.00000014,0.,-0.00000243,0
 .00000088,0.00001249,-0.00002333,-0.00000637,0.00052002,0.00089600,0.0
 0042631,-0.00235115,-0.00224542,-0.00314946,0.06861622,-0.00090268,0.0
 0054622,0.00068163,0.00180513,-0.00069584,-0.00075244,-0.00075667,0.00
 044940,-0.00022189,0.00005910,-0.00011365,-0.00012953,-0.00003171,-0.0
 0008114,0.00009203,-0.00002335,0.00004824,-0.00002898,0.00001398,0.000
 07655,-0.00004284,-0.00002333,-0.00000849,-0.00000622,0.00000966,0.000
 00429,0.00000653,-0.00000185,0.00000338,0.00000335,-0.00002322,0.00000
 709,0.00000987,0.00000959,-0.00000018,-0.00001990,-0.00004913,0.000022
 84,0.00002151,-0.00001764,-0.01527530,0.00140013,0.03975228,-0.2967992
 3,0.02985340,0.00389824,-0.00463327,-0.00076384,0.00000491,-0.00018770
 ,0.00001804,-0.00004811,-0.00001215,0.00003302,-0.00001188,-0.00001435
 ,-0.00000783,-0.00001026,-0.00000209,-0.00000002,0.00000418,0.00002717
 ,0.00000823,-0.00000047,-0.00000334,-0.00000062,0.00000077,-0.00000816
 ,0.00000260,0.00007525,-0.00004205,-0.00004595,0.00025562,0.00088628,-
 0.00016080,-0.00202582,-0.00012763,-0.00226328,-0.04432045,0.32175119,
 0.00018483,-0.00028113,0.00029717,0.00116524,-0.00013752,0.00041770,0.
 00009153,0.00034428,-0.00006557,-0.00002526,-0.00004287,-0.00003189,-0
 .00007537,-0.00001372,0.00005154,0.00004629,-0.00001401,-0.00000957,0.
 00005712,0.00002745,-0.00003149,0.00000032,-0.00002694,-0.00000417,0.0
 0000108,0.00000702,0.00000212,-0.00000228,0.00000238,0.00000041,0.0000
 0350,-0.00000496,-0.00000452,-0.00000101,0.00000056,-0.00000248,0.0000
 0111,-0.00000967,0.00000567,0.00210627,-0.02256988,0.00144851,-0.00340
 623,0.03332711,-0.05626456,0.00152700,-0.00875641,0.00117425,-0.000073
 97,-0.00010381,-0.00004044,0.00001441,-0.00000323,0.00000894,-0.000009
 05,0.00000068,-0.00000001,0.00000174,0.00000168,-0.00000065,0.00000200
 ,0.00000536,-0.00000084,-0.00000045,0.00000021,0.00000014,-0.00000137,
 0.00000452,-0.00000041,-0.00000816,0.00001573,-0.00000637,0.00090877,0
 .00007407,0.00102860,-0.00307410,-0.00280824,-0.00218909,0.00429955,-0
 .02929704,0.05567750,-0.00132212,-0.00020381,0.00128262,0.00152811,0.0
 0080077,-0.00292234,-0.00018388,-0.00018612,0.00090180,-0.00007809,0.0
 0006598,0.00011010,0.00006027,0.00001377,-0.00005343,-0.00003514,0.000
 00544,0.00001180,-0.00004340,-0.00001885,0.00004810,-0.00000088,0.0000
 0060,-0.00001463,-0.00003154,-0.00000680,-0.00004584,0.00001920,0.0000
 0152,-0.00000655,0.00004094,0.00000465,0.00001014,-0.00003607,-0.00000
 026,0.00005751,0.00007551,0.00002022,-0.00003974,0.00406951,0.00473799
 ,-0.01881432,-0.06195479,-0.01404172,0.05345340,-0.02202173,-0.0054147
 4,0.03379391,0.00042735,-0.00012679,0.00009347,-0.00007677,0.00002612,
 -0.00002953,0.00000758,-0.00000178,0.00000182,0.00000146,-0.00000283,0
 .00000487,-0.00000275,-0.00000625,-0.00000703,0.00000400,0.00000056,-0
 .00000030,0.00000063,-0.00000072,-0.00000080,-0.00015252,-0.00005154,0
 .00008179,-0.00295244,-0.00233591,-0.00293403,0.00075465,0.00003382,0.
 00089383,0.00247881,0.00090036,-0.00472809,0.07678033,-0.00016767,-0.0
 0073655,0.00015089,0.00039338,0.00029945,-0.00020295,-0.00017363,0.000
 29154,0.00004688,-0.00004072,0.00005108,0.00006922,0.00000056,-0.00002
 825,0.00003618,-0.00000950,0.00001009,-0.00001047,0.00000132,0.0000290
 0,-0.00001657,-0.00000375,0.00000368,0.00000285,-0.00000709,-0.0000032
 5,-0.00000428,0.00000297,-0.00000004,-0.00000157,0.00000095,-0.0000048
 1,-0.00000012,0.00000092,0.00000092,0.00001125,0.00000688,-0.00001285,
 -0.00001233,0.00139824,0.00389454,-0.01770738,-0.01350587,-0.07408402,
 0.06290775,0.00368547,0.00533132,-0.00759814,0.00020186,-0.00011114,0.
 00004025,-0.00004830,0.00000340,-0.00000909,-0.00000269,-0.00000418,-0
 .00000075,-0.00000040,-0.00000339,0.00000047,0.00000277,0.00000054,-0.
 00000871,-0.00000034,0.00000074,-0.00000100,0.00000141,0.00000621,-0.0
 0000213,-0.00001300,0.00002957,0.00002773,-0.00220892,-0.00081235,-0.0
 0279434,0.00104526,0.00111227,0.00013430,-0.00634979,-0.00837164,0.030
 63693,0.01672756,0.07223884,0.00142590,0.00021250,0.00357948,0.0024834
 0,0.00021644,-0.00480869,-0.00038133,-0.00001525,0.00084458,-0.0000113
 6,0.00007743,0.00002414,0.00007268,0.00004212,-0.00012737,-0.00006737,
 0.00001569,0.00001981,-0.00007658,-0.00003015,0.00011760,0.00000831,0.
 00001945,-0.00002943,-0.00004466,-0.00001353,-0.00007447,0.00002939,0.
 00000146,-0.00000701,0.00006617,0.00000962,0.00004057,-0.00008258,-0.0
 0000785,0.00006208,0.00009524,0.00001333,-0.00002311,0.00099198,0.0059
 1317,-0.02268034,0.04920787,0.06148977,-0.26430050,0.00845022,-0.00121
 759,-0.00034675,0.00022612,-0.00017689,0.00019780,-0.00007060,0.000027
 25,-0.00001082,0.00000681,-0.00000034,-0.00000517,0.00000412,-0.000006
 20,0.00001006,-0.00000689,-0.00000677,-0.00000901,0.00000859,0.0000014
 4,0.00000322,-0.00000818,-0.00000085,0.00000912,-0.00016662,-0.0000311
 6,0.00002481,-0.00235438,-0.00271578,-0.00172733,0.00053686,-0.0000144
 8,0.00122506,-0.00000723,0.00146126,-0.00251282,-0.06114399,-0.0645968
 7,0.28862929,-0.00011021,0.00019225,0.00065430,0.00023018,-0.00132314,
 -0.00238029,-0.00083567,0.00017559,0.00019536,0.00010587,0.00010617,-0
 .00016843,-0.00000224,-0.00006484,0.00010720,-0.00006779,0.00005417,-0
 .00004868,-0.00002663,0.00004177,-0.00004435,0.00001102,0.00002939,-0.
 00001807,0.00000773,-0.00000928,-0.00000174,0.00000829,-0.00000115,0.0
 0000366,-0.00001755,0.00000179,0.00002739,-0.00000391,-0.00000139,-0.0
 0001910,-0.00003817,-0.00000763,0.00001241,-0.00714208,0.00258167,0.00
 336384,-0.02212256,-0.02320346,-0.02365543,-0.17104464,-0.11730700,-0.
 11508522,-0.00000292,-0.00007531,0.00006876,-0.00003415,0.00000180,0.0
 0000371,-0.00000354,-0.00000426,-0.00000276,-0.00001241,-0.00000654,0.
 00000229,0.00000407,0.00000970,0.00000754,0.00000067,0.00000005,0.0000
 0021,-0.00000335,-0.00000187,0.00000584,0.00006742,0.00002012,-0.00005
 973,0.00020708,0.00028001,0.00009819,0.00031706,0.00009724,0.00043343,
 0.00124048,0.00055359,-0.00048412,0.00092260,-0.00064055,0.00046267,0.
 19225498,0.00021905,-0.00010189,-0.00005040,-0.00009749,0.00106558,0.0
 0009121,0.00031437,-0.00024467,0.00019054,-0.00008743,-0.00009448,0.00
 003393,-0.00002219,0.00006952,-0.00010692,0.00004867,-0.00004366,0.000
 03779,0.00001795,-0.00004975,0.00006287,-0.00000707,-0.00001008,0.0000
 0725,-0.00001341,0.00000260,-0.00001571,-0.00000149,0.00000007,-0.0000
 0351,0.00003128,-0.00000031,-0.00000796,-0.00002247,-0.00000198,0.0000
 1971,0.00005048,0.00000382,-0.00000313,0.00244419,0.00053024,0.0001939
 8,0.00544294,0.00521771,0.00436029,-0.11588709,-0.18357499,-0.11905129
 ,0.00000708,0.00006753,-0.00004617,0.00003124,0.00000008,-0.00000317,0
 .00000159,0.00000893,0.00000065,0.00001062,0.00000352,0.00000138,-0.00
 000576,-0.00001173,-0.00000546,0.00000185,0.00000112,0.00000184,-0.000
 00216,0.00000225,0.00000005,-0.00007431,-0.00001235,0.00002410,-0.0000
 6648,-0.00009952,-0.00011214,0.00010232,0.00034019,-0.00002252,0.00040
 247,0.00042152,0.00035745,0.00035062,-0.00040112,-0.00011129,0.1311123
 0,0.20033698,-0.00054625,0.00008144,0.00044426,0.00108645,-0.00081406,
 -0.00004637,-0.00054637,0.00024451,-0.00029484,0.00019382,0.00002883,-
 0.00006912,0.00007735,-0.00013357,0.00018337,-0.00010097,0.00007721,-0
 .00006575,-0.00005032,0.00008660,-0.00011276,-0.00000599,0.00002016,-0
 .00001704,0.00002925,-0.00000633,0.00003669,0.00000410,-0.00000081,0.0
 0000767,-0.00007050,-0.00000423,0.00001856,0.00005150,0.00000389,-0.00
 004701,-0.00011769,-0.00001937,0.00001225,-0.00162481,0.00013886,0.000
 03347,0.01431793,0.00711385,-0.00062934,-0.15209528,-0.15839659,-0.144
 10304,0.00001794,-0.00006561,0.00010023,-0.00003410,-0.00000146,0.0000
 1212,0.00000653,-0.00001511,0.00000546,-0.00002272,-0.00000962,-0.0000
 0200,0.00000695,0.00002327,0.00001083,-0.00000393,-0.00000115,-0.00000
 443,0.00000432,-0.00000087,-0.00000050,0.00016071,0.00004125,-0.000058
 33,0.00029187,-0.00005131,0.00037805,0.00023201,0.00014727,-0.00004560
 ,-0.00065969,0.00023015,0.00048412,0.00078378,0.00045309,0.00077611,0.
 13173955,0.13900653,0.14217286,0.00025117,-0.00016571,-0.00015444,-0.0
 0039650,-0.00035431,0.00042235,0.00040566,-0.00006936,0.00005460,-0.00
 006157,0.00008870,0.00008565,-0.00004284,0.00006556,-0.00006283,0.0000
 5528,-0.00004166,0.00002550,0.00003056,-0.00003828,0.00003668,0.000014
 62,-0.00000725,0.00001069,-0.00001315,0.00000341,-0.00001567,-0.000003
 29,-0.00000029,-0.00000326,0.00003384,0.00000019,-0.00001302,-0.000023
 68,-0.00000210,0.00002303,0.00005625,-0.00000484,-0.00000679,0.0011208
 8,0.00125539,-0.00002199,-0.01077939,0.03994156,-0.01001895,-0.0763020
 0,0.06827071,-0.02592071,-0.00002337,0.00003410,-0.00004914,0.00001267
 ,0.00000278,-0.00001417,-0.00000497,0.00000697,-0.00000177,0.00001210,
 0.00000445,0.00000006,-0.00000177,-0.00001557,-0.00000947,0.00000128,0
 .00000099,0.00000211,-0.00000227,0.00000287,-0.00000016,-0.00007251,0.
 00001055,0.00002875,-0.00000114,-0.00011519,0.00012250,-0.00037463,-0.
 00126011,-0.00046641,-0.00732108,0.00090393,0.00147869,0.00172118,-0.0
 0029735,0.00034545,0.00609036,-0.02430166,0.00687455,0.08561833,0.0000
 4385,-0.00004023,-0.00015007,-0.00009502,0.00006746,0.00011775,0.00000
 881,0.00001172,-0.00002462,-0.00000128,-0.00000271,0.00000409,-0.00002
 160,0.00000334,0.00000383,0.00001660,-0.00000569,0.00000152,0.00001416
 ,0.00000120,-0.00000381,-0.00000551,-0.00000193,0.00000565,-0.00000325
 ,0.00000096,-0.00000175,-0.00000245,-0.00000024,-0.00000037,0.00000503
 ,0.00000007,-0.00000755,-0.00000090,0.00000016,0.00000668,0.00001047,0
 .00000203,-0.00000354,0.00010484,0.00148741,0.00016700,-0.00045163,-0.
 00652082,0.00430290,0.07609640,-0.37672805,0.06842881,-0.00000487,0.00
 000004,-0.00000514,-0.00000257,-0.00000115,-0.00000089,-0.00000390,0.0
 0000035,-0.00000098,0.00000128,0.00000049,-0.00000017,0.00000156,-0.00
 000070,-0.00000223,-0.00000042,-0.00000004,0.00000007,0.00000070,0.000
 00016,-0.00000105,-0.00001010,-0.00000328,0.00001334,-0.00000321,-0.00
 008393,-0.00006073,0.00052015,-0.00009002,0.00049430,0.00160444,0.0021
 3201,-0.00073598,-0.00129187,0.00127042,-0.00055593,0.00738878,-0.0234
 2513,0.01182317,-0.08391848,0.40192608,-0.00001225,0.00007377,-0.00057
 799,-0.00029396,-0.00052651,0.00062790,0.00001313,-0.00002297,-0.00022
 073,0.00003050,0.00006806,0.00001741,-0.00001198,-0.00000158,0.0000577
 7,0.00000955,-0.00000717,-0.00001619,0.00000963,-0.00000995,-0.0000516
 9,-0.00000262,0.00000769,0.00001389,0.00000833,-0.00000230,0.00002249,
 -0.00000688,-0.00000310,0.00000180,-0.00002043,-0.00000531,-0.00002166
 ,0.00003261,0.00000415,-0.00000470,-0.00002135,-0.00000717,-0.00001132
 ,-0.00064192,0.00125477,0.00003331,0.00991606,-0.01144520,-0.00275789,
 -0.04106017,0.12104813,-0.04358378,-0.00002835,0.00006113,0.00001423,0
 .00000243,-0.00000122,-0.00000393,0.00000120,0.00000642,0.00000609,-0.
 00000429,0.00000152,-0.00000388,0.00000770,-0.00000484,0.00000142,-0.0
 0000406,0.00000088,-0.00000248,0.00000569,0.00000160,-0.00000648,0.000
 02829,0.00001335,0.00003323,-0.00009851,0.00023524,-0.00019327,-0.0003
 9750,-0.00044354,0.00031418,0.00129774,-0.00008054,0.00056819,-0.00078
 833,-0.00155109,0.00109909,0.00478159,-0.02484988,0.00082010,0.0272481
 6,-0.08381433,0.04382486\\0.00000240,0.00000030,0.00000236,0.00000204,
 -0.00000217,0.00000199,-0.00000159,-0.00000200,0.00000037,-0.00000031,
 -0.00000082,0.00000274,-0.00000688,-0.00000172,0.00000070,0.00000058,-
 0.00000031,0.00000050,0.00000227,0.00000029,0.00000053,0.00000255,0.00
 000225,-0.00000523,0.00000127,0.00000170,0.00000083,-0.00000179,0.0000
 0010,0.00000054,-0.00000004,-0.00000036,-0.00000081,0.00000030,-0.0000
 0081,-0.00000152,0.00000026,-0.00000191,0.00000158,0.00000176,-0.00000
 072,0.00000083,0.00000014,0.00000047,-0.00000053,0.00000018,0.00000037
 ,-0.00000036,0.00000019,0.00000190,-0.00000292,0.00000026,0.00000101,-
 0.00000007,-0.00000012,0.00000037,-0.00000033,0.00000024,0.00000044,-0
 .00000097,-0.00000160,-0.00000061,0.00000013,-0.00000002,0.00000013,-0
 .00000004,-0.00000013,-0.00000003,0.00000007,-0.00000119,0.00000215,-0
 .00000150,-0.00000030,0.,-0.00000032,-0.00000079,0.00000033,-0.0000004
 7,-0.00000017,-0.00000008,0.00000085,0.00000022,0.00000004,0.00000064,
 0.00000020,0.00000007,0.00000038,0.00000007,-0.00000039,0.00000004\\\@


 A COMPLEXITY IS MERELY A DISARRANGEMENT OF SIMPLICITIES.

                                    -- G. O. ABELL IN "EXPLORATION OF THE UNIVERSE"
 Job cpu time:       0 days  1 hours 14 minutes 57.3 seconds.
 File lengths (MBytes):  RWF=    320 Int=      0 D2E=      0 Chk=      9 Scr=      1
 Normal termination of Gaussian 09 at Wed Jul 28 23:11:21 2021.
