 Entering Gaussian System, Link 0=g09
 Input=opt_freq-conf-340.com
 Output=opt_freq-conf-340.log
 Initial command:
 /aerosol/software/g09/l1.exe "/scratch/nicole/10614/Gau-83375.inp" -scrdir="/scratch/nicole/10614/"
 Entering Link 1 = /aerosol/software/g09/l1.exe PID=     83385.
  
 Copyright (c) 1988,1990,1992,1993,1995,1998,2003,2009,2013,
            Gaussian, Inc.  All Rights Reserved.
  
 This is part of the Gaussian(R) 09 program.  It is based on
 the Gaussian(R) 03 system (copyright 2003, Gaussian, Inc.),
 the Gaussian(R) 98 system (copyright 1998, Gaussian, Inc.),
 the Gaussian(R) 94 system (copyright 1995, Gaussian, Inc.),
 the Gaussian 92(TM) system (copyright 1992, Gaussian, Inc.),
 the Gaussian 90(TM) system (copyright 1990, Gaussian, Inc.),
 the Gaussian 88(TM) system (copyright 1988, Gaussian, Inc.),
 the Gaussian 86(TM) system (copyright 1986, Carnegie Mellon
 University), and the Gaussian 82(TM) system (copyright 1983,
 Carnegie Mellon University). Gaussian is a federally registered
 trademark of Gaussian, Inc.
  
 This software contains proprietary and confidential information,
 including trade secrets, belonging to Gaussian, Inc.
  
 This software is provided under written license and may be
 used, copied, transmitted, or stored only in accord with that
 written license.
  
 The following legend is applicable only to US Government
 contracts under FAR:
  
                    RESTRICTED RIGHTS LEGEND
  
 Use, reproduction and disclosure by the US Government is
 subject to restrictions as set forth in subparagraphs (a)
 and (c) of the Commercial Computer Software - Restricted
 Rights clause in FAR 52.227-19.
  
 Gaussian, Inc.
 340 Quinnipiac St., Bldg. 40, Wallingford CT 06492
  
  
 ---------------------------------------------------------------
 Warning -- This program may not be used in any manner that
 competes with the business of Gaussian, Inc. or will provide
 assistance to any competitor of Gaussian, Inc.  The licensee
 of this program is prohibited from giving any competitor of
 Gaussian, Inc. access to this program.  By using this program,
 the user acknowledges that Gaussian, Inc. is engaged in the
 business of creating and licensing software in the field of
 computational chemistry and represents and warrants to the
 licensee that it is not a competitor of Gaussian, Inc. and that
 it will not use this program in any manner prohibited above.
 ---------------------------------------------------------------
  

 Cite this work as:
 Gaussian 09, Revision D.01,
 M. J. Frisch, G. W. Trucks, H. B. Schlegel, G. E. Scuseria, 
 M. A. Robb, J. R. Cheeseman, G. Scalmani, V. Barone, B. Mennucci, 
 G. A. Petersson, H. Nakatsuji, M. Caricato, X. Li, H. P. Hratchian, 
 A. F. Izmaylov, J. Bloino, G. Zheng, J. L. Sonnenberg, M. Hada, 
 M. Ehara, K. Toyota, R. Fukuda, J. Hasegawa, M. Ishida, T. Nakajima, 
 Y. Honda, O. Kitao, H. Nakai, T. Vreven, J. A. Montgomery, Jr., 
 J. E. Peralta, F. Ogliaro, M. Bearpark, J. J. Heyd, E. Brothers, 
 K. N. Kudin, V. N. Staroverov, T. Keith, R. Kobayashi, J. Normand, 
 K. Raghavachari, A. Rendell, J. C. Burant, S. S. Iyengar, J. Tomasi, 
 M. Cossi, N. Rega, J. M. Millam, M. Klene, J. E. Knox, J. B. Cross, 
 V. Bakken, C. Adamo, J. Jaramillo, R. Gomperts, R. E. Stratmann, 
 O. Yazyev, A. J. Austin, R. Cammi, C. Pomelli, J. W. Ochterski, 
 R. L. Martin, K. Morokuma, V. G. Zakrzewski, G. A. Voth, 
 P. Salvador, J. J. Dannenberg, S. Dapprich, A. D. Daniels, 
 O. Farkas, J. B. Foresman, J. V. Ortiz, J. Cioslowski, 
 and D. J. Fox, Gaussian, Inc., Wallingford CT, 2013.
 
 ******************************************
 Gaussian 09:  ES64L-G09RevD.01 24-Apr-2013
                28-Jul-2021 
 ******************************************
 %mem=2gb
 %nproc=4
 Will use up to    4 processors via shared memory.
 %chk=conf-340.chk
 ----------------------------------------------------------------------
 # B3LYP/6-31G(d,p) opt=calcfc freq=noraman nosymm integral(ultrafinegr
 id)
 ----------------------------------------------------------------------
 1/10=4,14=-1,18=20,19=15,26=4,38=1/1,3;
 2/9=110,12=2,15=1,17=6,18=5,40=1/2;
 3/5=1,6=6,7=101,11=2,16=1,25=1,30=1,71=2,74=-5,75=-5,140=1/1,2,3;
 4//1;
 5/5=2,38=5/2;
 8/6=4,10=90,11=11/1;
 11/6=1,8=1,9=11,15=111,16=1,31=1/1,2,10;
 10/6=1,13=1,31=1/2;
 6/7=2,8=2,9=2,10=2,28=1/1;
 7/10=1,18=20,25=1,30=1/1,2,3,16;
 1/10=4,14=-1,18=20,19=15,26=4/3(2);
 2/9=110,15=1/2;
 99//99;
 2/9=110,15=1/2;
 3/5=1,6=6,7=101,11=2,16=1,25=1,30=1,71=1,74=-5,75=-5/1,2,3;
 4/5=5,16=3,69=1/1;
 5/5=2,38=5/2;
 7/30=1/1,2,3,16;
 1/14=-1,18=20,19=15,26=4/3(-5);
 2/9=110,15=1/2;
 6/7=2,8=2,9=2,10=2,19=2,28=1/1;
 99/9=1/99;
 ------------------------------------------------------------
 Candidate Structure: Conf:340 OPT and FREQ calc in gas phase
 ------------------------------------------------------------
 Symbolic Z-matrix:
 Charge =  0 Multiplicity = 1
 O                     0.53975  -0.91334  -0.72521 
 C                     1.32329  -0.14277  -0.16646 
 N                     0.90022   1.0439    0.32044 
 C                    -0.47302   1.46462   0.14573 
 C                    -0.52293   2.96145   0.41751 
 O                    -1.72483   3.53748   0.21191 
 O                     0.41862   3.60154   0.79264 
 C                    -1.45177   0.66823   1.06386 
 C                    -2.56332   0.02503   0.29898 
 C                    -3.9155    0.18992   0.32055 
 N                    -4.52123  -0.63339  -0.61352 
 C                    -3.53362  -1.2782   -1.18624 
 N                    -2.33141  -0.91703  -0.67339 
 C                     2.79836  -0.44774  -0.00578 
 C                     3.07488  -1.94092  -0.00476 
 N                     4.52098  -2.16624   0.07919 
 H                     1.54257   1.7551    0.63533 
 H                    -0.74614   1.31578  -0.90546 
 H                    -2.34852   2.88034  -0.11888 
 H                    -0.87898  -0.09287   1.5902 
 H                    -1.88211   1.31584   1.82798 
 H                    -4.49613   0.84975   0.94934 
 H                    -3.61864  -2.01285  -1.96748 
 H                    -1.41483  -1.25013  -0.93327 
 H                     3.33808   0.01406  -0.83728 
 H                     3.1737    0.01382   0.91119 
 H                     2.7014   -2.35938  -0.94072 
 H                     2.51041  -2.41337   0.80872 
 H                     4.72481  -3.15255  -0.02997 
 H                     4.85582  -1.91595   1.00272 
 

 GradGradGradGradGradGradGradGradGradGradGradGradGradGradGradGradGradGrad
 Berny optimization.
 Initialization pass.
                           ----------------------------
                           !    Initial Parameters    !
                           ! (Angstroms and Degrees)  !
 --------------------------                            --------------------------
 ! Name  Definition              Value          Derivative Info.                !
 --------------------------------------------------------------------------------
 ! R1    R(1,2)                  1.2329         calculate D2E/DX2 analytically  !
 ! R2    R(2,3)                  1.3506         calculate D2E/DX2 analytically  !
 ! R3    R(2,14)                 1.5148         calculate D2E/DX2 analytically  !
 ! R4    R(3,4)                  1.4468         calculate D2E/DX2 analytically  !
 ! R5    R(3,17)                 1.0088         calculate D2E/DX2 analytically  !
 ! R6    R(4,5)                  1.5221         calculate D2E/DX2 analytically  !
 ! R7    R(4,8)                  1.5605         calculate D2E/DX2 analytically  !
 ! R8    R(4,18)                 1.0962         calculate D2E/DX2 analytically  !
 ! R9    R(5,6)                  1.3486         calculate D2E/DX2 analytically  !
 ! R10   R(5,7)                  1.1987         calculate D2E/DX2 analytically  !
 ! R11   R(6,19)                 0.9645         calculate D2E/DX2 analytically  !
 ! R12   R(8,9)                  1.4948         calculate D2E/DX2 analytically  !
 ! R13   R(8,20)                 1.0883         calculate D2E/DX2 analytically  !
 ! R14   R(8,21)                 1.0902         calculate D2E/DX2 analytically  !
 ! R15   R(9,10)                 1.3624         calculate D2E/DX2 analytically  !
 ! R16   R(9,13)                 1.3736         calculate D2E/DX2 analytically  !
 ! R17   R(10,11)                1.3847         calculate D2E/DX2 analytically  !
 ! R18   R(10,22)                1.0807         calculate D2E/DX2 analytically  !
 ! R19   R(11,12)                1.3112         calculate D2E/DX2 analytically  !
 ! R20   R(12,13)                1.356          calculate D2E/DX2 analytically  !
 ! R21   R(12,23)                1.0758         calculate D2E/DX2 analytically  !
 ! R22   R(13,24)                1.0093         calculate D2E/DX2 analytically  !
 ! R23   R(14,15)                1.5186         calculate D2E/DX2 analytically  !
 ! R24   R(14,25)                1.0936         calculate D2E/DX2 analytically  !
 ! R25   R(14,26)                1.093          calculate D2E/DX2 analytically  !
 ! R26   R(15,16)                1.466          calculate D2E/DX2 analytically  !
 ! R27   R(15,27)                1.0912         calculate D2E/DX2 analytically  !
 ! R28   R(15,28)                1.0971         calculate D2E/DX2 analytically  !
 ! R29   R(16,29)                1.0131         calculate D2E/DX2 analytically  !
 ! R30   R(16,30)                1.0137         calculate D2E/DX2 analytically  !
 ! A1    A(1,2,3)              120.8944         calculate D2E/DX2 analytically  !
 ! A2    A(1,2,14)             122.7596         calculate D2E/DX2 analytically  !
 ! A3    A(3,2,14)             116.3378         calculate D2E/DX2 analytically  !
 ! A4    A(2,3,4)              120.6145         calculate D2E/DX2 analytically  !
 ! A5    A(2,3,17)             122.1749         calculate D2E/DX2 analytically  !
 ! A6    A(4,3,17)             115.9169         calculate D2E/DX2 analytically  !
 ! A7    A(3,4,5)              107.1887         calculate D2E/DX2 analytically  !
 ! A8    A(3,4,8)              112.0772         calculate D2E/DX2 analytically  !
 ! A9    A(3,4,18)             108.2266         calculate D2E/DX2 analytically  !
 ! A10   A(5,4,8)              112.1015         calculate D2E/DX2 analytically  !
 ! A11   A(5,4,18)             107.251          calculate D2E/DX2 analytically  !
 ! A12   A(8,4,18)             109.7931         calculate D2E/DX2 analytically  !
 ! A13   A(4,5,6)              114.9635         calculate D2E/DX2 analytically  !
 ! A14   A(4,5,7)              123.7259         calculate D2E/DX2 analytically  !
 ! A15   A(6,5,7)              121.3096         calculate D2E/DX2 analytically  !
 ! A16   A(5,6,19)             109.73           calculate D2E/DX2 analytically  !
 ! A17   A(4,8,9)              112.6404         calculate D2E/DX2 analytically  !
 ! A18   A(4,8,20)             108.1405         calculate D2E/DX2 analytically  !
 ! A19   A(4,8,21)             110.9046         calculate D2E/DX2 analytically  !
 ! A20   A(9,8,20)             109.7506         calculate D2E/DX2 analytically  !
 ! A21   A(9,8,21)             108.7075         calculate D2E/DX2 analytically  !
 ! A22   A(20,8,21)            106.5126         calculate D2E/DX2 analytically  !
 ! A23   A(8,9,10)             132.6785         calculate D2E/DX2 analytically  !
 ! A24   A(8,9,13)             122.128          calculate D2E/DX2 analytically  !
 ! A25   A(10,9,13)            105.1765         calculate D2E/DX2 analytically  !
 ! A26   A(9,10,11)            110.5815         calculate D2E/DX2 analytically  !
 ! A27   A(9,10,22)            128.0522         calculate D2E/DX2 analytically  !
 ! A28   A(11,10,22)           121.3662         calculate D2E/DX2 analytically  !
 ! A29   A(10,11,12)           104.9255         calculate D2E/DX2 analytically  !
 ! A30   A(11,12,13)           111.8153         calculate D2E/DX2 analytically  !
 ! A31   A(11,12,23)           126.4071         calculate D2E/DX2 analytically  !
 ! A32   A(13,12,23)           121.7774         calculate D2E/DX2 analytically  !
 ! A33   A(9,13,12)            107.5007         calculate D2E/DX2 analytically  !
 ! A34   A(9,13,24)            124.192          calculate D2E/DX2 analytically  !
 ! A35   A(12,13,24)           128.3064         calculate D2E/DX2 analytically  !
 ! A36   A(2,14,15)            112.0458         calculate D2E/DX2 analytically  !
 ! A37   A(2,14,25)            108.3555         calculate D2E/DX2 analytically  !
 ! A38   A(2,14,26)            109.7767         calculate D2E/DX2 analytically  !
 ! A39   A(15,14,25)           109.0179         calculate D2E/DX2 analytically  !
 ! A40   A(15,14,26)           110.6169         calculate D2E/DX2 analytically  !
 ! A41   A(25,14,26)           106.8616         calculate D2E/DX2 analytically  !
 ! A42   A(14,15,16)           109.3172         calculate D2E/DX2 analytically  !
 ! A43   A(14,15,27)           108.3115         calculate D2E/DX2 analytically  !
 ! A44   A(14,15,28)           109.2843         calculate D2E/DX2 analytically  !
 ! A45   A(16,15,27)           109.1365         calculate D2E/DX2 analytically  !
 ! A46   A(16,15,28)           113.5091         calculate D2E/DX2 analytically  !
 ! A47   A(27,15,28)           107.144          calculate D2E/DX2 analytically  !
 ! A48   A(15,16,29)           109.9962         calculate D2E/DX2 analytically  !
 ! A49   A(15,16,30)           109.8801         calculate D2E/DX2 analytically  !
 ! A50   A(29,16,30)           105.7886         calculate D2E/DX2 analytically  !
 ! D1    D(1,2,3,4)             -2.7082         calculate D2E/DX2 analytically  !
 ! D2    D(1,2,3,17)          -169.1854         calculate D2E/DX2 analytically  !
 ! D3    D(14,2,3,4)           176.2764         calculate D2E/DX2 analytically  !
 ! D4    D(14,2,3,17)            9.7993         calculate D2E/DX2 analytically  !
 ! D5    D(1,2,14,15)          -25.8181         calculate D2E/DX2 analytically  !
 ! D6    D(1,2,14,25)           94.4984         calculate D2E/DX2 analytically  !
 ! D7    D(1,2,14,26)         -149.1379         calculate D2E/DX2 analytically  !
 ! D8    D(3,2,14,15)          155.218          calculate D2E/DX2 analytically  !
 ! D9    D(3,2,14,25)          -84.4654         calculate D2E/DX2 analytically  !
 ! D10   D(3,2,14,26)           31.8982         calculate D2E/DX2 analytically  !
 ! D11   D(2,3,4,5)           -163.4554         calculate D2E/DX2 analytically  !
 ! D12   D(2,3,4,8)             73.1457         calculate D2E/DX2 analytically  !
 ! D13   D(2,3,4,18)           -48.0713         calculate D2E/DX2 analytically  !
 ! D14   D(17,3,4,5)             3.8324         calculate D2E/DX2 analytically  !
 ! D15   D(17,3,4,8)          -119.5665         calculate D2E/DX2 analytically  !
 ! D16   D(17,3,4,18)          119.2165         calculate D2E/DX2 analytically  !
 ! D17   D(3,4,5,6)            175.8405         calculate D2E/DX2 analytically  !
 ! D18   D(3,4,5,7)             -4.5076         calculate D2E/DX2 analytically  !
 ! D19   D(8,4,5,6)            -60.7756         calculate D2E/DX2 analytically  !
 ! D20   D(8,4,5,7)            118.8764         calculate D2E/DX2 analytically  !
 ! D21   D(18,4,5,6)            59.8082         calculate D2E/DX2 analytically  !
 ! D22   D(18,4,5,7)          -120.5399         calculate D2E/DX2 analytically  !
 ! D23   D(3,4,8,9)           -125.5927         calculate D2E/DX2 analytically  !
 ! D24   D(3,4,8,20)            -4.1299         calculate D2E/DX2 analytically  !
 ! D25   D(3,4,8,21)           112.3131         calculate D2E/DX2 analytically  !
 ! D26   D(5,4,8,9)            113.8167         calculate D2E/DX2 analytically  !
 ! D27   D(5,4,8,20)          -124.7205         calculate D2E/DX2 analytically  !
 ! D28   D(5,4,8,21)            -8.2775         calculate D2E/DX2 analytically  !
 ! D29   D(18,4,8,9)            -5.2823         calculate D2E/DX2 analytically  !
 ! D30   D(18,4,8,20)          116.1805         calculate D2E/DX2 analytically  !
 ! D31   D(18,4,8,21)         -127.3765         calculate D2E/DX2 analytically  !
 ! D32   D(4,5,6,19)            -2.5315         calculate D2E/DX2 analytically  !
 ! D33   D(7,5,6,19)           177.8073         calculate D2E/DX2 analytically  !
 ! D34   D(4,8,9,10)          -117.1018         calculate D2E/DX2 analytically  !
 ! D35   D(4,8,9,13)            61.1534         calculate D2E/DX2 analytically  !
 ! D36   D(20,8,9,10)          122.3553         calculate D2E/DX2 analytically  !
 ! D37   D(20,8,9,13)          -59.3895         calculate D2E/DX2 analytically  !
 ! D38   D(21,8,9,10)            6.2246         calculate D2E/DX2 analytically  !
 ! D39   D(21,8,9,13)         -175.5202         calculate D2E/DX2 analytically  !
 ! D40   D(8,9,10,11)          178.6908         calculate D2E/DX2 analytically  !
 ! D41   D(8,9,10,22)           -1.3063         calculate D2E/DX2 analytically  !
 ! D42   D(13,9,10,11)           0.2218         calculate D2E/DX2 analytically  !
 ! D43   D(13,9,10,22)        -179.7754         calculate D2E/DX2 analytically  !
 ! D44   D(8,9,13,12)         -178.8602         calculate D2E/DX2 analytically  !
 ! D45   D(8,9,13,24)            0.8295         calculate D2E/DX2 analytically  !
 ! D46   D(10,9,13,12)          -0.1892         calculate D2E/DX2 analytically  !
 ! D47   D(10,9,13,24)         179.5005         calculate D2E/DX2 analytically  !
 ! D48   D(9,10,11,12)          -0.167          calculate D2E/DX2 analytically  !
 ! D49   D(22,10,11,12)        179.8303         calculate D2E/DX2 analytically  !
 ! D50   D(10,11,12,13)          0.0422         calculate D2E/DX2 analytically  !
 ! D51   D(10,11,12,23)        179.8749         calculate D2E/DX2 analytically  !
 ! D52   D(11,12,13,9)           0.094          calculate D2E/DX2 analytically  !
 ! D53   D(11,12,13,24)       -179.5789         calculate D2E/DX2 analytically  !
 ! D54   D(23,12,13,9)        -179.7476         calculate D2E/DX2 analytically  !
 ! D55   D(23,12,13,24)          0.5795         calculate D2E/DX2 analytically  !
 ! D56   D(2,14,15,16)         176.9097         calculate D2E/DX2 analytically  !
 ! D57   D(2,14,15,27)          58.0994         calculate D2E/DX2 analytically  !
 ! D58   D(2,14,15,28)         -58.3077         calculate D2E/DX2 analytically  !
 ! D59   D(25,14,15,16)         56.9793         calculate D2E/DX2 analytically  !
 ! D60   D(25,14,15,27)        -61.831          calculate D2E/DX2 analytically  !
 ! D61   D(25,14,15,28)       -178.2382         calculate D2E/DX2 analytically  !
 ! D62   D(26,14,15,16)        -60.2449         calculate D2E/DX2 analytically  !
 ! D63   D(26,14,15,27)       -179.0552         calculate D2E/DX2 analytically  !
 ! D64   D(26,14,15,28)         64.5376         calculate D2E/DX2 analytically  !
 ! D65   D(14,15,16,29)       -173.3102         calculate D2E/DX2 analytically  !
 ! D66   D(14,15,16,30)         70.6192         calculate D2E/DX2 analytically  !
 ! D67   D(27,15,16,29)        -55.0138         calculate D2E/DX2 analytically  !
 ! D68   D(27,15,16,30)       -171.0844         calculate D2E/DX2 analytically  !
 ! D69   D(28,15,16,29)         64.4059         calculate D2E/DX2 analytically  !
 ! D70   D(28,15,16,30)        -51.6647         calculate D2E/DX2 analytically  !
 --------------------------------------------------------------------------------
 Trust Radius=3.00D-01 FncErr=1.00D-07 GrdErr=1.00D-06
 Number of steps in this run=    160 maximum allowed number of steps=    180.
 GradGradGradGradGradGradGradGradGradGradGradGradGradGradGradGradGradGrad

                          Input orientation:                          
 ---------------------------------------------------------------------
 Center     Atomic      Atomic             Coordinates (Angstroms)
 Number     Number       Type             X           Y           Z
 ---------------------------------------------------------------------
      1          8           0        0.539746   -0.913344   -0.725215
      2          6           0        1.323288   -0.142770   -0.166465
      3          7           0        0.900219    1.043898    0.320439
      4          6           0       -0.473021    1.464623    0.145735
      5          6           0       -0.522928    2.961453    0.417511
      6          8           0       -1.724833    3.537480    0.211911
      7          8           0        0.418621    3.601539    0.792635
      8          6           0       -1.451768    0.668235    1.063860
      9          6           0       -2.563316    0.025027    0.298978
     10          6           0       -3.915500    0.189923    0.320554
     11          7           0       -4.521234   -0.633394   -0.613522
     12          6           0       -3.533620   -1.278201   -1.186237
     13          7           0       -2.331408   -0.917032   -0.673387
     14          6           0        2.798357   -0.447744   -0.005781
     15          6           0        3.074876   -1.940922   -0.004758
     16          7           0        4.520976   -2.166242    0.079192
     17          1           0        1.542571    1.755100    0.635326
     18          1           0       -0.746143    1.315785   -0.905462
     19          1           0       -2.348524    2.880339   -0.118880
     20          1           0       -0.878975   -0.092871    1.590195
     21          1           0       -1.882115    1.315841    1.827977
     22          1           0       -4.496132    0.849747    0.949339
     23          1           0       -3.618644   -2.012851   -1.967478
     24          1           0       -1.414834   -1.250131   -0.933270
     25          1           0        3.338079    0.014060   -0.837281
     26          1           0        3.173701    0.013820    0.911188
     27          1           0        2.701397   -2.359378   -0.940718
     28          1           0        2.510410   -2.413374    0.808723
     29          1           0        4.724810   -3.152553   -0.029971
     30          1           0        4.855820   -1.915950    1.002723
 ---------------------------------------------------------------------
                    Distance matrix (angstroms):
                    1          2          3          4          5
     1  O    0.000000
     2  C    1.232852   0.000000
     3  N    2.248139   1.350645   0.000000
     4  C    2.727449   2.430618   1.446831   0.000000
     5  C    4.177218   3.658653   2.389935   1.522121   0.000000
     6  O    5.080980   4.793584   3.622240   2.422426   1.348574
     7  O    4.764736   3.969652   2.645077   2.404146   1.198726
     8  C    3.109391   3.142032   2.495123   1.560491   2.557217
     9  C    3.399780   3.917969   3.610350   2.542685   3.577684
    10  C    4.707446   5.271885   4.890851   3.675062   4.381817
    11  N    5.069947   5.882092   5.751325   4.622355   5.474705
    12  C    4.115577   5.091040   5.226963   4.320242   5.441593
    13  N    2.871624   3.770047   3.908496   3.129990   4.416254
    14  C    2.415717   1.514812   2.436050   3.792363   4.778361
    15  C    2.828756   2.515465   3.707295   4.920158   6.095555
    16  N    4.250531   3.792096   4.844903   6.174756   7.200603
    17  H    3.158690   2.071922   1.008751   2.094442   2.401878
    18  H    2.579732   2.637432   2.070571   1.096250   2.123277
    19  H    4.806431   4.756433   3.757638   2.364695   1.904493
    20  H    2.836736   2.817500   2.463748   2.162649   3.291026
    21  H    4.165749   4.047215   3.176162   2.199459   2.558289
    22  H    5.592199   6.007974   5.436341   4.148406   4.530837
    23  H    4.477091   5.582432   5.915944   5.143290   6.325767
    24  H    1.994266   3.051484   3.491966   3.069389   4.511933
    25  H    2.950136   2.129313   2.888606   4.194632   5.016872
    26  H    3.236535   2.147063   2.564910   3.998666   4.753664
    27  H    2.609634   2.722500   4.051796   5.087268   6.368069
    28  H    2.913172   2.741513   3.844980   4.937537   6.184089
    29  H    4.797101   4.543983   5.688628   6.954613   8.069701
    30  H    4.755994   4.121886   4.987283   6.368614   7.284399
                    6          7          8          9         10
     6  O    0.000000
     7  O    2.221652   0.000000
     8  C    3.005487   3.489440   0.000000
     9  C    3.612195   4.682636   1.494757   0.000000
    10  C    4.002120   5.535936   2.617492   1.362373   0.000000
    11  N    5.088947   6.656883   3.732220   2.258233   1.384652
    12  C    5.330789   6.583920   3.631206   2.201308   2.138139
    13  N    4.581960   5.489021   2.510949   1.373590   2.173158
    14  C    6.032299   4.764168   4.522510   5.391096   6.751961
    15  C    7.286772   6.197613   5.332931   5.978831   7.315168
    16  N    8.459325   7.113762   6.684123   7.418703   8.762642
    17  H    3.745943   2.167336   3.214185   4.468175   5.686774
    18  H    2.672505   3.076505   2.189853   2.533544   3.579874
    19  H    0.964493   3.001347   2.663917   2.893708   3.144337
    20  H    3.974241   3.996063   1.088302   2.125593   3.303399
    21  H    2.751743   3.404370   1.090168   2.113782   2.770320
    22  H    3.930369   5.634865   3.051919   2.199752   1.080681
    23  H    6.256391   7.445744   4.590488   3.225444   3.189895
    24  H    4.932418   5.466169   2.769480   2.112693   3.146293
    25  H    6.256866   4.904067   5.194701   6.009797   7.347511
    26  H    6.074603   4.525069   4.674027   5.769600   7.115942
    27  H    7.462774   6.614236   5.516662   5.910959   7.202296
    28  H    7.328447   6.368282   5.025959   5.652286   6.950381
    29  H    9.295856   8.052186   7.344726   7.957512   9.270921
    30  H    8.583139   7.083470   6.816701   7.701053   9.046331
                   11         12         13         14         15
    11  N    0.000000
    12  C    1.311168   0.000000
    13  N    2.208930   1.356013   0.000000
    14  C    7.347123   6.494387   5.194267   0.000000
    15  C    7.731824   6.745910   5.542862   1.518567   0.000000
    16  N    9.197338   8.201612   7.005859   2.434723   1.465954
    17  H    6.635831   6.187626   4.884744   2.615441   4.051943
    18  H    4.258619   3.818065   2.748161   4.059918   5.100745
    19  H    4.160728   4.453892   3.837681   6.130196   7.257469
    20  H    4.291221   4.020040   2.812935   4.024406   4.646731
    21  H    4.089668   4.306043   3.382958   5.327261   6.207832
    22  H    2.154732   3.164692   3.231219   7.470294   8.125164
    23  H    2.133253   1.075768   2.128960   6.890262   6.975719
    24  H    3.183131   2.134018   1.009258   4.388056   4.636467
    25  H    7.889110   7.000853   5.747771   1.093597   2.141104
    26  H    7.871190   7.145394   5.803756   1.093049   2.160958
    27  H    7.433201   6.332824   5.242228   2.130224   1.091152
    28  H    7.391558   6.465198   5.280047   2.147099   1.097079
    29  H    9.600834   8.547035   7.429788   3.320814   2.047185
    30  H    9.601371   8.693731   7.447377   2.721372   2.046314
                   16         17         18         19         20
    16  N    0.000000
    17  H    4.955512   0.000000
    18  H    6.390352   2.793786   0.000000
    19  H    8.526268   4.120147   2.373639   0.000000
    20  H    5.978417   3.192281   2.868843   3.731018   0.000000
    21  H    7.495513   3.652922   2.960088   2.540757   1.745651
    22  H    9.547857   6.114262   4.209500   3.142708   3.792499
    23  H    8.394390   6.900013   4.523157   5.382734   4.883559
    24  H    6.090827   4.498683   2.651762   4.312283   2.827414
    25  H    2.644406   2.902351   4.287191   6.408518   4.866993
    26  H    2.694446   2.401820   4.512262   6.306579   4.110549
    27  H    2.094847   4.555845   5.039207   7.323371   4.935751
    28  H    2.153059   4.282867   5.239294   7.245211   4.181312
    29  H    1.013052   5.886792   7.117855   9.297083   6.587033
    30  H    1.013744   4.958750   6.742942   8.727253   6.046206
                   21         22         23         24         25
    21  H    0.000000
    22  H    2.796843   0.000000
    23  H    5.338652   4.179985   0.000000
    24  H    3.798295   4.177092   2.551099   0.000000
    25  H    6.004053   8.078690   7.333601   4.919103   0.000000
    26  H    5.300663   7.715345   7.650494   5.104336   1.756179
    27  H    6.494728   8.104025   6.412272   4.263080   2.459526
    28  H    5.851512   7.730418   6.740402   4.449182   3.047425
    29  H    8.189626  10.099664   8.640953   6.490793   3.549959
    30  H    7.518329   9.752483   8.980424   6.596399   3.068239
                   26         27         28         29         30
    26  H    0.000000
    27  H    3.047079   0.000000
    28  H    2.518278   1.760663   0.000000
    29  H    3.649334   2.356435   2.480597   0.000000
    30  H    2.561623   2.935153   2.405413   1.616418   0.000000
 Symmetry turned off by external request.
 Stoichiometry    C9H14N4O3
 Framework group  C1[X(C9H14N4O3)]
 Deg. of freedom    84
 Full point group                 C1      NOp   1
 Rotational constants (GHZ):      0.6612253      0.3164135      0.2232211
 Standard basis: 6-31G(d,p) (6D, 7F)
   310 basis functions,   546 primitive gaussians,   310 cartesian basis functions
    60 alpha electrons       60 beta electrons
       nuclear repulsion energy      1115.7720187121 Hartrees.
 NAtoms=   30 NActive=   30 NUniq=   30 SFac= 1.00D+00 NAtFMM=   60 NAOKFM=F Big=F
 Integral buffers will be    131072 words long.
 Raffenetti 2 integral format.
 Two-electron integral symmetry is turned off.
 One-electron integrals computed using PRISM.
 NBasis=   310 RedAO= T EigKep=  1.21D-03  NBF=   310
 NBsUse=   310 1.00D-06 EigRej= -1.00D+00 NBFU=   310
 ExpMin= 1.61D-01 ExpMax= 5.48D+03 ExpMxC= 8.25D+02 IAcc=3 IRadAn=         5 AccDes= 0.00D+00
 Harris functional with IExCor=  402 and IRadAn=       5 diagonalized for initial guess.
 HarFok:  IExCor=  402 AccDes= 0.00D+00 IRadAn=         5 IDoV= 1 UseB2=F ITyADJ=14
 ICtDFT=  3500011 ScaDFX=  1.000000  1.000000  1.000000  1.000000
 FoFCou: FMM=F IPFlag=           0 FMFlag=      100000 FMFlg1=           0
         NFxFlg=           0 DoJE=T BraDBF=F KetDBF=T FulRan=T
         wScrn=  0.000000 ICntrl=     500 IOpCl=  0 I1Cent=   200000004 NGrid=           0
         NMat0=    1 NMatS0=      1 NMatT0=    0 NMatD0=    1 NMtDS0=    0 NMtDT0=    0
 Symmetry not used in FoFCou.
 Requested convergence on RMS density matrix=1.00D-08 within 128 cycles.
 Requested convergence on MAX density matrix=1.00D-06.
 Requested convergence on             energy=1.00D-06.
 No special actions if energy rises.
 Integral accuracy reduced to 1.0D-05 until final iterations.
 Initial convergence to 1.0D-05 achieved.  Increase integral accuracy.
 SCF Done:  E(RB3LYP) =  -796.110854631     A.U. after   14 cycles
            NFock= 14  Conv=0.56D-08     -V/T= 2.0088
 DoSCS=F DFT=T ScalE2(SS,OS)=  1.000000  1.000000
 Range of M.O.s used for correlation:     1   310
 NBasis=   310 NAE=    60 NBE=    60 NFC=     0 NFV=     0
 NROrb=    310 NOA=    60 NOB=    60 NVA=   250 NVB=   250
 Symmetrizing basis deriv contribution to polar:
 IMax=3 JMax=2 DiffMx= 0.00D+00
 G2DrvN: will do    31 centers at a time, making    1 passes.
 Calling FoFCou, ICntrl=  3107 FMM=F I1Cent=   0 AccDes= 0.00D+00.
 End of G2Drv F.D. properties file   721 does not exist.
 End of G2Drv F.D. properties file   722 does not exist.
 End of G2Drv F.D. properties file   788 does not exist.
          IDoAtm=111111111111111111111111111111
          Differentiating once with respect to nuclear coordinates.
          There are    93 degrees of freedom in the 1st order CPHF.  IDoFFX=6 NUNeed=     0.
     87 vectors produced by pass  0 Test12= 1.61D-14 1.08D-09 XBig12= 1.80D-01 1.03D-01.
 AX will form    87 AO Fock derivatives at one time.
     87 vectors produced by pass  1 Test12= 1.61D-14 1.08D-09 XBig12= 4.74D-02 6.25D-02.
     87 vectors produced by pass  2 Test12= 1.61D-14 1.08D-09 XBig12= 3.44D-04 2.37D-03.
     87 vectors produced by pass  3 Test12= 1.61D-14 1.08D-09 XBig12= 1.37D-06 1.19D-04.
     87 vectors produced by pass  4 Test12= 1.61D-14 1.08D-09 XBig12= 2.30D-09 3.75D-06.
     69 vectors produced by pass  5 Test12= 1.61D-14 1.08D-09 XBig12= 2.04D-12 1.39D-07.
     16 vectors produced by pass  6 Test12= 1.61D-14 1.08D-09 XBig12= 1.82D-15 4.60D-09.
 InvSVY:  IOpt=1 It=  1 EMax= 3.33D-16
 Solved reduced A of dimension   520 with    93 vectors.
 End of Minotr F.D. properties file   721 does not exist.
 End of Minotr F.D. properties file   722 does not exist.
 End of Minotr F.D. properties file   788 does not exist.

 **********************************************************************

            Population analysis using the SCF density.

 **********************************************************************

 Alpha  occ. eigenvalues --  -19.21652 -19.16191 -19.13850 -14.37874 -14.37769
 Alpha  occ. eigenvalues --  -14.32105 -14.30608 -10.34254 -10.30833 -10.26453
 Alpha  occ. eigenvalues --  -10.23363 -10.22219 -10.21923 -10.21833 -10.20599
 Alpha  occ. eigenvalues --  -10.19597  -1.12744  -1.05925  -1.04827  -1.01179
 Alpha  occ. eigenvalues --   -0.94855  -0.89129  -0.86488  -0.81575  -0.77433
 Alpha  occ. eigenvalues --   -0.74162  -0.68624  -0.64769  -0.62603  -0.60863
 Alpha  occ. eigenvalues --   -0.60365  -0.58877  -0.56171  -0.54739  -0.51148
 Alpha  occ. eigenvalues --   -0.50173  -0.49728  -0.48383  -0.47196  -0.46106
 Alpha  occ. eigenvalues --   -0.45557  -0.43800  -0.43610  -0.42463  -0.41779
 Alpha  occ. eigenvalues --   -0.40623  -0.40379  -0.40085  -0.39563  -0.39357
 Alpha  occ. eigenvalues --   -0.36731  -0.35825  -0.34058  -0.30247  -0.28330
 Alpha  occ. eigenvalues --   -0.27742  -0.27272  -0.26005  -0.24500  -0.22802
 Alpha virt. eigenvalues --   -0.01310   0.00578   0.02539   0.05971   0.06917
 Alpha virt. eigenvalues --    0.07140   0.08045   0.10185   0.10465   0.12190
 Alpha virt. eigenvalues --    0.13223   0.13401   0.14428   0.15458   0.16237
 Alpha virt. eigenvalues --    0.16745   0.17707   0.19212   0.19818   0.20674
 Alpha virt. eigenvalues --    0.22021   0.22320   0.23033   0.24212   0.24806
 Alpha virt. eigenvalues --    0.27564   0.28342   0.30998   0.33101   0.33511
 Alpha virt. eigenvalues --    0.37243   0.38283   0.41420   0.45001   0.50409
 Alpha virt. eigenvalues --    0.50599   0.51788   0.52115   0.53557   0.54126
 Alpha virt. eigenvalues --    0.54364   0.55285   0.55734   0.57712   0.58404
 Alpha virt. eigenvalues --    0.60150   0.61423   0.62359   0.62792   0.63393
 Alpha virt. eigenvalues --    0.64541   0.65518   0.66250   0.67520   0.68431
 Alpha virt. eigenvalues --    0.69290   0.71085   0.71355   0.72020   0.73857
 Alpha virt. eigenvalues --    0.73973   0.75338   0.77031   0.78263   0.79141
 Alpha virt. eigenvalues --    0.79603   0.80045   0.81639   0.82717   0.82940
 Alpha virt. eigenvalues --    0.83536   0.83982   0.85491   0.85814   0.86561
 Alpha virt. eigenvalues --    0.86969   0.87525   0.88976   0.89672   0.90277
 Alpha virt. eigenvalues --    0.91762   0.92826   0.94321   0.95403   0.96047
 Alpha virt. eigenvalues --    0.98782   1.00050   1.01555   1.02107   1.04551
 Alpha virt. eigenvalues --    1.05390   1.06796   1.08332   1.09664   1.10857
 Alpha virt. eigenvalues --    1.16895   1.17977   1.21757   1.23563   1.24493
 Alpha virt. eigenvalues --    1.28957   1.30860   1.32031   1.32863   1.35139
 Alpha virt. eigenvalues --    1.35985   1.36489   1.36959   1.38318   1.40770
 Alpha virt. eigenvalues --    1.42394   1.45030   1.45508   1.46787   1.49392
 Alpha virt. eigenvalues --    1.51061   1.52495   1.54212   1.58339   1.60404
 Alpha virt. eigenvalues --    1.63322   1.65113   1.66799   1.68514   1.71050
 Alpha virt. eigenvalues --    1.72041   1.72609   1.73484   1.74615   1.75226
 Alpha virt. eigenvalues --    1.77250   1.78741   1.80004   1.82174   1.82444
 Alpha virt. eigenvalues --    1.84724   1.85082   1.86789   1.88357   1.89505
 Alpha virt. eigenvalues --    1.90397   1.90757   1.92929   1.93736   1.95746
 Alpha virt. eigenvalues --    1.96983   1.98503   2.01772   2.04611   2.05874
 Alpha virt. eigenvalues --    2.06826   2.07764   2.09268   2.10370   2.11223
 Alpha virt. eigenvalues --    2.12322   2.14177   2.14933   2.16034   2.19610
 Alpha virt. eigenvalues --    2.21029   2.22996   2.24703   2.25191   2.26680
 Alpha virt. eigenvalues --    2.27673   2.28355   2.29707   2.31379   2.32518
 Alpha virt. eigenvalues --    2.33960   2.35516   2.37099   2.38806   2.41243
 Alpha virt. eigenvalues --    2.43374   2.43998   2.45744   2.45892   2.47739
 Alpha virt. eigenvalues --    2.49288   2.49933   2.53542   2.53884   2.56354
 Alpha virt. eigenvalues --    2.56855   2.57804   2.59582   2.59895   2.61228
 Alpha virt. eigenvalues --    2.61510   2.62472   2.64040   2.65812   2.66665
 Alpha virt. eigenvalues --    2.69795   2.71990   2.72495   2.74762   2.76549
 Alpha virt. eigenvalues --    2.78017   2.78885   2.80958   2.82802   2.83009
 Alpha virt. eigenvalues --    2.86222   2.86723   2.89460   2.91185   2.93407
 Alpha virt. eigenvalues --    2.94655   2.96013   2.98268   2.99202   3.02002
 Alpha virt. eigenvalues --    3.04817   3.06872   3.08043   3.17879   3.24884
 Alpha virt. eigenvalues --    3.25999   3.29046   3.30052   3.30962   3.32631
 Alpha virt. eigenvalues --    3.36004   3.39133   3.45652   3.47587   3.50825
 Alpha virt. eigenvalues --    3.54526   3.55862   3.57073   3.70728   3.98279
 Alpha virt. eigenvalues --    3.99817   4.02507   4.11842   4.13076   4.16087
 Alpha virt. eigenvalues --    4.22933   4.25602   4.29790   4.41384   4.42911
 Alpha virt. eigenvalues --    4.49911   4.50512   4.66271   4.72919   4.76587
          Condensed to atoms (all electrons):
               1          2          3          4          5          6
     1  O    8.152073   0.523865  -0.100185   0.008104   0.000645   0.000000
     2  C    0.523865   4.392385   0.277252  -0.021754   0.005046  -0.000050
     3  N   -0.100185   0.277252   7.062860   0.201608  -0.022588   0.002681
     4  C    0.008104  -0.021754   0.201608   5.235477   0.282246  -0.099737
     5  C    0.000645   0.005046  -0.022588   0.282246   4.363566   0.270748
     6  O    0.000000  -0.000050   0.002681  -0.099737   0.270748   8.093262
     7  O   -0.000006   0.000677  -0.013293  -0.089728   0.591331  -0.073964
     8  C    0.003752  -0.004542  -0.049223   0.285215  -0.022813   0.003670
     9  C   -0.003796  -0.000061   0.002926  -0.032222  -0.000963  -0.002236
    10  C    0.000040   0.000003  -0.000056  -0.000353  -0.000098  -0.000533
    11  N   -0.000009   0.000000   0.000001  -0.000075  -0.000001   0.000001
    12  C    0.000409   0.000017  -0.000013   0.000244   0.000005   0.000005
    13  N   -0.014056   0.000922   0.000245  -0.004379   0.000185   0.000024
    14  C   -0.079537   0.307642  -0.106556   0.007088  -0.000096   0.000000
    15  C    0.001049  -0.022982   0.003242  -0.000141   0.000000   0.000000
    16  N    0.000239   0.003625  -0.000040   0.000000   0.000000   0.000000
    17  H    0.002802  -0.019226   0.331779  -0.050171  -0.003841   0.000830
    18  H    0.007890  -0.001942  -0.048115   0.385881  -0.028832   0.000824
    19  H    0.000003  -0.000006   0.000385  -0.000347  -0.024517   0.275698
    20  H    0.001098   0.002422  -0.005653  -0.044755   0.001357   0.000131
    21  H    0.000129   0.000209   0.002936  -0.045738  -0.003742   0.003042
    22  H    0.000000   0.000000   0.000000  -0.000030  -0.000008  -0.000023
    23  H   -0.000009   0.000001   0.000000   0.000000   0.000000   0.000000
    24  H    0.040812  -0.002695  -0.000351   0.000500   0.000026   0.000000
    25  H   -0.000370  -0.016655  -0.001605  -0.000279   0.000003   0.000000
    26  H    0.002525  -0.032520   0.002475   0.000254  -0.000034   0.000000
    27  H    0.009344  -0.006088   0.000386   0.000001   0.000000   0.000000
    28  H    0.000866   0.005578   0.000032  -0.000004   0.000000   0.000000
    29  H    0.000007  -0.000198   0.000002   0.000000   0.000000   0.000000
    30  H    0.000000  -0.000255   0.000000   0.000000   0.000000   0.000000
               7          8          9         10         11         12
     1  O   -0.000006   0.003752  -0.003796   0.000040  -0.000009   0.000409
     2  C    0.000677  -0.004542  -0.000061   0.000003   0.000000   0.000017
     3  N   -0.013293  -0.049223   0.002926  -0.000056   0.000001  -0.000013
     4  C   -0.089728   0.285215  -0.032222  -0.000353  -0.000075   0.000244
     5  C    0.591331  -0.022813  -0.000963  -0.000098  -0.000001   0.000005
     6  O   -0.073964   0.003670  -0.002236  -0.000533   0.000001   0.000005
     7  O    7.991453   0.000434   0.000041   0.000000   0.000000   0.000000
     8  C    0.000434   5.155083   0.313807  -0.056469   0.006983   0.006705
     9  C    0.000041   0.313807   4.803694   0.565722  -0.048973  -0.093658
    10  C    0.000000  -0.056469   0.565722   4.888038   0.425050  -0.121526
    11  N    0.000000   0.006983  -0.048973   0.425050   6.692887   0.534630
    12  C    0.000000   0.006705  -0.093658  -0.121526   0.534630   4.670086
    13  N   -0.000001  -0.070838   0.367373  -0.075812  -0.087463   0.362429
    14  C   -0.000073  -0.000260  -0.000002   0.000000   0.000000   0.000001
    15  C    0.000000   0.000027  -0.000001   0.000000   0.000000   0.000000
    16  N    0.000000   0.000000   0.000000   0.000000   0.000000   0.000000
    17  H    0.034142   0.003328  -0.000126   0.000002   0.000000   0.000000
    18  H    0.000936  -0.061741   0.000842   0.000347  -0.000125  -0.000059
    19  H    0.004233  -0.001209   0.010239   0.005870  -0.000080  -0.000175
    20  H   -0.000133   0.378555  -0.025937   0.001068  -0.000154   0.000179
    21  H    0.000108   0.376912  -0.031809  -0.003753   0.000015  -0.000060
    22  H    0.000000  -0.001144  -0.060000   0.391346  -0.040488   0.007128
    23  H    0.000000  -0.000190   0.003544   0.007262  -0.038472   0.391803
    24  H    0.000000  -0.003326  -0.026934   0.008057   0.004003  -0.020193
    25  H    0.000000  -0.000008   0.000000   0.000000   0.000000   0.000000
    26  H   -0.000008  -0.000013   0.000001   0.000000   0.000000   0.000000
    27  H    0.000000   0.000000   0.000001   0.000000   0.000000   0.000000
    28  H    0.000000  -0.000008   0.000000   0.000000   0.000000   0.000000
    29  H    0.000000   0.000000   0.000000   0.000000   0.000000   0.000000
    30  H    0.000000   0.000000   0.000000   0.000000   0.000000   0.000000
              13         14         15         16         17         18
     1  O   -0.014056  -0.079537   0.001049   0.000239   0.002802   0.007890
     2  C    0.000922   0.307642  -0.022982   0.003625  -0.019226  -0.001942
     3  N    0.000245  -0.106556   0.003242  -0.000040   0.331779  -0.048115
     4  C   -0.004379   0.007088  -0.000141   0.000000  -0.050171   0.385881
     5  C    0.000185  -0.000096   0.000000   0.000000  -0.003841  -0.028832
     6  O    0.000024   0.000000   0.000000   0.000000   0.000830   0.000824
     7  O   -0.000001  -0.000073   0.000000   0.000000   0.034142   0.000936
     8  C   -0.070838  -0.000260   0.000027   0.000000   0.003328  -0.061741
     9  C    0.367373  -0.000002  -0.000001   0.000000  -0.000126   0.000842
    10  C   -0.075812   0.000000   0.000000   0.000000   0.000002   0.000347
    11  N   -0.087463   0.000000   0.000000   0.000000   0.000000  -0.000125
    12  C    0.362429   0.000001   0.000000   0.000000   0.000000  -0.000059
    13  N    6.769852  -0.000019  -0.000001   0.000000  -0.000001   0.004579
    14  C   -0.000019   5.214219   0.344934  -0.058234  -0.000857   0.000245
    15  C   -0.000001   0.344934   4.789566   0.292691  -0.000015  -0.000020
    16  N    0.000000  -0.058234   0.292691   6.775068  -0.000006   0.000000
    17  H   -0.000001  -0.000857  -0.000015  -0.000006   0.410220   0.004171
    18  H    0.004579   0.000245  -0.000020   0.000000   0.004171   0.572565
    19  H   -0.000275   0.000000   0.000000   0.000000  -0.000103   0.001106
    20  H   -0.003356  -0.000285   0.000012   0.000000   0.000210   0.002257
    21  H    0.003845   0.000009   0.000000   0.000000   0.000062   0.004338
    22  H    0.004895   0.000000   0.000000   0.000000   0.000000   0.000037
    23  H   -0.056123   0.000000   0.000000   0.000000   0.000000   0.000014
    24  H    0.316135   0.000317   0.000000   0.000000  -0.000019   0.000121
    25  H    0.000000   0.358099  -0.027556   0.006070   0.000507   0.000045
    26  H    0.000000   0.368159  -0.039021  -0.002374   0.001464   0.000000
    27  H    0.000000  -0.030944   0.389987  -0.037575  -0.000005  -0.000002
    28  H    0.000000  -0.062708   0.388582  -0.046941   0.000009   0.000002
    29  H    0.000000   0.006043  -0.033356   0.339113   0.000000   0.000000
    30  H    0.000000  -0.005082  -0.035642   0.336312   0.000001   0.000000
              19         20         21         22         23         24
     1  O    0.000003   0.001098   0.000129   0.000000  -0.000009   0.040812
     2  C   -0.000006   0.002422   0.000209   0.000000   0.000001  -0.002695
     3  N    0.000385  -0.005653   0.002936   0.000000   0.000000  -0.000351
     4  C   -0.000347  -0.044755  -0.045738  -0.000030   0.000000   0.000500
     5  C   -0.024517   0.001357  -0.003742  -0.000008   0.000000   0.000026
     6  O    0.275698   0.000131   0.003042  -0.000023   0.000000   0.000000
     7  O    0.004233  -0.000133   0.000108   0.000000   0.000000   0.000000
     8  C   -0.001209   0.378555   0.376912  -0.001144  -0.000190  -0.003326
     9  C    0.010239  -0.025937  -0.031809  -0.060000   0.003544  -0.026934
    10  C    0.005870   0.001068  -0.003753   0.391346   0.007262   0.008057
    11  N   -0.000080  -0.000154   0.000015  -0.040488  -0.038472   0.004003
    12  C   -0.000175   0.000179  -0.000060   0.007128   0.391803  -0.020193
    13  N   -0.000275  -0.003356   0.003845   0.004895  -0.056123   0.316135
    14  C    0.000000  -0.000285   0.000009   0.000000   0.000000   0.000317
    15  C    0.000000   0.000012   0.000000   0.000000   0.000000   0.000000
    16  N    0.000000   0.000000   0.000000   0.000000   0.000000   0.000000
    17  H   -0.000103   0.000210   0.000062   0.000000   0.000000  -0.000019
    18  H    0.001106   0.002257   0.004338   0.000037   0.000014   0.000121
    19  H    0.399696   0.000339  -0.000010   0.000351   0.000000  -0.000001
    20  H    0.000339   0.568958  -0.024344  -0.000033  -0.000003   0.000617
    21  H   -0.000010  -0.024344   0.581949   0.002742   0.000004  -0.000016
    22  H    0.000351  -0.000033   0.002742   0.609259  -0.000165  -0.000103
    23  H    0.000000  -0.000003   0.000004  -0.000165   0.580119   0.000014
    24  H   -0.000001   0.000617  -0.000016  -0.000103   0.000014   0.387067
    25  H    0.000000   0.000007   0.000000   0.000000   0.000000  -0.000006
    26  H    0.000000  -0.000008  -0.000002   0.000000   0.000000  -0.000008
    27  H    0.000000  -0.000001   0.000000   0.000000   0.000000  -0.000002
    28  H    0.000000   0.000050   0.000000   0.000000   0.000000  -0.000005
    29  H    0.000000   0.000000   0.000000   0.000000   0.000000   0.000000
    30  H    0.000000   0.000000   0.000000   0.000000   0.000000   0.000000
              25         26         27         28         29         30
     1  O   -0.000370   0.002525   0.009344   0.000866   0.000007   0.000000
     2  C   -0.016655  -0.032520  -0.006088   0.005578  -0.000198  -0.000255
     3  N   -0.001605   0.002475   0.000386   0.000032   0.000002   0.000000
     4  C   -0.000279   0.000254   0.000001  -0.000004   0.000000   0.000000
     5  C    0.000003  -0.000034   0.000000   0.000000   0.000000   0.000000
     6  O    0.000000   0.000000   0.000000   0.000000   0.000000   0.000000
     7  O    0.000000  -0.000008   0.000000   0.000000   0.000000   0.000000
     8  C   -0.000008  -0.000013   0.000000  -0.000008   0.000000   0.000000
     9  C    0.000000   0.000001   0.000001   0.000000   0.000000   0.000000
    10  C    0.000000   0.000000   0.000000   0.000000   0.000000   0.000000
    11  N    0.000000   0.000000   0.000000   0.000000   0.000000   0.000000
    12  C    0.000000   0.000000   0.000000   0.000000   0.000000   0.000000
    13  N    0.000000   0.000000   0.000000   0.000000   0.000000   0.000000
    14  C    0.358099   0.368159  -0.030944  -0.062708   0.006043  -0.005082
    15  C   -0.027556  -0.039021   0.389987   0.388582  -0.033356  -0.035642
    16  N    0.006070  -0.002374  -0.037575  -0.046941   0.339113   0.336312
    17  H    0.000507   0.001464  -0.000005   0.000009   0.000000   0.000001
    18  H    0.000045   0.000000  -0.000002   0.000002   0.000000   0.000000
    19  H    0.000000   0.000000   0.000000   0.000000   0.000000   0.000000
    20  H    0.000007  -0.000008  -0.000001   0.000050   0.000000   0.000000
    21  H    0.000000  -0.000002   0.000000   0.000000   0.000000   0.000000
    22  H    0.000000   0.000000   0.000000   0.000000   0.000000   0.000000
    23  H    0.000000   0.000000   0.000000   0.000000   0.000000   0.000000
    24  H   -0.000006  -0.000008  -0.000002  -0.000005   0.000000   0.000000
    25  H    0.561890  -0.032068  -0.006931   0.006704  -0.000027  -0.000851
    26  H   -0.032068   0.619769   0.005825  -0.006465  -0.000042   0.004598
    27  H   -0.006931   0.005825   0.588167  -0.044124  -0.004689   0.006276
    28  H    0.006704  -0.006465  -0.044124   0.680729  -0.002134  -0.006782
    29  H   -0.000027  -0.000042  -0.004689  -0.002134   0.487863  -0.034385
    30  H   -0.000851   0.004598   0.006276  -0.006782  -0.034385   0.500265
 Mulliken charges:
               1
     1  O   -0.557685
     2  C    0.609330
     3  N   -0.541133
     4  C   -0.016904
     5  C    0.592376
     6  O   -0.474374
     7  O   -0.446148
     8  C   -0.262688
     9  C    0.258526
    10  C   -0.034205
    11  N   -0.447730
    12  C    0.262043
    13  N   -0.518158
    14  C   -0.262102
    15  C   -0.051354
    16  N   -0.607948
    17  H    0.284844
    18  H    0.154637
    19  H    0.328804
    20  H    0.147402
    21  H    0.133174
    22  H    0.086237
    23  H    0.112202
    24  H    0.295989
    25  H    0.153029
    26  H    0.107491
    27  H    0.130376
    28  H    0.086619
    29  H    0.241803
    30  H    0.235545
 Sum of Mulliken charges =   0.00000
 Mulliken charges with hydrogens summed into heavy atoms:
               1
     1  O   -0.557685
     2  C    0.609330
     3  N   -0.256288
     4  C    0.137733
     5  C    0.592376
     6  O   -0.145570
     7  O   -0.446148
     8  C    0.017888
     9  C    0.258526
    10  C    0.052032
    11  N   -0.447730
    12  C    0.374245
    13  N   -0.222169
    14  C   -0.001581
    15  C    0.165641
    16  N   -0.130600
 APT charges:
               1
     1  O   -0.570700
     2  C    0.361103
     3  N   -0.742404
     4  C   -0.275040
     5  C   -0.464367
     6  O    0.049661
     7  O    0.279377
     8  C   -0.830541
     9  C   -0.563439
    10  C   -0.254810
    11  N    0.406131
    12  C   -0.523347
    13  N   -0.534839
    14  C   -0.752717
    15  C   -0.280306
    16  N   -1.671818
    17  H    0.662917
    18  H    0.290949
    19  H    0.261491
    20  H    0.230904
    21  H    0.544492
    22  H    0.723510
    23  H    0.671960
    24  H    0.116358
    25  H    0.486669
    26  H    0.385498
    27  H    0.278584
    28  H    0.221094
    29  H    0.911801
    30  H    0.581832
 Sum of APT charges =   0.00000
 APT charges with hydrogens summed into heavy atoms:
               1
     1  O   -0.570700
     2  C    0.361103
     3  N   -0.079487
     4  C    0.015909
     5  C   -0.464367
     6  O    0.311152
     7  O    0.279377
     8  C   -0.055145
     9  C   -0.563439
    10  C    0.468699
    11  N    0.406131
    12  C    0.148613
    13  N   -0.418482
    14  C    0.119449
    15  C    0.219372
    16  N   -0.178185
 Electronic spatial extent (au):  <R**2>=           4798.6409
 Charge=              0.0000 electrons
 Dipole moment (field-independent basis, Debye):
    X=              3.3612    Y=             -1.8448    Z=              1.0962  Tot=              3.9878
 Quadrupole moment (field-independent basis, Debye-Ang):
   XX=           -109.9220   YY=           -101.1647   ZZ=            -89.6521
   XY=             -8.9334   XZ=              3.6518   YZ=             -3.5811
 Traceless Quadrupole moment (field-independent basis, Debye-Ang):
   XX=             -9.6757   YY=             -0.9184   ZZ=             10.5942
   XY=             -8.9334   XZ=              3.6518   YZ=             -3.5811
 Octapole moment (field-independent basis, Debye-Ang**2):
  XXX=            223.9916  YYY=           -169.3039  ZZZ=             -8.7882  XYY=             47.9599
  XXY=            -13.7163  XXZ=             42.7091  XZZ=             32.9622  YZZ=            -28.0734
  YYZ=            -22.2363  XYZ=            -18.2097
 Hexadecapole moment (field-independent basis, Debye-Ang**3):
 XXXX=          -4769.6313 YYYY=          -2118.5073 ZZZZ=           -303.5332 XXXY=            121.8416
 XXXZ=            -49.2221 YYYX=            245.0015 YYYZ=           -216.0231 ZZZX=            -72.2845
 ZZZY=           -148.7036 XXYY=           -842.3763 XXZZ=           -683.1388 YYZZ=           -352.0786
 XXYZ=            -75.1607 YYXZ=              4.0539 ZZXY=            112.8471
 N-N= 1.115772018712D+03 E-N=-4.087801478970D+03  KE= 7.891985091252D+02
  Exact polarizability:   0.000   0.000   0.000   0.000   0.000   0.000
 Approx polarizability: 214.338   5.639 176.524  15.944  39.643 147.955
 Calling FoFJK, ICntrl=    100147 FMM=F ISym2X=0 I1Cent= 0 IOpClX= 0 NMat=1 NMatS=1 NMatT=0.
 -------------------------------------------------------------------
 Center     Atomic                   Forces (Hartrees/Bohr)
 Number     Number              X              Y              Z
 -------------------------------------------------------------------
      1        8          -0.000823736   -0.007767042   -0.002316993
      2        6           0.000570680    0.001959778   -0.001925436
      3        7          -0.000826729    0.002449050    0.000916609
      4        6           0.009082007    0.000625568   -0.000153458
      5        6          -0.012406828   -0.004012689   -0.003761157
      6        8           0.003437489    0.002719141    0.001518482
      7        8           0.012504212    0.009148022    0.005300817
      8        6          -0.007688770   -0.003207354   -0.004004129
      9        6           0.011228786    0.005097175    0.004575903
     10        6          -0.015047485   -0.001366739   -0.005339306
     11        7          -0.007620519    0.004959926    0.003839031
     12        6          -0.000333833    0.000424488    0.001234716
     13        7           0.003419202   -0.003597871   -0.001942848
     14        6          -0.002686366    0.001863552   -0.000540519
     15        6           0.005994514   -0.002589924    0.000587847
     16        7          -0.000652708    0.001316291   -0.004185025
     17        1           0.002706691    0.002501329    0.002933573
     18        1          -0.002519952   -0.002209837   -0.000153193
     19        1          -0.006693193   -0.003846097   -0.001900128
     20        1           0.003984777   -0.001140112    0.001589783
     21        1          -0.000999378    0.001765685    0.002004339
     22        1          -0.000773107    0.000005574    0.001183305
     23        1          -0.001749253   -0.002769894   -0.003089612
     24        1           0.007132070    0.000191594   -0.000208587
     25        1           0.001984281    0.000882158   -0.001478416
     26        1           0.001082052    0.001892686    0.001876454
     27        1          -0.000221439   -0.001628339   -0.000519575
     28        1          -0.003558346   -0.001733195    0.001539160
     29        1           0.000329635   -0.003199642   -0.000856680
     30        1           0.001145247    0.001266716    0.003275043
 -------------------------------------------------------------------
 Cartesian Forces:  Max     0.015047485 RMS     0.004234303
 FormGI is forming the generalized inverse of G from B-inverse, IUseBI=4.

 GradGradGradGradGradGradGradGradGradGradGradGradGradGradGradGradGradGrad
 Berny optimization.
 Internal  Forces:  Max     0.016365578 RMS     0.003219106
 Search for a local minimum.
 Step number   1 out of a maximum of  160
 All quantities printed in internal units (Hartrees-Bohrs-Radians)
 Mixed Optimization -- RFO/linear search
 Second derivative matrix not updated -- analytic derivatives used.
 ITU=  0
     Eigenvalues ---    0.00022   0.00170   0.00240   0.00272   0.00380
     Eigenvalues ---    0.00509   0.00610   0.00876   0.00922   0.01529
     Eigenvalues ---    0.01745   0.02098   0.02424   0.02845   0.03196
     Eigenvalues ---    0.03609   0.04137   0.04232   0.04331   0.04446
     Eigenvalues ---    0.04525   0.04639   0.05198   0.05358   0.05458
     Eigenvalues ---    0.06106   0.06248   0.06403   0.07614   0.07925
     Eigenvalues ---    0.08375   0.10678   0.10763   0.11110   0.11540
     Eigenvalues ---    0.11904   0.12754   0.13538   0.15071   0.15851
     Eigenvalues ---    0.16901   0.17516   0.17955   0.19393   0.19677
     Eigenvalues ---    0.20526   0.21663   0.22685   0.23240   0.23634
     Eigenvalues ---    0.24459   0.25210   0.25319   0.27448   0.29822
     Eigenvalues ---    0.31095   0.32075   0.32579   0.33317   0.33866
     Eigenvalues ---    0.34489   0.34530   0.34585   0.35008   0.35412
     Eigenvalues ---    0.36141   0.37385   0.37611   0.38306   0.38476
     Eigenvalues ---    0.43011   0.45067   0.45431   0.45622   0.46052
     Eigenvalues ---    0.47279   0.47521   0.47995   0.49780   0.53090
     Eigenvalues ---    0.60063   0.67379   0.81583   0.95597
 RFO step:  Lambda=-4.67285801D-03 EMin= 2.17659648D-04
 Linear search not attempted -- first point.
 Iteration  1 RMS(Cart)=  0.09498111 RMS(Int)=  0.00195626
 Iteration  2 RMS(Cart)=  0.00323210 RMS(Int)=  0.00014140
 Iteration  3 RMS(Cart)=  0.00000549 RMS(Int)=  0.00014138
 Iteration  4 RMS(Cart)=  0.00000000 RMS(Int)=  0.00014138
 Variable       Old X    -DE/DX   Delta X   Delta X   Delta X     New X
                                 (Linear)    (Quad)   (Total)
    R1        2.32975   0.00643   0.00000   0.00681   0.00681   2.33656
    R2        2.55235   0.00943   0.00000   0.01564   0.01564   2.56799
    R3        2.86258   0.00368   0.00000   0.00916   0.00916   2.87174
    R4        2.73411   0.00551   0.00000  -0.00296  -0.00296   2.73115
    R5        1.90626   0.00440   0.00000   0.00877   0.00877   1.91504
    R6        2.87639   0.00425   0.00000   0.00485   0.00485   2.88124
    R7        2.94890   0.00502   0.00000   0.02327   0.02327   2.97218
    R8        2.07161   0.00107   0.00000   0.00241   0.00241   2.07402
    R9        2.54844   0.00248   0.00000  -0.00074  -0.00074   2.54770
   R10        2.26526   0.01637   0.00000   0.01720   0.01720   2.28246
   R11        1.82263   0.00760   0.00000   0.01577   0.01577   1.83840
   R12        2.82468   0.00139   0.00000  -0.00602  -0.00602   2.81866
   R13        2.05659   0.00366   0.00000   0.01026   0.01026   2.06685
   R14        2.06012   0.00285   0.00000   0.00758   0.00758   2.06770
   R15        2.57451   0.01585   0.00000   0.02915   0.02916   2.60367
   R16        2.59571   0.00434   0.00000   0.01301   0.01303   2.60874
   R17        2.61661  -0.00320   0.00000  -0.01253  -0.01254   2.60407
   R18        2.04219   0.00111   0.00000   0.00343   0.00343   2.04562
   R19        2.47775   0.00748   0.00000   0.01183   0.01181   2.48956
   R20        2.56249   0.00876   0.00000   0.01457   0.01457   2.57706
   R21        2.03291   0.00427   0.00000   0.01040   0.01040   2.04331
   R22        1.90722   0.00647   0.00000   0.01592   0.01592   1.92314
   R23        2.86968   0.00701   0.00000   0.02106   0.02106   2.89073
   R24        2.06660   0.00248   0.00000   0.00720   0.00720   2.07380
   R25        2.06556   0.00274   0.00000   0.00813   0.00813   2.07369
   R26        2.77025   0.00080   0.00000  -0.00204  -0.00204   2.76821
   R27        2.06198   0.00115   0.00000   0.00378   0.00378   2.06575
   R28        2.07318   0.00372   0.00000   0.01176   0.01176   2.08494
   R29        1.91439   0.00327   0.00000   0.00688   0.00688   1.92127
   R30        1.91570   0.00367   0.00000   0.00799   0.00799   1.92369
    A1        2.11000   0.00689   0.00000   0.01375   0.01374   2.12375
    A2        2.14256  -0.00424   0.00000  -0.00894  -0.00894   2.13362
    A3        2.03048  -0.00265   0.00000  -0.00472  -0.00472   2.02576
    A4        2.10512   0.00606   0.00000  -0.00180  -0.00180   2.10332
    A5        2.13235  -0.00299   0.00000  -0.00140  -0.00140   2.13095
    A6        2.02313  -0.00298   0.00000   0.00303   0.00303   2.02616
    A7        1.87080   0.00050   0.00000   0.02721   0.02725   1.89805
    A8        1.95612   0.00571   0.00000   0.02545   0.02568   1.98180
    A9        1.88891  -0.00063   0.00000   0.00502   0.00520   1.89412
   A10        1.95654  -0.00506   0.00000  -0.02207  -0.02275   1.93379
   A11        1.87188   0.00173   0.00000   0.00301   0.00213   1.87401
   A12        1.91625  -0.00222   0.00000  -0.03737  -0.03759   1.87866
   A13        2.00649  -0.00175   0.00000  -0.00387  -0.00388   2.00261
   A14        2.15942   0.00148   0.00000   0.00056   0.00056   2.15998
   A15        2.11725   0.00026   0.00000   0.00328   0.00328   2.12053
   A16        1.91515   0.00396   0.00000   0.01959   0.01959   1.93474
   A17        1.96595   0.00173   0.00000  -0.01785  -0.01782   1.94812
   A18        1.88741  -0.00246   0.00000  -0.01259  -0.01247   1.87494
   A19        1.93565  -0.00030   0.00000  -0.00232  -0.00230   1.93336
   A20        1.91551   0.00260   0.00000   0.02322   0.02307   1.93858
   A21        1.89730  -0.00198   0.00000   0.00834   0.00820   1.90551
   A22        1.85899   0.00040   0.00000   0.00265   0.00245   1.86145
   A23        2.31568   0.00102   0.00000   0.02393   0.02388   2.33955
   A24        2.13153   0.00004   0.00000  -0.02025  -0.02030   2.11124
   A25        1.83568  -0.00106   0.00000  -0.00392  -0.00387   1.83181
   A26        1.93001   0.00192   0.00000   0.00444   0.00438   1.93439
   A27        2.23493  -0.00083   0.00000  -0.00558  -0.00568   2.22925
   A28        2.11824  -0.00110   0.00000   0.00114   0.00104   2.11928
   A29        1.83130  -0.00119   0.00000   0.00041   0.00040   1.83169
   A30        1.95155   0.00324   0.00000   0.00547   0.00548   1.95702
   A31        2.20622  -0.00306   0.00000  -0.01459  -0.01459   2.19163
   A32        2.12542  -0.00018   0.00000   0.00912   0.00912   2.13453
   A33        1.87624  -0.00291   0.00000  -0.00640  -0.00639   1.86985
   A34        2.16756  -0.00132   0.00000  -0.02119  -0.02125   2.14631
   A35        2.23937   0.00424   0.00000   0.02751   0.02744   2.26681
   A36        1.95557   0.00186   0.00000   0.00869   0.00867   1.96424
   A37        1.89116  -0.00015   0.00000   0.00059   0.00061   1.89177
   A38        1.91596  -0.00075   0.00000   0.00206   0.00202   1.91799
   A39        1.90272  -0.00090   0.00000  -0.00762  -0.00762   1.89510
   A40        1.93063  -0.00003   0.00000   0.00235   0.00231   1.93293
   A41        1.86509  -0.00014   0.00000  -0.00697  -0.00697   1.85811
   A42        1.90794   0.00109   0.00000   0.00661   0.00655   1.91449
   A43        1.89039   0.00060   0.00000  -0.00052  -0.00052   1.88987
   A44        1.90737  -0.00088   0.00000  -0.00286  -0.00301   1.90436
   A45        1.90479  -0.00142   0.00000  -0.00864  -0.00860   1.89619
   A46        1.98111   0.00117   0.00000   0.01738   0.01736   1.99846
   A47        1.87002  -0.00062   0.00000  -0.01303  -0.01301   1.85701
   A48        1.91980  -0.00050   0.00000  -0.00408  -0.00408   1.91571
   A49        1.91777  -0.00004   0.00000   0.00289   0.00289   1.92066
   A50        1.84636   0.00046   0.00000   0.00338   0.00338   1.84974
    D1       -0.04727  -0.00135   0.00000  -0.05566  -0.05568  -0.10295
    D2       -2.95284  -0.00140   0.00000  -0.05515  -0.05518  -3.00802
    D3        3.07660  -0.00100   0.00000  -0.05000  -0.04997   3.02663
    D4        0.17103  -0.00104   0.00000  -0.04949  -0.04947   0.12156
    D5       -0.45061   0.00036   0.00000  -0.01910  -0.01912  -0.46973
    D6        1.64931   0.00029   0.00000  -0.02280  -0.02281   1.62650
    D7       -2.60295  -0.00037   0.00000  -0.02967  -0.02970  -2.63264
    D8        2.70907  -0.00013   0.00000  -0.02513  -0.02511   2.68395
    D9       -1.47420  -0.00019   0.00000  -0.02883  -0.02881  -1.50301
   D10        0.55673  -0.00086   0.00000  -0.03570  -0.03569   0.52104
   D11       -2.85284  -0.00108   0.00000   0.01220   0.01248  -2.84036
   D12        1.27663   0.00127   0.00000   0.00486   0.00465   1.28129
   D13       -0.83900   0.00087   0.00000   0.03213   0.03206  -0.80694
   D14        0.06689  -0.00114   0.00000   0.01120   0.01147   0.07836
   D15       -2.08683   0.00121   0.00000   0.00385   0.00365  -2.08318
   D16        2.08072   0.00082   0.00000   0.03112   0.03106   2.11178
   D17        3.06900  -0.00069   0.00000   0.02344   0.02362   3.09261
   D18       -0.07867  -0.00112   0.00000   0.01784   0.01801  -0.06066
   D19       -1.06073   0.00359   0.00000   0.06005   0.06000  -1.00073
   D20        2.07478   0.00316   0.00000   0.05445   0.05440   2.12918
   D21        1.04385  -0.00106   0.00000   0.00262   0.00249   1.04634
   D22       -2.10382  -0.00149   0.00000  -0.00299  -0.00311  -2.10693
   D23       -2.19201  -0.00251   0.00000  -0.05695  -0.05695  -2.24896
   D24       -0.07208   0.00017   0.00000  -0.04783  -0.04777  -0.11985
   D25        1.96023  -0.00096   0.00000  -0.05335  -0.05335   1.90689
   D26        1.98648  -0.00363   0.00000  -0.09453  -0.09421   1.89226
   D27       -2.17678  -0.00095   0.00000  -0.08541  -0.08503  -2.26181
   D28       -0.14447  -0.00208   0.00000  -0.09093  -0.09061  -0.23508
   D29       -0.09219  -0.00109   0.00000  -0.05938  -0.05976  -0.15196
   D30        2.02773   0.00160   0.00000  -0.05026  -0.05058   1.97715
   D31       -2.22314   0.00046   0.00000  -0.05578  -0.05616  -2.27930
   D32       -0.04418   0.00052   0.00000   0.03132   0.03131  -0.01287
   D33        3.10332   0.00093   0.00000   0.03678   0.03679   3.14011
   D34       -2.04381   0.00013   0.00000   0.03018   0.03012  -2.01369
   D35        1.06733   0.00013   0.00000   0.01766   0.01761   1.08494
   D36        2.13550   0.00030   0.00000   0.04184   0.04199   2.17749
   D37       -1.03654   0.00029   0.00000   0.02932   0.02948  -1.00707
   D38        0.10864  -0.00050   0.00000   0.02110   0.02100   0.12964
   D39       -3.06341  -0.00051   0.00000   0.00858   0.00848  -3.05492
   D40        3.11874   0.00008   0.00000  -0.01086  -0.01093   3.10781
   D41       -0.02280  -0.00046   0.00000  -0.03524  -0.03529  -0.05809
   D42        0.00387   0.00008   0.00000   0.00044   0.00048   0.00435
   D43       -3.13767  -0.00046   0.00000  -0.02395  -0.02387   3.12164
   D44       -3.12170  -0.00015   0.00000   0.00813   0.00790  -3.11380
   D45        0.01448  -0.00034   0.00000  -0.00677  -0.00668   0.00779
   D46       -0.00330  -0.00013   0.00000  -0.00087  -0.00087  -0.00417
   D47        3.13287  -0.00031   0.00000  -0.01577  -0.01545   3.11742
   D48       -0.00292   0.00002   0.00000   0.00021   0.00015  -0.00276
   D49        3.13863   0.00052   0.00000   0.02270   0.02272  -3.12183
   D50        0.00074  -0.00011   0.00000  -0.00080  -0.00075  -0.00001
   D51        3.13941   0.00012   0.00000   0.00114   0.00121   3.14062
   D52        0.00164   0.00016   0.00000   0.00111   0.00107   0.00271
   D53       -3.13424   0.00039   0.00000   0.01702   0.01723  -3.11702
   D54       -3.13719  -0.00004   0.00000  -0.00069  -0.00077  -3.13796
   D55        0.01011   0.00018   0.00000   0.01523   0.01539   0.02550
   D56        3.08766  -0.00091   0.00000  -0.03226  -0.03227   3.05539
   D57        1.01403  -0.00018   0.00000  -0.02534  -0.02534   0.98868
   D58       -1.01766   0.00070   0.00000  -0.00797  -0.00800  -1.02566
   D59        0.99448  -0.00130   0.00000  -0.03341  -0.03339   0.96108
   D60       -1.07915  -0.00057   0.00000  -0.02648  -0.02647  -1.10562
   D61       -3.11084   0.00031   0.00000  -0.00912  -0.00912  -3.11997
   D62       -1.05147  -0.00057   0.00000  -0.02173  -0.02171  -1.07319
   D63       -3.12510   0.00016   0.00000  -0.01480  -0.01479  -3.13989
   D64        1.12639   0.00103   0.00000   0.00257   0.00256   1.12895
   D65       -3.02483   0.00014   0.00000   0.01296   0.01302  -3.01181
   D66        1.23254  -0.00010   0.00000   0.00955   0.00962   1.24215
   D67       -0.96017   0.00068   0.00000   0.01113   0.01114  -0.94903
   D68       -2.98599   0.00044   0.00000   0.00772   0.00774  -2.97825
   D69        1.12409  -0.00034   0.00000  -0.00019  -0.00027   1.12382
   D70       -0.90172  -0.00058   0.00000  -0.00360  -0.00368  -0.90540
         Item               Value     Threshold  Converged?
 Maximum Force            0.016366     0.000450     NO 
 RMS     Force            0.003219     0.000300     NO 
 Maximum Displacement     0.303902     0.001800     NO 
 RMS     Displacement     0.095406     0.001200     NO 
 Predicted change in Energy=-2.559047D-03
 GradGradGradGradGradGradGradGradGradGradGradGradGradGradGradGradGradGrad

                          Input orientation:                          
 ---------------------------------------------------------------------
 Center     Atomic      Atomic             Coordinates (Angstroms)
 Number     Number       Type             X           Y           Z
 ---------------------------------------------------------------------
      1          8           0        0.562196   -1.015684   -0.630899
      2          6           0        1.340928   -0.197689   -0.127630
      3          7           0        0.908831    0.999408    0.348727
      4          6           0       -0.465148    1.408967    0.166440
      5          6           0       -0.562857    2.913026    0.396502
      6          8           0       -1.789627    3.435694    0.197886
      7          8           0        0.367878    3.601056    0.741743
      8          6           0       -1.478756    0.636062    1.087819
      9          6           0       -2.613269    0.069481    0.302549
     10          6           0       -3.971336    0.300593    0.278374
     11          7           0       -4.583551   -0.475695   -0.681572
     12          6           0       -3.606869   -1.165853   -1.234165
     13          7           0       -2.395095   -0.875076   -0.680280
     14          6           0        2.833795   -0.460151   -0.018888
     15          6           0        3.163590   -1.952420    0.047320
     16          7           0        4.616584   -2.137989    0.032028
     17          1           0        1.551352    1.719656    0.657559
     18          1           0       -0.750683    1.217649   -0.875880
     19          1           0       -2.419145    2.746859   -0.077119
     20          1           0       -0.920569   -0.153917    1.598320
     21          1           0       -1.874386    1.294300    1.867197
     22          1           0       -4.541205    0.967127    0.913021
     23          1           0       -3.719174   -1.885784   -2.033062
     24          1           0       -1.470017   -1.231215   -0.910653
     25          1           0        3.325777   -0.032122   -0.901522
     26          1           0        3.243217    0.067481    0.851831
     27          1           0        2.740114   -2.436732   -0.836471
     28          1           0        2.654725   -2.396474    0.919757
     29          1           0        4.835939   -3.127502   -0.048067
     30          1           0        5.016638   -1.832947    0.916997
 ---------------------------------------------------------------------
                    Distance matrix (angstroms):
                    1          2          3          4          5
     1  O    0.000000
     2  C    1.236454   0.000000
     3  N    2.267249   1.358920   0.000000
     4  C    2.751385   2.435104   1.445263   0.000000
     5  C    4.213794   3.684516   2.414556   1.524686   0.000000
     6  O    5.102227   4.807058   3.638670   2.421334   1.348183
     7  O    4.820393   4.016603   2.686199   2.414572   1.207826
     8  C    3.138111   3.181678   2.525638   1.572808   2.549775
     9  C    3.483172   3.986490   3.643087   2.535187   3.506959
    10  C    4.807523   5.351007   4.930448   3.678910   4.296101
    11  N    5.174251   5.956811   5.779594   4.607854   5.367649
    12  C    4.215162   5.161633   5.252185   4.296720   5.344374
    13  N    2.961044   3.836944   3.935539   3.107810   4.343532
    14  C    2.417300   1.519659   2.443551   3.796179   4.805009
    15  C    2.846876   2.536096   3.726671   4.947813   6.138477
    16  N    4.258767   3.810535   4.867339   6.198626   7.243769
    17  H    3.181295   2.082549   1.013394   2.098570   2.441753
    18  H    2.602200   2.633989   2.073953   1.097526   2.128036
    19  H    4.832369   4.776093   3.782902   2.380625   1.922949
    20  H    2.812588   2.845204   2.497668   2.168017   3.313376
    21  H    4.184906   4.067383   3.184180   2.211713   2.550162
    22  H    5.688579   6.085987   5.479267   4.167355   4.458763
    23  H    4.588384   5.664360   5.951108   5.126586   6.236481
    24  H    2.062670   3.095596   3.495803   3.023318   4.439181
    25  H    2.945846   2.136808   2.910122   4.193852   5.047795
    26  H    3.249555   2.156006   2.563389   4.002664   4.773955
    27  H    2.608633   2.733769   4.070055   5.105775   6.407008
    28  H    2.947845   2.767262   3.860859   4.978200   6.230363
    29  H    4.802535   4.561276   5.710605   6.980479   8.113730
    30  H    4.786016   4.156460   5.021877   6.412747   7.343428
                    6          7          8          9         10
     6  O    0.000000
     7  O    2.231133   0.000000
     8  C    2.954076   3.510131   0.000000
     9  C    3.467093   4.642429   1.491570   0.000000
    10  C    3.820365   5.471430   2.642100   1.377804   0.000000
    11  N    4.886555   6.569808   3.742526   2.268860   1.378016
    12  C    5.150473   6.513543   3.628687   2.207890   2.138007
    13  N    4.440778   5.449030   2.499878   1.380485   2.187636
    14  C    6.049846   4.811726   4.585257   5.482184   6.853970
    15  C    7.320438   6.256143   5.416111   6.125792   7.485761
    16  N    8.493114   7.175781   6.779618   7.564183   8.930830
    17  H    3.783943   2.224267   3.246668   4.493681   5.714683
    18  H    2.674341   3.090066   2.173580   2.485199   3.542019
    19  H    0.972838   3.027818   2.587832   2.711122   2.918885
    20  H    3.949910   4.061237   1.093732   2.143399   3.354998
    21  H    2.716497   3.408154   1.094180   2.119965   2.812296
    22  H    3.765159   5.573690   3.085248   2.212551   1.082495
    23  H    6.084275   7.383018   4.595550   3.240550   3.191640
    24  H    4.807395   5.427625   2.735085   2.114401   3.164935
    25  H    6.277086   4.964823   5.242851   6.060724   7.399373
    26  H    6.091143   4.556956   4.761933   5.882189   7.241061
    27  H    7.488247   6.676313   5.562717   6.019732   7.333443
    28  H    7.368009   6.421194   5.129346   5.849243   7.182634
    29  H    9.329210   8.115471   7.438415   8.113835   9.456558
    30  H    8.637184   7.153326   6.950923   7.887474   9.259779
                   11         12         13         14         15
    11  N    0.000000
    12  C    1.317416   0.000000
    13  N    2.224601   1.363722   0.000000
    14  C    7.446907   6.592198   5.286861   0.000000
    15  C    7.920240   6.935417   5.708682   1.529711   0.000000
    16  N    9.376296   8.376961   7.160026   2.448687   1.464875
    17  H    6.652058   6.205806   4.908858   2.617977   4.056581
    18  H    4.194765   3.737279   2.668679   4.049436   5.120857
    19  H    3.928724   4.249560   3.671892   6.154810   7.298331
    20  H    4.326533   4.032765   2.808258   4.099316   4.724465
    21  H    4.119306   4.321145   3.386291   5.366785   6.263732
    22  H    2.150873   3.167490   3.246245   7.569426   8.284749
    23  H    2.135889   1.081272   2.145865   7.002195   7.190610
    24  H    3.212069   2.162191   1.017681   4.462352   4.786248
    25  H    7.924810   7.032609   5.786873   1.097405   2.148057
    26  H    7.994040   7.266098   5.918306   1.097349   2.175679
    27  H    7.583254   6.485175   5.369687   2.141049   1.093150
    28  H    7.658087   6.735085   5.511393   2.159275   1.103301
    29  H    9.806131   8.748480   7.600063   3.335295   2.046135
    30  H    9.826556   8.912765   7.642159   2.743220   2.050463
                   16         17         18         19         20
    16  N    0.000000
    17  H    4.966725   0.000000
    18  H    6.394698   2.811194   0.000000
    19  H    8.565928   4.166502   2.400055   0.000000
    20  H    6.086861   3.241250   2.834029   3.669785   0.000000
    21  H    7.568430   3.657845   2.965308   2.487378   1.754820
    22  H    9.709943   6.144169   4.198927   2.941252   3.851672
    23  H    8.591453   6.929436   4.447731   5.193955   4.900866
    24  H    6.225560   4.505064   2.552565   4.173811   2.785213
    25  H    2.640525   2.940756   4.263814   6.434789   4.929047
    26  H    2.724392   2.372727   4.501012   6.332800   4.235963
    27  H    2.089181   4.573931   5.053882   7.352835   4.953792
    28  H    2.168816   4.269509   5.280436   7.293270   4.274604
    29  H    1.016695   5.897573   7.125725   9.335159   6.685072
    30  H    1.017970   4.969558   6.766280   8.789411   6.207558
                   21         22         23         24         25
    21  H    0.000000
    22  H    2.851214   0.000000
    23  H    5.359869   4.182611   0.000000
    24  H    3.776002   4.194125   2.597493   0.000000
    25  H    6.038783   8.135138   7.372095   4.943435   0.000000
    26  H    5.359656   7.836475   7.785419   5.196878   1.758120
    27  H    6.521045   8.225849   6.592252   4.379952   2.475759
    28  H    5.918809   7.943253   7.043191   4.660658   3.059008
    29  H    8.261297  10.277184   8.869726   6.641163   3.548289
    30  H    7.626845   9.959558   9.220632   6.766024   3.067409
                   26         27         28         29         30
    26  H    0.000000
    27  H    3.061791   0.000000
    28  H    2.534169   1.758763   0.000000
    29  H    3.681643   2.343336   2.495752   0.000000
    30  H    2.600172   2.936285   2.428209   1.624769   0.000000
 Symmetry turned off by external request.
 Stoichiometry    C9H14N4O3
 Framework group  C1[X(C9H14N4O3)]
 Deg. of freedom    84
 Full point group                 C1      NOp   1
 Rotational constants (GHZ):      0.6931401      0.3035875      0.2199086
 Standard basis: 6-31G(d,p) (6D, 7F)
   310 basis functions,   546 primitive gaussians,   310 cartesian basis functions
    60 alpha electrons       60 beta electrons
       nuclear repulsion energy      1111.6034922685 Hartrees.
 NAtoms=   30 NActive=   30 NUniq=   30 SFac= 1.00D+00 NAtFMM=   60 NAOKFM=F Big=F
 Integral buffers will be    131072 words long.
 Raffenetti 2 integral format.
 Two-electron integral symmetry is turned off.
 One-electron integrals computed using PRISM.
 NBasis=   310 RedAO= T EigKep=  1.27D-03  NBF=   310
 NBsUse=   310 1.00D-06 EigRej= -1.00D+00 NBFU=   310
 Initial guess from the checkpoint file:  "conf-340.chk"
 B after Tr=    -0.021646   -0.003314   -0.002099
         Rot=    0.999996   -0.000247    0.002071    0.001769 Ang=  -0.31 deg.
 ExpMin= 1.61D-01 ExpMax= 5.48D+03 ExpMxC= 8.25D+02 IAcc=2 IRadAn=         4 AccDes= 0.00D+00
[...]
 30,0.00100313,-0.00087533,-0.00029011,-0.00035274,-0.00020692,-0.00012
 235,0.00021641,0.00005458,0.00008792,0.00017387,0.00001307,0.00022119,
 0.00002430,-0.00004598,0.00001664,-0.00000710,-0.00000145,0.00001888,-
 0.00001042,-0.00000716,-0.00004653,-0.00000888,-0.00003106,0.00000493,
 0.00000865,0.00001782,-0.00006391,0.00001848,0.00003232,-0.09063521,-0
 .02942565,0.09606652,0.00290136,0.00112530,-0.00564003,0.00071533,-0.0
 0011031,-0.00064056,-0.00033411,-0.00000283,0.00040934,-0.00019845,0.0
 0013646,0.00009101,0.00006522,-0.00000653,0.00001911,0.00005763,-0.000
 01097,-0.00002176,-0.00001863,0.00000426,-0.00000252,0.00000114,-0.000
 00029,0.00000039,-0.00000575,-0.00000474,-0.00000141,0.00014096,0.0000
 6500,-0.00003060,0.09666573,-0.00070886,0.00008571,-0.00040027,0.00241
 833,0.00071538,-0.00650213,0.00130552,-0.00090572,0.00066050,-0.000247
 97,-0.00040164,0.00073916,0.00015378,0.00022973,0.00009513,0.00006088,
 -0.00012327,-0.00003851,-0.00006546,-0.00012660,0.00002194,-0.00007643
 ,-0.00003095,0.00002965,0.00000028,-0.00001189,-0.00002770,-0.00001675
 ,0.00000677,0.00000287,0.00001094,0.00001316,0.00001741,0.00001605,0.0
 0000656,0.00001254,-0.00000573,0.00000072,-0.00001813,-0.02724927,-0.0
 5839457,0.05506705,-0.01360966,-0.01292918,0.03198167,-0.00093374,0.00
 301197,-0.00137399,0.00020800,0.00023892,-0.00064183,0.00022146,-0.000
 10784,0.00002042,-0.00003896,0.00000561,-0.00000622,-0.00002628,-0.000
 01680,-0.00000137,0.00000664,0.00000649,-0.00000762,-0.00000183,-0.000
 00058,-0.00000033,-0.00000045,-0.00000020,0.00000172,0.00001549,-0.000
 01943,0.00001641,0.02899043,0.06854993,-0.00087017,-0.00016279,-0.0006
 5114,0.00015486,-0.00265108,0.00309618,0.00043465,0.00049783,0.0007149
 7,0.00017098,-0.00000305,0.00001416,0.00006500,0.00000638,-0.00002217,
 -0.00004572,0.00001269,0.00000540,-0.00004829,-0.00000759,0.00004137,-
 0.00002386,0.00002029,-0.00000981,0.00000007,-0.00002335,-0.00000554,-
 0.00000629,-0.00000560,-0.00000248,-0.00002552,0.00000792,0.00000413,0
 .00002976,0.00000923,0.00001950,-0.00003424,-0.00000395,0.00001279,0.0
 9107949,0.05691729,-0.24800836,0.00284790,0.00277100,-0.00591382,-0.00
 027222,-0.00140465,0.00049796,-0.00003460,0.00032116,-0.00049546,0.000
 07316,-0.00003277,-0.00001176,0.00000863,0.00000442,-0.00000492,0.0000
 0391,-0.00000582,-0.00004049,-0.00002170,0.00001336,0.00000159,-0.0000
 0096,0.00000229,-0.00000099,-0.00000041,0.00000100,-0.00000162,0.00009
 735,0.00002855,-0.00001732,-0.10235361,-0.06346599,0.26783931,-0.00927
 008,0.00080742,0.00010412,-0.00856035,-0.02333311,-0.02549066,0.001047
 63,0.00073654,0.00187865,0.00018092,-0.00017372,0.00032398,-0.00016917
 ,-0.00010453,-0.00003011,0.00017390,-0.00004540,0.00000986,0.00017693,
 0.00010145,0.00008984,0.00002437,-0.00000779,0.00004348,0.00006928,-0.
 00012037,-0.00016042,-0.00007906,0.00002678,-0.00001768,-0.00013069,0.
 00008658,0.00006216,0.00019979,0.00005853,0.00014178,-0.00033573,-0.00
 004053,-0.00007330,-0.09203063,-0.05651379,-0.07346987,0.00282819,0.00
 468740,0.00596827,0.00121693,-0.00026790,0.00056120,-0.00107318,0.0014
 6972,-0.00048356,0.00020087,-0.00019180,-0.00000041,-0.00003909,-0.000
 04538,-0.00000576,-0.00000499,0.00001862,-0.00011892,-0.00003559,0.000
 04726,0.00001098,-0.00001346,0.00000346,0.00000571,-0.00000064,-0.0000
 0027,-0.00000136,0.00057512,0.00010592,0.00012130,0.00619536,0.0082825
 7,0.00924472,0.09933965,0.00172441,0.00202001,-0.00064331,0.00087681,0
 .00100174,0.00524083,0.00131284,-0.00053476,0.00022839,-0.00046825,0.0
 0031464,0.00040643,-0.00005326,0.00006248,-0.00001625,-0.00000212,-0.0
 0000443,-0.00000091,-0.00000527,-0.00004558,0.00001353,-0.00003499,0.0
 0000504,-0.00000628,-0.00001415,0.00000858,0.,-0.00001341,0.00000031,0
 .00000286,0.00001771,0.00001526,0.00001779,0.00000876,-0.00000653,-0.0
 0001099,0.00004511,0.00000920,0.00000359,-0.05952850,-0.13378107,-0.10
 470100,-0.01418194,-0.01956412,-0.02460024,-0.00086253,0.00216558,0.00
 046704,0.00084210,0.00029802,-0.00023707,0.00013638,-0.00001011,0.0000
 5735,-0.00001149,0.00000331,-0.00000366,-0.00001570,-0.00001409,0.0000
 0586,-0.00000990,0.00000269,-0.00000185,-0.00000149,0.00000110,-0.0000
 0010,0.00000492,-0.00000018,0.00000395,-0.00004050,-0.00003474,-0.0000
 4273,0.00384566,0.00478598,0.00576617,0.06334908,0.14760584,-0.0004950
 3,0.00043786,0.00167491,0.00336679,-0.00175875,-0.00279959,0.00055102,
 0.00046267,0.00061085,-0.00007827,0.00033924,0.00025095,-0.00028273,-0
 .00023764,-0.00008286,0.00009434,0.00005834,0.00002503,0.00019329,0.00
 015404,0.00003574,0.00002780,-0.00001696,0.00004820,0.00004164,-0.0000
 2873,-0.00005869,-0.00002563,0.00001332,-0.00001227,-0.00005845,0.0000
 2704,0.00002065,0.00008303,0.00001845,0.00004114,-0.00007918,0.0000055
 5,-0.00001937,-0.07685732,-0.10357396,-0.17743526,0.00286914,0.0043013
 5,0.00510287,0.00087953,-0.00013989,0.00029900,-0.00053598,0.00062245,
 0.00032640,0.00010409,-0.00002257,0.00003218,-0.00000074,-0.00003419,0
 .00000485,0.00001031,0.00002502,-0.00005371,-0.00001842,0.00001777,0.0
 0000231,-0.00000476,0.00000060,0.00000427,0.00000263,0.00000077,-0.000
 00009,0.00016544,-0.00000394,0.00003841,-0.01276513,-0.01635990,-0.019
 52893,0.08223758,0.11515070,0.18919896,-0.00144986,0.00005022,-0.00032
 570,0.00075033,0.00136398,0.00132901,-0.00005471,-0.00093856,-0.000677
 94,-0.00020539,0.00000320,-0.00004577,-0.00000134,0.00011542,0.0000076
 0,0.00002886,-0.00004896,0.00000142,-0.00000724,-0.00008632,-0.0000145
 6,-0.00000783,0.00000520,-0.00000713,-0.00002052,0.00004360,0.00003483
 ,0.00001095,-0.00000332,0.00000488,0.00005556,-0.00001731,-0.00000258,
 -0.00006428,-0.00001517,-0.00003907,0.00007991,-0.00000909,0.00000427,
 0.00408111,0.00304113,0.00541065,-0.09839022,-0.06201755,-0.07874908,-
 0.02275876,-0.01983186,-0.02460246,0.00027282,-0.00012148,0.00002633,-
 0.00001388,0.00004678,0.00001394,-0.00001181,0.00001370,-0.00000361,-0
 .00000010,-0.00000314,0.00004306,0.00001528,-0.00001474,-0.00000238,0.
 00000238,-0.00000128,-0.00000170,-0.00000030,0.00000123,-0.00000020,-0
 .00014543,-0.00000101,-0.00002875,0.00019473,-0.00046656,-0.00028407,-
 0.00045011,0.00215398,-0.00038281,0.11739625,0.00027591,0.00259431,0.0
 0159805,-0.00305156,-0.00230002,-0.00252373,0.00030826,0.00080618,0.00
 054560,0.00013061,0.00006943,-0.00001489,-0.00008372,-0.00013829,-0.00
 001237,0.00002980,0.00003084,0.00000781,0.00007606,0.00010763,0.000033
 10,0.00004223,-0.00002497,0.00001957,0.00003046,-0.00003755,-0.0000522
 6,-0.00001788,0.00000791,-0.00000584,-0.00005174,0.00002270,0.00001668
 ,0.00007119,0.00001186,0.00003730,-0.00007877,-0.00000406,0.00000328,-
 0.01249963,-0.02143335,-0.02344602,-0.06567072,-0.12794669,-0.10266381
 ,0.00428206,0.00438686,0.00545544,-0.00030976,0.00033423,0.00001240,0.
 00004970,-0.00003477,0.00001396,0.00000217,-0.00001870,-0.00000184,0.0
 0000804,0.00000238,-0.00004150,-0.00001156,0.00001682,0.00000094,-0.00
 000370,0.00000189,0.00000217,0.00000303,0.00000227,-0.00000146,0.00015
 670,0.00002937,0.00000449,-0.00046062,0.00151030,-0.00001957,0.0018926
 3,-0.00597647,0.00175408,0.06880082,0.14008503,-0.00021477,0.00187079,
 -0.00020473,-0.00161341,-0.00136153,-0.00043063,0.00014973,0.00008626,
 0.00026123,-0.00001770,-0.00001473,-0.00005338,-0.00001422,-0.00002522
 ,-0.00000313,0.00002138,-0.00000131,0.00000303,0.00002465,0.00002468,0
 .00001190,-0.00000566,-0.00000026,-0.00000661,0.00000846,-0.00002688,-
 0.00002589,-0.00001417,0.00000541,-0.00000135,-0.00001453,0.00002163,0
 .00001304,0.00003995,0.00000280,0.00001493,-0.00001600,0.00002604,-0.0
 0000984,0.00395606,0.00347219,0.00446285,-0.08316950,-0.10496754,-0.18
 938458,0.00074374,0.00323655,0.00432637,0.00011256,0.00001209,0.000034
 80,0.00000317,-0.00001851,0.00000533,-0.00000805,-0.00001173,-0.000000
 91,-0.00000908,-0.00001403,-0.00001829,-0.00000779,0.00001096,0.000000
 17,-0.00000281,0.00000011,0.00000212,0.00000221,-0.00000302,0.00000509
 ,0.00002866,-0.00005199,0.00002132,0.00056005,-0.00017682,0.00108382,-
 0.00042790,0.00187653,0.00112931,0.09048476,0.11124731,0.19811626,-0.0
 0004169,-0.00009429,0.00022347,0.00082653,-0.00026619,-0.00043857,0.00
 001496,0.00006164,0.00004992,0.00007738,-0.00001784,-0.00002034,0.0000
 3500,-0.00004291,0.00000384,-0.00002805,0.00002500,-0.00000637,-0.0000
 1273,0.00002984,-0.00000898,-0.00000166,-0.00002436,0.00000561,0.00000
 733,0.00000089,-0.00000313,0.00000571,0.00000146,-0.00000380,-0.000020
 08,-0.00000239,-0.00001040,0.00001130,0.00000173,0.00000529,-0.0000184
 3,0.00000886,0.00000109,0.00367207,0.00136258,-0.00601049,-0.07841439,
 -0.02408471,0.07102757,-0.02957652,-0.00566024,0.03091833,0.00000660,-
 0.00005801,0.00004910,-0.00000948,-0.00000451,-0.00001737,0.00000759,-
 0.00000778,0.00000702,0.00001541,0.00001415,0.00000081,0.00000228,-0.0
 0000258,0.00000035,0.00000137,-0.00000123,0.00000171,0.00000039,-0.000
 00139,0.00000050,0.00001710,-0.00000283,0.00000868,-0.00012125,0.00217
 153,-0.00026694,-0.00009532,-0.00015872,0.00048825,0.00639322,0.004045
 50,-0.01131105,0.09451766,0.00080032,0.00081292,0.00016309,-0.00301239
 ,-0.00017766,0.00065150,0.00068618,-0.00020226,-0.00066800,-0.00017988
 ,-0.00005214,0.00001321,-0.00006302,0.00004950,0.00001216,0.00008053,-
 0.00004564,-0.00000786,0.00005910,-0.00001754,-0.00002616,0.00005067,-
 0.00003994,0.00003617,0.00001064,0.00003418,-0.00001690,0.00000111,0.0
 0001114,-0.00000250,0.00001543,-0.00000707,-0.00000071,-0.00001754,-0.
 00000593,-0.00001184,0.00003198,0.00000806,-0.00001029,-0.00872733,-0.
 01171555,0.03046721,-0.02310722,-0.07055116,0.05449576,0.00393541,0.00
 505033,-0.00603558,-0.00005126,0.00002553,0.00022196,0.00001340,-0.000
 00886,0.00000597,-0.00002446,-0.00001096,0.00001101,0.00001784,0.00000
 494,0.00001661,0.00001651,-0.00000171,-0.00001059,0.00000007,-0.000002
 83,0.00000171,-0.00000020,-0.00000127,0.00000090,-0.00005254,-0.000029
 38,0.00000965,0.00164297,-0.00631454,0.00146708,-0.00058408,0.00168120
 ,-0.00053657,0.00642809,0.00613201,-0.01607544,0.02286772,0.07498211,-
 0.00115423,-0.00074533,0.00055106,0.00184859,0.00101328,-0.00009945,-0
 .00069974,0.00024280,0.00016803,0.00010093,0.00003680,-0.00003545,0.00
 005136,0.00001161,0.00001181,-0.00007459,0.00001914,0.00001363,-0.0000
 6731,-0.00002396,0.00000599,-0.00005145,0.00010024,-0.00006347,-0.0000
 2606,-0.00002768,0.00003177,-0.00000493,-0.00001492,0.00001369,0.00001
 237,0.00000386,0.00001266,-0.00001052,-0.00000316,-0.00000708,-0.00000
 911,-0.00004736,0.00002995,0.00062949,0.00104303,-0.00503890,0.0691197
 4,0.05612602,-0.23886050,0.00643656,-0.00115350,0.00459463,0.00007474,
 -0.00003439,-0.00014745,-0.00002105,0.00001882,0.00000906,0.00002298,0
 .00002850,-0.00002091,-0.00002522,0.00000481,0.00000681,-0.00000864,-0
 .00001168,0.00001444,-0.00000028,0.00000576,-0.00000490,0.00000280,0.0
 0000637,-0.00000522,0.00004370,0.00007083,-0.00007548,-0.00017966,0.00
 086089,0.00129036,-0.00010216,0.00035054,0.00098594,0.00817284,0.00719
 671,-0.02118202,-0.08490003,-0.06392638,0.25522631,-0.00018001,-0.0005
 4620,-0.00003486,0.00107105,0.00244677,-0.00017832,-0.00081619,0.00006
 303,0.00001808,0.00006416,0.00008316,0.00017224,-0.00002300,-0.0000876
 9,-0.00001022,-0.00005144,0.00005492,0.00000038,-0.00000658,0.00004037
 ,0.00001015,-0.00002470,0.00003880,-0.00001898,-0.00000645,-0.00000466
 ,0.00002607,0.00000889,-0.00000951,0.00000059,-0.00000746,-0.00001191,
 -0.00001277,-0.00001322,0.00000600,0.00000170,-0.00001219,-0.00001981,
 0.00000715,-0.00776088,-0.00049581,0.00043864,-0.00961307,0.04100028,-
 0.00130296,-0.06266495,0.05517887,-0.01677636,-0.00002024,-0.00005389,
 -0.00009149,-0.00000439,-0.00000157,-0.00000519,0.00002227,0.00000739,
 0.00000006,0.00000309,0.00000717,-0.00001067,-0.00001377,-0.00000286,0
 .00000691,0.00000103,0.00000137,-0.00000215,-0.00000336,0.00000186,-0.
 00000442,0.00003254,0.00004363,0.00000340,0.00001938,-0.00045100,-0.00
 012646,0.00007343,-0.00009206,0.00032053,0.00123579,-0.00026780,-0.000
 70957,0.00055304,-0.00001081,0.00057563,0.07424280,0.00033216,0.000319
 29,0.00011087,-0.00087427,-0.00065960,-0.00022477,0.00041948,-0.000103
 48,0.00003323,-0.00012023,-0.00006034,-0.00003562,-0.00001546,0.000087
 99,0.00000720,0.00005872,-0.00005400,0.00000118,0.00002101,-0.00004472
 ,-0.00000410,0.00000198,-0.00001154,0.00000590,-0.00000396,0.00001350,
 -0.00000359,-0.00000528,0.00000397,0.00000194,0.00002486,0.00000116,0.
 00000900,-0.00001422,-0.00000516,-0.00001009,0.00003380,0.00000072,-0.
 00000385,0.00281515,0.00122813,0.00002072,-0.00520621,-0.00405221,0.00
 456478,0.07718459,-0.41395882,-0.01332322,0.00000019,0.00004124,0.0000
 1448,0.00001288,0.00000452,0.00000572,-0.00001995,0.00000183,-0.000002
 67,-0.00000067,-0.00000616,0.00001383,0.00000932,-0.00000144,-0.000004
 01,-0.00000071,-0.00000088,-0.00000015,0.00000063,0.00000048,0.0000010
 1,-0.00005052,-0.00001776,-0.00000979,-0.00008013,0.00022753,-0.000228
 05,-0.00019259,0.00036912,0.00006050,-0.00007976,0.00086275,0.00022508
 ,-0.00094510,0.00057674,-0.00050915,-0.07683711,0.43255951,-0.00034526
 ,-0.00017682,-0.00029888,0.00062413,0.00071288,0.00079145,-0.00070771,
 0.00020464,0.00000850,0.00015612,0.00009620,0.00007645,0.00006351,-0.0
 0017219,-0.00000514,-0.00012458,0.00010816,-0.00001296,-0.00004672,0.0
 0009002,-0.00000382,0.00000737,0.00000473,-0.00000210,0.00001289,-0.00
 001595,0.00001113,0.00001939,-0.00000630,-0.00000673,-0.00005242,-0.00
 001514,-0.00003517,0.00001785,0.00001496,0.00002257,-0.00005888,0.0000
 0435,0.00000180,-0.00194865,0.00090768,-0.00011628,0.00736685,-0.00260
 412,-0.00416993,-0.02699773,0.03433202,-0.02243116,0.00000143,-0.00011
 005,-0.00003456,-0.00002574,-0.00000132,-0.00001566,0.00004070,-0.0000
 0563,0.00001408,0.00000516,0.00001256,-0.00002243,-0.00001230,-0.00000
 069,0.00000511,0.00000329,-0.00000109,0.00000069,-0.00000473,-0.000002
 26,-0.00000256,0.00008503,0.00003489,0.00003989,-0.00002558,-0.0003860
 2,0.00038422,0.00005079,0.00022392,0.00004692,-0.00076549,0.00038506,0
 .00020784,-0.00008343,-0.00089977,0.00018691,0.01587351,0.00223303,0.0
 2866510,0.00028305,0.00076296,0.00023651,-0.00094975,-0.00041675,-0.00
 004270,0.00014551,0.00003833,0.00012290,-0.00004836,0.00000837,-0.0000
 2653,-0.00003902,0.00005439,-0.00000220,0.00004169,-0.00003360,0.00000
 724,0.00002042,-0.00003020,0.00001049,-0.00000049,0.00000206,-0.000004
 80,-0.00000555,-0.00000330,-0.00000641,-0.00001059,0.00000136,0.000003
 59,0.00001672,0.00000787,0.00001508,0.00000047,-0.00000215,-0.00000242
 ,0.00001867,-0.00000310,0.00000014,0.00109080,-0.00116187,-0.00029803,
 -0.02147186,-0.01777604,-0.03379282,-0.11897804,-0.05238018,-0.1253298
 4,-0.00001480,0.00009019,-0.00003295,0.00001917,-0.00000461,0.00000914
 ,-0.00001225,0.00000473,-0.00000707,-0.00000334,-0.00001119,-0.0000021
 5,0.00000029,0.00000433,-0.00000187,-0.00000190,0.00000102,-0.00000102
 ,0.00000136,0.00000118,0.00000081,-0.00001419,-0.00001214,-0.00001586,
 -0.00008719,0.00003705,0.00020459,-0.00001429,0.00117654,0.00014903,-0
 .00693542,0.00230228,0.00142083,0.00217468,-0.00082723,0.00024324,0.00
 389440,0.00353142,0.00687119,0.14087983,-0.00032977,-0.00052017,-0.000
 14225,0.00051956,0.00014165,-0.00013563,-0.00010903,-0.00005127,0.0000
 1454,0.00006128,-0.00002089,-0.00001628,0.00010306,0.00002329,0.000024
 35,-0.00007204,0.00001117,-0.00000439,-0.00007624,-0.00002690,-0.00001
 433,-0.00000824,0.00002101,-0.00001312,-0.00000467,-0.00000796,0.00001
 465,0.00000623,-0.00000798,0.00000302,-0.00000781,-0.00000776,-0.00000
 554,-0.00000386,0.00000250,0.00000041,-0.00001420,-0.00001354,0.000007
 94,0.00057828,0.00193757,0.00142881,0.00003594,0.00256634,0.00597640,-
 0.04767192,-0.10718321,-0.11279013,0.00008419,-0.00004107,-0.00001155,
 -0.00001448,0.00000283,-0.00000301,0.00001631,0.00001364,-0.00000372,-
 0.00000168,0.00000340,-0.00000384,-0.00000314,-0.00000053,0.00000237,0
 .00000153,0.00000241,-0.00000239,-0.00000089,0.00000177,-0.00000309,0.
 00002369,0.00002755,-0.00000590,0.00001026,-0.00001156,0.00016759,-0.0
 0005267,-0.00037804,-0.00073664,0.00158879,0.00090009,0.00063057,0.000
 78415,-0.00018424,-0.00064247,-0.02008094,-0.01732237,-0.03496776,0.06
 463830,0.12012226,0.00039978,0.00025121,0.00015655,-0.00045204,0.00005
 554,0.00009855,-0.00000136,0.00005302,-0.00005726,0.00000258,0.0000229
 5,0.00002847,-0.00004741,-0.00006867,-0.00001598,0.00001602,0.00002280
 ,-0.00000106,0.00004048,0.00004998,0.00000359,0.00000643,-0.00001477,0
 .00000950,0.00000730,-0.00000071,-0.00001260,0.00000032,0.00000564,-0.
 00000409,-0.00001324,0.00000515,-0.00000166,0.00001535,-0.00000235,0.0
 0000231,-0.00000729,0.00001867,-0.00000014,-0.00041642,-0.00000963,-0.
 00013750,0.01054608,0.00342974,-0.00054501,-0.16227190,-0.15347401,-0.
 27165958,-0.00004624,-0.00001814,0.00002707,-0.00000029,-0.00000004,-0
 .00000276,-0.00000161,-0.00001506,0.00000649,0.00000448,0.00000291,-0.
 00000071,0.00000132,-0.00000069,0.00000017,-0.00000025,-0.00000155,0.0
 0000289,0.00000215,-0.00000173,0.00000230,0.00000247,-0.00002456,0.000
 00494,-0.00010476,-0.00012055,-0.00029095,-0.00047232,0.00044891,0.000
 11186,0.00039972,0.00044935,0.00162191,0.00028935,0.00065457,0.0023877
 8,0.00182939,0.00705059,-0.00330529,0.15027191,0.14123141,0.27157024\\
 0.00000051,-0.00000005,0.00000004,-0.00000068,0.00000051,0.00000109,0.
 00000150,-0.00000150,-0.00000107,-0.00000148,-0.00000060,-0.00000161,0
 .00000298,0.00000028,0.00000096,0.00000027,0.00000022,-0.00000173,-0.0
 0000189,-0.00000020,-0.00000034,0.00000092,-0.00000143,-0.00000032,-0.
 00000061,0.00000149,-0.00000295,0.00000057,-0.00000010,-0.00000023,0.0
 0000009,0.00000002,0.00000103,0.00000137,-0.00000070,0.00000071,-0.000
 00150,-0.00000144,0.00000055,-0.00000031,0.00000078,-0.00000112,-0.000
 00051,-0.00000028,-0.00000196,-0.00000046,0.00000088,0.00000127,-0.000
 00025,-0.00000067,0.00000120,0.00000012,0.00000132,0.00000017,-0.00000
 020,0.,0.00000395,0.00000002,0.00000007,0.00000140,-0.00000082,-0.0000
 0005,-0.00000064,0.00000050,0.00000040,-0.00000067,0.00000019,0.000000
 53,-0.00000005,-0.00000072,-0.00000004,0.00000014,0.00000038,-0.000000
 09,-0.00000004,0.00000068,-0.00000032,0.00000009,-0.00000065,0.0000011
 0,0.00000074,-0.00000007,-0.00000028,-0.00000003,-0.00000010,0.0000002
 2,-0.00000014,0.00000014,-0.00000006,-0.00000043\\\@


 THOUGH I SPEAK WITH THE TONGUES OF MEN AND OF ANGELS, 
 AND HAVE NOT LOVE,
 I AM BECOME AS SOUNDING BRASS, A TINKLING CYMBAL.
 AND THOUGH I HAVE THE GIFT OF PROPHECY,
 AND UNDERSTAND ALL MYSTERIES, AND ALL KNOWLEDGE.
 AND THOUGH I HAVE ALL FAITH, SO THAT I COULD REMOVE MOUNTAINS,
 AND HAVE NOT LOVE, I AM NOTHING.
 AND THOUGH I BESTOW ALL MY GOODS TO FEED THE POOR,
 AND THOUGH I GIVE MY BODY TO BE BURNED,
 AND HAVE NOT LOVE IT PROFITETH ME NOTHING.
 LOVE SUFFERETH LONG, AND IS KIND,
 LOVE ENVIETH NOT,
 LOVE VAUNTETH NOT ITSELF, IS NOT PUFFED UP,
 DOTH NOT BEHAVE ITSELF UNSEEMLY, SEEKETH NOT HER OWN,
 IS NOT EASILY PROVOKED, THINKETH NO EVIL,
 REJOICETH NOT IN INIQUITY, BUT REJOICETH IN THE TRUTH,
 BEARETH ALL THINGS, BELIEVETH ALL THINGS,
 HOPETH ALL THINGS, ENDURETH ALL THINGS.
 LOVE NEVER FAILETH, BUT WHETHER THERE BE PROPHECIES, THEY SHALL FAIL, 
 WHETHER THERE BE TONGUES, THEY SHALL CEASE,
 WHETHER THERE BE KNOWLEDGE, IT SHALL VANISH AWAY.
 FOR WE KNOW IN PART, AND WE PROPHESY IN PART.
 BUT WHEN THAT WHICH IS PERFECT IS COME, THEN THAT WHICH IS IN PART 
 SHALL BE DONE AWAY. 
 WHEN I WAS A CHILD, I SPAKE AS A CHILD, I UNDERSTOOD AS A CHILD, 
 I THOUGHT AS A CHILD.
 BUT WHEN I BECAME A MAN, I PUT AWAY CHILDISH THINGS.
 FOR NOW WE SEE THROUGH A GLASS, DARKLY, BUT THEN FACE TO FACE.
 NOW I KNOW IN PART. BUT THEN SHALL I KNOW EVEN AS ALSO I AM KNOWN.
 AND NOW ABIDETH FAITH, HOPE AND LOVE, THESE THREE.
 BUT THE GREATEST OF THESE IS LOVE.

                     I CORINTHIANS 13
 Job cpu time:       0 days  1 hours 16 minutes 14.9 seconds.
 File lengths (MBytes):  RWF=    320 Int=      0 D2E=      0 Chk=      9 Scr=      1
 Normal termination of Gaussian 09 at Wed Jul 28 22:48:49 2021.
