 Entering Gaussian System, Link 0=g09
 Input=opt_freq-conf-55.com
 Output=opt_freq-conf-55.log
 Initial command:
 /aerosol/software/g09/l1.exe "/scratch/nicole/10642/Gau-83778.inp" -scrdir="/scratch/nicole/10642/"
 Entering Link 1 = /aerosol/software/g09/l1.exe PID=     83783.
  
 Copyright (c) 1988,1990,1992,1993,1995,1998,2003,2009,2013,
            Gaussian, Inc.  All Rights Reserved.
  
 This is part of the Gaussian(R) 09 program.  It is based on
 the Gaussian(R) 03 system (copyright 2003, Gaussian, Inc.),
 the Gaussian(R) 98 system (copyright 1998, Gaussian, Inc.),
 the Gaussian(R) 94 system (copyright 1995, Gaussian, Inc.),
 the Gaussian 92(TM) system (copyright 1992, Gaussian, Inc.),
 the Gaussian 90(TM) system (copyright 1990, Gaussian, Inc.),
 the Gaussian 88(TM) system (copyright 1988, Gaussian, Inc.),
 the Gaussian 86(TM) system (copyright 1986, Carnegie Mellon
 University), and the Gaussian 82(TM) system (copyright 1983,
 Carnegie Mellon University). Gaussian is a federally registered
 trademark of Gaussian, Inc.
  
 This software contains proprietary and confidential information,
 including trade secrets, belonging to Gaussian, Inc.
  
 This software is provided under written license and may be
 used, copied, transmitted, or stored only in accord with that
 written license.
  
 The following legend is applicable only to US Government
 contracts under FAR:
  
                    RESTRICTED RIGHTS LEGEND
  
 Use, reproduction and disclosure by the US Government is
 subject to restrictions as set forth in subparagraphs (a)
 and (c) of the Commercial Computer Software - Restricted
 Rights clause in FAR 52.227-19.
  
 Gaussian, Inc.
 340 Quinnipiac St., Bldg. 40, Wallingford CT 06492
  
  
 ---------------------------------------------------------------
 Warning -- This program may not be used in any manner that
 competes with the business of Gaussian, Inc. or will provide
 assistance to any competitor of Gaussian, Inc.  The licensee
 of this program is prohibited from giving any competitor of
 Gaussian, Inc. access to this program.  By using this program,
 the user acknowledges that Gaussian, Inc. is engaged in the
 business of creating and licensing software in the field of
 computational chemistry and represents and warrants to the
 licensee that it is not a competitor of Gaussian, Inc. and that
 it will not use this program in any manner prohibited above.
 ---------------------------------------------------------------
  

 Cite this work as:
 Gaussian 09, Revision D.01,
 M. J. Frisch, G. W. Trucks, H. B. Schlegel, G. E. Scuseria, 
 M. A. Robb, J. R. Cheeseman, G. Scalmani, V. Barone, B. Mennucci, 
 G. A. Petersson, H. Nakatsuji, M. Caricato, X. Li, H. P. Hratchian, 
 A. F. Izmaylov, J. Bloino, G. Zheng, J. L. Sonnenberg, M. Hada, 
 M. Ehara, K. Toyota, R. Fukuda, J. Hasegawa, M. Ishida, T. Nakajima, 
 Y. Honda, O. Kitao, H. Nakai, T. Vreven, J. A. Montgomery, Jr., 
 J. E. Peralta, F. Ogliaro, M. Bearpark, J. J. Heyd, E. Brothers, 
 K. N. Kudin, V. N. Staroverov, T. Keith, R. Kobayashi, J. Normand, 
 K. Raghavachari, A. Rendell, J. C. Burant, S. S. Iyengar, J. Tomasi, 
 M. Cossi, N. Rega, J. M. Millam, M. Klene, J. E. Knox, J. B. Cross, 
 V. Bakken, C. Adamo, J. Jaramillo, R. Gomperts, R. E. Stratmann, 
 O. Yazyev, A. J. Austin, R. Cammi, C. Pomelli, J. W. Ochterski, 
 R. L. Martin, K. Morokuma, V. G. Zakrzewski, G. A. Voth, 
 P. Salvador, J. J. Dannenberg, S. Dapprich, A. D. Daniels, 
 O. Farkas, J. B. Foresman, J. V. Ortiz, J. Cioslowski, 
 and D. J. Fox, Gaussian, Inc., Wallingford CT, 2013.
 
 ******************************************
 Gaussian 09:  ES64L-G09RevD.01 24-Apr-2013
                28-Jul-2021 
 ******************************************
 %mem=2gb
 %nproc=4
 Will use up to    4 processors via shared memory.
 %chk=conf-55.chk
 ----------------------------------------------------------------------
 # B3LYP/6-311++G(d,p) opt=calcfc freq=noraman nosymm integral(ultrafin
 egrid)
 ----------------------------------------------------------------------
 1/10=4,14=-1,18=20,19=15,26=4,38=1/1,3;
 2/9=110,12=2,15=1,17=6,18=5,40=1/2;
 3/5=4,6=6,7=1111,11=2,16=1,25=1,30=1,71=2,74=-5,75=-5,140=1/1,2,3;
 4//1;
 5/5=2,38=5/2;
 8/6=4,10=90,11=11/1;
 11/6=1,8=1,9=11,15=111,16=1,31=1/1,2,10;
 10/6=1,13=1,31=1/2;
 6/7=2,8=2,9=2,10=2,28=1/1;
 7/10=1,18=20,25=1,30=1/1,2,3,16;
 1/10=4,14=-1,18=20,19=15,26=4/3(2);
 2/9=110,15=1/2;
 99//99;
 2/9=110,15=1/2;
 3/5=4,6=6,7=1111,11=2,16=1,25=1,30=1,71=1,74=-5,75=-5/1,2,3;
 4/5=5,16=3,69=1/1;
 5/5=2,38=5/2;
 7/30=1/1,2,3,16;
 1/14=-1,18=20,19=15,26=4/3(-5);
 2/9=110,15=1/2;
 6/7=2,8=2,9=2,10=2,19=2,28=1/1;
 99/9=1/99;
 -----------------------------------------------------------
 Candidate Structure: Conf:55 OPT and FREQ calc in gas phase
 -----------------------------------------------------------
 Symbolic Z-matrix:
 Charge =  1 Multiplicity = 1
 O                     1.34883   0.14089   1.2878 
 C                     1.51892  -0.08871   0.09629 
 N                     0.47732  -0.4305   -0.70713 
 C                    -0.86336  -0.59504  -0.18131 
 C                    -1.60769  -1.48139  -1.17111 
 O                    -2.6439   -2.18964  -0.69134 
 O                    -1.29808  -1.54938  -2.33026 
 C                    -1.55233   0.7813   -0.0093 
 C                    -2.88789   0.69359   0.65003 
 C                    -3.27821   0.84176   1.95373 
 N                    -4.63104   0.5952    2.09508 
 C                    -5.04876   0.29866   0.88632 
 N                    -4.04188   0.35416  -0.02385 
 C                     2.87163  -0.00607  -0.59405 
 C                     4.00044   0.29806   0.38032 
 N                     5.31649   0.39378  -0.30534 
 H                     0.60261  -0.68025  -1.67756 
 H                    -0.80703  -1.07      0.80339 
 H                    -2.78989  -2.02074   0.24855 
 H                    -1.62985   1.26662  -0.98345 
 H                    -0.89187   1.38447   0.61031 
 H                    -2.66318   1.10701   2.80062 
 H                    -6.05214   0.0325    0.60476 
 H                    -4.10614   0.0967   -0.99868 
 H                     3.07051  -0.95099  -1.11088 
 H                     2.8283    0.77305  -1.36318 
 H                     3.78247   1.23243   0.89541 
 H                     4.03633  -0.48146   1.14049 
 H                     5.55304  -0.47927  -0.7766 
 H                     5.31458   1.13434  -1.00664 
 H                     6.07163   0.59893   0.35034 
 

 GradGradGradGradGradGradGradGradGradGradGradGradGradGradGradGradGradGrad
 Berny optimization.
 Initialization pass.
                           ----------------------------
                           !    Initial Parameters    !
                           ! (Angstroms and Degrees)  !
 --------------------------                            --------------------------
 ! Name  Definition              Value          Derivative Info.                !
 --------------------------------------------------------------------------------
 ! R1    R(1,2)                  1.2253         calculate D2E/DX2 analytically  !
 ! R2    R(2,3)                  1.3591         calculate D2E/DX2 analytically  !
 ! R3    R(2,14)                 1.5209         calculate D2E/DX2 analytically  !
 ! R4    R(3,4)                  1.4495         calculate D2E/DX2 analytically  !
 ! R5    R(3,17)                 1.0099         calculate D2E/DX2 analytically  !
 ! R6    R(4,5)                  1.5229         calculate D2E/DX2 analytically  !
 ! R7    R(4,8)                  1.5487         calculate D2E/DX2 analytically  !
 ! R8    R(4,18)                 1.0947         calculate D2E/DX2 analytically  !
 ! R9    R(5,6)                  1.3437         calculate D2E/DX2 analytically  !
 ! R10   R(5,7)                  1.2017         calculate D2E/DX2 analytically  !
 ! R11   R(6,19)                 0.966          calculate D2E/DX2 analytically  !
 ! R12   R(8,9)                  1.492          calculate D2E/DX2 analytically  !
 ! R13   R(8,20)                 1.0911         calculate D2E/DX2 analytically  !
 ! R14   R(8,21)                 1.0881         calculate D2E/DX2 analytically  !
 ! R15   R(9,10)                 1.3689         calculate D2E/DX2 analytically  !
 ! R16   R(9,13)                 1.3788         calculate D2E/DX2 analytically  !
 ! R17   R(10,11)                1.3824         calculate D2E/DX2 analytically  !
 ! R18   R(10,22)                1.0797         calculate D2E/DX2 analytically  !
 ! R19   R(11,12)                1.3128         calculate D2E/DX2 analytically  !
 ! R20   R(12,13)                1.3584         calculate D2E/DX2 analytically  !
 ! R21   R(12,23)                1.0756         calculate D2E/DX2 analytically  !
 ! R22   R(13,24)                1.0103         calculate D2E/DX2 analytically  !
 ! R23   R(14,15)                1.5219         calculate D2E/DX2 analytically  !
 ! R24   R(14,25)                1.0952         calculate D2E/DX2 analytically  !
 ! R25   R(14,26)                1.0957         calculate D2E/DX2 analytically  !
 ! R26   R(15,16)                1.487          calculate D2E/DX2 analytically  !
 ! R27   R(15,27)                1.089          calculate D2E/DX2 analytically  !
 ! R28   R(15,28)                1.0894         calculate D2E/DX2 analytically  !
 ! R29   R(16,29)                1.0199         calculate D2E/DX2 analytically  !
 ! R30   R(16,30)                1.0199         calculate D2E/DX2 analytically  !
 ! R31   R(16,31)                1.0209         calculate D2E/DX2 analytically  !
 ! A1    A(1,2,3)              121.0352         calculate D2E/DX2 analytically  !
 ! A2    A(1,2,14)             123.6874         calculate D2E/DX2 analytically  !
 ! A3    A(3,2,14)             115.2752         calculate D2E/DX2 analytically  !
 ! A4    A(2,3,4)              121.5307         calculate D2E/DX2 analytically  !
 ! A5    A(2,3,17)             122.3545         calculate D2E/DX2 analytically  !
 ! A6    A(4,3,17)             115.8038         calculate D2E/DX2 analytically  !
 ! A7    A(3,4,5)              106.4005         calculate D2E/DX2 analytically  !
 ! A8    A(3,4,8)              110.5412         calculate D2E/DX2 analytically  !
 ! A9    A(3,4,18)             109.1456         calculate D2E/DX2 analytically  !
 ! A10   A(5,4,8)              111.8376         calculate D2E/DX2 analytically  !
 ! A11   A(5,4,18)             110.9312         calculate D2E/DX2 analytically  !
 ! A12   A(8,4,18)             107.9728         calculate D2E/DX2 analytically  !
 ! A13   A(4,5,6)              116.8469         calculate D2E/DX2 analytically  !
 ! A14   A(4,5,7)              122.2706         calculate D2E/DX2 analytically  !
 ! A15   A(6,5,7)              120.8817         calculate D2E/DX2 analytically  !
 ! A16   A(5,6,19)             111.8247         calculate D2E/DX2 analytically  !
 ! A17   A(4,8,9)              113.2688         calculate D2E/DX2 analytically  !
 ! A18   A(4,8,20)             109.1311         calculate D2E/DX2 analytically  !
 ! A19   A(4,8,21)             106.6099         calculate D2E/DX2 analytically  !
 ! A20   A(9,8,20)             110.9214         calculate D2E/DX2 analytically  !
 ! A21   A(9,8,21)             108.9222         calculate D2E/DX2 analytically  !
 ! A22   A(20,8,21)            107.7562         calculate D2E/DX2 analytically  !
 ! A23   A(8,9,10)             132.0454         calculate D2E/DX2 analytically  !
 ! A24   A(8,9,13)             123.2088         calculate D2E/DX2 analytically  !
 ! A25   A(10,9,13)            104.6826         calculate D2E/DX2 analytically  !
 ! A26   A(9,10,11)            110.9235         calculate D2E/DX2 analytically  !
 ! A27   A(9,10,22)            127.6733         calculate D2E/DX2 analytically  !
 ! A28   A(11,10,22)           121.4024         calculate D2E/DX2 analytically  !
 ! A29   A(10,11,12)           104.9231         calculate D2E/DX2 analytically  !
 ! A30   A(11,12,13)           111.8291         calculate D2E/DX2 analytically  !
 ! A31   A(11,12,23)           126.4229         calculate D2E/DX2 analytically  !
 ! A32   A(13,12,23)           121.7469         calculate D2E/DX2 analytically  !
 ! A33   A(9,13,12)            107.6353         calculate D2E/DX2 analytically  !
 ! A34   A(9,13,24)            125.984          calculate D2E/DX2 analytically  !
 ! A35   A(12,13,24)           126.0823         calculate D2E/DX2 analytically  !
 ! A36   A(2,14,15)            112.3301         calculate D2E/DX2 analytically  !
 ! A37   A(2,14,25)            109.1966         calculate D2E/DX2 analytically  !
 ! A38   A(2,14,26)            108.7897         calculate D2E/DX2 analytically  !
 ! A39   A(15,14,25)           109.8672         calculate D2E/DX2 analytically  !
 ! A40   A(15,14,26)           109.6739         calculate D2E/DX2 analytically  !
 ! A41   A(25,14,26)           106.8239         calculate D2E/DX2 analytically  !
 ! A42   A(14,15,16)           111.9679         calculate D2E/DX2 analytically  !
 ! A43   A(14,15,27)           109.0164         calculate D2E/DX2 analytically  !
 ! A44   A(14,15,28)           109.1593         calculate D2E/DX2 analytically  !
 ! A45   A(16,15,27)           109.8774         calculate D2E/DX2 analytically  !
 ! A46   A(16,15,28)           109.7945         calculate D2E/DX2 analytically  !
 ! A47   A(27,15,28)           106.8878         calculate D2E/DX2 analytically  !
 ! A48   A(15,16,29)           111.2977         calculate D2E/DX2 analytically  !
 ! A49   A(15,16,30)           111.2306         calculate D2E/DX2 analytically  !
 ! A50   A(15,16,31)           111.8033         calculate D2E/DX2 analytically  !
 ! A51   A(29,16,30)           107.7131         calculate D2E/DX2 analytically  !
 ! A52   A(29,16,31)           107.2907         calculate D2E/DX2 analytically  !
 ! A53   A(30,16,31)           107.2827         calculate D2E/DX2 analytically  !
 ! D1    D(1,2,3,4)             -2.742          calculate D2E/DX2 analytically  !
 ! D2    D(1,2,3,17)          -176.0669         calculate D2E/DX2 analytically  !
 ! D3    D(14,2,3,4)           177.7761         calculate D2E/DX2 analytically  !
 ! D4    D(14,2,3,17)            4.4512         calculate D2E/DX2 analytically  !
 ! D5    D(1,2,14,15)            3.9912         calculate D2E/DX2 analytically  !
 ! D6    D(1,2,14,25)          126.134          calculate D2E/DX2 analytically  !
 ! D7    D(1,2,14,26)         -117.6228         calculate D2E/DX2 analytically  !
 ! D8    D(3,2,14,15)         -176.5423         calculate D2E/DX2 analytically  !
 ! D9    D(3,2,14,25)          -54.3995         calculate D2E/DX2 analytically  !
 ! D10   D(3,2,14,26)           61.8437         calculate D2E/DX2 analytically  !
 ! D11   D(2,3,4,5)           -157.8717         calculate D2E/DX2 analytically  !
 ! D12   D(2,3,4,8)             80.5026         calculate D2E/DX2 analytically  !
 ! D13   D(2,3,4,18)           -38.1106         calculate D2E/DX2 analytically  !
 ! D14   D(17,3,4,5)            15.8667         calculate D2E/DX2 analytically  !
 ! D15   D(17,3,4,8)          -105.759          calculate D2E/DX2 analytically  !
 ! D16   D(17,3,4,18)          135.6278         calculate D2E/DX2 analytically  !
 ! D17   D(3,4,5,6)            154.9059         calculate D2E/DX2 analytically  !
 ! D18   D(3,4,5,7)            -25.4287         calculate D2E/DX2 analytically  !
 ! D19   D(8,4,5,6)            -84.298          calculate D2E/DX2 analytically  !
 ! D20   D(8,4,5,7)             95.3674         calculate D2E/DX2 analytically  !
 ! D21   D(18,4,5,6)            36.3112         calculate D2E/DX2 analytically  !
 ! D22   D(18,4,5,7)          -144.0234         calculate D2E/DX2 analytically  !
 ! D23   D(3,4,8,9)           -174.5142         calculate D2E/DX2 analytically  !
 ! D24   D(3,4,8,20)            61.3888         calculate D2E/DX2 analytically  !
 ! D25   D(3,4,8,21)           -54.736          calculate D2E/DX2 analytically  !
 ! D26   D(5,4,8,9)             67.1273         calculate D2E/DX2 analytically  !
 ! D27   D(5,4,8,20)           -56.9697         calculate D2E/DX2 analytically  !
 ! D28   D(5,4,8,21)          -173.0945         calculate D2E/DX2 analytically  !
 ! D29   D(18,4,8,9)           -55.1897         calculate D2E/DX2 analytically  !
 ! D30   D(18,4,8,20)         -179.2866         calculate D2E/DX2 analytically  !
 ! D31   D(18,4,8,21)           64.5886         calculate D2E/DX2 analytically  !
 ! D32   D(4,5,6,19)             1.0577         calculate D2E/DX2 analytically  !
 ! D33   D(7,5,6,19)          -178.6126         calculate D2E/DX2 analytically  !
 ! D34   D(4,8,9,10)            95.4027         calculate D2E/DX2 analytically  !
 ! D35   D(4,8,9,13)           -81.2379         calculate D2E/DX2 analytically  !
 ! D36   D(20,8,9,10)         -141.4823         calculate D2E/DX2 analytically  !
 ! D37   D(20,8,9,13)           41.8771         calculate D2E/DX2 analytically  !
 ! D38   D(21,8,9,10)          -23.045          calculate D2E/DX2 analytically  !
 ! D39   D(21,8,9,13)          160.3144         calculate D2E/DX2 analytically  !
 ! D40   D(8,9,10,11)         -176.7273         calculate D2E/DX2 analytically  !
 ! D41   D(8,9,10,22)            2.9451         calculate D2E/DX2 analytically  !
 ! D42   D(13,9,10,11)           0.3675         calculate D2E/DX2 analytically  !
 ! D43   D(13,9,10,22)        -179.9601         calculate D2E/DX2 analytically  !
 ! D44   D(8,9,13,12)          176.7117         calculate D2E/DX2 analytically  !
 ! D45   D(8,9,13,24)            2.6962         calculate D2E/DX2 analytically  !
 ! D46   D(10,9,13,12)          -0.7099         calculate D2E/DX2 analytically  !
 ! D47   D(10,9,13,24)        -174.7255         calculate D2E/DX2 analytically  !
 ! D48   D(9,10,11,12)           0.1277         calculate D2E/DX2 analytically  !
 ! D49   D(22,10,11,12)       -179.5685         calculate D2E/DX2 analytically  !
 ! D50   D(10,11,12,13)         -0.5995         calculate D2E/DX2 analytically  !
 ! D51   D(10,11,12,23)        179.0217         calculate D2E/DX2 analytically  !
 ! D52   D(11,12,13,9)           0.8509         calculate D2E/DX2 analytically  !
 ! D53   D(11,12,13,24)        174.859          calculate D2E/DX2 analytically  !
 ! D54   D(23,12,13,9)        -178.7906         calculate D2E/DX2 analytically  !
 ! D55   D(23,12,13,24)         -4.7826         calculate D2E/DX2 analytically  !
 ! D56   D(2,14,15,16)        -179.2902         calculate D2E/DX2 analytically  !
 ! D57   D(2,14,15,27)         -57.4998         calculate D2E/DX2 analytically  !
 ! D58   D(2,14,15,28)          58.9255         calculate D2E/DX2 analytically  !
 ! D59   D(25,14,15,16)         58.9484         calculate D2E/DX2 analytically  !
 ! D60   D(25,14,15,27)       -179.2611         calculate D2E/DX2 analytically  !
 ! D61   D(25,14,15,28)        -62.8358         calculate D2E/DX2 analytically  !
 ! D62   D(26,14,15,16)        -58.1823         calculate D2E/DX2 analytically  !
 ! D63   D(26,14,15,27)         63.6081         calculate D2E/DX2 analytically  !
 ! D64   D(26,14,15,28)       -179.9666         calculate D2E/DX2 analytically  !
 ! D65   D(14,15,16,29)        -60.0994         calculate D2E/DX2 analytically  !
 ! D66   D(14,15,16,30)         60.0182         calculate D2E/DX2 analytically  !
 ! D67   D(14,15,16,31)        179.9313         calculate D2E/DX2 analytically  !
 ! D68   D(27,15,16,29)        178.6053         calculate D2E/DX2 analytically  !
 ! D69   D(27,15,16,30)        -61.277          calculate D2E/DX2 analytically  !
 ! D70   D(27,15,16,31)         58.6361         calculate D2E/DX2 analytically  !
 ! D71   D(28,15,16,29)         61.3197         calculate D2E/DX2 analytically  !
 ! D72   D(28,15,16,30)       -178.5626         calculate D2E/DX2 analytically  !
 ! D73   D(28,15,16,31)        -58.6495         calculate D2E/DX2 analytically  !
 --------------------------------------------------------------------------------
 Trust Radius=3.00D-01 FncErr=1.00D-07 GrdErr=1.00D-06
 Number of steps in this run=    167 maximum allowed number of steps=    186.
 GradGradGradGradGradGradGradGradGradGradGradGradGradGradGradGradGradGrad

                          Input orientation:                          
 ---------------------------------------------------------------------
 Center     Atomic      Atomic             Coordinates (Angstroms)
 Number     Number       Type             X           Y           Z
 ---------------------------------------------------------------------
      1          8           0        1.348829    0.140889    1.287804
      2          6           0        1.518922   -0.088714    0.096288
      3          7           0        0.477320   -0.430501   -0.707130
      4          6           0       -0.863362   -0.595037   -0.181306
      5          6           0       -1.607689   -1.481393   -1.171108
      6          8           0       -2.643900   -2.189644   -0.691336
      7          8           0       -1.298081   -1.549384   -2.330261
      8          6           0       -1.552330    0.781299   -0.009301
      9          6           0       -2.887886    0.693590    0.650027
     10          6           0       -3.278210    0.841758    1.953726
     11          7           0       -4.631041    0.595201    2.095081
     12          6           0       -5.048763    0.298663    0.886319
     13          7           0       -4.041884    0.354163   -0.023854
     14          6           0        2.871626   -0.006067   -0.594050
     15          6           0        4.000439    0.298056    0.380324
     16          7           0        5.316490    0.393775   -0.305338
     17          1           0        0.602613   -0.680247   -1.677561
     18          1           0       -0.807035   -1.070001    0.803392
     19          1           0       -2.789892   -2.020736    0.248550
     20          1           0       -1.629851    1.266616   -0.983454
     21          1           0       -0.891871    1.384473    0.610309
     22          1           0       -2.663185    1.107015    2.800623
     23          1           0       -6.052143    0.032499    0.604758
     24          1           0       -4.106140    0.096700   -0.998681
     25          1           0        3.070510   -0.950991   -1.110878
     26          1           0        2.828300    0.773055   -1.363180
     27          1           0        3.782473    1.232426    0.895414
     28          1           0        4.036326   -0.481461    1.140488
     29          1           0        5.553043   -0.479268   -0.776603
     30          1           0        5.314578    1.134339   -1.006637
     31          1           0        6.071631    0.598931    0.350344
 ---------------------------------------------------------------------
                    Distance matrix (angstroms):
                    1          2          3          4          5
     1  O    0.000000
     2  C    1.225300   0.000000
     3  N    2.250728   1.359130   0.000000
     4  C    2.755660   2.451265   1.449479   0.000000
     5  C    4.173614   3.649870   2.380528   1.522944   0.000000
     6  O    5.028943   4.728990   3.582854   2.444016   1.343701
     7  O    4.790986   3.994647   2.653017   2.391185   1.201713
     8  C    3.241810   3.193848   2.464732   1.548730   2.544138
     9  C    4.319953   4.509832   3.798692   2.539758   3.112232
    10  C    4.726961   5.227650   4.775227   3.529055   4.237010
    11  N    6.051193   6.502688   5.916062   4.560044   4.911302
    12  C    6.412118   6.626364   5.797270   4.410907   4.386638
    13  N    5.552092   5.579708   4.637431   3.320960   3.257417
    14  C    2.425259   1.520922   2.434262   3.803601   4.751194
    15  C    2.807001   2.527487   3.758420   4.976907   6.084775
    16  N    4.283035   3.849107   4.925286   6.259689   7.225654
    17  H    3.166149   2.082324   1.009856   2.096455   2.404947
    18  H    2.519654   2.621640   2.083315   1.094711   2.170010
    19  H    4.783481   4.724592   3.757239   2.434935   1.924558
    20  H    3.911318   3.594097   2.719693   2.167187   2.754498
    21  H    2.650705   2.871658   2.627633   2.132118   3.449497
    22  H    4.395256   5.121837   4.952883   3.876628   4.856808
    23  H    7.433216   7.589089   6.676025   5.285371   5.019835
    24  H    5.914952   5.733643   4.622883   3.414998   2.960130
    25  H    3.148026   2.146671   2.675548   4.057851   4.708556
    26  H    3.100997   2.141766   2.721407   4.110580   4.979702
    27  H    2.695931   2.740014   4.032061   5.107126   6.378807
    28  H    2.762547   2.753530   4.010339   5.076119   6.180474
    29  H    4.724593   4.145913   5.076433   6.445001   7.241269
    30  H    4.688130   4.137548   5.092887   6.468296   7.401817
    31  H    4.836682   4.611351   5.785698   7.057077   8.100279
                    6          7          8          9         10
     6  O    0.000000
     7  O    2.215228   0.000000
     8  C    3.237777   3.299028   0.000000
     9  C    3.189329   4.054692   1.492017   0.000000
    10  C    4.072849   5.290653   2.614534   1.368918   0.000000
    11  N    4.412280   5.940666   3.733834   2.266374   1.382361
    12  C    3.803161   5.275346   3.641444   2.209341   2.137561
    13  N    2.978396   4.058505   2.525973   1.378781   2.175263
    14  C    5.932832   4.773123   4.531364   5.933736   6.710473
    15  C    7.175259   6.231742   5.587358   6.904941   7.466588
    16  N    8.377999   7.185314   6.886110   8.265253   8.897917
    17  H    3.713592   2.189533   3.092408   4.414598   5.528429
    18  H    2.619521   3.207914   2.154819   2.731980   3.329383
    19  H    0.966038   3.016279   3.073996   2.745606   3.367484
    20  H    3.613773   3.139079   1.091108   2.139923   3.394793
    21  H    4.187863   4.173664   1.088090   2.112575   2.791760
    22  H    4.802303   5.936829   3.039040   2.201472   1.079747
    23  H    4.270117   5.806703   4.602835   3.232896   3.188937
    24  H    2.731296   3.516802   2.823030   2.135101   3.155517
    25  H    5.862146   4.574883   5.058157   6.427123   7.274063
    26  H    6.258908   4.832803   4.585081   6.060866   6.949535
    27  H    7.451618   6.629893   5.429747   6.696585   7.150237
    28  H    7.134346   6.453097   5.843771   7.040314   7.477613
    29  H    8.373919   7.106117   7.257004   8.640610   9.337603
    30  H    8.630506   7.258209   6.947931   8.379690   9.093148
    31  H    9.209871   8.131024   7.634617   8.965027   9.489432
                   11         12         13         14         15
    11  N    0.000000
    12  C    1.312834   0.000000
    13  N    2.212485   1.358418   0.000000
    14  C    7.992681   8.063306   6.946331   0.000000
    15  C    8.805176   9.063337   8.052668   1.521879   0.000000
    16  N   10.235036  10.433962   9.362691   2.494111   1.487039
    17  H    6.576529   6.282499   5.037470   2.603254   4.091111
    18  H    4.366277   4.457844   3.629990   4.076437   5.016210
    19  H    3.693593   3.299827   2.698487   6.068085   7.176542
    20  H    4.351473   4.015214   2.751601   4.694108   5.873514
    21  H    4.099865   4.305219   3.374357   4.189032   5.016760
    22  H    2.152255   3.163696   3.231915   6.587632   7.135555
    23  H    2.134767   1.075590   2.130672   9.004015  10.058593
    24  H    3.177324   2.117204   1.010298   6.990244   8.225498
    25  H    8.484266   8.454172   7.312400   1.095239   2.156054
    26  H    8.223926   8.205693   7.012039   1.095659   2.153913
    27  H    8.522468   8.880468   7.926977   2.140564   1.088979
    28  H    8.785995   9.122063   8.204355   2.142697   1.089396
    29  H   10.635629  10.759589   9.660428   2.728963   2.086454
    30  H   10.432001  10.567898   9.440229   2.727411   2.085663
    31  H   10.843952  11.137350  10.123395   3.390861   2.093146
                   16         17         18         19         20
    16  N    0.000000
    17  H    5.025650   0.000000
    18  H    6.392924   2.879956   0.000000
    19  H    8.476443   4.125034   2.267922   0.000000
    20  H    7.033729   3.042360   3.054443   3.697325   0.000000
    21  H    6.353238   3.425040   2.463518   3.915201   1.760280
    22  H    8.592492   5.823562   3.489072   4.038807   3.925875
    23  H   11.410724   7.071264   5.363406   3.871039   4.858203
    24  H    9.452774   4.820465   3.936084   2.787764   2.738785
    25  H    2.738927   2.546556   4.325962   6.110377   5.198789
    26  H    2.730197   2.676677   4.615901   6.478196   4.501433
    27  H    2.120932   4.515532   5.135486   7.361894   5.729273
    28  H    2.120205   4.446494   4.890619   7.054231   6.298609
    29  H    1.019928   5.035759   6.579965   8.545854   7.394921
    30  H    1.019930   5.093670   6.753477   8.787060   6.945727
    31  H    1.020904   5.971503   7.092716   9.241191   7.844593
                   21         22         23         24         25
    21  H    0.000000
    22  H    2.830550   0.000000
    23  H    5.334443   4.178690   0.000000
    24  H    3.818211   4.187788   2.522314   0.000000
    25  H    4.910940   7.239509   9.334531   7.253589   0.000000
    26  H    4.255368   6.899651   9.125978   6.976874   1.759164
    27  H    4.685498   6.722504   9.911810   8.191928   3.049494
    28  H    5.296218   7.082567  10.115749   8.438606   2.494376
    29  H    6.850836   9.100507  11.698308   9.678888   2.548967
    30  H    6.418495   8.839721  11.533126   9.477694   3.065177
    31  H    7.012489   9.086199  12.139665  10.279063   3.680239
                   26         27         28         29         30
    26  H    0.000000
    27  H    2.494537   0.000000
    28  H    3.049835   1.749832   0.000000
    29  H    3.055587   2.976652   2.444518   0.000000
    30  H    2.537564   2.444333   2.975715   1.647273   0.000000
    31  H    3.672286   2.436937   2.435988   1.643611   1.643529
                   31
    31  H    0.000000
 Symmetry turned off by external request.
 Stoichiometry    C9H15N4O3(1+)
 Framework group  C1[X(C9H15N4O3)]
 Deg. of freedom    87
 Full point group                 C1      NOp   1
 Rotational constants (GHZ):      1.0838826      0.2275936      0.1975641
 Standard basis: 6-311++G(d,p) (5D, 7F)
   457 basis functions,   711 primitive gaussians,   473 cartesian basis functions
    60 alpha electrons       60 beta electrons
       nuclear repulsion energy      1117.3441594988 Hartrees.
 NAtoms=   31 NActive=   31 NUniq=   31 SFac= 1.00D+00 NAtFMM=   60 NAOKFM=F Big=F
 Integral buffers will be    131072 words long.
 Raffenetti 2 integral format.
 Two-electron integral symmetry is turned off.
 One-electron integrals computed using PRISM.
 NBasis=   457 RedAO= T EigKep=  1.49D-06  NBF=   457
 NBsUse=   457 1.00D-06 EigRej= -1.00D+00 NBFU=   457
 ExpMin= 3.60D-02 ExpMax= 8.59D+03 ExpMxC= 1.30D+03 IAcc=3 IRadAn=         5 AccDes= 0.00D+00
 Harris functional with IExCor=  402 and IRadAn=       5 diagonalized for initial guess.
 HarFok:  IExCor=  402 AccDes= 0.00D+00 IRadAn=         5 IDoV= 1 UseB2=F ITyADJ=14
 ICtDFT=  3500011 ScaDFX=  1.000000  1.000000  1.000000  1.000000
 FoFCou: FMM=F IPFlag=           0 FMFlag=      100000 FMFlg1=           0
         NFxFlg=           0 DoJE=T BraDBF=F KetDBF=T FulRan=T
         wScrn=  0.000000 ICntrl=     500 IOpCl=  0 I1Cent=   200000004 NGrid=           0
         NMat0=    1 NMatS0=      1 NMatT0=    0 NMatD0=    1 NMtDS0=    0 NMtDT0=    0
 Symmetry not used in FoFCou.
 Requested convergence on RMS density matrix=1.00D-08 within 128 cycles.
 Requested convergence on MAX density matrix=1.00D-06.
 Requested convergence on             energy=1.00D-06.
 No special actions if energy rises.
 EnCoef did     2 forward-backward iterations
 EnCoef did     1 forward-backward iterations
 SCF Done:  E(RB3LYP) =  -796.678367709     A.U. after   18 cycles
            NFock= 18  Conv=0.19D-08     -V/T= 2.0036
 DoSCS=F DFT=T ScalE2(SS,OS)=  1.000000  1.000000
 Range of M.O.s used for correlation:     1   457
 NBasis=   457 NAE=    60 NBE=    60 NFC=     0 NFV=     0
 NROrb=    457 NOA=    60 NOB=    60 NVA=   397 NVB=   397

 **** Warning!!: The largest alpha MO coefficient is  0.18447630D+03

 Symmetrizing basis deriv contribution to polar:
 IMax=3 JMax=2 DiffMx= 0.00D+00
 G2DrvN: will do    32 centers at a time, making    1 passes.
 Calling FoFCou, ICntrl=  3107 FMM=F I1Cent=   0 AccDes= 0.00D+00.
 End of G2Drv F.D. properties file   721 does not exist.
 End of G2Drv F.D. properties file   722 does not exist.
 End of G2Drv F.D. properties file   788 does not exist.
          IDoAtm=1111111111111111111111111111111
          Differentiating once with respect to nuclear coordinates.
          There are    96 degrees of freedom in the 1st order CPHF.  IDoFFX=6 NUNeed=     0.
     90 vectors produced by pass  0 Test12= 2.48D-14 1.04D-09 XBig12= 2.36D-01 1.01D-01.
 AX will form    90 AO Fock derivatives at one time.
     90 vectors produced by pass  1 Test12= 2.48D-14 1.04D-09 XBig12= 1.42D-02 1.98D-02.
     90 vectors produced by pass  2 Test12= 2.48D-14 1.04D-09 XBig12= 1.87D-04 1.82D-03.
     90 vectors produced by pass  3 Test12= 2.48D-14 1.04D-09 XBig12= 7.49D-07 1.09D-04.
     90 vectors produced by pass  4 Test12= 2.48D-14 1.04D-09 XBig12= 2.09D-09 4.10D-06.
     83 vectors produced by pass  5 Test12= 2.48D-14 1.04D-09 XBig12= 2.83D-12 1.64D-07.
     30 vectors produced by pass  6 Test12= 2.48D-14 1.04D-09 XBig12= 4.87D-15 6.80D-09.
     12 vectors produced by pass  7 Test12= 2.48D-14 1.04D-09 XBig12= 1.05D-15 3.06D-09.
      1 vectors produced by pass  8 Test12= 2.48D-14 1.04D-09 XBig12= 2.93D-16 1.83D-09.
 InvSVY:  IOpt=1 It=  1 EMax= 7.77D-16
 Solved reduced A of dimension   576 with    96 vectors.
 End of Minotr F.D. properties file   721 does not exist.
 End of Minotr F.D. properties file   722 does not exist.
 End of Minotr F.D. properties file   788 does not exist.

 **********************************************************************

            Population analysis using the SCF density.

 **********************************************************************

 Alpha  occ. eigenvalues --  -19.28466 -19.23400 -19.23006 -14.65358 -14.47481
 Alpha  occ. eigenvalues --  -14.45588 -14.37475 -10.42569 -10.42417 -10.42301
 Alpha  occ. eigenvalues --  -10.36724 -10.35136 -10.30635 -10.29842 -10.29562
 Alpha  occ. eigenvalues --  -10.26835  -1.22745  -1.22565  -1.18811  -1.14807
 Alpha  occ. eigenvalues --   -1.10777  -1.06708  -0.98007  -0.96044  -0.91743
 Alpha  occ. eigenvalues --   -0.86783  -0.83660  -0.80771  -0.80078  -0.77944
 Alpha  occ. eigenvalues --   -0.74529  -0.72163  -0.70915  -0.70382  -0.69054
 Alpha  occ. eigenvalues --   -0.67723  -0.65722  -0.63694  -0.61709  -0.61246
 Alpha  occ. eigenvalues --   -0.58880  -0.58136  -0.57358  -0.56426  -0.55034
 Alpha  occ. eigenvalues --   -0.54364  -0.53556  -0.52089  -0.51505  -0.50629
 Alpha  occ. eigenvalues --   -0.49390  -0.49295  -0.48682  -0.44175  -0.41289
 Alpha  occ. eigenvalues --   -0.40372  -0.39600  -0.37027  -0.35323  -0.32021
 Alpha virt. eigenvalues --   -0.20828  -0.15411  -0.15048  -0.13729  -0.13123
 Alpha virt. eigenvalues --   -0.12038  -0.11238  -0.09701  -0.09476  -0.09124
 Alpha virt. eigenvalues --   -0.08277  -0.07324  -0.07037  -0.06670  -0.06123
 Alpha virt. eigenvalues --   -0.05653  -0.05027  -0.04660  -0.04406  -0.04191
 Alpha virt. eigenvalues --   -0.03780  -0.02819  -0.02635  -0.02145  -0.01341
 Alpha virt. eigenvalues --   -0.01212  -0.01052  -0.00592  -0.00137  -0.00021
 Alpha virt. eigenvalues --    0.00627   0.01009   0.01386   0.01499   0.01969
 Alpha virt. eigenvalues --    0.02266   0.02766   0.02866   0.02996   0.03281
 Alpha virt. eigenvalues --    0.03699   0.04093   0.04397   0.04604   0.05187
 Alpha virt. eigenvalues --    0.05396   0.05865   0.05998   0.06561   0.06644
 Alpha virt. eigenvalues --    0.07104   0.07501   0.07933   0.08098   0.08350
 Alpha virt. eigenvalues --    0.08444   0.09065   0.09712   0.10087   0.10743
 Alpha virt. eigenvalues --    0.11318   0.11900   0.12281   0.12441   0.12760
 Alpha virt. eigenvalues --    0.12909   0.13235   0.14121   0.14165   0.14677
 Alpha virt. eigenvalues --    0.15421   0.15581   0.16259   0.16942   0.17458
 Alpha virt. eigenvalues --    0.17803   0.17903   0.18154   0.18660   0.19052
 Alpha virt. eigenvalues --    0.19220   0.19704   0.20233   0.20544   0.21098
 Alpha virt. eigenvalues --    0.21713   0.21942   0.22381   0.23296   0.23589
 Alpha virt. eigenvalues --    0.23631   0.24526   0.24653   0.24892   0.25225
 Alpha virt. eigenvalues --    0.25568   0.26707   0.27004   0.28047   0.28178
 Alpha virt. eigenvalues --    0.28428   0.28648   0.29141   0.29873   0.29885
 Alpha virt. eigenvalues --    0.30566   0.30825   0.31774   0.32290   0.32559
 Alpha virt. eigenvalues --    0.33747   0.34657   0.36897   0.37936   0.38492
 Alpha virt. eigenvalues --    0.39350   0.40310   0.40446   0.42716   0.43702
 Alpha virt. eigenvalues --    0.44223   0.44764   0.45819   0.47153   0.47612
 Alpha virt. eigenvalues --    0.47690   0.48167   0.49052   0.50878   0.51433
 Alpha virt. eigenvalues --    0.51942   0.53060   0.53115   0.54391   0.55304
 Alpha virt. eigenvalues --    0.55820   0.56034   0.56374   0.57888   0.58825
 Alpha virt. eigenvalues --    0.58919   0.59410   0.60165   0.61076   0.62127
 Alpha virt. eigenvalues --    0.62491   0.63788   0.64243   0.64805   0.65389
 Alpha virt. eigenvalues --    0.65942   0.67314   0.68001   0.68908   0.70590
 Alpha virt. eigenvalues --    0.72000   0.72668   0.73629   0.75052   0.77198
 Alpha virt. eigenvalues --    0.79484   0.80344   0.81494   0.81974   0.82476
 Alpha virt. eigenvalues --    0.83313   0.83799   0.84523   0.86304   0.88000
 Alpha virt. eigenvalues --    0.89977   0.90471   0.93355   0.93856   0.95002
 Alpha virt. eigenvalues --    0.95713   0.96668   0.98129   1.00496   1.01031
 Alpha virt. eigenvalues --    1.02249   1.02894   1.03767   1.05489   1.05853
 Alpha virt. eigenvalues --    1.07493   1.08657   1.09368   1.09986   1.11013
 Alpha virt. eigenvalues --    1.11501   1.12417   1.14686   1.15246   1.15947
 Alpha virt. eigenvalues --    1.17022   1.18129   1.19738   1.22591   1.22895
 Alpha virt. eigenvalues --    1.23214   1.23820   1.25686   1.30018   1.30560
 Alpha virt. eigenvalues --    1.32450   1.33526   1.35250   1.36289   1.37144
 Alpha virt. eigenvalues --    1.38493   1.39487   1.41207   1.41944   1.43035
 Alpha virt. eigenvalues --    1.44595   1.46906   1.48284   1.49918   1.50504
 Alpha virt. eigenvalues --    1.52095   1.52199   1.53255   1.54435   1.55016
 Alpha virt. eigenvalues --    1.56348   1.56467   1.57353   1.58619   1.59235
 Alpha virt. eigenvalues --    1.59477   1.60433   1.61640   1.63770   1.64734
 Alpha virt. eigenvalues --    1.65597   1.66390   1.68504   1.69324   1.70524
 Alpha virt. eigenvalues --    1.72027   1.72520   1.72786   1.73780   1.76137
 Alpha virt. eigenvalues --    1.77985   1.78469   1.80520   1.82603   1.83354
 Alpha virt. eigenvalues --    1.85250   1.86207   1.88868   1.92425   1.92813
 Alpha virt. eigenvalues --    1.94617   1.96781   1.97224   1.99450   2.02042
 Alpha virt. eigenvalues --    2.03214   2.04632   2.05991   2.08074   2.10339
 Alpha virt. eigenvalues --    2.10555   2.13674   2.14449   2.15351   2.16757
 Alpha virt. eigenvalues --    2.19223   2.20915   2.23512   2.24456   2.25303
 Alpha virt. eigenvalues --    2.29383   2.29749   2.31717   2.33844   2.35165
 Alpha virt. eigenvalues --    2.36782   2.38218   2.38830   2.42832   2.44795
 Alpha virt. eigenvalues --    2.45601   2.47152   2.48780   2.49579   2.50742
 Alpha virt. eigenvalues --    2.51563   2.52001   2.52719   2.53168   2.55112
 Alpha virt. eigenvalues --    2.55721   2.57302   2.59826   2.61063   2.61975
 Alpha virt. eigenvalues --    2.63224   2.65419   2.68471   2.69885   2.71180
 Alpha virt. eigenvalues --    2.73336   2.73682   2.74337   2.75697   2.76962
 Alpha virt. eigenvalues --    2.77636   2.78974   2.80382   2.81254   2.81401
 Alpha virt. eigenvalues --    2.81614   2.82929   2.83605   2.83883   2.85798
 Alpha virt. eigenvalues --    2.86264   2.88001   2.90988   2.92514   2.94340
 Alpha virt. eigenvalues --    2.95973   2.98053   2.99672   3.03763   3.05712
 Alpha virt. eigenvalues --    3.10298   3.11651   3.16642   3.19587   3.22923
 Alpha virt. eigenvalues --    3.24325   3.27027   3.29292   3.35291   3.36254
 Alpha virt. eigenvalues --    3.43674   3.44695   3.48054   3.53994   3.55924
 Alpha virt. eigenvalues --    3.58808   3.61064   3.61866   3.63527   3.64540
 Alpha virt. eigenvalues --    3.75434   3.77558   3.79041   3.80485   3.81104
 Alpha virt. eigenvalues --    3.82977   3.86112   3.92172   3.96055   4.00690
 Alpha virt. eigenvalues --    4.09473   4.13024   4.22126   4.42938   4.43014
 Alpha virt. eigenvalues --    4.43171   4.58007   4.69646   4.73295   4.84214
 Alpha virt. eigenvalues --    4.85388   4.93457   4.97509   4.97977   5.10804
 Alpha virt. eigenvalues --    5.17274   5.19756   5.29329   5.50158   5.66125
 Alpha virt. eigenvalues --    5.78881  23.65707  23.67203  23.70357  23.71148
 Alpha virt. eigenvalues --   23.72998  23.77272  23.83985  23.88332  24.06497
 Alpha virt. eigenvalues --   35.31183  35.47196  35.49297  35.62376  49.77660
 Alpha virt. eigenvalues --   49.88996  49.91462
          Condensed to atoms (all electrons):
               1          2          3          4          5          6
     1  O    8.043725   0.200219  -0.105728   0.042053   0.041029  -0.001298
     2  C    0.200219  10.177161  -0.771832  -0.706040  -0.109212   0.048628
     3  N   -0.105728  -0.771832   8.012676  -0.885257  -0.250758  -0.006660
     4  C    0.042053  -0.706040  -0.885257  11.890250  -1.266435  -0.111831
     5  C    0.041029  -0.109212  -0.250758  -1.266435   7.562398   0.276998
     6  O   -0.001298   0.048628  -0.006660  -0.111831   0.276998   7.842504
     7  O    0.000522   0.102080   0.044888  -0.179295   0.341052  -0.124526
     8  C   -0.042270   0.573243   0.160545  -1.163200  -0.434838   0.262304
     9  C    0.015637  -1.087974   0.631597  -2.164497   0.493329  -0.239044
    10  C   -0.009202  -0.199801  -0.009298   0.523428  -0.010647  -0.075035
    11  N    0.000160   0.004261  -0.000805   0.009223  -0.008925  -0.008901
    12  C    0.000895   0.014286   0.021114  -0.019043  -0.042476  -0.035991
    13  N    0.000080   0.039734   0.014610  -0.048438   0.045002   0.006586
    14  C    0.137926  -2.846050  -0.073949  -0.513035   0.024081  -0.011604
    15  C   -0.017262   0.716111   0.051176  -0.169277   0.008757  -0.000944
    16  N    0.005153  -0.022433   0.001939   0.007618  -0.000288  -0.000002
    17  H   -0.003640   0.149702   0.205272   0.079997  -0.086836   0.021083
    18  H   -0.024649   0.077060  -0.100417   0.750380  -0.189418   0.040227
    19  H    0.002613   0.003662   0.008801   0.001749  -0.045939   0.180315
    20  H    0.000254   0.011157  -0.012356   0.049683  -0.047436  -0.003633
    21  H   -0.001840   0.059719  -0.041460  -0.111149   0.029196  -0.002214
    22  H   -0.000220  -0.003357  -0.000867   0.005911   0.003058  -0.000846
    23  H    0.000014   0.000132   0.000362   0.002007  -0.002254  -0.001898
    24  H    0.000050   0.014169   0.003372  -0.016698  -0.035188   0.008583
    25  H    0.003649  -0.026031   0.031760   0.051871  -0.022902  -0.000848
    26  H    0.006051  -0.203645   0.034056   0.010770   0.007352  -0.000035
    27  H   -0.007671   0.041031  -0.009370   0.005944  -0.002314   0.000035
    28  H   -0.009935  -0.037867  -0.010822   0.003830   0.005325   0.000090
    29  H    0.000367  -0.002244  -0.001149  -0.002125   0.000255   0.000003
    30  H    0.000941  -0.000638  -0.000029  -0.000024  -0.000261   0.000003
    31  H    0.000780   0.008495   0.001860  -0.000681  -0.000102  -0.000003
               7          8          9         10         11         12
     1  O    0.000522  -0.042270   0.015637  -0.009202   0.000160   0.000895
     2  C    0.102080   0.573243  -1.087974  -0.199801   0.004261   0.014286
     3  N    0.044888   0.160545   0.631597  -0.009298  -0.000805   0.021114
     4  C   -0.179295  -1.163200  -2.164497   0.523428   0.009223  -0.019043
     5  C    0.341052  -0.434838   0.493329  -0.010647  -0.008925  -0.042476
     6  O   -0.124526   0.262304  -0.239044  -0.075035  -0.008901  -0.035991
     7  O    7.971927  -0.009716   0.027462  -0.001829   0.000593   0.003740
     8  C   -0.009716  19.812098  -8.841710  -3.203445  -0.270022  -0.632619
     9  C    0.027462  -8.841710  16.362631   0.462137  -0.209489   0.298020
    10  C   -0.001829  -3.203445   0.462137   7.819850   0.741488  -0.212315
    11  N    0.000593  -0.270022  -0.209489   0.741488   6.575017   0.361195
    12  C    0.003740  -0.632619   0.298020  -0.212315   0.361195   5.556435
    13  N   -0.000461  -0.436949  -0.114743   0.185706   0.038581   0.193580
    14  C   -0.009632  -0.161185   0.423559   0.033309   0.000597   0.006311
    15  C   -0.001411  -0.007382   0.040475  -0.000064   0.000044   0.000798
    16  N   -0.000037   0.001423  -0.000042   0.000108   0.000000  -0.000002
    17  H    0.057031   0.055640  -0.121180  -0.015770  -0.000202  -0.001946
    18  H   -0.015546   0.198273  -0.352632  -0.035495  -0.005997  -0.015475
    19  H    0.024804  -0.162290   0.177017   0.041318   0.007917   0.023428
    20  H    0.001128   0.426256  -0.141999   0.021205   0.003420  -0.010780
    21  H   -0.002939   0.426666   0.036202  -0.045208  -0.000126  -0.001865
    22  H    0.000073  -0.057910  -0.105482   0.494027  -0.066523   0.026192
    23  H    0.000200  -0.015229   0.067164  -0.012292  -0.065007   0.459564
    24  H   -0.002362   0.113524  -0.072422  -0.066021   0.006521  -0.029212
    25  H   -0.003729  -0.002157  -0.003014   0.001392  -0.000011   0.000006
    26  H   -0.000007   0.001260   0.016148   0.001787  -0.000004   0.000079
    27  H    0.000007   0.006231  -0.012526  -0.000984  -0.000016  -0.000104
    28  H    0.000064  -0.001953  -0.000856  -0.000273   0.000006  -0.000043
    29  H    0.000052  -0.000064   0.000042  -0.000012   0.000000   0.000001
    30  H    0.000019  -0.000101  -0.000069  -0.000026   0.000000   0.000000
    31  H   -0.000007   0.000398   0.000301   0.000037   0.000000   0.000003
              13         14         15         16         17         18
     1  O    0.000080   0.137926  -0.017262   0.005153  -0.003640  -0.024649
     2  C    0.039734  -2.846050   0.716111  -0.022433   0.149702   0.077060
     3  N    0.014610  -0.073949   0.051176   0.001939   0.205272  -0.100417
     4  C   -0.048438  -0.513035  -0.169277   0.007618   0.079997   0.750380
     5  C    0.045002   0.024081   0.008757  -0.000288  -0.086836  -0.189418
     6  O    0.006586  -0.011604  -0.000944  -0.000002   0.021083   0.040227
     7  O   -0.000461  -0.009632  -0.001411  -0.000037   0.057031  -0.015546
     8  C   -0.436949  -0.161185  -0.007382   0.001423   0.055640   0.198273
     9  C   -0.114743   0.423559   0.040475  -0.000042  -0.121180  -0.352632
    10  C    0.185706   0.033309  -0.000064   0.000108  -0.015770  -0.035495
    11  N    0.038581   0.000597   0.000044   0.000000  -0.000202  -0.005997
    12  C    0.193580   0.006311   0.000798  -0.000002  -0.001946  -0.015475
    13  N    6.986024  -0.004184   0.000509  -0.000001   0.001720  -0.016558
    14  C   -0.004184   9.589133  -1.257142  -0.073745  -0.009956  -0.093426
    15  C    0.000509  -1.257142   6.876381   0.048348  -0.049697  -0.004323
    16  N   -0.000001  -0.073745   0.048348   6.215525  -0.000796  -0.000033
    17  H    0.001720  -0.009956  -0.049697  -0.000796   0.422928   0.015663
    18  H   -0.016558  -0.093426  -0.004323  -0.000033   0.015663   0.504432
    19  H   -0.003692   0.008835   0.000317   0.000006  -0.004683  -0.041666
    20  H    0.008029  -0.013131   0.002056  -0.000058  -0.006223   0.007535
    21  H   -0.003505  -0.009110   0.000511  -0.000405   0.000704  -0.012411
    22  H    0.016461  -0.000055   0.000252   0.000005  -0.000350  -0.004195
    23  H   -0.116446   0.000209   0.000009   0.000000  -0.000048   0.000398
    24  H    0.364396  -0.001844  -0.000134  -0.000005   0.003082  -0.000421
    25  H    0.000000   0.352191  -0.053123   0.005315  -0.005686   0.005388
    26  H   -0.000183   0.544708  -0.064663   0.002637  -0.001586  -0.002748
    27  H    0.000091  -0.059155   0.371939  -0.012939   0.001662   0.001900
    28  H   -0.000007   0.040868   0.359690  -0.018282   0.001986  -0.002067
    29  H    0.000000   0.003479  -0.010330   0.351150   0.000096  -0.000134
    30  H   -0.000001   0.020578  -0.029072   0.348099   0.000721   0.000151
    31  H    0.000001  -0.009286  -0.012906   0.341794  -0.000450  -0.000038
              19         20         21         22         23         24
     1  O    0.002613   0.000254  -0.001840  -0.000220   0.000014   0.000050
     2  C    0.003662   0.011157   0.059719  -0.003357   0.000132   0.014169
     3  N    0.008801  -0.012356  -0.041460  -0.000867   0.000362   0.003372
     4  C    0.001749   0.049683  -0.111149   0.005911   0.002007  -0.016698
     5  C   -0.045939  -0.047436   0.029196   0.003058  -0.002254  -0.035188
     6  O    0.180315  -0.003633  -0.002214  -0.000846  -0.001898   0.008583
     7  O    0.024804   0.001128  -0.002939   0.000073   0.000200  -0.002362
     8  C   -0.162290   0.426256   0.426666  -0.057910  -0.015229   0.113524
     9  C    0.177017  -0.141999   0.036202  -0.105482   0.067164  -0.072422
    10  C    0.041318   0.021205  -0.045208   0.494027  -0.012292  -0.066021
    11  N    0.007917   0.003420  -0.000126  -0.066523  -0.065007   0.006521
    12  C    0.023428  -0.010780  -0.001865   0.026192   0.459564  -0.029212
    13  N   -0.003692   0.008029  -0.003505   0.016461  -0.116446   0.364396
    14  C    0.008835  -0.013131  -0.009110  -0.000055   0.000209  -0.001844
    15  C    0.000317   0.002056   0.000511   0.000252   0.000009  -0.000134
    16  N    0.000006  -0.000058  -0.000405   0.000005   0.000000  -0.000005
    17  H   -0.004683  -0.006223   0.000704  -0.000350  -0.000048   0.003082
    18  H   -0.041666   0.007535  -0.012411  -0.004195   0.000398  -0.000421
    19  H    0.492799   0.003405  -0.000140   0.000913  -0.000683  -0.002235
    20  H    0.003405   0.531413  -0.028443   0.001136  -0.001399  -0.004843
    21  H   -0.000140  -0.028443   0.466103   0.000008   0.000439   0.001744
    22  H    0.000913   0.001136   0.000008   0.537067  -0.001963   0.000895
    23  H   -0.000683  -0.001399   0.000439  -0.001963   0.512906  -0.004661
    24  H   -0.002235  -0.004843   0.001744   0.000895  -0.004661   0.378333
    25  H   -0.000292   0.001815  -0.002222  -0.000002   0.000006  -0.000174
    26  H    0.000197  -0.003011   0.001095   0.000084  -0.000002  -0.000049
    27  H   -0.000074   0.000738  -0.001589  -0.000090  -0.000001   0.000020
    28  H    0.000095  -0.000372   0.000912   0.000044  -0.000002   0.000012
    29  H    0.000006   0.000015  -0.000042  -0.000001   0.000000   0.000002
    30  H   -0.000006  -0.000059   0.000093  -0.000003   0.000000   0.000002
    31  H    0.000000  -0.000013  -0.000048   0.000002   0.000000  -0.000001
              25         26         27         28         29         30
     1  O    0.003649   0.006051  -0.007671  -0.009935   0.000367   0.000941
     2  C   -0.026031  -0.203645   0.041031  -0.037867  -0.002244  -0.000638
     3  N    0.031760   0.034056  -0.009370  -0.010822  -0.001149  -0.000029
     4  C    0.051871   0.010770   0.005944   0.003830  -0.002125  -0.000024
     5  C   -0.022902   0.007352  -0.002314   0.005325   0.000255  -0.000261
     6  O   -0.000848  -0.000035   0.000035   0.000090   0.000003   0.000003
     7  O   -0.003729  -0.000007   0.000007   0.000064   0.000052   0.000019
     8  C   -0.002157   0.001260   0.006231  -0.001953  -0.000064  -0.000101
     9  C   -0.003014   0.016148  -0.012526  -0.000856   0.000042  -0.000069
    10  C    0.001392   0.001787  -0.000984  -0.000273  -0.000012  -0.000026
    11  N   -0.000011  -0.000004  -0.000016   0.000006   0.000000   0.000000
    12  C    0.000006   0.000079  -0.000104  -0.000043   0.000001   0.000000
    13  N    0.000000  -0.000183   0.000091  -0.000007   0.000000  -0.000001
    14  C    0.352191   0.544708  -0.059155   0.040868   0.003479   0.020578
    15  C   -0.053123  -0.064663   0.371939   0.359690  -0.010330  -0.029072
    16  N    0.005315   0.002637  -0.012939  -0.018282   0.351150   0.348099
    17  H   -0.005686  -0.001586   0.001662   0.001986   0.000096   0.000721
    18  H    0.005388  -0.002748   0.001900  -0.002067  -0.000134   0.000151
    19  H   -0.000292   0.000197  -0.000074   0.000095   0.000006  -0.000006
    20  H    0.001815  -0.003011   0.000738  -0.000372   0.000015  -0.000059
    21  H   -0.002222   0.001095  -0.001589   0.000912  -0.000042   0.000093
    22  H   -0.000002   0.000084  -0.000090   0.000044  -0.000001  -0.000003
    23  H    0.000006  -0.000002  -0.000001  -0.000002   0.000000   0.000000
    24  H   -0.000174  -0.000049   0.000020   0.000012   0.000002   0.000002
    25  H    0.564949  -0.074578   0.013674  -0.021021   0.000148   0.000953
    26  H   -0.074578   0.541433  -0.019318   0.011054   0.002038   0.001205
    27  H    0.013674  -0.019318   0.436444  -0.024961   0.002643  -0.008947
    28  H   -0.021021   0.011054  -0.024961   0.438512  -0.007971   0.003099
    29  H    0.000148   0.002038   0.002643  -0.007971   0.365214  -0.031960
    30  H    0.000953   0.001205  -0.008947   0.003099  -0.031960   0.368177
    31  H    0.002217   0.000683  -0.002097  -0.004597  -0.011148  -0.012575
              31
     1  O    0.000780
     2  C    0.008495
     3  N    0.001860
     4  C   -0.000681
     5  C   -0.000102
     6  O   -0.000003
     7  O   -0.000007
     8  C    0.000398
     9  C    0.000301
    10  C    0.000037
    11  N    0.000000
    12  C    0.000003
    13  N    0.000001
    14  C   -0.009286
    15  C   -0.012906
    16  N    0.341794
    17  H   -0.000450
    18  H   -0.000038
    19  H    0.000000
    20  H   -0.000013
    21  H   -0.000048
    22  H    0.000002
    23  H    0.000000
    24  H   -0.000001
    25  H    0.002217
    26  H    0.000683
    27  H   -0.002097
    28  H   -0.004597
    29  H   -0.011148
    30  H   -0.012575
    31  H    0.345261
 Mulliken charges:
               1
     1  O   -0.278404
     2  C   -0.223725
     3  N    0.056730
     4  C   -0.077689
     5  C   -0.281602
     6  O   -0.062043
     7  O   -0.224146
     8  C   -0.594824
     9  C    0.415957
    10  C   -0.428075
    11  N   -0.112994
    12  C    0.036224
    13  N   -0.155944
    14  C   -0.039295
    15  C   -0.799644
    16  N   -0.200050
    17  H    0.291761
    18  H    0.316242
    19  H    0.283505
    20  H    0.204510
    21  H    0.241322
    22  H    0.155734
    23  H    0.178476
    24  H    0.341565
    25  H    0.180457
    26  H    0.187194
    27  H    0.279798
    28  H    0.275442
    29  H    0.341668
    30  H    0.339730
    31  H    0.352119
 Sum of Mulliken charges =   1.00000
 Mulliken charges with hydrogens summed into heavy atoms:
               1
     1  O   -0.278404
     2  C   -0.223725
     3  N    0.348491
     4  C    0.238554
     5  C   -0.281602
     6  O    0.221462
     7  O   -0.224146
     8  C   -0.148992
     9  C    0.415957
    10  C   -0.272341
    11  N   -0.112994
    12  C    0.214700
    13  N    0.185621
    14  C    0.328356
    15  C   -0.244404
    16  N    0.833468
 APT charges:
               1
     1  O   -0.397526
     2  C   -0.223492
     3  N   -0.366609
     4  C   -0.032788
     5  C   -0.910864
     6  O    0.022613
     7  O    0.020803
     8  C   -0.799004
     9  C    0.408578
    10  C   -0.891961
    11  N   -0.077075
    12  C   -0.464425
    13  N   -0.616379
    14  C   -0.607692
    15  C   -0.145257
    16  N   -1.901762
    17  H    0.570022
    18  H    0.392817
    19  H    0.468065
    20  H    0.398284
    21  H    0.266279
    22  H    0.318722
    23  H    1.173481
    24  H    0.517534
    25  H    0.418417
    26  H    0.356738
    27  H    0.227490
    28  H    0.319628
    29  H    0.705307
    30  H    0.601096
    31  H    1.248956
 Sum of APT charges =   1.00000
 APT charges with hydrogens summed into heavy atoms:
               1
     1  O   -0.397526
     2  C   -0.223492
     3  N    0.203414
     4  C    0.360029
     5  C   -0.910864
     6  O    0.490678
     7  O    0.020803
     8  C   -0.134441
     9  C    0.408578
    10  C   -0.573239
    11  N   -0.077075
    12  C    0.709056
    13  N   -0.098845
    14  C    0.167463
    15  C    0.401861
    16  N    0.653597
 Electronic spatial extent (au):  <R**2>=           5440.6076
 Charge=              1.0000 electrons
 Dipole moment (field-independent basis, Debye):
    X=             21.9499    Y=              1.4444    Z=             -3.8173  Tot=             22.3261
 Quadrupole moment (field-independent basis, Debye-Ang):
   XX=             36.1464   YY=            -92.3308   ZZ=           -103.8304
   XY=             10.4697   XZ=             -0.2309   YZ=             -8.4196
 Traceless Quadrupole moment (field-independent basis, Debye-Ang):
   XX=             89.4847   YY=            -38.9925   ZZ=            -50.4922
   XY=             10.4697   XZ=             -0.2309   YZ=             -8.4196
 Octapole moment (field-independent basis, Debye-Ang**2):
  XXX=            855.0278  YYY=             35.8299  ZZZ=            -28.8577  XYY=             97.7064
  XXY=             37.7839  XXZ=           -117.3049  XZZ=            120.7281  YZZ=             22.4600
  YYZ=              3.2641  XYZ=             19.4468
 Hexadecapole moment (field-independent basis, Debye-Ang**3):
 XXXX=          -1546.1103 YYYY=           -577.0046 ZZZZ=           -908.0838 XXXY=            336.8510
 XXXZ=            481.0341 YYYX=            -32.1719 YYYZ=           -218.2223 ZZZX=            341.1439
 ZZZY=           -221.8087 XXYY=           -988.4813 XXZZ=          -1193.3384 YYZZ=           -247.8994
 XXYZ=           -148.6266 YYXZ=             62.2192 ZZXY=            -14.5939
 N-N= 1.117344159499D+03 E-N=-4.080722490782D+03  KE= 7.937810861647D+02
  Exact polarizability:   0.000   0.000   0.000   0.000   0.000   0.000
 Approx polarizability: 216.297  13.378 154.161 -11.577  13.755 234.464
 Calling FoFJK, ICntrl=    100147 FMM=F ISym2X=0 I1Cent= 0 IOpClX= 0 NMat=1 NMatS=1 NMatT=0.
 -------------------------------------------------------------------
 Center     Atomic                   Forces (Hartrees/Bohr)
 Number     Number              X              Y              Z
 -------------------------------------------------------------------
      1        8           0.014575736    0.001595612   -0.002499301
      2        6          -0.023783084   -0.002249494    0.006702136
      3        7           0.015285881    0.000200175    0.001167845
      4        6           0.001606278    0.000712905    0.002114081
      5        6          -0.002703936   -0.006643513    0.002092846
      6        8           0.001068584    0.000677755   -0.002938618
      7        8           0.001301740    0.000239309   -0.003036724
      8        6          -0.006363186    0.001524745    0.002903942
      9        6           0.005925643    0.001184926   -0.001163525
     10        6          -0.005563470   -0.000819447    0.006873177
     11        7           0.005509240    0.000352572   -0.002071530
     12        6          -0.004359605    0.000805159    0.004503178
     13        7          -0.000446258   -0.002330396   -0.008099497
     14        6           0.010787996   -0.000173802   -0.011774211
     15        6          -0.028376210   -0.002067155    0.015764147
     16        7           0.005926084    0.000688617   -0.001403708
     17        1          -0.000199496   -0.000207330   -0.003850167
     18        1           0.000963977   -0.000013678   -0.001137087
     19        1          -0.000488997    0.000269042    0.001961565
     20        1           0.000978600    0.000741190   -0.002591917
     21        1           0.000542734    0.001164796    0.001107779
     22        1          -0.000339915    0.000681912   -0.000071120
     23        1          -0.003321980    0.000206728    0.000380439
     24        1          -0.002204148    0.002078046    0.000399111
     25        1          -0.001417467   -0.001017025   -0.000984236
     26        1          -0.001841119    0.000234442   -0.001165510
     27        1           0.005872875    0.002181337    0.000210649
     28        1           0.006410532   -0.000166613    0.000331560
     29        1           0.001531094   -0.003530905   -0.002928369
     30        1           0.000597730    0.002880362   -0.003859916
     31        1           0.002524148    0.000799726    0.003062982
 -------------------------------------------------------------------
 Cartesian Forces:  Max     0.028376210 RMS     0.005705344
 FormGI is forming the generalized inverse of G from B-inverse, IUseBI=4.

 GradGradGradGradGradGradGradGradGradGradGradGradGradGradGradGradGradGrad
 Berny optimization.
 Internal  Forces:  Max     0.017465893 RMS     0.003583334
 Search for a local minimum.
 Step number   1 out of a maximum of  167
 All quantities printed in internal units (Hartrees-Bohrs-Radians)
 Mixed Optimization -- RFO/linear search
 Second derivative matrix not updated -- analytic derivatives used.
 ITU=  0
     Eigenvalues ---   -0.00076   0.00039   0.00164   0.00184   0.00200
     Eigenvalues ---    0.00337   0.00453   0.00510   0.00784   0.01036
     Eigenvalues ---    0.01491   0.02002   0.02074   0.02604   0.03373
     Eigenvalues ---    0.03827   0.03881   0.04112   0.04229   0.04317
     Eigenvalues ---    0.04396   0.04510   0.04912   0.05003   0.05120
     Eigenvalues ---    0.05235   0.05537   0.05895   0.06066   0.07490
     Eigenvalues ---    0.07760   0.08227   0.10394   0.10618   0.10830
     Eigenvalues ---    0.10934   0.11672   0.11844   0.13034   0.13246
     Eigenvalues ---    0.13746   0.15590   0.15931   0.16326   0.16485
     Eigenvalues ---    0.16799   0.18654   0.19198   0.19801   0.21915
     Eigenvalues ---    0.22647   0.23034   0.23110   0.24116   0.24539
     Eigenvalues ---    0.24929   0.29526   0.30345   0.31226   0.32600
     Eigenvalues ---    0.32783   0.33051   0.33569   0.33770   0.34065
     Eigenvalues ---    0.34261   0.34614   0.34790   0.35103   0.36618
     Eigenvalues ---    0.36968   0.37701   0.40095   0.40968   0.43391
     Eigenvalues ---    0.43448   0.43560   0.44462   0.44989   0.45621
     Eigenvalues ---    0.46522   0.46745   0.47378   0.51905   0.57520
     Eigenvalues ---    0.79341   0.89093
 RFO step:  Lambda=-9.77751466D-03 EMin=-7.56792744D-04
 Linear search not attempted -- first point.
 Iteration  1 RMS(Cart)=  0.14242204 RMS(Int)=  0.01783775
 Iteration  2 RMS(Cart)=  0.03639143 RMS(Int)=  0.00073875
 Iteration  3 RMS(Cart)=  0.00113312 RMS(Int)=  0.00039206
 Iteration  4 RMS(Cart)=  0.00000146 RMS(Int)=  0.00039206
 Iteration  5 RMS(Cart)=  0.00000000 RMS(Int)=  0.00039206
 Variable       Old X    -DE/DX   Delta X   Delta X   Delta X     New X
                                 (Linear)    (Quad)   (Total)
    R1        2.31548  -0.00415   0.00000  -0.00482  -0.00482   2.31066
    R2        2.56838  -0.00486   0.00000  -0.02629  -0.02629   2.54209
    R3        2.87413   0.00303   0.00000   0.03296   0.03296   2.90709
    R4        2.73912   0.00765   0.00000   0.01714   0.01714   2.75626
    R5        1.90835   0.00373   0.00000   0.00862   0.00862   1.91697
    R6        2.87795   0.00483   0.00000   0.01600   0.01600   2.89395
    R7        2.92668   0.00950   0.00000   0.02364   0.02364   2.95031
    R8        2.06870  -0.00097   0.00000  -0.00271  -0.00271   2.06600
    R9        2.53923  -0.00129   0.00000  -0.00899  -0.00899   2.53024
   R10        2.27091   0.00325   0.00000   0.00455   0.00455   2.27546
   R11        1.82555   0.00203   0.00000   0.00479   0.00479   1.83034
   R12        2.81950   0.00450   0.00000   0.00431   0.00431   2.82382
   R13        2.06190   0.00257   0.00000   0.00679   0.00679   2.06869
   R14        2.05619   0.00161   0.00000   0.00629   0.00629   2.06249
   R15        2.58688   0.00598   0.00000   0.01345   0.01344   2.60032
   R16        2.60552   0.00906   0.00000   0.01775   0.01788   2.62340
   R17        2.61228  -0.00411   0.00000  -0.01759  -0.01773   2.59456
   R18        2.04043  -0.00008   0.00000   0.00038   0.00038   2.04080
   R19        2.48090  -0.00041   0.00000  -0.00148  -0.00155   2.47934
   R20        2.56704   0.00718   0.00000   0.01490   0.01498   2.58202
   R21        2.03257   0.00295   0.00000   0.00711   0.00711   2.03968
   R22        1.90919  -0.00077   0.00000  -0.00134  -0.00134   1.90785
   R23        2.87593   0.00322   0.00000   0.00198   0.00198   2.87791
   R24        2.06970   0.00108   0.00000  -0.00229  -0.00229   2.06742
   R25        2.07050   0.00106   0.00000   0.00309   0.00309   2.07358
   R26        2.81010   0.01178   0.00000   0.06120   0.06120   2.87129
   R27        2.05787   0.00080   0.00000  -0.00036  -0.00036   2.05752
   R28        2.05866   0.00056   0.00000  -0.00084  -0.00084   2.05782
   R29        1.92738   0.00473   0.00000   0.00860   0.00860   1.93599
   R30        1.92739   0.00474   0.00000   0.00902   0.00902   1.93641
   R31        1.92923   0.00399   0.00000   0.00727   0.00727   1.93650
    A1        2.11246   0.01747   0.00000   0.06135   0.06132   2.17379
    A2        2.15875  -0.01560   0.00000  -0.06840  -0.06841   2.09034
    A3        2.01193  -0.00187   0.00000   0.00697   0.00695   2.01889
    A4        2.12111   0.00367   0.00000   0.02032   0.02025   2.14136
    A5        2.13549  -0.00135   0.00000  -0.00385  -0.00392   2.13157
    A6        2.02116  -0.00228   0.00000  -0.01441  -0.01448   2.00668
    A7        1.85704  -0.00254   0.00000  -0.00494  -0.00502   1.85202
    A8        1.92931   0.00138   0.00000   0.01531   0.01530   1.94461
    A9        1.90495  -0.00013   0.00000  -0.00572  -0.00577   1.89918
   A10        1.95194   0.00259   0.00000   0.00329   0.00329   1.95522
   A11        1.93611  -0.00053   0.00000  -0.00762  -0.00765   1.92847
   A12        1.88448  -0.00078   0.00000  -0.00040  -0.00038   1.88410
   A13        2.03936   0.00145   0.00000   0.00132   0.00128   2.04064
   A14        2.13402  -0.00145   0.00000  -0.00746  -0.00750   2.12653
   A15        2.10978   0.00000   0.00000   0.00606   0.00603   2.11581
   A16        1.95171   0.00036   0.00000   0.00177   0.00177   1.95348
   A17        1.97691   0.01080   0.00000   0.02533   0.02528   2.00219
   A18        1.90470  -0.00266   0.00000  -0.00539  -0.00561   1.89909
   A19        1.86069  -0.00400   0.00000  -0.01301  -0.01297   1.84772
   A20        1.93594  -0.00253   0.00000   0.00496   0.00485   1.94080
   A21        1.90105  -0.00335   0.00000  -0.00891  -0.00878   1.89227
   A22        1.88070   0.00131   0.00000  -0.00509  -0.00516   1.87554
   A23        2.30463  -0.00342   0.00000  -0.01180  -0.01215   2.29248
   A24        2.15040   0.00586   0.00000   0.01906   0.01872   2.16912
   A25        1.82706  -0.00238   0.00000  -0.00562  -0.00553   1.82152
   A26        1.93598   0.00123   0.00000   0.00310   0.00309   1.93907
   A27        2.22832  -0.00042   0.00000  -0.00326  -0.00334   2.22498
   A28        2.11887  -0.00080   0.00000   0.00026   0.00019   2.11906
   A29        1.83125   0.00399   0.00000   0.01069   0.01065   1.84190
   A30        1.95179  -0.00111   0.00000  -0.00383  -0.00369   1.94810
   A31        2.20650  -0.00082   0.00000  -0.00642  -0.00652   2.19997
   A32        2.12488   0.00193   0.00000   0.01032   0.01022   2.13511
   A33        1.87859  -0.00172   0.00000  -0.00415  -0.00440   1.87418
   A34        2.19883   0.00267   0.00000   0.01426   0.01348   2.21231
   A35        2.20055  -0.00079   0.00000  -0.00389  -0.00471   2.19584
   A36        1.96053  -0.01414   0.00000  -0.08395  -0.08416   1.87637
   A37        1.90584   0.00351   0.00000   0.03683   0.03765   1.94349
   A38        1.89874   0.00313   0.00000  -0.01163  -0.01238   1.88636
   A39        1.91754   0.00507   0.00000   0.03238   0.03275   1.95030
   A40        1.91417   0.00525   0.00000   0.01893   0.01701   1.93118
   A41        1.86443  -0.00225   0.00000   0.01187   0.01124   1.87567
   A42        1.95421  -0.00292   0.00000  -0.01101  -0.01052   1.94369
   A43        1.90270   0.00437   0.00000   0.03165   0.03079   1.93348
   A44        1.90519   0.00446   0.00000   0.05182   0.05105   1.95624
   A45        1.91772  -0.00288   0.00000  -0.03848  -0.03847   1.87925
   A46        1.91628  -0.00297   0.00000  -0.05138  -0.05123   1.86505
   A47        1.86554   0.00018   0.00000   0.01992   0.01704   1.88258
   A48        1.94251   0.00101   0.00000   0.00788   0.00788   1.95040
   A49        1.94134   0.00104   0.00000   0.00158   0.00157   1.94291
   A50        1.95134  -0.00117   0.00000  -0.01115  -0.01114   1.94019
   A51        1.87995  -0.00114   0.00000  -0.00524  -0.00525   1.87470
   A52        1.87258   0.00009   0.00000   0.00382   0.00384   1.87642
   A53        1.87244   0.00009   0.00000   0.00320   0.00319   1.87563
    D1       -0.04786   0.00021   0.00000   0.02482   0.02460  -0.02325
    D2       -3.07295  -0.00003   0.00000   0.00368   0.00340  -3.06954
    D3        3.10278   0.00013   0.00000   0.03533   0.03561   3.13839
    D4        0.07769  -0.00011   0.00000   0.01420   0.01441   0.09210
    D5        0.06966  -0.00008   0.00000   0.24440   0.24504   0.31470
    D6        2.20145  -0.00064   0.00000   0.25530   0.25497   2.45643
    D7       -2.05291   0.00035   0.00000   0.28330   0.28247  -1.77043
    D8       -3.08124   0.00019   0.00000   0.23434   0.23533  -2.84592
    D9       -0.94945  -0.00036   0.00000   0.24524   0.24526  -0.70419
   D10        1.07938   0.00063   0.00000   0.27324   0.27276   1.35213
   D11       -2.75538   0.00176   0.00000   0.00839   0.00839  -2.74699
   D12        1.40504  -0.00060   0.00000  -0.00137  -0.00135   1.40369
   D13       -0.66516  -0.00039   0.00000  -0.00654  -0.00650  -0.67165
   D14        0.27693   0.00201   0.00000   0.02870   0.02866   0.30559
   D15       -1.84584  -0.00035   0.00000   0.01894   0.01892  -1.82692
   D16        2.36715  -0.00014   0.00000   0.01377   0.01377   2.38092
   D17        2.70362  -0.00079   0.00000   0.06206   0.06206   2.76568
   D18       -0.44382  -0.00111   0.00000   0.04626   0.04630  -0.39752
   D19       -1.47128   0.00077   0.00000   0.07954   0.07951  -1.39176
   D20        1.66447   0.00045   0.00000   0.06374   0.06375   1.72822
   D21        0.63375   0.00117   0.00000   0.07601   0.07598   0.70973
   D22       -2.51368   0.00085   0.00000   0.06021   0.06021  -2.45347
   D23       -3.04585   0.00051   0.00000  -0.01171  -0.01167  -3.05751
   D24        1.07144  -0.00187   0.00000  -0.03207  -0.03202   1.03941
   D25       -0.95532   0.00007   0.00000  -0.01647  -0.01650  -0.97183
   D26        1.17159   0.00113   0.00000  -0.01770  -0.01770   1.15390
   D27       -0.99431  -0.00125   0.00000  -0.03806  -0.03805  -1.03236
   D28       -3.02107   0.00069   0.00000  -0.02246  -0.02253  -3.04360
   D29       -0.96324   0.00067   0.00000  -0.00999  -0.00996  -0.97320
   D30       -3.12914  -0.00170   0.00000  -0.03035  -0.03032   3.12373
   D31        1.12728   0.00023   0.00000  -0.01475  -0.01480   1.11249
   D32        0.01846  -0.00012   0.00000   0.00285   0.00280   0.02126
   D33       -3.11738   0.00021   0.00000   0.01846   0.01851  -3.09887
   D34        1.66509  -0.00189   0.00000  -0.06310  -0.06311   1.60198
   D35       -1.41787  -0.00343   0.00000  -0.10645  -0.10659  -1.52446
   D36       -2.46933   0.00064   0.00000  -0.04774  -0.04761  -2.51694
   D37        0.73089  -0.00090   0.00000  -0.09110  -0.09108   0.63981
   D38       -0.40221  -0.00134   0.00000  -0.05655  -0.05648  -0.45870
   D39        2.79801  -0.00289   0.00000  -0.09990  -0.09996   2.69805
   D40       -3.08447  -0.00143   0.00000  -0.04143  -0.04113  -3.12560
   D41        0.05140  -0.00070   0.00000  -0.02226  -0.02201   0.02939
   D42        0.00641   0.00013   0.00000  -0.00324  -0.00335   0.00307
   D43       -3.14090   0.00086   0.00000   0.01593   0.01577  -3.12513
   D44        3.08420   0.00132   0.00000   0.04222   0.04265   3.12686
   D45        0.04706  -0.00021   0.00000  -0.01937  -0.01944   0.02762
   D46       -0.01239   0.00025   0.00000   0.00938   0.00940  -0.00299
   D47       -3.04953  -0.00128   0.00000  -0.05222  -0.05270  -3.10223
   D48        0.00223  -0.00043   0.00000  -0.00424  -0.00415  -0.00192
   D49       -3.13406  -0.00111   0.00000  -0.02200  -0.02191   3.12722
   D50       -0.01046   0.00057   0.00000   0.01042   0.01037  -0.00009
   D51        3.12452   0.00110   0.00000   0.02153   0.02135  -3.13731
   D52        0.01485  -0.00054   0.00000  -0.01291  -0.01284   0.00201
   D53        3.05186   0.00125   0.00000   0.05015   0.04989   3.10175
   D54       -3.12049  -0.00103   0.00000  -0.02335  -0.02328   3.13942
   D55       -0.08347   0.00076   0.00000   0.03971   0.03945  -0.04402
   D56       -3.12921   0.00010   0.00000   0.15736   0.15715  -2.97206
   D57       -1.00356  -0.00244   0.00000   0.12336   0.12257  -0.88099
   D58        1.02844   0.00270   0.00000   0.19379   0.19428   1.22272
   D59        1.02884   0.00164   0.00000   0.14447   0.14476   1.17361
   D60       -3.12870  -0.00090   0.00000   0.11048   0.11019  -3.01851
   D61       -1.09669   0.00425   0.00000   0.18090   0.18189  -0.91480
   D62       -1.01547  -0.00169   0.00000   0.09990   0.09970  -0.91577
   D63        1.11017  -0.00423   0.00000   0.06590   0.06513   1.17530
   D64       -3.14101   0.00091   0.00000   0.13633   0.13683  -3.00418
   D65       -1.04893   0.00001   0.00000  -0.00001  -0.00002  -1.04896
   D66        1.04752  -0.00005   0.00000  -0.00027  -0.00027   1.04724
   D67        3.14039  -0.00001   0.00000  -0.00269  -0.00268   3.13771
   D68        3.11725  -0.00159   0.00000  -0.00618  -0.00593   3.11133
   D69       -1.06949  -0.00164   0.00000  -0.00644  -0.00618  -1.07566
   D70        1.02339  -0.00161   0.00000  -0.00886  -0.00858   1.01481
   D71        1.07023   0.00166   0.00000   0.02278   0.02251   1.09274
   D72       -3.11651   0.00160   0.00000   0.02252   0.02226  -3.09424
   D73       -1.02363   0.00164   0.00000   0.02010   0.01985  -1.00377
         Item               Value     Threshold  Converged?
 Maximum Force            0.017466     0.000450     NO 
 RMS     Force            0.003583     0.000300     NO 
 Maximum Displacement     0.649975     0.001800     NO 
 RMS     Displacement     0.162735     0.001200     NO 
 Predicted change in Energy=-5.841860D-03
 GradGradGradGradGradGradGradGradGradGradGradGradGradGradGradGradGradGrad

                          Input orientation:                          
 ---------------------------------------------------------------------
 Center     Atomic      Atomic             Coordinates (Angstroms)
 Number     Number       Type             X           Y           Z
 ---------------------------------------------------------------------
      1          8           0        1.478021    0.261173    1.231994
      2          6           0        1.545340   -0.047655    0.050804
      3          7           0        0.503113   -0.468508   -0.688287
      4          6           0       -0.838237   -0.629983   -0.138670
      5          6           0       -1.557727   -1.621211   -1.057919
      6          8           0       -2.613245   -2.266521   -0.545836
      7          8           0       -1.209281   -1.799537   -2.196642
      8          6           0       -1.587006    0.737204   -0.051435
      9          6           0       -2.927236    0.674732    0.606448
     10          6           0       -3.305418    0.851427    1.917635
     11          7           0       -4.659048    0.678820    2.069193
     12          6           0       -5.114318    0.401701    0.870314
     13          7           0       -4.111708    0.386666   -0.057830
     14          6           0        2.888336    0.060663   -0.691622
     15          6           0        3.988652    0.127376    0.359165
     16          7           0        5.329993    0.473407   -0.265105
     17          1           0        0.611739   -0.773936   -1.649515
     18          1           0       -0.758104   -1.035460    0.873469
     19          1           0       -2.796107   -1.994575    0.365615
     20          1           0       -1.658947    1.164990   -1.056522
     21          1           0       -0.943645    1.392678    0.538175
     22          1           0       -2.673009    1.104930    2.755536
     23          1           0       -6.144069    0.208547    0.610893
     24          1           0       -4.216776    0.166086   -1.037409
     25          1           0        3.033261   -0.779305   -1.377443
     26          1           0        2.871783    0.978109   -1.293345
     27          1           0        3.764967    0.888474    1.104925
     28          1           0        4.117178   -0.821268    0.878172
     29          1           0        5.616064   -0.222670   -0.960231
     30          1           0        5.297984    1.382557   -0.736744
     31          1           0        6.067287    0.521090    0.444991
 ---------------------------------------------------------------------
                    Distance matrix (angstroms):
                    1          2          3          4          5
     1  O    0.000000
     2  C    1.222749   0.000000
     3  N    2.273842   1.345218   0.000000
     4  C    2.835124   2.460985   1.458551   0.000000
     5  C    4.242975   3.651626   2.390065   1.531410   0.000000
     6  O    5.127219   4.751124   3.600670   2.448406   1.338945
     7  O    4.819094   3.963338   2.641793   2.395992   1.204119
     8  C    3.356812   3.230797   2.495579   1.561239   2.564369
     9  C    4.468627   4.564485   3.840654   2.573208   3.149131
    10  C    4.868243   5.274776   4.799788   3.536941   4.245267
    11  N    6.207974   6.564762   5.963888   4.602849   4.968618
    12  C    6.603748   6.724921   5.894236   4.513013   4.523229
    13  N    5.737984   5.674737   4.735543   3.428663   3.399202
    14  C    2.393635   1.538365   2.443220   3.830156   4.767635
    15  C    2.661391   2.468906   3.687983   4.911241   5.985650
    16  N    4.138120   3.833392   4.936097   6.267417   7.242697
    17  H    3.181978   2.071275   1.014419   2.099001   2.403007
    18  H    2.609607   2.637876   2.085949   1.093279   2.170890
    19  H    4.909906   4.768414   3.784764   2.439194   1.923392
    20  H    3.986823   3.600574   2.734669   2.176682   2.788040
    21  H    2.761549   2.916699   2.657316   2.135506   3.465277
    22  H    4.501573   5.141838   4.942001   3.840930   4.818521
    23  H    7.647535   7.714036   6.806710   5.423729   5.212244
    24  H    6.131064   5.867868   4.775138   3.585524   3.203966
    25  H    3.211001   2.188403   2.640678   4.067598   4.678469
    26  H    2.972189   2.149041   2.840668   4.205173   5.141250
    27  H    2.374821   2.629497   3.961907   5.004171   6.269568
    28  H    2.874373   2.810225   3.954706   5.062281   6.049206
    29  H    4.707798   4.198049   5.126077   6.519116   7.309496
    30  H    4.441345   4.092441   5.139998   6.485462   7.491765
    31  H    4.663506   4.574588   5.763996   7.025090   8.061577
                    6          7          8          9         10
     6  O    0.000000
     7  O    2.216833   0.000000
     8  C    3.212469   3.343597   0.000000
     9  C    3.174479   4.114692   1.494299   0.000000
[...]
 0.00000451,-0.00001212,-0.00000352,0.00000385,-0.00000072,0.00000400,0
 .00002197,0.01215938,-0.12316768,-0.13977124,0.00308726,-0.01700726,-0
 .01444855,-0.00001440,0.00034769,0.00076054,0.00031915,-0.00005173,0.0
 0112639,0.00001724,-0.00004124,0.00004152,0.00001723,-0.00001698,-0.00
 001221,0.00000533,0.00000490,0.00000234,-0.00001899,0.00001961,-0.0000
 2195,-0.00000409,-0.00000907,-0.00000018,-0.00000076,-0.00000446,0.000
 00095,0.00000401,-0.00000301,0.00000404,-0.01184822,0.13621178,0.15246
 413,-0.00149252,0.00314815,-0.00142068,-0.00084731,-0.02658749,0.01756
 545,-0.00173999,0.00145904,-0.00069291,-0.00037014,0.00128175,-0.00062
 455,0.00022330,0.00025635,0.00001095,-0.00011230,-0.00007529,0.0000444
 1,-0.00011117,-0.00009962,-0.00009739,-0.00036828,-0.00035758,0.000160
 80,-0.00002751,0.00015514,-0.00006291,0.00002287,-0.00000102,-0.000009
 98,-0.00004868,0.00001070,-0.00001029,-0.00004470,-0.00000562,0.000017
 61,-0.00002183,0.00001935,0.00004038,-0.04381688,-0.01123052,0.0061327
 8,-0.00250834,0.02265683,-0.01610278,0.00233309,0.00128217,0.00044706,
 0.00004293,-0.00056536,0.00069975,0.00006407,0.00000499,-0.00001305,0.
 00003553,-0.00000621,-0.00001283,-0.00005570,-0.00002195,-0.00005411,0
 .00002315,-0.00006259,0.00008348,0.00000060,0.00000363,-0.00001417,-0.
 00000309,-0.00000905,0.00000192,0.00000145,-0.00001399,0.00001490,-0.0
 0021200,0.00269493,-0.00162270,0.05217998,0.00042044,-0.00018444,-0.00
 028107,-0.00131739,-0.00065000,-0.00047892,-0.00065840,0.00079694,0.00
 018499,-0.00012477,0.00023532,-0.00022498,0.00008988,0.00007010,0.0000
 4942,-0.00008335,-0.00004221,0.00000936,-0.00007165,-0.00000542,-0.000
 05234,-0.00010119,-0.00009257,0.00010424,-0.00000255,0.00004672,-0.000
 03324,0.00000833,0.00000084,-0.00001331,-0.00002780,0.00000674,-0.0000
 0019,-0.00001875,-0.00000410,0.00000896,-0.00000703,0.00000289,0.00002
 244,-0.00621525,-0.22386881,0.11595364,0.00047722,0.00164854,-0.000832
 70,0.00002395,0.00102580,-0.00083254,0.00021231,-0.00039910,0.00050606
 ,0.00004085,-0.00002085,-0.00000849,0.00002249,-0.00000892,-0.00000952
 ,-0.00000210,-0.00000121,-0.00001081,0.00000015,-0.00001847,-0.0000112
 5,0.00000024,-0.00000085,-0.00000521,-0.00000077,-0.00000230,0.0000011
 8,0.00000652,-0.00000440,0.00000842,-0.00142121,-0.02003315,0.01437497
 ,0.00778989,0.23968125,0.00150614,-0.00225065,0.00115359,0.00236483,0.
 01265912,-0.01018818,-0.00053772,-0.00063828,0.00017849,0.00036870,-0.
 00030342,0.00006762,0.00002779,0.00001921,0.00007315,-0.00005639,-0.00
 002362,-0.00001188,-0.00003541,-0.00000456,-0.00002729,0.00006556,0.00
 003813,0.00000010,0.00000605,0.00000220,0.00001495,0.00000235,-0.00000
 277,-0.00001152,-0.00001347,0.00000367,0.00000022,-0.00000570,-0.00000
 275,0.00000758,0.00000730,-0.00000721,0.00000074,0.00092256,0.11682722
 ,-0.12510961,0.00070438,0.02023466,-0.01427862,0.00120516,-0.00046432,
 0.00172916,0.00005964,-0.00010256,0.00015641,-0.00009469,-0.00004078,-
 0.00000240,0.00001195,-0.00000515,-0.00000659,0.00000570,0.00000711,0.
 00001155,-0.00000252,0.00003392,-0.00002540,-0.00000043,0.00000029,-0.
 00000147,0.00000023,0.00000031,0.00000049,0.00000310,0.00000308,0.0000
 0595,-0.00106195,-0.01600097,0.01224311,-0.00155158,-0.12890357,0.1351
 5597,-0.00097746,0.00211521,0.00301595,0.00005445,-0.00320611,-0.00538
 806,0.00095206,0.00129773,0.00207061,-0.00031096,0.00002960,0.00016013
 ,-0.00007080,-0.00023754,-0.00012716,0.00006774,0.00007475,0.00002796,
 0.00002992,0.00019502,0.00013071,0.00000015,0.00000286,-0.00001852,-0.
 00002746,-0.00001290,0.00000228,-0.00002662,0.00001530,0.00000978,0.00
 005698,-0.00000381,0.00000578,0.00002806,-0.00000300,-0.00001754,0.000
 00370,0.00000403,-0.00000828,0.00540768,-0.01817045,-0.01560274,-0.053
 01878,0.03065826,0.02891767,-0.01541389,0.02101425,0.02552833,0.000568
 82,0.00006956,-0.00017022,-0.00006310,-0.00004768,-0.00002072,-0.00002
 920,-0.00001819,0.00000115,0.00001478,0.00000964,0.00001122,-0.0000314
 6,0.00005173,-0.00002235,-0.00000775,-0.00001396,0.00001583,-0.0000001
 1,0.00000068,-0.00000043,-0.00001380,0.00000295,-0.00001270,-0.0043683
 8,0.00065773,-0.00304916,0.00075713,0.00043715,0.00016956,0.06859997,0
 .00164399,-0.00066687,0.00129804,0.00048090,-0.00029611,-0.00206615,-0
 .00018986,0.00015753,0.00002764,0.00004952,-0.00000808,-0.00007647,0.0
 0002657,0.00001396,0.00000269,-0.00002801,-0.00001977,0.00000801,-0.00
 001796,-0.00000357,0.00000748,-0.00000302,0.00000820,0.00000701,0.0000
 0348,0.00000116,-0.00000119,-0.00000239,-0.00000308,-0.00000922,-0.000
 00872,-0.00000173,0.00000563,-0.00000107,0.00000041,-0.00000067,0.0000
 0352,-0.00000602,0.00000992,-0.00231836,0.00072803,0.00033775,0.039488
 50,-0.19370230,-0.13534920,-0.00643065,0.00983604,0.01255449,-0.000055
 57,0.00008277,0.00003964,-0.00000075,0.00000052,0.00001544,0.00000328,
 0.00000437,-0.00000452,0.00000510,0.00000181,0.00000251,0.00000109,0.0
 0000610,-0.00000416,0.00000003,0.00000406,-0.00000182,0.00000047,0.000
 00078,0.00000045,0.00000364,0.00000311,0.00000100,0.00052525,0.0013140
 0,0.00003848,-0.00049989,0.00061514,0.00012033,-0.03629324,0.19825039,
 0.00250501,0.00115525,0.00019195,0.00091383,-0.00103401,-0.00086967,0.
 00003854,-0.00025049,-0.00026956,0.00001942,0.00003741,0.00007518,0.00
 001064,-0.00003592,-0.00002187,0.00000652,0.00001166,-0.00000054,-0.00
 001469,0.00000818,0.00001412,-0.00000153,0.00000156,0.00000255,-0.0000
 0337,-0.00000455,0.00000808,0.00000711,-0.00000260,0.00001278,0.000006
 35,-0.00000090,-0.00001053,0.00000223,0.00000050,0.00000180,-0.0000069
 3,0.00000919,-0.00001692,-0.00012085,-0.01692090,-0.01597271,0.0341866
 9,-0.12919089,-0.17659526,0.00562834,-0.00656046,-0.00910428,0.0000201
 3,0.00002035,0.00007938,-0.00002474,-0.00000149,0.00001278,-0.00000226
 ,0.00000022,0.00000569,-0.00000258,-0.00000363,-0.00000261,-0.00001326
 ,0.00001044,0.00000694,0.00000277,0.00000318,0.00000198,-0.00000017,0.
 00000028,-0.00000086,-0.00000271,-0.00000220,0.00000189,-0.00256330,0.
 00085371,-0.00195766,0.00066383,0.00020424,0.00045346,-0.03854078,0.14
 081922,0.19156075,-0.00031570,-0.00022734,0.00108530,0.00190072,0.0003
 3583,-0.00172886,-0.00057659,-0.00043419,0.00019830,0.00007791,0.00001
 684,-0.00013005,-0.00000468,0.00007077,0.00001319,-0.00003736,-0.00004
 313,0.00000827,-0.00000474,-0.00006085,0.00001415,-0.00002757,-0.00000
 092,0.00001768,0.00000343,0.00000683,-0.00001106,-0.00000559,-0.000003
 37,-0.00001587,-0.00001571,-0.00000258,0.00001139,-0.00000281,0.000001
 14,0.00000080,0.00000377,-0.00000725,0.00002035,-0.00184149,0.02172437
 ,-0.01082661,-0.05470809,0.04115854,-0.01860257,-0.00547120,-0.0350634
 4,0.01938345,0.00003403,0.00015404,-0.00003062,-0.00005216,0.00002105,
 0.00002892,0.00000041,0.00001522,-0.00000751,0.00001486,0.00000252,0.0
 0000701,0.00000296,-0.00000780,-0.00001715,-0.00000130,0.00000457,-0.0
 0000058,0.00000018,-0.00000003,0.00000116,0.00000688,0.00000262,-0.000
 00130,0.00089674,-0.00057714,0.00064922,-0.00348633,-0.00077329,-0.002
 98969,0.00079405,0.00514346,-0.00400670,0.06616343,0.00017342,0.000426
 68,-0.00072021,0.00032420,0.00046435,0.00080473,0.00015582,-0.00027879
 ,-0.00010778,-0.00001391,-0.00001150,0.00003443,-0.00004256,0.00001402
 ,0.00003153,0.00003277,0.00000203,-0.00001651,0.00002715,-0.00002368,-
 0.00001892,0.00000714,0.00001674,-0.00001364,0.00000186,-0.00000710,0.
 00000539,0.00000118,-0.00000558,0.00000645,0.00000397,-0.00000168,-0.0
 0000461,0.00000249,0.00000051,0.00000099,-0.00000129,-0.00000039,-0.00
 000945,0.00061381,0.00431303,-0.00201292,0.02953118,-0.26810332,0.1068
 3732,-0.00104983,-0.00414031,0.00178621,-0.00004019,-0.00000529,-0.000
 01451,0.00000005,0.00000403,-0.00000675,-0.00000684,0.00000949,0.00000
 740,0.00000028,0.00000109,0.00000065,-0.00000105,-0.00000149,-0.000000
 76,0.00000136,0.00000214,0.00000237,-0.00000009,0.00000098,-0.00000013
 ,-0.00000193,0.00000214,0.00000024,0.00034681,0.00094673,-0.00001558,-
 0.00101559,0.00127621,-0.00095471,0.00227268,-0.01722100,0.01039549,-0
 .03017706,0.28105517,0.00014593,0.00050901,-0.00002468,0.00036811,-0.0
 0008732,-0.00008099,-0.00000166,-0.00019393,0.00008990,-0.00003203,-0.
 00003044,0.00001456,-0.00008169,0.00002845,0.00007911,0.00004864,0.000
 00405,-0.00003597,0.00005665,-0.00004332,-0.00003940,-0.00000325,0.000
 00578,-0.00001521,-0.00000170,-0.00001148,0.00000401,0.00000227,-0.000
 00431,0.00000917,0.00000339,-0.00000045,-0.00000573,0.00000263,0.00000
 002,0.00000178,-0.00000388,0.00000154,-0.00001073,-0.00412875,0.019154
 89,-0.00993041,-0.01422694,0.10198386,-0.10153778,0.00274067,0.0134036
 8,-0.00797202,-0.00006956,0.00008805,-0.00005218,-0.00000136,-0.000002
 06,0.00000736,-0.00000550,0.00001018,0.00001095,0.00000392,0.00000388,
 0.00000126,-0.00000019,-0.00000151,-0.00000427,0.00000083,-0.00000011,
 0.00000298,-0.00000003,0.00000114,-0.00000029,-0.00000118,0.00000197,0
 .00000031,0.00114384,0.00005289,0.00064745,-0.00347450,-0.00037156,-0.
 00178736,0.00109780,-0.01907626,0.01232560,0.01488302,-0.11600427,0.10
 860658,-0.00018788,-0.00050488,-0.00148414,-0.00170045,0.00028901,0.00
 206159,0.00063574,-0.00000038,-0.00028919,-0.00018829,0.00003651,0.000
 14320,-0.00019227,-0.00013680,0.00002399,0.00018915,0.00008307,-0.0000
 5182,0.00012837,0.00005786,-0.00002531,0.00002676,0.00004414,-0.000018
 11,-0.00001978,-0.00003780,0.00000766,-0.00001672,-0.00000329,0.000022
 55,0.00005291,-0.00000892,-0.00001089,0.00002201,0.00000267,-0.0000042
 9,0.00000112,0.00000020,-0.00002857,0.00252555,0.00120131,-0.00006631,
 -0.00693446,0.02201567,0.02148619,-0.08218980,0.06637994,0.06346983,-0
 .00014414,-0.00010363,-0.00009459,0.00002797,-0.00000019,-0.00001905,-
 0.00004223,0.00001363,0.00002833,-0.00000361,-0.00000268,0.00000026,-0
 .00000235,0.00001856,0.00000204,-0.00000285,-0.00000075,0.00001434,-0.
 00000028,0.00000288,-0.00000016,-0.00001676,0.00000739,-0.00000672,-0.
 00052728,-0.00079531,-0.00065877,-0.00024624,0.00018885,-0.00017501,-0
 .00472751,-0.00335343,0.00120851,0.00146383,-0.00024880,-0.00042887,0.
 08301406,-0.00060447,-0.00011527,-0.00026850,0.00044209,0.00005943,0.0
 0026692,-0.00041436,-0.00023467,-0.00013051,0.00010155,-0.00001262,-0.
 00009768,0.00000845,0.00015442,0.00011192,-0.00003140,-0.00005677,-0.0
 0002314,0.00000572,-0.00012375,-0.00007118,-0.00001858,-0.00000966,0.0
 0000928,0.00000984,0.00000767,-0.00000880,0.00000768,-0.00000983,-0.00
 000876,-0.00002625,-0.00000189,0.00000226,-0.00000941,0.00000159,0.000
 00432,-0.00000230,-0.00000551,0.00001156,0.00026506,0.00086249,0.00120
 664,0.00086168,0.01075996,0.00715959,0.05926941,-0.21524250,-0.1560066
 2,-0.00003416,0.00009569,0.00005122,-0.00000858,0.00001019,0.00001044,
 0.00000982,0.00002129,0.00000032,0.00000097,0.00000197,-0.00000090,0.0
 0000919,-0.00002078,0.00000037,0.00000313,0.00000738,-0.00000477,0.000
 00002,0.00000092,0.00000078,0.00000828,0.00000390,0.00000444,-0.000072
 01,-0.00031391,-0.00040950,0.00020846,-0.00032062,-0.00001671,-0.00251
 903,-0.00037635,0.00087755,-0.00027489,0.00035167,0.00076522,-0.064708
 09,0.22475929,-0.00001655,-0.00004539,-0.00004551,0.00012087,-0.000016
 86,-0.00058423,-0.00037659,-0.00004890,-0.00001513,0.00005950,-0.00005
 916,-0.00005108,-0.00001873,0.00008702,0.00011357,-0.00000816,-0.00002
 656,-0.00003363,0.00000638,-0.00005484,-0.00008666,-0.00000027,-0.0000
 0713,0.00001235,0.00000727,0.00000267,0.00000047,0.00000926,-0.0000031
 5,0.00000085,-0.00001424,0.00000312,-0.00000976,-0.00000917,-0.0000010
 7,0.00001023,-0.00000464,0.00000119,-0.00000779,-0.00070948,0.00104971
 ,0.00197674,0.00577190,-0.00677571,-0.00865773,0.05762190,-0.16069227,
 -0.22511114,-0.00003530,0.00001851,0.00009456,-0.00000007,-0.00000292,
 0.00000081,0.00001249,0.00000402,0.00000534,-0.00000623,0.00000201,-0.
 00000490,0.00000595,-0.00000906,0.00000244,0.00000165,0.00000178,-0.00
 000309,-0.00000037,0.00000025,0.00000045,0.00000284,-0.00000002,0.0000
 0802,0.00027945,-0.00059461,0.00021280,-0.00002211,0.00024725,0.000084
 08,0.00158620,0.00169529,0.00024747,-0.00057489,0.00019846,-0.00035390
 ,-0.06692829,0.17104561,0.23383515,0.00034008,0.00001378,-0.00061344,-
 0.00108051,0.00056917,0.00074255,0.00065490,0.00010873,-0.00006335,-0.
 00017079,-0.00003792,0.00018866,-0.00016210,-0.00017918,-0.00002219,0.
 00016098,0.00009040,-0.00003380,0.00009763,0.00010135,0.00001443,0.000
 03944,0.00004084,-0.00002586,-0.00002052,-0.00003240,0.00001324,-0.000
 01533,0.00000250,0.00002487,0.00005965,-0.00000579,-0.00001255,0.00002
 224,-0.00000017,-0.00000703,-0.00000084,0.00000654,-0.00003263,0.00213
 359,-0.00121962,0.00058781,0.00399764,-0.03006638,0.01354228,-0.057859
 96,0.00844309,-0.00578960,-0.00006324,-0.00012213,-0.00009703,0.000020
 95,-0.00000816,-0.00002237,-0.00003599,-0.00000088,0.00002184,-0.00000
 630,-0.00000188,-0.00000120,-0.00001111,0.00002702,0.00000762,-0.00000
 361,-0.00000468,0.00001436,-0.00000033,0.00000204,-0.00000064,-0.00001
 954,0.00000402,-0.00000754,0.00001550,0.00028285,-0.00018500,-0.000696
 62,0.00102874,-0.00125360,0.00109761,0.00056934,0.00000167,-0.00620157
 ,-0.00032717,0.00219325,-0.00104754,0.00877387,-0.00559330,0.05850369,
 0.00041871,-0.00029923,-0.00026493,-0.00068747,0.00025206,0.00075176,0
 .00057937,0.00004537,-0.00012324,-0.00015993,0.00004770,0.00011639,-0.
 00012899,-0.00008512,0.00002271,0.00014251,0.00004801,-0.00003821,0.00
 009763,0.00002583,-0.00001825,0.00001940,0.00004693,-0.00001209,-0.000
 01659,-0.00003438,-0.00000002,-0.00001515,-0.00000946,0.00001065,0.000
 03315,-0.00001414,-0.00000032,0.00002172,0.00000508,-0.00000882,0.0000
 0379,-0.00001188,-0.00001260,0.00079496,0.00071497,-0.00188913,-0.0042
 6687,-0.00422027,0.00407980,0.01713078,-0.33804704,0.13011001,-0.00008
 224,-0.00004235,-0.00007966,0.00001462,-0.00000128,-0.00000791,-0.0000
 3693,0.00002803,0.00002345,0.00000670,0.00000440,0.00000765,-0.0000074
 6,0.00002046,-0.00001136,-0.00000198,0.00000521,0.00001155,0.00000117,
 0.00000498,0.00000030,-0.00000788,0.00001618,-0.00000539,-0.00005608,-
 0.00024203,0.00012395,-0.00044891,-0.00000752,-0.00007210,0.00064337,0
 .00112123,-0.00044607,-0.00047014,0.00146598,-0.00001920,0.00069639,-0
 .02117391,0.01217607,-0.01486679,0.35601201,-0.00006622,-0.00035297,-0
 .00049942,-0.00046342,0.00037066,0.00025645,-0.00017369,-0.00005233,-0
 .00009947,0.00002545,-0.00004624,-0.00002342,-0.00002544,0.00003504,0.
 00005849,0.00000589,-0.00000957,-0.00001955,0.00000480,-0.00001813,-0.
 00004743,0.00000915,0.00000416,0.00001403,0.00000334,-0.00000330,0.000
 00448,0.00000657,-0.00000289,0.00000386,-0.00000284,0.00000098,-0.0000
 1276,-0.00000499,-0.00000113,0.00000993,-0.00000371,0.00000347,-0.0000
 1476,-0.00009289,-0.00162344,0.00149810,0.00122984,0.01266748,-0.00656
 059,-0.01045382,0.13255330,-0.12495597,-0.00000878,-0.00002599,0.00004
 516,0.00000229,0.00000215,-0.00000210,0.00000406,0.00000243,0.00000617
 ,-0.00000832,-0.00000316,-0.00000603,0.00000484,-0.00000107,0.00000821
 ,0.00000109,0.00000327,-0.00000015,-0.00000026,0.00000049,0.00000019,-
 0.00000139,-0.00000060,0.00000707,-0.00014393,-0.00008226,-0.00009994,
 0.00007167,0.00057780,0.00025647,-0.00020997,-0.00012936,-0.00059524,0
 .00249113,-0.00054820,-0.00035533,0.00051712,-0.02596508,0.01564498,0.
 00647141,-0.14273838,0.12607959,0.00069612,0.00032616,0.00087656,-0.00
 018687,-0.00106185,-0.00307245,-0.00047546,0.00018593,0.00063186,-0.00
 003189,-0.00008323,-0.00012387,-0.00012975,-0.00000468,0.00008854,0.00
 005027,0.00000008,-0.00003174,0.00006058,0.00000627,-0.00002506,-0.000
 00799,-0.00000397,0.00000568,-0.00001055,-0.00000094,-0.00000123,-0.00
 001137,0.00000213,0.00000256,0.00002342,-0.00000173,-0.00000237,0.0000
 0527,-0.00000086,-0.00000061,0.00000350,0.00000238,-0.00000522,-0.0047
 5163,-0.00097506,0.00463370,-0.01935451,-0.00037106,-0.01925002,-0.229
 31691,-0.00337437,-0.17735131,-0.00001154,0.00002357,0.00000105,-0.000
 00822,-0.00000134,-0.00000025,-0.00000911,0.00000301,0.00000258,-0.000
 00033,0.00000034,-0.00000023,-0.00000474,0.00001288,-0.00000273,-0.000
 00314,-0.00000304,0.00000608,-0.00000063,-0.00000032,0.00000030,-0.000
 00889,0.00000172,-0.00000311,0.00015204,-0.00019323,0.00003367,0.00052
 555,0.00007849,0.00034715,0.00065416,0.00125481,0.00008227,0.00138969,
 -0.00056985,-0.00022984,0.01010296,-0.00126170,0.00883270,0.00025203,0
 .00064914,0.00081103,0.24040800,0.00006192,-0.00007979,0.00016167,0.00
 002769,0.00031387,-0.00073410,-0.00020198,-0.00005934,0.00007966,0.000
 02592,-0.00006460,-0.00003835,-0.00002022,0.00005152,0.00005786,-0.000
 00479,-0.00002613,-0.00001294,0.00001214,-0.00004083,-0.00002426,0.000
 00755,0.00000678,0.00000410,0.00000133,-0.00000272,-0.00000492,-0.0000
 0060,-0.00000564,-0.00000363,-0.00000304,-0.00000517,0.00000101,0.0000
 0026,0.00000097,-0.00000055,0.00000062,-0.00000430,0.00000328,-0.00142
 772,-0.00021538,0.00162751,-0.00525802,-0.00026146,-0.00621560,-0.0049
 9338,-0.06274895,-0.00745809,-0.00001181,0.00004089,-0.00000126,-0.000
 01441,0.00000372,0.00000423,-0.00000122,0.00001470,0.00000083,0.000001
 09,0.00000064,0.00000072,-0.00000002,0.00000008,-0.00000067,0.00000039
 ,0.00000603,0.00000065,0.00000045,0.00000188,0.00000054,0.00000149,0.0
 0000501,0.00000110,0.00029195,0.00012518,0.00006605,0.00002928,0.00025
 845,-0.00015510,0.00097340,0.00015527,0.00004567,-0.00053436,-0.000552
 84,-0.00016839,-0.02113313,0.00092016,-0.01819532,0.02680889,0.0043241
 6,0.02538284,0.00536029,0.05783783,0.00014577,-0.00001968,-0.00030143,
 0.00018704,0.00012434,0.00136964,0.00062402,0.00003089,-0.00028528,-0.
 00012122,0.00008179,0.00011263,-0.00011562,-0.00009559,0.00000838,0.00
 013281,0.00006262,-0.00003660,0.00007990,0.00004206,-0.00002067,0.0000
 0566,0.00002980,-0.00000477,-0.00001185,-0.00002912,0.00000980,-0.0000
 0508,-0.00000498,0.00002182,0.00003173,-0.00000545,-0.00001655,0.00001
 407,0.00000047,0.00000172,-0.00000505,0.00000426,-0.00003091,0.0025444
 4,0.00081379,-0.00254848,0.00904900,-0.00095791,0.01620657,-0.16790323
 ,-0.00538056,-0.22975833,-0.00007319,-0.00009970,-0.00005714,0.0000299
 8,0.00000292,-0.00001056,-0.00002861,0.00001142,0.00002438,-0.00000364
 ,-0.00000194,-0.00000252,-0.00000362,0.00001148,0.00000545,-0.00000107
 ,0.00000178,0.00001056,-0.00000014,0.00000264,-0.00000003,-0.00001048,
 0.00000488,-0.00000058,0.00005317,0.00011516,0.00000789,-0.00016846,-0
 .00018326,-0.00014276,0.00043767,-0.00027200,0.00041530,0.00013014,0.0
 0033730,0.00040523,-0.01869555,0.00148369,-0.01728577,-0.01006287,-0.0
 0168657,-0.01060102,0.18374428,0.00557548,0.24250401\\-0.00000112,0.00
 000011,0.00000060,0.00000129,0.00000088,0.00000151,-0.00000024,0.00000
 111,-0.00000033,0.00000211,-0.00000045,0.00000063,0.00000196,0.0000018
 1,-0.00000099,-0.00000133,-0.00000012,0.00000031,-0.00000099,-0.000001
 13,-0.00000099,-0.00000113,-0.00000015,0.00000191,0.00000238,-0.000000
 93,-0.00000291,-0.00000030,-0.00000094,0.00000217,0.00000191,-0.000001
 19,0.00000197,0.00000089,0.00000043,-0.00000342,-0.00000379,0.00000120
 ,0.00000196,-0.00000105,-0.00000135,0.00000018,0.00000359,0.00000259,-
 0.00000232,-0.00000172,-0.00000155,-0.00000015,-0.00000030,-0.00000085
 ,-0.00000034,-0.00000063,-0.00000009,0.,-0.00000042,0.00000128,0.00000
 148,0.00000008,-0.00000019,-0.00000087,0.00000034,0.00000024,0.0000000
 2,0.00000017,-0.00000018,0.00000012,-0.00000017,-0.00000027,0.00000058
 ,0.00000031,-0.00000060,0.00000016,0.00000002,0.00000041,-0.00000024,-
 0.00000024,0.00000059,-0.00000026,-0.00000132,-0.00000128,0.00000012,-
 0.00000006,0.00000012,-0.00000008,0.00000011,0.00000033,-0.00000033,-0
 .00000022,0.00000009,-0.00000018,-0.00000013,0.00000007,-0.00000031\\\
 @


 This summer one third of the nation will be ill-housed
 ill-nourished and ill-clad. Only they call it a vacation.
 -- Jonas Salk
 Job cpu time:       0 days  4 hours 54 minutes 35.5 seconds.
 File lengths (MBytes):  RWF=    608 Int=      0 D2E=      0 Chk=     18 Scr=      1
 Normal termination of Gaussian 09 at Thu Jul 29 02:35:37 2021.
