 Entering Gaussian System, Link 0=g09
 Input=opt_freq-conf-885.com
 Output=opt_freq-conf-885.log
 Initial command:
 /aerosol/software/g09/l1.exe "/scratch/nicole/10645/Gau-83776.inp" -scrdir="/scratch/nicole/10645/"
 Entering Link 1 = /aerosol/software/g09/l1.exe PID=     83782.
  
 Copyright (c) 1988,1990,1992,1993,1995,1998,2003,2009,2013,
            Gaussian, Inc.  All Rights Reserved.
  
 This is part of the Gaussian(R) 09 program.  It is based on
 the Gaussian(R) 03 system (copyright 2003, Gaussian, Inc.),
 the Gaussian(R) 98 system (copyright 1998, Gaussian, Inc.),
 the Gaussian(R) 94 system (copyright 1995, Gaussian, Inc.),
 the Gaussian 92(TM) system (copyright 1992, Gaussian, Inc.),
 the Gaussian 90(TM) system (copyright 1990, Gaussian, Inc.),
 the Gaussian 88(TM) system (copyright 1988, Gaussian, Inc.),
 the Gaussian 86(TM) system (copyright 1986, Carnegie Mellon
 University), and the Gaussian 82(TM) system (copyright 1983,
 Carnegie Mellon University). Gaussian is a federally registered
 trademark of Gaussian, Inc.
  
 This software contains proprietary and confidential information,
 including trade secrets, belonging to Gaussian, Inc.
  
 This software is provided under written license and may be
 used, copied, transmitted, or stored only in accord with that
 written license.
  
 The following legend is applicable only to US Government
 contracts under FAR:
  
                    RESTRICTED RIGHTS LEGEND
  
 Use, reproduction and disclosure by the US Government is
 subject to restrictions as set forth in subparagraphs (a)
 and (c) of the Commercial Computer Software - Restricted
 Rights clause in FAR 52.227-19.
  
 Gaussian, Inc.
 340 Quinnipiac St., Bldg. 40, Wallingford CT 06492
  
  
 ---------------------------------------------------------------
 Warning -- This program may not be used in any manner that
 competes with the business of Gaussian, Inc. or will provide
 assistance to any competitor of Gaussian, Inc.  The licensee
 of this program is prohibited from giving any competitor of
 Gaussian, Inc. access to this program.  By using this program,
 the user acknowledges that Gaussian, Inc. is engaged in the
 business of creating and licensing software in the field of
 computational chemistry and represents and warrants to the
 licensee that it is not a competitor of Gaussian, Inc. and that
 it will not use this program in any manner prohibited above.
 ---------------------------------------------------------------
  

 Cite this work as:
 Gaussian 09, Revision D.01,
 M. J. Frisch, G. W. Trucks, H. B. Schlegel, G. E. Scuseria, 
 M. A. Robb, J. R. Cheeseman, G. Scalmani, V. Barone, B. Mennucci, 
 G. A. Petersson, H. Nakatsuji, M. Caricato, X. Li, H. P. Hratchian, 
 A. F. Izmaylov, J. Bloino, G. Zheng, J. L. Sonnenberg, M. Hada, 
 M. Ehara, K. Toyota, R. Fukuda, J. Hasegawa, M. Ishida, T. Nakajima, 
 Y. Honda, O. Kitao, H. Nakai, T. Vreven, J. A. Montgomery, Jr., 
 J. E. Peralta, F. Ogliaro, M. Bearpark, J. J. Heyd, E. Brothers, 
 K. N. Kudin, V. N. Staroverov, T. Keith, R. Kobayashi, J. Normand, 
 K. Raghavachari, A. Rendell, J. C. Burant, S. S. Iyengar, J. Tomasi, 
 M. Cossi, N. Rega, J. M. Millam, M. Klene, J. E. Knox, J. B. Cross, 
 V. Bakken, C. Adamo, J. Jaramillo, R. Gomperts, R. E. Stratmann, 
 O. Yazyev, A. J. Austin, R. Cammi, C. Pomelli, J. W. Ochterski, 
 R. L. Martin, K. Morokuma, V. G. Zakrzewski, G. A. Voth, 
 P. Salvador, J. J. Dannenberg, S. Dapprich, A. D. Daniels, 
 O. Farkas, J. B. Foresman, J. V. Ortiz, J. Cioslowski, 
 and D. J. Fox, Gaussian, Inc., Wallingford CT, 2013.
 
 ******************************************
 Gaussian 09:  ES64L-G09RevD.01 24-Apr-2013
                28-Jul-2021 
 ******************************************
 %mem=2gb
 %nproc=4
 Will use up to    4 processors via shared memory.
 %chk=conf-885.chk
 ----------------------------------------------------------------------
 # B3LYP/6-311++G(d,p) opt=calcfc freq=noraman nosymm integral(ultrafin
 egrid)
 ----------------------------------------------------------------------
 1/10=4,14=-1,18=20,19=15,26=4,38=1/1,3;
 2/9=110,12=2,15=1,17=6,18=5,40=1/2;
 3/5=4,6=6,7=1111,11=2,16=1,25=1,30=1,71=2,74=-5,75=-5,140=1/1,2,3;
 4//1;
 5/5=2,38=5/2;
 8/6=4,10=90,11=11/1;
 11/6=1,8=1,9=11,15=111,16=1,31=1/1,2,10;
 10/6=1,13=1,31=1/2;
 6/7=2,8=2,9=2,10=2,28=1/1;
 7/10=1,18=20,25=1,30=1/1,2,3,16;
 1/10=4,14=-1,18=20,19=15,26=4/3(2);
 2/9=110,15=1/2;
 99//99;
 2/9=110,15=1/2;
 3/5=4,6=6,7=1111,11=2,16=1,25=1,30=1,71=1,74=-5,75=-5/1,2,3;
 4/5=5,16=3,69=1/1;
 5/5=2,38=5/2;
 7/30=1/1,2,3,16;
 1/14=-1,18=20,19=15,26=4/3(-5);
 2/9=110,15=1/2;
 6/7=2,8=2,9=2,10=2,19=2,28=1/1;
 99/9=1/99;
 ------------------------------------------------------------
 Candidate Structure: Conf:885 OPT and FREQ calc in gas phase
 ------------------------------------------------------------
 Symbolic Z-matrix:
 Charge =  1 Multiplicity = 1
 O                    -1.53818   0.57137  -0.33869 
 C                    -1.47554  -0.58604   0.06799 
 N                    -0.33365  -1.08817   0.5939 
 C                     0.82432  -0.23497   0.84341 
 C                     0.46092   0.81771   1.87913 
 O                     1.1605    1.96328   1.73747 
 O                    -0.33418   0.64265   2.76341 
 C                     1.41772   0.3368   -0.46374 
 C                     2.89502   0.58328  -0.40144 
 C                     3.66779   1.61256   0.05406 
 N                     5.01245   1.34801  -0.13655 
 C                     5.05197   0.16407  -0.69755 
 N                     3.80291  -0.34078  -0.88151 
 C                    -2.64265  -1.55339  -0.03225 
 C                    -3.97464  -0.88997   0.28999 
 N                    -4.25956   0.20384  -0.66934 
 H                    -0.37283  -1.95635   1.09943 
 H                     1.55463  -0.89271   1.33001 
 H                     0.86184   2.54627   2.44771 
 H                     1.23317  -0.38449  -1.26056 
 H                     0.88831   1.24414  -0.73456 
 H                     3.33952   2.5325    0.5093 
 H                     5.93702  -0.37237  -0.9914 
 H                     3.57006  -1.22406  -1.30015 
 H                    -2.66526  -1.93206  -1.05777 
 H                    -2.46599  -2.40279   0.62929 
 H                    -4.77649  -1.62938   0.25892 
 H                    -3.94437  -0.48179   1.3025 
 H                    -4.47322  -0.16443  -1.59548 
 H                    -5.02282   0.80563  -0.36245 
 H                    -3.39869   0.76171  -0.75108 
 

 GradGradGradGradGradGradGradGradGradGradGradGradGradGradGradGradGradGrad
 Berny optimization.
 Initialization pass.
                           ----------------------------
                           !    Initial Parameters    !
                           ! (Angstroms and Degrees)  !
 --------------------------                            --------------------------
 ! Name  Definition              Value          Derivative Info.                !
 --------------------------------------------------------------------------------
 ! R1    R(1,2)                  1.2284         calculate D2E/DX2 analytically  !
 ! R2    R(2,3)                  1.3538         calculate D2E/DX2 analytically  !
 ! R3    R(2,14)                 1.5192         calculate D2E/DX2 analytically  !
 ! R4    R(3,4)                  1.4598         calculate D2E/DX2 analytically  !
 ! R5    R(3,17)                 1.0054         calculate D2E/DX2 analytically  !
 ! R6    R(4,5)                  1.5208         calculate D2E/DX2 analytically  !
 ! R7    R(4,8)                  1.5452         calculate D2E/DX2 analytically  !
 ! R8    R(4,18)                 1.0967         calculate D2E/DX2 analytically  !
 ! R9    R(5,6)                  1.3497         calculate D2E/DX2 analytically  !
 ! R10   R(5,7)                  1.202          calculate D2E/DX2 analytically  !
 ! R11   R(6,19)                 0.9662         calculate D2E/DX2 analytically  !
 ! R12   R(8,9)                  1.499          calculate D2E/DX2 analytically  !
 ! R13   R(8,20)                 1.0905         calculate D2E/DX2 analytically  !
 ! R14   R(8,21)                 1.0848         calculate D2E/DX2 analytically  !
 ! R15   R(9,10)                 1.3653         calculate D2E/DX2 analytically  !
 ! R16   R(9,13)                 1.3815         calculate D2E/DX2 analytically  !
 ! R17   R(10,11)                1.3836         calculate D2E/DX2 analytically  !
 ! R18   R(10,22)                1.0776         calculate D2E/DX2 analytically  !
 ! R19   R(11,12)                1.3107         calculate D2E/DX2 analytically  !
 ! R20   R(12,13)                1.3597         calculate D2E/DX2 analytically  !
 ! R21   R(12,23)                1.0758         calculate D2E/DX2 analytically  !
 ! R22   R(13,24)                1.0048         calculate D2E/DX2 analytically  !
 ! R23   R(14,15)                1.5226         calculate D2E/DX2 analytically  !
 ! R24   R(14,25)                1.0934         calculate D2E/DX2 analytically  !
 ! R25   R(14,26)                1.091          calculate D2E/DX2 analytically  !
 ! R26   R(15,16)                1.4825         calculate D2E/DX2 analytically  !
 ! R27   R(15,27)                1.0912         calculate D2E/DX2 analytically  !
 ! R28   R(15,28)                1.0921         calculate D2E/DX2 analytically  !
 ! R29   R(16,29)                1.0193         calculate D2E/DX2 analytically  !
 ! R30   R(16,30)                1.0193         calculate D2E/DX2 analytically  !
 ! R31   R(16,31)                1.0291         calculate D2E/DX2 analytically  !
 ! A1    A(1,2,3)              121.407          calculate D2E/DX2 analytically  !
 ! A2    A(1,2,14)             122.6121         calculate D2E/DX2 analytically  !
 ! A3    A(3,2,14)             115.9422         calculate D2E/DX2 analytically  !
 ! A4    A(2,3,4)              121.2453         calculate D2E/DX2 analytically  !
 ! A5    A(2,3,17)             118.8653         calculate D2E/DX2 analytically  !
 ! A6    A(4,3,17)             116.7217         calculate D2E/DX2 analytically  !
 ! A7    A(3,4,5)              109.3542         calculate D2E/DX2 analytically  !
 ! A8    A(3,4,8)              112.1043         calculate D2E/DX2 analytically  !
 ! A9    A(3,4,18)             104.6867         calculate D2E/DX2 analytically  !
 ! A10   A(5,4,8)              114.314          calculate D2E/DX2 analytically  !
 ! A11   A(5,4,18)             105.7881         calculate D2E/DX2 analytically  !
 ! A12   A(8,4,18)             109.9704         calculate D2E/DX2 analytically  !
 ! A13   A(4,5,6)              113.0883         calculate D2E/DX2 analytically  !
 ! A14   A(4,5,7)              123.9356         calculate D2E/DX2 analytically  !
 ! A15   A(6,5,7)              122.9345         calculate D2E/DX2 analytically  !
 ! A16   A(5,6,19)             105.9471         calculate D2E/DX2 analytically  !
 ! A17   A(4,8,9)              113.8375         calculate D2E/DX2 analytically  !
 ! A18   A(4,8,20)             107.961          calculate D2E/DX2 analytically  !
 ! A19   A(4,8,21)             109.4665         calculate D2E/DX2 analytically  !
 ! A20   A(9,8,20)             107.8126         calculate D2E/DX2 analytically  !
 ! A21   A(9,8,21)             110.7195         calculate D2E/DX2 analytically  !
 ! A22   A(20,8,21)            106.7503         calculate D2E/DX2 analytically  !
 ! A23   A(8,9,10)             134.0777         calculate D2E/DX2 analytically  !
 ! A24   A(8,9,13)             121.5484         calculate D2E/DX2 analytically  !
 ! A25   A(10,9,13)            104.3721         calculate D2E/DX2 analytically  !
 ! A26   A(9,10,11)            111.0979         calculate D2E/DX2 analytically  !
 ! A27   A(9,10,22)            127.74           calculate D2E/DX2 analytically  !
 ! A28   A(11,10,22)           121.1621         calculate D2E/DX2 analytically  !
 ! A29   A(10,11,12)           105.1277         calculate D2E/DX2 analytically  !
 ! A30   A(11,12,13)           111.4432         calculate D2E/DX2 analytically  !
 ! A31   A(11,12,23)           126.3059         calculate D2E/DX2 analytically  !
 ! A32   A(13,12,23)           122.2508         calculate D2E/DX2 analytically  !
 ! A33   A(9,13,12)            107.9583         calculate D2E/DX2 analytically  !
 ! A34   A(9,13,24)            125.4832         calculate D2E/DX2 analytically  !
 ! A35   A(12,13,24)           126.5558         calculate D2E/DX2 analytically  !
 ! A36   A(2,14,15)            112.3751         calculate D2E/DX2 analytically  !
 ! A37   A(2,14,25)            107.3548         calculate D2E/DX2 analytically  !
 ! A38   A(2,14,26)            109.3497         calculate D2E/DX2 analytically  !
 ! A39   A(15,14,25)           109.3478         calculate D2E/DX2 analytically  !
 ! A40   A(15,14,26)           110.6441         calculate D2E/DX2 analytically  !
 ! A41   A(25,14,26)           107.6032         calculate D2E/DX2 analytically  !
 ! A42   A(14,15,16)           110.6503         calculate D2E/DX2 analytically  !
 ! A43   A(14,15,27)           109.9734         calculate D2E/DX2 analytically  !
 ! A44   A(14,15,28)           109.5618         calculate D2E/DX2 analytically  !
 ! A45   A(16,15,27)           109.8954         calculate D2E/DX2 analytically  !
 ! A46   A(16,15,28)           109.2385         calculate D2E/DX2 analytically  !
 ! A47   A(27,15,28)           107.459          calculate D2E/DX2 analytically  !
 ! A48   A(15,16,29)           111.2021         calculate D2E/DX2 analytically  !
 ! A49   A(15,16,30)           112.6245         calculate D2E/DX2 analytically  !
 ! A50   A(15,16,31)           106.8938         calculate D2E/DX2 analytically  !
 ! A51   A(29,16,30)           109.2634         calculate D2E/DX2 analytically  !
 ! A52   A(29,16,31)           107.3997         calculate D2E/DX2 analytically  !
 ! A53   A(30,16,31)           109.2859         calculate D2E/DX2 analytically  !
 ! D1    D(1,2,3,4)              7.1885         calculate D2E/DX2 analytically  !
 ! D2    D(1,2,3,17)           166.4159         calculate D2E/DX2 analytically  !
 ! D3    D(14,2,3,4)          -175.0172         calculate D2E/DX2 analytically  !
 ! D4    D(14,2,3,17)          -15.7898         calculate D2E/DX2 analytically  !
 ! D5    D(1,2,14,15)          -40.7302         calculate D2E/DX2 analytically  !
 ! D6    D(1,2,14,25)           79.5357         calculate D2E/DX2 analytically  !
 ! D7    D(1,2,14,26)         -164.005          calculate D2E/DX2 analytically  !
 ! D8    D(3,2,14,15)          141.5048         calculate D2E/DX2 analytically  !
 ! D9    D(3,2,14,25)          -98.2293         calculate D2E/DX2 analytically  !
 ! D10   D(3,2,14,26)           18.2299         calculate D2E/DX2 analytically  !
 ! D11   D(2,3,4,5)             63.0455         calculate D2E/DX2 analytically  !
 ! D12   D(2,3,4,8)            -64.8105         calculate D2E/DX2 analytically  !
 ! D13   D(2,3,4,18)           176.0112         calculate D2E/DX2 analytically  !
 ! D14   D(17,3,4,5)           -96.6058         calculate D2E/DX2 analytically  !
 ! D15   D(17,3,4,8)           135.5382         calculate D2E/DX2 analytically  !
 ! D16   D(17,3,4,18)           16.36           calculate D2E/DX2 analytically  !
 ! D17   D(3,4,5,6)           -151.0244         calculate D2E/DX2 analytically  !
 ! D18   D(3,4,5,7)             31.2652         calculate D2E/DX2 analytically  !
 ! D19   D(8,4,5,6)            -24.4154         calculate D2E/DX2 analytically  !
 ! D20   D(8,4,5,7)            157.8743         calculate D2E/DX2 analytically  !
 ! D21   D(18,4,5,6)            96.7304         calculate D2E/DX2 analytically  !
 ! D22   D(18,4,5,7)           -80.98           calculate D2E/DX2 analytically  !
 ! D23   D(3,4,8,9)           -149.8559         calculate D2E/DX2 analytically  !
 ! D24   D(3,4,8,20)           -30.1997         calculate D2E/DX2 analytically  !
 ! D25   D(3,4,8,21)            85.6439         calculate D2E/DX2 analytically  !
 ! D26   D(5,4,8,9)             84.9736         calculate D2E/DX2 analytically  !
 ! D27   D(5,4,8,20)          -155.3702         calculate D2E/DX2 analytically  !
 ! D28   D(5,4,8,21)           -39.5266         calculate D2E/DX2 analytically  !
 ! D29   D(18,4,8,9)           -33.8324         calculate D2E/DX2 analytically  !
 ! D30   D(18,4,8,20)           85.8239         calculate D2E/DX2 analytically  !
 ! D31   D(18,4,8,21)         -158.3326         calculate D2E/DX2 analytically  !
 ! D32   D(4,5,6,19)          -179.1045         calculate D2E/DX2 analytically  !
 ! D33   D(7,5,6,19)            -1.3678         calculate D2E/DX2 analytically  !
 ! D34   D(4,8,9,10)           -84.1443         calculate D2E/DX2 analytically  !
 ! D35   D(4,8,9,13)            96.4351         calculate D2E/DX2 analytically  !
 ! D36   D(20,8,9,10)          156.1155         calculate D2E/DX2 analytically  !
 ! D37   D(20,8,9,13)          -23.3051         calculate D2E/DX2 analytically  !
 ! D38   D(21,8,9,10)           39.6805         calculate D2E/DX2 analytically  !
 ! D39   D(21,8,9,13)         -139.7401         calculate D2E/DX2 analytically  !
 ! D40   D(8,9,10,11)         -179.2905         calculate D2E/DX2 analytically  !
 ! D41   D(8,9,10,22)            0.6845         calculate D2E/DX2 analytically  !
 ! D42   D(13,9,10,11)           0.1998         calculate D2E/DX2 analytically  !
 ! D43   D(13,9,10,22)        -179.8253         calculate D2E/DX2 analytically  !
 ! D44   D(8,9,13,12)          179.5376         calculate D2E/DX2 analytically  !
 ! D45   D(8,9,13,24)            0.1163         calculate D2E/DX2 analytically  !
 ! D46   D(10,9,13,12)          -0.0327         calculate D2E/DX2 analytically  !
 ! D47   D(10,9,13,24)        -179.454          calculate D2E/DX2 analytically  !
 ! D48   D(9,10,11,12)          -0.2927         calculate D2E/DX2 analytically  !
 ! D49   D(22,10,11,12)        179.7304         calculate D2E/DX2 analytically  !
 ! D50   D(10,11,12,13)          0.2688         calculate D2E/DX2 analytically  !
 ! D51   D(10,11,12,23)       -179.839          calculate D2E/DX2 analytically  !
 ! D52   D(11,12,13,9)          -0.1545         calculate D2E/DX2 analytically  !
 ! D53   D(11,12,13,24)        179.2589         calculate D2E/DX2 analytically  !
 ! D54   D(23,12,13,9)         179.9482         calculate D2E/DX2 analytically  !
 ! D55   D(23,12,13,24)         -0.6384         calculate D2E/DX2 analytically  !
 ! D56   D(2,14,15,16)          61.4384         calculate D2E/DX2 analytically  !
 ! D57   D(2,14,15,27)        -176.9661         calculate D2E/DX2 analytically  !
 ! D58   D(2,14,15,28)         -59.0665         calculate D2E/DX2 analytically  !
 ! D59   D(25,14,15,16)        -57.6677         calculate D2E/DX2 analytically  !
 ! D60   D(25,14,15,27)         63.9278         calculate D2E/DX2 analytically  !
 ! D61   D(25,14,15,28)       -178.1726         calculate D2E/DX2 analytically  !
 ! D62   D(26,14,15,16)       -176.0146         calculate D2E/DX2 analytically  !
 ! D63   D(26,14,15,27)        -54.4191         calculate D2E/DX2 analytically  !
 ! D64   D(26,14,15,28)         63.4805         calculate D2E/DX2 analytically  !
 ! D65   D(14,15,16,29)         70.3138         calculate D2E/DX2 analytically  !
 ! D66   D(14,15,16,30)       -166.6591         calculate D2E/DX2 analytically  !
 ! D67   D(14,15,16,31)        -46.6241         calculate D2E/DX2 analytically  !
 ! D68   D(27,15,16,29)        -51.3276         calculate D2E/DX2 analytically  !
 ! D69   D(27,15,16,30)         71.6994         calculate D2E/DX2 analytically  !
 ! D70   D(27,15,16,31)       -168.2656         calculate D2E/DX2 analytically  !
 ! D71   D(28,15,16,29)       -168.9888         calculate D2E/DX2 analytically  !
 ! D72   D(28,15,16,30)        -45.9617         calculate D2E/DX2 analytically  !
 ! D73   D(28,15,16,31)         74.0733         calculate D2E/DX2 analytically  !
 --------------------------------------------------------------------------------
 Trust Radius=3.00D-01 FncErr=1.00D-07 GrdErr=1.00D-06
 Number of steps in this run=    167 maximum allowed number of steps=    186.
 GradGradGradGradGradGradGradGradGradGradGradGradGradGradGradGradGradGrad

                          Input orientation:                          
 ---------------------------------------------------------------------
 Center     Atomic      Atomic             Coordinates (Angstroms)
 Number     Number       Type             X           Y           Z
 ---------------------------------------------------------------------
      1          8           0       -1.538177    0.571365   -0.338685
      2          6           0       -1.475544   -0.586038    0.067993
      3          7           0       -0.333646   -1.088170    0.593896
      4          6           0        0.824321   -0.234971    0.843410
      5          6           0        0.460921    0.817714    1.879128
      6          8           0        1.160504    1.963284    1.737470
      7          8           0       -0.334184    0.642647    2.763409
      8          6           0        1.417721    0.336804   -0.463742
      9          6           0        2.895018    0.583283   -0.401438
     10          6           0        3.667793    1.612560    0.054059
     11          7           0        5.012447    1.348006   -0.136547
     12          6           0        5.051966    0.164069   -0.697549
     13          7           0        3.802905   -0.340777   -0.881507
     14          6           0       -2.642649   -1.553390   -0.032247
     15          6           0       -3.974637   -0.889965    0.289986
     16          7           0       -4.259556    0.203843   -0.669340
     17          1           0       -0.372831   -1.956352    1.099430
     18          1           0        1.554627   -0.892708    1.330011
     19          1           0        0.861839    2.546274    2.447712
     20          1           0        1.233170   -0.384492   -1.260563
     21          1           0        0.888307    1.244140   -0.734564
     22          1           0        3.339524    2.532496    0.509303
     23          1           0        5.937025   -0.372368   -0.991397
     24          1           0        3.570064   -1.224065   -1.300151
     25          1           0       -2.665263   -1.932058   -1.057774
     26          1           0       -2.465988   -2.402790    0.629291
     27          1           0       -4.776490   -1.629383    0.258918
     28          1           0       -3.944371   -0.481792    1.302504
     29          1           0       -4.473217   -0.164428   -1.595482
     30          1           0       -5.022815    0.805627   -0.362453
     31          1           0       -3.398692    0.761715   -0.751084
 ---------------------------------------------------------------------
                    Distance matrix (angstroms):
                    1          2          3          4          5
     1  O    0.000000
     2  C    1.228370   0.000000
     3  N    2.252700   1.353751   0.000000
     4  C    2.762051   2.452325   1.459826   0.000000
     5  C    2.995960   3.000104   2.432191   1.520828   0.000000
     6  O    3.678415   4.029261   3.584915   2.396808   1.349745
     7  O    3.328313   3.174529   2.775340   2.408058   1.201995
     8  C    2.967827   3.083077   2.493278   1.545217   2.576002
     9  C    4.433655   4.548570   3.769445   2.550876   3.343766
    10  C    5.323576   5.593562   4.857662   3.481634   3.774478
    11  N    6.599600   6.773212   5.920238   4.583288   5.006052
    12  C    6.612463   6.614915   5.678094   4.517385   5.305113
    13  N    5.445532   5.368773   4.454937   3.443616   4.486877
    14  C    2.414196   1.519194   2.437207   3.811152   4.348291
    15  C    2.909820   2.527275   3.659025   4.874966   5.011558
    16  N    2.765919   2.986351   4.321786   5.322290   5.399484
    17  H    3.132979   2.039019   1.005406   2.112314   2.999752
    18  H    3.807032   3.296767   2.036086   1.096697   2.103156
    19  H    4.174249   4.575784   4.251471   3.211000   1.863315
    20  H    3.073091   3.023708   2.527665   2.148538   3.449540
    21  H    2.548955   3.095390   2.949177   2.163762   2.682515
    22  H    5.325137   5.753685   5.158348   3.754563   3.619842
    23  H    7.562758   7.490937   6.507445   5.433703   6.296342
    24  H    5.499283   5.266598   4.341063   3.621086   4.893205
    25  H    2.838052   2.120036   2.979363   4.321088   5.095063
    26  H    3.262424   2.143974   2.505267   3.946064   4.527752
    27  H    3.960694   3.467170   4.488205   5.801302   6.003652
    28  H    3.097162   2.762244   3.729230   4.797095   4.629018
    29  H    3.276490   3.454121   4.773125   5.832416   6.114183
    30  H    3.492584   3.834729   5.146783   6.060194   5.924204
    31  H    1.915155   2.487131   3.824336   4.622730   4.670949
                    6          7          8          9         10
     6  O    0.000000
     7  O    2.242927   0.000000
     8  C    2.748988   3.684727   0.000000
     9  C    3.080238   4.521894   1.499013   0.000000
    10  C    3.040293   4.929211   2.637896   1.365309   0.000000
    11  N    4.327583   6.123213   3.748552   2.266821   1.383624
    12  C    4.930515   6.420115   3.645852   2.217172   2.139855
    13  N    4.376074   5.600717   2.514507   1.381526   2.170038
    14  C    5.473834   4.238783   4.499514   5.947052   7.060620
    15  C    6.050282   4.660432   5.581272   7.059794   8.045187
    16  N    6.185904   5.233055   5.682555   7.169635   8.083975
    17  H    4.256965   3.086279   3.302749   4.402407   5.491500
    18  H    2.911708   2.824809   2.178989   2.640666   3.517086
    19  H    0.966190   2.270227   3.696935   4.013079   3.804573
    20  H    3.808613   4.438914   1.090527   2.106282   3.412306
    21  H    2.588863   3.753944   1.084843   2.138830   2.912594
    22  H    2.565254   4.706236   3.075907   2.196921   1.077631
    23  H    5.976382   7.379490   4.604938   3.242704   3.190977
    24  H    5.019195   5.936353   2.787197   2.128352   3.144818
    25  H    6.133806   5.163766   4.708649   6.137951   7.342213
    26  H    5.782915   4.286460   4.876812   6.222493   7.353720
    27  H    7.095158   5.582892   6.538837   8.011491   9.047545
    28  H    5.676913   4.053648   5.704539   7.128467   7.993120
    29  H    6.882916   6.064890   6.019570   7.501713   8.494393
    30  H    6.631989   5.637450   6.458371   7.921050   8.737922
    31  H    5.331316   4.664445   4.843650   6.305939   7.162918
                   11         12         13         14         15
    11  N    0.000000
    12  C    1.310722   0.000000
    13  N    2.206795   1.359729   0.000000
    14  C    8.187153   7.911978   6.613383   0.000000
    15  C    9.271361   9.141432   7.884426   1.522550   0.000000
    16  N    9.357512   9.311650   8.083620   2.471466   1.482532
    17  H    6.437985   6.095387   4.896015   2.568101   3.842576
    18  H    4.373570   4.178417   3.201593   4.461992   5.626226
    19  H    5.034063   5.755410   5.297984   5.936234   6.313084
    20  H    4.306727   3.898860   2.597909   4.230491   5.457194
    21  H    4.168567   4.301626   3.320909   4.559284   5.408543
    22  H    2.149141   3.162024   3.225642   7.264581   8.078261
    23  H    2.131971   1.075844   2.137181   8.713529  10.007542
    24  H    3.170173   2.118037   1.004826   6.349317   7.717686
    25  H    8.399686   8.004945   6.663366   1.093438   2.148692
    26  H    8.401308   8.054124   6.770039   1.091019   2.163282
    27  H   10.239362  10.036426   8.750263   2.154955   1.091179
    28  H    9.254384   9.238584   8.050471   2.150433   1.092114
    29  H    9.715646   9.573051   8.308734   2.779190   2.080860
    30  H   10.052447  10.100748   8.914987   3.367371   2.097471
    31  H    8.453914   8.471934   7.286666   2.539298   2.035581
                   16         17         18         19         20
    16  N    0.000000
    17  H    4.785564   0.000000
    18  H    6.245362   2.213504   0.000000
    19  H    6.436745   4.859621   3.681821   0.000000
    20  H    5.555693   3.258765   2.659453   4.741158   0.000000
    21  H    5.252329   3.898352   3.045090   3.438479   1.745866
    22  H    8.034790   5.854877   3.948600   3.145878   4.009734
    23  H   10.217926   6.833363   4.986492   6.789953   4.711565
    24  H    7.983720   4.673399   3.330096   5.966274   2.483450
    25  H    2.693459   3.147914   4.958754   6.692111   4.199270
    26  H    3.420214   2.191266   4.351632   6.234928   4.618316
    27  H    2.118868   4.495062   6.463201   7.349672   6.322546
    28  H    2.111304   3.869298   5.514398   5.794855   5.778037
    29  H    1.019320   5.223668   6.739718   7.222060   5.720442
    30  H    1.019258   5.602497   7.000822   6.749521   6.431200
    31  H    1.029073   4.468570   5.621693   5.618636   4.798698
                   21         22         23         24         25
    21  H    0.000000
    22  H    3.035710   0.000000
    23  H    5.307412   4.175804   0.000000
    24  H    3.688326   4.176005   2.534408   0.000000
    25  H    4.777087   7.644962   8.742792   6.280072   0.000000
    26  H    5.139212   7.620723   8.795446   6.445624   1.762806
    27  H    6.429157   9.124342  10.859226   8.500585   2.506506
    28  H    5.521165   7.922767  10.144750   7.986959   3.051279
    29  H    5.609918   8.528918  10.429827   8.118154   2.585023
    30  H    5.939034   8.583167  11.040894   8.878992   3.679190
    31  H    4.314089   7.080099   9.407417   7.266935   2.808628
                   26         27         28         29         30
    26  H    0.000000
    27  H    2.464499   0.000000
    28  H    2.515764   1.760243   0.000000
    29  H    3.740167   2.382618   2.962890   0.000000
    30  H    4.220765   2.525084   2.364862   1.662355   0.000000
    31  H    3.576236   2.938670   2.461971   1.650864   1.670550
                   31
    31  H    0.000000
 Symmetry turned off by external request.
 Stoichiometry    C9H15N4O3(1+)
 Framework group  C1[X(C9H15N4O3)]
 Deg. of freedom    87
 Full point group                 C1      NOp   1
 Rotational constants (GHZ):      1.1693117      0.2438321      0.2245456
 Standard basis: 6-311++G(d,p) (5D, 7F)
   457 basis functions,   711 primitive gaussians,   473 cartesian basis functions
    60 alpha electrons       60 beta electrons
       nuclear repulsion energy      1139.5684606199 Hartrees.
 NAtoms=   31 NActive=   31 NUniq=   31 SFac= 1.00D+00 NAtFMM=   60 NAOKFM=F Big=F
 Integral buffers will be    131072 words long.
 Raffenetti 2 integral format.
 Two-electron integral symmetry is turned off.
 One-electron integrals computed using PRISM.
 NBasis=   457 RedAO= T EigKep=  3.79D-06  NBF=   457
 NBsUse=   456 1.00D-06 EigRej=  8.07D-07 NBFU=   456
 ExpMin= 3.60D-02 ExpMax= 8.59D+03 ExpMxC= 1.30D+03 IAcc=3 IRadAn=         5 AccDes= 0.00D+00
 Harris functional with IExCor=  402 and IRadAn=       5 diagonalized for initial guess.
 HarFok:  IExCor=  402 AccDes= 0.00D+00 IRadAn=         5 IDoV= 1 UseB2=F ITyADJ=14
 ICtDFT=  3500011 ScaDFX=  1.000000  1.000000  1.000000  1.000000
 FoFCou: FMM=F IPFlag=           0 FMFlag=      100000 FMFlg1=           0
         NFxFlg=           0 DoJE=T BraDBF=F KetDBF=T FulRan=T
         wScrn=  0.000000 ICntrl=     500 IOpCl=  0 I1Cent=   200000004 NGrid=           0
         NMat0=    1 NMatS0=      1 NMatT0=    0 NMatD0=    1 NMtDS0=    0 NMtDT0=    0
 Symmetry not used in FoFCou.
 Requested convergence on RMS density matrix=1.00D-08 within 128 cycles.
 Requested convergence on MAX density matrix=1.00D-06.
 Requested convergence on             energy=1.00D-06.
 No special actions if energy rises.
 SCF Done:  E(RB3LYP) =  -796.697013474     A.U. after   15 cycles
            NFock= 15  Conv=0.27D-08     -V/T= 2.0036
 DoSCS=F DFT=T ScalE2(SS,OS)=  1.000000  1.000000
 Range of M.O.s used for correlation:     1   456
 NBasis=   457 NAE=    60 NBE=    60 NFC=     0 NFV=     0
 NROrb=    456 NOA=    60 NOB=    60 NVA=   396 NVB=   396

 **** Warning!!: The largest alpha MO coefficient is  0.11377933D+03

 Symmetrizing basis deriv contribution to polar:
 IMax=3 JMax=2 DiffMx= 0.00D+00
 G2DrvN: will do    32 centers at a time, making    1 passes.
 Calling FoFCou, ICntrl=  3107 FMM=F I1Cent=   0 AccDes= 0.00D+00.
 End of G2Drv F.D. properties file   721 does not exist.
 End of G2Drv F.D. properties file   722 does not exist.
 End of G2Drv F.D. properties file   788 does not exist.
          IDoAtm=1111111111111111111111111111111
          Differentiating once with respect to nuclear coordinates.
          There are    96 degrees of freedom in the 1st order CPHF.  IDoFFX=6 NUNeed=     0.
     90 vectors produced by pass  0 Test12= 2.47D-14 1.04D-09 XBig12= 1.85D-01 1.14D-01.
 AX will form    90 AO Fock derivatives at one time.
     90 vectors produced by pass  1 Test12= 2.47D-14 1.04D-09 XBig12= 2.32D-02 4.46D-02.
     90 vectors produced by pass  2 Test12= 2.47D-14 1.04D-09 XBig12= 2.43D-04 1.86D-03.
     90 vectors produced by pass  3 Test12= 2.47D-14 1.04D-09 XBig12= 7.24D-07 9.86D-05.
     90 vectors produced by pass  4 Test12= 2.47D-14 1.04D-09 XBig12= 1.66D-09 3.31D-06.
     83 vectors produced by pass  5 Test12= 2.47D-14 1.04D-09 XBig12= 2.40D-12 1.27D-07.
     27 vectors produced by pass  6 Test12= 2.47D-14 1.04D-09 XBig12= 3.52D-15 7.88D-09.
      6 vectors produced by pass  7 Test12= 2.47D-14 1.04D-09 XBig12= 4.71D-16 2.33D-09.
      3 vectors produced by pass  8 Test12= 2.47D-14 1.04D-09 XBig12= 4.09D-16 2.09D-09.
      3 vectors produced by pass  9 Test12= 2.47D-14 1.04D-09 XBig12= 1.11D-15 3.06D-09.
 InvSVY:  IOpt=1 It=  1 EMax= 4.44D-16
 Solved reduced A of dimension   572 with    96 vectors.
 End of Minotr F.D. properties file   721 does not exist.
 End of Minotr F.D. properties file   722 does not exist.
 End of Minotr F.D. properties file   788 does not exist.

 **********************************************************************

            Population analysis using the SCF density.

 **********************************************************************

 Alpha  occ. eigenvalues --  -19.28510 -19.26274 -19.23372 -14.61910 -14.49671
 Alpha  occ. eigenvalues --  -14.45030 -14.36704 -10.44271 -10.42695 -10.41937
 Alpha  occ. eigenvalues --  -10.36760 -10.36052 -10.29975 -10.29691 -10.28838
 Alpha  occ. eigenvalues --  -10.25783  -1.23326  -1.21859  -1.19489  -1.14424
 Alpha  occ. eigenvalues --   -1.10034  -1.08733  -0.97714  -0.95361  -0.92039
 Alpha  occ. eigenvalues --   -0.86208  -0.83674  -0.78678  -0.78238  -0.77837
 Alpha  occ. eigenvalues --   -0.76060  -0.72098  -0.70142  -0.69835  -0.67803
 Alpha  occ. eigenvalues --   -0.67336  -0.64397  -0.63052  -0.62510  -0.60966
 Alpha  occ. eigenvalues --   -0.60596  -0.59139  -0.57792  -0.57429  -0.56075
 Alpha  occ. eigenvalues --   -0.54357  -0.54122  -0.52530  -0.51997  -0.50634
 Alpha  occ. eigenvalues --   -0.49969  -0.49051  -0.48252  -0.44470  -0.43471
 Alpha  occ. eigenvalues --   -0.42740  -0.40311  -0.36300  -0.34606  -0.31192
 Alpha virt. eigenvalues --   -0.18403  -0.15789  -0.13866  -0.13484  -0.12784
 Alpha virt. eigenvalues --   -0.11610  -0.10066  -0.09725  -0.09326  -0.08356
 Alpha virt. eigenvalues --   -0.08025  -0.07708  -0.07107  -0.06239  -0.05954
 Alpha virt. eigenvalues --   -0.05589  -0.04738  -0.04519  -0.04173  -0.03939
 Alpha virt. eigenvalues --   -0.02841  -0.02581  -0.02465  -0.02307  -0.01818
 Alpha virt. eigenvalues --   -0.01003  -0.00769  -0.00436  -0.00297   0.00006
 Alpha virt. eigenvalues --    0.00551   0.00713   0.00882   0.01074   0.02101
 Alpha virt. eigenvalues --    0.02260   0.02623   0.02794   0.03008   0.03599
 Alpha virt. eigenvalues --    0.03950   0.04111   0.04389   0.04394   0.04660
 Alpha virt. eigenvalues --    0.05182   0.05423   0.06154   0.06462   0.06867
 Alpha virt. eigenvalues --    0.07465   0.07933   0.08061   0.08210   0.08427
 Alpha virt. eigenvalues --    0.08962   0.09176   0.09655   0.10050   0.10335
 Alpha virt. eigenvalues --    0.11063   0.11587   0.11864   0.12607   0.12847
 Alpha virt. eigenvalues --    0.13037   0.13716   0.13946   0.14484   0.15166
 Alpha virt. eigenvalues --    0.15246   0.15681   0.15967   0.16264   0.16933
 Alpha virt. eigenvalues --    0.17271   0.17395   0.18035   0.18135   0.18941
 Alpha virt. eigenvalues --    0.19285   0.19889   0.20081   0.20462   0.21272
 Alpha virt. eigenvalues --    0.22000   0.22113   0.22771   0.23286   0.23580
 Alpha virt. eigenvalues --    0.23626   0.24176   0.24690   0.24815   0.25712
 Alpha virt. eigenvalues --    0.25827   0.26277   0.26740   0.27304   0.28055
 Alpha virt. eigenvalues --    0.28365   0.29241   0.29398   0.30324   0.31260
 Alpha virt. eigenvalues --    0.31614   0.32302   0.32967   0.33092   0.35126
 Alpha virt. eigenvalues --    0.35412   0.36677   0.38056   0.38856   0.39753
 Alpha virt. eigenvalues --    0.40512   0.41087   0.42223   0.42806   0.44456
 Alpha virt. eigenvalues --    0.45669   0.46343   0.46948   0.48363   0.48634
 Alpha virt. eigenvalues --    0.50455   0.51022   0.51301   0.51976   0.52753
 Alpha virt. eigenvalues --    0.53817   0.53917   0.54366   0.54670   0.55617
 Alpha virt. eigenvalues --    0.56337   0.56763   0.57867   0.58173   0.59115
 Alpha virt. eigenvalues --    0.59978   0.60327   0.61138   0.62247   0.62491
 Alpha virt. eigenvalues --    0.63612   0.63750   0.65349   0.65929   0.66427
 Alpha virt. eigenvalues --    0.67546   0.68393   0.69724   0.70128   0.71102
 Alpha virt. eigenvalues --    0.71941   0.73943   0.75585   0.77374   0.77670
 Alpha virt. eigenvalues --    0.78543   0.80294   0.81768   0.82792   0.83766
 Alpha virt. eigenvalues --    0.84270   0.85214   0.86332   0.87138   0.88484
 Alpha virt. eigenvalues --    0.91346   0.92100   0.93722   0.94450   0.96646
 Alpha virt. eigenvalues --    0.97721   0.98234   0.99332   1.00494   1.01859
 Alpha virt. eigenvalues --    1.03472   1.03863   1.05447   1.06910   1.08001
 Alpha virt. eigenvalues --    1.09093   1.10165   1.10680   1.11329   1.12224
 Alpha virt. eigenvalues --    1.13385   1.15019   1.16101   1.16720   1.17868
 Alpha virt. eigenvalues --    1.18135   1.20517   1.21482   1.23643   1.25003
 Alpha virt. eigenvalues --    1.26167   1.28222   1.29689   1.30982   1.32137
 Alpha virt. eigenvalues --    1.33407   1.34723   1.36177   1.37665   1.39680
 Alpha virt. eigenvalues --    1.40278   1.40864   1.43458   1.44599   1.45805
 Alpha virt. eigenvalues --    1.47113   1.48379   1.50078   1.51104   1.51922
 Alpha virt. eigenvalues --    1.52982   1.54350   1.54538   1.55822   1.56372
 Alpha virt. eigenvalues --    1.57532   1.58659   1.59545   1.60350   1.61776
 Alpha virt. eigenvalues --    1.62359   1.62742   1.64196   1.65425   1.66473
 Alpha virt. eigenvalues --    1.67829   1.68680   1.69923   1.70692   1.71619
 Alpha virt. eigenvalues --    1.73110   1.73960   1.75041   1.76489   1.78002
 Alpha virt. eigenvalues --    1.79213   1.79610   1.82520   1.85318   1.87475
 Alpha virt. eigenvalues --    1.88277   1.90015   1.90849   1.92222   1.94331
 Alpha virt. eigenvalues --    1.94580   1.97001   1.98500   2.00192   2.02545
 Alpha virt. eigenvalues --    2.04562   2.06052   2.07038   2.09678   2.11035
 Alpha virt. eigenvalues --    2.12679   2.14581   2.16057   2.17439   2.18986
 Alpha virt. eigenvalues --    2.20529   2.22860   2.23691   2.27461   2.28381
 Alpha virt. eigenvalues --    2.32499   2.33436   2.35413   2.37183   2.38953
 Alpha virt. eigenvalues --    2.40827   2.42288   2.44225   2.44696   2.47098
 Alpha virt. eigenvalues --    2.48996   2.49820   2.51144   2.52101   2.52445
 Alpha virt. eigenvalues --    2.53598   2.54534   2.55967   2.56868   2.58372
 Alpha virt. eigenvalues --    2.58681   2.59895   2.62173   2.63423   2.64396
 Alpha virt. eigenvalues --    2.65094   2.67240   2.68766   2.69467   2.71369
 Alpha virt. eigenvalues --    2.71911   2.74746   2.75842   2.76410   2.77854
 Alpha virt. eigenvalues --    2.78515   2.79795   2.81348   2.81784   2.83420
 Alpha virt. eigenvalues --    2.84198   2.84867   2.85427   2.86470   2.89108
 Alpha virt. eigenvalues --    2.89860   2.91618   2.92840   2.94540   2.96596
 Alpha virt. eigenvalues --    2.97851   3.01346   3.02261   3.04667   3.09218
 Alpha virt. eigenvalues --    3.11767   3.12886   3.14071   3.20630   3.24986
 Alpha virt. eigenvalues --    3.27937   3.29659   3.33432   3.36278   3.43265
 Alpha virt. eigenvalues --    3.46712   3.49261   3.51788   3.53463   3.60246
 Alpha virt. eigenvalues --    3.61565   3.61672   3.64217   3.65991   3.71208
 Alpha virt. eigenvalues --    3.73706   3.76770   3.79120   3.81218   3.84761
 Alpha virt. eigenvalues --    3.87498   3.92951   3.95563   3.99362   4.08931
 Alpha virt. eigenvalues --    4.18340   4.23255   4.43864   4.47286   4.48954
 Alpha virt. eigenvalues --    4.59449   4.70128   4.70661   4.82684   4.85943
 Alpha virt. eigenvalues --    4.92253   4.95047   4.99542   5.10136   5.20515
 Alpha virt. eigenvalues --    5.22448   5.34459   5.50688   5.67002   5.74902
 Alpha virt. eigenvalues --   23.64748  23.66169  23.69968  23.71497  23.73406
 Alpha virt. eigenvalues --   23.77181  23.84284  23.88766  24.08622  35.34070
 Alpha virt. eigenvalues --   35.46130  35.47898  35.62796  49.77666  49.87607
 Alpha virt. eigenvalues --   49.91515
          Condensed to atoms (all electrons):
               1          2          3          4          5          6
     1  O    7.963379   0.312437  -0.179389   0.269712  -0.101901  -0.000535
     2  C    0.312437   8.458925  -0.029025  -0.815738  -0.178391  -0.017256
     3  N   -0.179389  -0.029025   8.049969  -2.140482   0.866388   0.028348
     4  C    0.269712  -0.815738  -2.140482  16.450442  -4.089869  -0.190799
     5  C   -0.101901  -0.178391   0.866388  -4.089869   7.798050   0.347749
     6  O   -0.000535  -0.017256   0.028348  -0.190799   0.347749   7.961093
     7  O   -0.001072   0.100310  -0.024000  -0.106986   0.459362  -0.136330
     8  C   -0.105305  -0.083808   0.627059  -2.267179   0.682299  -0.021129
     9  C   -0.008276  -0.059380   0.374809  -3.121501   0.898969  -0.065114
    10  C    0.002100   0.125822  -0.072477   0.809101  -0.359588   0.032583
    11  N    0.000072   0.001683   0.001505  -0.021570   0.000157  -0.000651
    12  C   -0.000793   0.005809   0.004380   0.060998  -0.015521   0.003655
    13  N   -0.002228   0.011754  -0.024258   0.224053  -0.058894   0.000414
    14  C    0.046699  -1.537294  -0.904686   0.632680  -0.301917   0.004393
    15  C    0.022275  -0.179317   0.111714  -0.033207   0.045237   0.001899
    16  N   -0.041097   0.095921  -0.005463  -0.009136   0.000443  -0.000008
    17  H   -0.002115   0.032093   0.357104  -0.064603  -0.024056  -0.003677
    18  H    0.002169   0.027611  -0.162966   0.825986  -0.175783   0.002012
    19  H   -0.001150  -0.003671   0.012389  -0.127374   0.118355   0.226948
    20  H    0.000356  -0.002278  -0.010186   0.014244  -0.021390   0.006656
    21  H   -0.007012  -0.018235   0.029139  -0.191459   0.001458  -0.022415
    22  H    0.000495  -0.003926  -0.005039   0.069598  -0.026868  -0.023739
    23  H    0.000001  -0.000199   0.000169  -0.002842   0.000265   0.000141
    24  H   -0.000021   0.001605  -0.000933   0.002547  -0.001145  -0.000131
    25  H    0.006339  -0.102960  -0.003729   0.034604  -0.004580  -0.000342
    26  H    0.006719  -0.045789  -0.009889   0.021763  -0.003591   0.000471
    27  H    0.001233   0.008685  -0.002273  -0.003381   0.000011   0.000059
    28  H   -0.000671  -0.031269   0.000964   0.023196  -0.003415  -0.000139
    29  H   -0.000663  -0.041266  -0.002430  -0.000295  -0.001862   0.000032
    30  H    0.003177   0.016378   0.005135  -0.006109   0.003607  -0.000022
    31  H    0.073538   0.055839   0.018145  -0.001561  -0.002980   0.000105
               7          8          9         10         11         12
     1  O   -0.001072  -0.105305  -0.008276   0.002100   0.000072  -0.000793
     2  C    0.100310  -0.083808  -0.059380   0.125822   0.001683   0.005809
     3  N   -0.024000   0.627059   0.374809  -0.072477   0.001505   0.004380
     4  C   -0.106986  -2.267179  -3.121501   0.809101  -0.021570   0.060998
     5  C    0.459362   0.682299   0.898969  -0.359588   0.000157  -0.015521
     6  O   -0.136330  -0.021129  -0.065114   0.032583  -0.000651   0.003655
     7  O    7.991884   0.002794  -0.020799   0.022355   0.000099  -0.000261
     8  C    0.002794   6.589840   1.188700  -0.331231  -0.005025  -0.010133
     9  C   -0.020799   1.188700   8.915045  -1.716226  -0.128700  -0.032745
    10  C    0.022355  -0.331231  -1.716226   7.646971   0.519485  -0.401954
    11  N    0.000099  -0.005025  -0.128700   0.519485   6.545934   0.315256
    12  C   -0.000261  -0.010133  -0.032745  -0.401954   0.315256   5.405767
    13  N   -0.000312  -0.139096  -0.247626   0.074598   0.032658   0.146204
    14  C   -0.027504  -0.430666  -0.022371  -0.008953   0.000085   0.002283
    15  C   -0.001130  -0.020650   0.000510  -0.001173  -0.000006   0.000042
    16  N    0.000125   0.006531  -0.000282  -0.000115   0.000000  -0.000008
    17  H   -0.003836   0.035962   0.008302   0.001859   0.000108   0.002069
    18  H   -0.003892  -0.139647  -0.143516   0.020257  -0.001947  -0.008408
    19  H   -0.019248  -0.002596   0.045257  -0.029148   0.000119  -0.000405
    20  H    0.004158   0.337851  -0.080305  -0.004381  -0.000282   0.016959
    21  H   -0.004152   0.448256   0.102721  -0.073033   0.000792  -0.000299
    22  H    0.002272  -0.020437  -0.129633   0.473718  -0.082969   0.029120
    23  H   -0.000007   0.003937   0.065645  -0.015522  -0.066074   0.442286
    24  H   -0.000014   0.009124  -0.028760  -0.015941   0.009550  -0.019682
    25  H   -0.001868   0.002084  -0.003470   0.000089  -0.000006  -0.000143
    26  H    0.001748  -0.007332  -0.000207  -0.000316  -0.000001  -0.000030
    27  H   -0.000171  -0.002651   0.000189  -0.000072   0.000001   0.000019
    28  H   -0.002239  -0.003455  -0.001636   0.000140  -0.000004  -0.000049
    29  H    0.000158  -0.000022   0.000393  -0.000023   0.000001   0.000008
    30  H   -0.000091   0.001873   0.000264  -0.000100   0.000000   0.000000
    31  H    0.000699  -0.003298  -0.000479   0.000808  -0.000001   0.000049
              13         14         15         16         17         18
     1  O   -0.002228   0.046699   0.022275  -0.041097  -0.002115   0.002169
     2  C    0.011754  -1.537294  -0.179317   0.095921   0.032093   0.027611
     3  N   -0.024258  -0.904686   0.111714  -0.005463   0.357104  -0.162966
     4  C    0.224053   0.632680  -0.033207  -0.009136  -0.064603   0.825986
     5  C   -0.058894  -0.301917   0.045237   0.000443  -0.024056  -0.175783
     6  O    0.000414   0.004393   0.001899  -0.000008  -0.003677   0.002012
     7  O   -0.000312  -0.027504  -0.001130   0.000125  -0.003836  -0.003892
     8  C   -0.139096  -0.430666  -0.020650   0.006531   0.035962  -0.139647
     9  C   -0.247626  -0.022371   0.000510  -0.000282   0.008302  -0.143516
    10  C    0.074598  -0.008953  -0.001173  -0.000115   0.001859   0.020257
    11  N    0.032658   0.000085  -0.000006   0.000000   0.000108  -0.001947
    12  C    0.146204   0.002283   0.000042  -0.000008   0.002069  -0.008408
    13  N    6.828663   0.000979  -0.000531   0.000054  -0.000274   0.030896
    14  C    0.000979   8.517201  -0.056305  -0.152604  -0.058291   0.013707
    15  C   -0.000531  -0.056305   5.894966   0.032287  -0.010020  -0.002322
    16  N    0.000054  -0.152604   0.032287   6.401206   0.002416  -0.000294
    17  H   -0.000274  -0.058291  -0.010020   0.002416   0.402333  -0.017901
    18  H    0.030896   0.013707  -0.002322  -0.000294  -0.017901   0.480392
    19  H   -0.000463   0.000209   0.000933  -0.000117  -0.000684  -0.003396
    20  H   -0.008530   0.024823  -0.002854  -0.001029   0.004131  -0.006376
    21  H    0.007392   0.009492   0.001972  -0.000393  -0.001890   0.001482
    22  H    0.014954  -0.000700  -0.000291   0.000021   0.000068   0.003999
    23  H   -0.119220   0.000062   0.000005  -0.000001   0.000117  -0.001020
    24  H    0.357049  -0.000453  -0.000083   0.000018  -0.000274   0.001923
    25  H    0.000066   0.398114  -0.053725   0.013527   0.000268   0.001160
    26  H    0.000081   0.421757  -0.018860   0.007417   0.000766   0.001400
    27  H   -0.000008  -0.048574   0.402989  -0.024833   0.000692  -0.000323
    28  H    0.000005  -0.049025   0.423133  -0.020969  -0.000475   0.000990
    29  H    0.000009   0.045846  -0.005783   0.353558  -0.000459   0.000016
    30  H   -0.000004  -0.018027  -0.011041   0.326129   0.000367  -0.000122
    31  H   -0.000005  -0.064863  -0.014505   0.266917   0.001763  -0.000443
              19         20         21         22         23         24
     1  O   -0.001150   0.000356  -0.007012   0.000495   0.000001  -0.000021
     2  C   -0.003671  -0.002278  -0.018235  -0.003926  -0.000199   0.001605
     3  N    0.012389  -0.010186   0.029139  -0.005039   0.000169  -0.000933
     4  C   -0.127374   0.014244  -0.191459   0.069598  -0.002842   0.002547
     5  C    0.118355  -0.021390   0.001458  -0.026868   0.000265  -0.001145
     6  O    0.226948   0.006656  -0.022415  -0.023739   0.000141  -0.000131
     7  O   -0.019248   0.004158  -0.004152   0.002272  -0.000007  -0.000014
     8  C   -0.002596   0.337851   0.448256  -0.020437   0.003937   0.009124
     9  C    0.045257  -0.080305   0.102721  -0.129633   0.065645  -0.028760
    10  C   -0.029148  -0.004381  -0.073033   0.473718  -0.015522  -0.015941
    11  N    0.000119  -0.000282   0.000792  -0.082969  -0.066074   0.009550
    12  C   -0.000405   0.016959  -0.000299   0.029120   0.442286  -0.019682
    13  N   -0.000463  -0.008530   0.007392   0.014954  -0.119220   0.357049
    14  C    0.000209   0.024823   0.009492  -0.000700   0.000062  -0.000453
    15  C    0.000933  -0.002854   0.001972  -0.000291   0.000005  -0.000083
    16  N   -0.000117  -0.001029  -0.000393   0.000021  -0.000001   0.000018
    17  H   -0.000684   0.004131  -0.001890   0.000068   0.000117  -0.000274
    18  H   -0.003396  -0.006376   0.001482   0.003999  -0.001020   0.001923
    19  H    0.461586  -0.002304   0.003845  -0.001510   0.000021   0.000053
    20  H   -0.002304   0.611546  -0.022844  -0.004527   0.001882  -0.009334
    21  H    0.003845  -0.022844   0.451763   0.002582  -0.000112   0.002565
    22  H   -0.001510  -0.004527   0.002582   0.543473  -0.001302   0.001063
    23  H    0.000021   0.001882  -0.000112  -0.001302   0.516113  -0.003332
    24  H    0.000053  -0.009334   0.002565   0.001063  -0.003332   0.402132
    25  H   -0.000125   0.000237  -0.000942   0.000053  -0.000006   0.000025
    26  H    0.000083   0.000702   0.000615  -0.000020  -0.000004  -0.000003
    27  H    0.000012   0.000191   0.000223  -0.000011   0.000001  -0.000010
    28  H    0.000043   0.000035  -0.000687   0.000009  -0.000001   0.000011
    29  H   -0.000013   0.000085   0.000364   0.000005   0.000000   0.000002
    30  H    0.000072   0.000027  -0.000094  -0.000012   0.000000  -0.000002
    31  H   -0.000267   0.000632   0.000422   0.000005   0.000002  -0.000022
              25         26         27         28         29         30
     1  O    0.006339   0.006719   0.001233  -0.000671  -0.000663   0.003177
     2  C   -0.102960  -0.045789   0.008685  -0.031269  -0.041266   0.016378
     3  N   -0.003729  -0.009889  -0.002273   0.000964  -0.002430   0.005135
     4  C    0.034604   0.021763  -0.003381   0.023196  -0.000295  -0.006109
     5  C   -0.004580  -0.003591   0.000011  -0.003415  -0.001862   0.003607
     6  O   -0.000342   0.000471   0.000059  -0.000139   0.000032  -0.000022
     7  O   -0.001868   0.001748  -0.000171  -0.002239   0.000158  -0.000091
     8  C    0.002084  -0.007332  -0.002651  -0.003455  -0.000022   0.001873
     9  C   -0.003470  -0.000207   0.000189  -0.001636   0.000393   0.000264
    10  C    0.000089  -0.000316  -0.000072   0.000140  -0.000023  -0.000100
    11  N   -0.000006  -0.000001   0.000001  -0.000004   0.000001   0.000000
    12  C   -0.000143  -0.000030   0.000019  -0.000049   0.000008   0.000000
    13  N    0.000066   0.000081  -0.000008   0.000005   0.000009  -0.000004
    14  C    0.398114   0.421757  -0.048574  -0.049025   0.045846  -0.018027
    15  C   -0.053725  -0.018860   0.402989   0.423133  -0.005783  -0.011041
    16  N    0.013527   0.007417  -0.024833  -0.020969   0.353558   0.326129
    17  H    0.000268   0.000766   0.000692  -0.000475  -0.000459   0.000367
    18  H    0.001160   0.001400  -0.000323   0.000990   0.000016  -0.000122
    19  H   -0.000125   0.000083   0.000012   0.000043  -0.000013   0.000072
    20  H    0.000237   0.000702   0.000191   0.000035   0.000085   0.000027
    21  H   -0.000942   0.000615   0.000223  -0.000687   0.000364  -0.000094
    22  H    0.000053  -0.000020  -0.000011   0.000009   0.000005  -0.000012
    23  H   -0.000006  -0.000004   0.000001  -0.000001   0.000000   0.000000
    24  H    0.000025  -0.000003  -0.000010   0.000011   0.000002  -0.000002
    25  H    0.468964  -0.000499  -0.006264   0.007508  -0.002686   0.001107
    26  H   -0.000499   0.463600  -0.011738  -0.002732   0.002598  -0.000674
    27  H   -0.006264  -0.011738   0.422891  -0.008290  -0.001662  -0.000535
    28  H    0.007508  -0.002732  -0.008290   0.419599  -0.002149   0.000920
    29  H   -0.002686   0.002598  -0.001662  -0.002149   0.362698  -0.017747
    30  H    0.001107  -0.000674  -0.000535   0.000920  -0.017747   0.357144
    31  H   -0.004361  -0.004164   0.004147  -0.008086  -0.021674  -0.005814
              31
     1  O    0.073538
     2  C    0.055839
     3  N    0.018145
     4  C   -0.001561
     5  C   -0.002980
     6  O    0.000105
     7  O    0.000699
     8  C   -0.003298
     9  C   -0.000479
    10  C    0.000808
    11  N   -0.000001
    12  C    0.000049
    13  N   -0.000005
    14  C   -0.064863
    15  C   -0.014505
    16  N    0.266917
    17  H    0.001763
    18  H   -0.000443
    19  H   -0.000267
    20  H    0.000632
    21  H    0.000422
    22  H    0.000005
    23  H    0.000002
    24  H   -0.000022
    25  H   -0.004361
    26  H   -0.004164
    27  H    0.004147
    28  H   -0.008086
    29  H   -0.021674
    30  H   -0.005814
    31  H    0.346188
 Mulliken charges:
               1
     1  O   -0.258471
     2  C   -0.105070
     3  N    0.090008
     4  C   -0.244833
     5  C    0.149402
     6  O   -0.134272
     7  O   -0.232051
     8  C   -0.342649
     9  C    0.210222
    10  C   -0.699632
    11  N   -0.120270
    12  C    0.055527
    13  N   -0.128380
    14  C   -0.436096
    15  C   -0.526159
    16  N   -0.250222
    17  H    0.338139
    18  H    0.254356
    19  H    0.322547
    20  H    0.152104
    21  H    0.278483
    22  H    0.159548
    23  H    0.178994
    24  H    0.292473
    25  H    0.251560
    26  H    0.176125
    27  H    0.269456
    28  H    0.258739
    29  H    0.332961
    30  H    0.344195
    31  H    0.363265
 Sum of Mulliken charges =   1.00000
 Mulliken charges with hydrogens summed into heavy atoms:
               1
     1  O   -0.258471
     2  C   -0.105070
     3  N    0.428147
     4  C    0.009523
     5  C    0.149402
     6  O    0.188276
     7  O   -0.232051
     8  C    0.087938
     9  C    0.210222
    10  C   -0.540084
    11  N   -0.120270
    12  C    0.234521
    13  N    0.164093
    14  C   -0.008412
    15  C    0.002036
    16  N    0.790199
 APT charges:
               1
     1  O   -0.515377
     2  C   -0.039620
     3  N   -0.362797
     4  C   -0.963624
     5  C   -0.037068
     6  O   -0.494369
     7  O   -0.065965
     8  C   -0.619089
     9  C   -0.175675
    10  C   -0.711158
    11  N    0.025844
    12  C   -0.389141
    13  N   -0.573745
    14  C   -0.343822
    15  C   -1.229498
    16  N   -1.023172
    17  H    0.686805
    18  H    0.536319
    19  H    0.893240
    20  H    0.269929
    21  H    0.333266
    22  H    0.396805
    23  H    1.142112
    24  H    0.399100
    25  H    0.417066
    26  H    0.423602
    27  H    0.928778
    28  H    0.297676
    29  H    0.737405
    30  H    1.074391
    31  H   -0.018218
 Sum of APT charges =   1.00000
 APT charges with hydrogens summed into heavy atoms:
               1
     1  O   -0.515377
     2  C   -0.039620
     3  N    0.324007
     4  C   -0.427305
     5  C   -0.037068
     6  O    0.398871
     7  O   -0.065965
     8  C   -0.015895
     9  C   -0.175675
    10  C   -0.314353
    11  N    0.025844
    12  C    0.752972
    13  N   -0.174644
    14  C    0.496845
    15  C   -0.003044
    16  N    0.770406
 Electronic spatial extent (au):  <R**2>=           4951.2922
 Charge=              1.0000 electrons
 Dipole moment (field-independent basis, Debye):
    X=            -16.8956    Y=             -5.3757    Z=             -2.4272  Tot=             17.8955
 Quadrupole moment (field-independent basis, Debye-Ang):
   XX=            -24.5140   YY=            -78.8559   ZZ=            -89.0183
   XY=            -10.6154   XZ=              7.2699   YZ=              4.3519
 Traceless Quadrupole moment (field-independent basis, Debye-Ang):
   XX=             39.6154   YY=            -14.7265   ZZ=            -24.8889
   XY=            -10.6154   XZ=              7.2699   YZ=              4.3519
 Octapole moment (field-independent basis, Debye-Ang**2):
  XXX=           -583.0955  YYY=            -53.9277  ZZZ=            -92.1138  XYY=            -77.3392
  XXY=           -104.0750  XXZ=            -97.9268  XZZ=            -55.5573  YZZ=            -14.7764
  YYZ=             -0.3749  XYZ=             19.3401
 Hexadecapole moment (field-independent basis, Debye-Ang**3):
 XXXX=          -3753.9094 YYYY=           -601.3323 ZZZZ=           -770.6195 XXXY=           -912.4470
 XXXZ=            102.8489 YYYX=           -411.2688 YYYZ=            -37.4239 ZZZX=            144.6248
 ZZZY=            -50.9687 XXYY=           -953.9880 XXZZ=           -857.3441 YYZZ=           -173.3151
 XXYZ=              3.2987 YYXZ=             39.9265 ZZXY=           -131.2716
 N-N= 1.139568460620D+03 E-N=-4.125180416949D+03  KE= 7.938392153272D+02
  Exact polarizability:   0.000   0.000   0.000   0.000   0.000   0.000
 Approx polarizability: 223.058   5.207 208.166  -2.530   7.777 167.899
 Calling FoFJK, ICntrl=    100147 FMM=F ISym2X=0 I1Cent= 0 IOpClX= 0 NMat=1 NMatS=1 NMatT=0.
 -------------------------------------------------------------------
 Center     Atomic                   Forces (Hartrees/Bohr)
 Number     Number              X              Y              Z
 -------------------------------------------------------------------
      1        8          -0.015733818    0.007944966   -0.005493512
      2        6           0.016345320   -0.009412341    0.007950947
      3        7          -0.010041925    0.003076066   -0.001242091
      4        6           0.004425312   -0.004617853   -0.004551421
      5        6           0.005314910    0.012096432    0.005574725
      6        8          -0.006284417   -0.009115864   -0.001755824
      7        8          -0.005990888   -0.002640321    0.001425243
      8        6           0.009452895    0.000064106   -0.001220785
      9        6          -0.005200778   -0.000726446   -0.001198183
     10        6           0.009120867    0.007363062    0.001661304
     11        7          -0.005807980    0.000330027    0.001354201
     12        6           0.003253476    0.002831227    0.001021926
     13        7          -0.003000258   -0.005720015   -0.000827923
     14        6           0.004192490    0.000517490   -0.004457544
     15        6           0.002411939   -0.018060502    0.018743971
     16        7          -0.004344699    0.004234290   -0.003874770
     17        1          -0.001178695   -0.003377534    0.000455679
     18        1           0.001479203    0.003300729   -0.001898481
     19        1           0.001456455    0.004438194    0.003521647
     20        1          -0.002335622   -0.001838329   -0.000986869
     21        1          -0.000367131    0.001912990   -0.000482619
     22        1           0.000466340   -0.000345506   -0.000530102
     23        1           0.002565652   -0.000754293   -0.000813638
     24        1           0.001095126   -0.003007513   -0.002363174
     25        1           0.001167689   -0.003574877   -0.001397492
     26        1          -0.005820028   -0.000942709   -0.000564082
     27        1          -0.001845888    0.003035239   -0.002144172
     28        1          -0.001861940    0.004657765   -0.002485338
     29        1          -0.002996992    0.000327403   -0.003422869
     30        1          -0.003462187    0.001056633   -0.000480161
     31        1           0.013525573    0.006947483    0.000481405
 -------------------------------------------------------------------
 Cartesian Forces:  Max     0.018743971 RMS     0.005591338
 FormGI is forming the generalized inverse of G from B-inverse, IUseBI=4.

 GradGradGradGradGradGradGradGradGradGradGradGradGradGradGradGradGradGrad
 Berny optimization.
 Internal  Forces:  Max     0.022449636 RMS     0.004636728
 Search for a local minimum.
 Step number   1 out of a maximum of  167
 All quantities printed in internal units (Hartrees-Bohrs-Radians)
 Mixed Optimization -- RFO/linear search
 Second derivative matrix not updated -- analytic derivatives used.
 ITU=  0
     Eigenvalues ---    0.00024   0.00035   0.00284   0.00317   0.00410
     Eigenvalues ---    0.00419   0.00518   0.00914   0.00952   0.01054
     Eigenvalues ---    0.01950   0.02061   0.02098   0.02561   0.03458
     Eigenvalues ---    0.03880   0.03985   0.04086   0.04240   0.04445
     Eigenvalues ---    0.04714   0.04884   0.04959   0.05009   0.05119
     Eigenvalues ---    0.05566   0.05952   0.06066   0.06435   0.07711
     Eigenvalues ---    0.08078   0.08237   0.10252   0.10814   0.11019
     Eigenvalues ---    0.11543   0.11727   0.12314   0.12962   0.13218
     Eigenvalues ---    0.15021   0.15474   0.15971   0.16152   0.17962
     Eigenvalues ---    0.19014   0.20557   0.22164   0.22326   0.22925
     Eigenvalues ---    0.23366   0.23704   0.24462   0.25272   0.25804
     Eigenvalues ---    0.26324   0.29581   0.31811   0.32122   0.32612
     Eigenvalues ---    0.33354   0.33535   0.33643   0.33774   0.33902
     Eigenvalues ---    0.34243   0.34708   0.35413   0.35947   0.37312
     Eigenvalues ---    0.37640   0.39449   0.39888   0.40363   0.41049
     Eigenvalues ---    0.43876   0.44317   0.44508   0.45271   0.47745
     Eigenvalues ---    0.47880   0.48424   0.51924   0.52446   0.58027
     Eigenvalues ---    0.79033   0.88887
 RFO step:  Lambda=-1.32865220D-02 EMin= 2.36030091D-04
 Linear search not attempted -- first point.
 Iteration  1 RMS(Cart)=  0.10422951 RMS(Int)=  0.00352335
 Iteration  2 RMS(Cart)=  0.00880674 RMS(Int)=  0.00029883
 Iteration  3 RMS(Cart)=  0.00005174 RMS(Int)=  0.00029663
 Iteration  4 RMS(Cart)=  0.00000004 RMS(Int)=  0.00029663
 Variable       Old X    -DE/DX   Delta X   Delta X   Delta X     New X
                                 (Linear)    (Quad)   (Total)
    R1        2.32128   0.01011   0.00000   0.02922   0.02922   2.35051
    R2        2.55822  -0.00365   0.00000  -0.03482  -0.03482   2.52339
    R3        2.87086   0.00038   0.00000   0.01261   0.01261   2.88347
    R4        2.75867   0.00938   0.00000   0.02396   0.02396   2.78263
    R5        1.89994   0.00319   0.00000   0.00741   0.00741   1.90735
    R6        2.87395   0.01059   0.00000   0.03714   0.03714   2.91109
    R7        2.92004   0.00730   0.00000   0.01831   0.01831   2.93834
    R8        2.07246  -0.00184   0.00000  -0.00652  -0.00652   2.06594
    R9        2.55065  -0.00666   0.00000  -0.02794  -0.02794   2.52271
   R10        2.27144   0.00540   0.00000   0.00607   0.00607   2.27751
   R11        1.82583   0.00482   0.00000   0.00875   0.00875   1.83458
   R12        2.83272   0.00238   0.00000  -0.00213  -0.00213   2.83060
   R13        2.06080   0.00233   0.00000   0.00672   0.00672   2.06751
   R14        2.05006   0.00190   0.00000   0.00791   0.00791   2.05797
   R15        2.58006   0.00818   0.00000   0.01587   0.01585   2.59591
   R16        2.61071   0.00668   0.00000   0.01337   0.01339   2.62410
   R17        2.61467  -0.00476   0.00000  -0.01818  -0.01821   2.59646
   R18        2.03643  -0.00066   0.00000  -0.00007  -0.00007   2.03636
   R19        2.47691   0.00105   0.00000   0.00014   0.00014   2.47705
   R20        2.56952   0.00570   0.00000   0.01324   0.01326   2.58278
   R21        2.03305   0.00271   0.00000   0.00665   0.00665   2.03970
   R22        1.89885   0.00337   0.00000   0.00666   0.00666   1.90551
   R23        2.87720   0.00115   0.00000   0.01753   0.01753   2.89474
   R24        2.06630   0.00252   0.00000   0.00481   0.00481   2.07111
   R25        2.06173  -0.00055   0.00000   0.00000   0.00000   2.06173
   R26        2.80158   0.01347   0.00000   0.05034   0.05034   2.85192
   R27        2.06203  -0.00064   0.00000  -0.00385  -0.00385   2.05818
   R28        2.06380  -0.00061   0.00000  -0.00265  -0.00265   2.06114
   R29        1.92624   0.00362   0.00000   0.00502   0.00502   1.93126
   R30        1.92612   0.00307   0.00000   0.00363   0.00363   1.92975
   R31        1.94467   0.01504   0.00000   0.06169   0.06169   2.00636
    A1        2.11895   0.01297   0.00000   0.02386   0.02377   2.14272
    A2        2.13999  -0.02245   0.00000  -0.06765  -0.06776   2.07223
    A3        2.02357   0.00953   0.00000   0.04470   0.04459   2.06817
    A4        2.11613   0.00535   0.00000   0.01780   0.01780   2.13393
    A5        2.07459  -0.00423   0.00000  -0.02242  -0.02244   2.05215
    A6        2.03718  -0.00107   0.00000   0.00607   0.00608   2.04326
    A7        1.90859  -0.00890   0.00000  -0.03195  -0.03225   1.87634
    A8        1.95659   0.00455   0.00000   0.01804   0.01819   1.97478
    A9        1.82713   0.00160   0.00000   0.00948   0.00953   1.83665
   A10        1.99515   0.00701   0.00000   0.03050   0.03065   2.02581
   A11        1.84635   0.00050   0.00000  -0.00046  -0.00028   1.84607
   A12        1.91935  -0.00548   0.00000  -0.02867  -0.02861   1.89073
   A13        1.97376   0.00185   0.00000  -0.00511  -0.00514   1.96863
   A14        2.16308  -0.00429   0.00000  -0.01719  -0.01722   2.14587
   A15        2.14561   0.00248   0.00000   0.02276   0.02274   2.16835
   A16        1.84913   0.00537   0.00000   0.03881   0.03881   1.88793
   A17        1.98684   0.00350   0.00000   0.00718   0.00719   1.99403
   A18        1.88427  -0.00283   0.00000  -0.01932  -0.01937   1.86491
   A19        1.91055  -0.00012   0.00000   0.00127   0.00125   1.91180
   A20        1.88168   0.00004   0.00000   0.01709   0.01714   1.89883
   A21        1.93242  -0.00126   0.00000  -0.00430  -0.00430   1.92812
   A22        1.86314   0.00045   0.00000  -0.00274  -0.00279   1.86036
   A23        2.34010   0.00026   0.00000  -0.01161  -0.01162   2.32848
   A24        2.12142   0.00041   0.00000   0.01226   0.01225   2.13367
   A25        1.82164  -0.00068   0.00000  -0.00063  -0.00061   1.82102
   A26        1.93902  -0.00023   0.00000  -0.00007  -0.00010   1.93893
   A27        2.22948   0.00041   0.00000  -0.00326  -0.00324   2.22624
   A28        2.11468  -0.00018   0.00000   0.00333   0.00334   2.11802
   A29        1.83483   0.00332   0.00000   0.00890   0.00888   1.84370
   A30        1.94505   0.00033   0.00000   0.00025   0.00028   1.94533
   A31        2.20445  -0.00079   0.00000  -0.00341  -0.00343   2.20102
   A32        2.13368   0.00046   0.00000   0.00316   0.00314   2.13682
   A33        1.88423  -0.00273   0.00000  -0.00841  -0.00843   1.87580
   A34        2.19009   0.00322   0.00000   0.01975   0.01965   2.20974
   A35        2.20881  -0.00050   0.00000  -0.01154  -0.01163   2.19719
   A36        1.96132  -0.02092   0.00000  -0.05633  -0.05611   1.90520
   A37        1.87369   0.00357   0.00000   0.00967   0.00952   1.88321
   A38        1.90851   0.01310   0.00000   0.05800   0.05729   1.96580
   A39        1.90848   0.00723   0.00000   0.02058   0.02071   1.92919
   A40        1.93110   0.00132   0.00000  -0.02140  -0.02063   1.91048
   A41        1.87803  -0.00360   0.00000  -0.00779  -0.00828   1.86975
   A42        1.93121  -0.01087   0.00000  -0.03360  -0.03373   1.89748
   A43        1.91940   0.00523   0.00000   0.04167   0.04130   1.96069
   A44        1.91221   0.00600   0.00000   0.01828   0.01640   1.92861
   A45        1.91804   0.00328   0.00000  -0.00117  -0.00057   1.91746
   A46        1.90657  -0.00248   0.00000  -0.04594  -0.04603   1.86054
   A47        1.87551  -0.00086   0.00000   0.02192   0.02093   1.89644
   A48        1.94084   0.00267   0.00000   0.01684   0.01691   1.95775
   A49        1.96567   0.00056   0.00000   0.00182   0.00177   1.96743
   A50        1.86565  -0.00321   0.00000  -0.05845  -0.05842   1.80723
   A51        1.90701  -0.00228   0.00000  -0.01442  -0.01442   1.89258
   A52        1.87448   0.00094   0.00000   0.01967   0.01985   1.89433
   A53        1.90740   0.00135   0.00000   0.03566   0.03554   1.94294
    D1        0.12546  -0.00025   0.00000   0.01896   0.01855   0.14401
    D2        2.90451  -0.00036   0.00000   0.02455   0.02405   2.92856
    D3       -3.05463   0.00061   0.00000   0.04359   0.04409  -3.01053
    D4       -0.27558   0.00050   0.00000   0.04919   0.04960  -0.22599
    D5       -0.71088   0.00064   0.00000   0.01400   0.01317  -0.69770
    D6        1.38816  -0.00065   0.00000   0.01194   0.01138   1.39954
    D7       -2.86243   0.00391   0.00000   0.03841   0.03885  -2.82358
    D8        2.46972  -0.00109   0.00000  -0.01322  -0.01341   2.45631
    D9       -1.71443  -0.00238   0.00000  -0.01528  -0.01521  -1.72964
   D10        0.31817   0.00217   0.00000   0.01119   0.01226   0.33043
   D11        1.10035   0.00124   0.00000  -0.02224  -0.02231   1.07804
   D12       -1.13116  -0.00447   0.00000  -0.05108  -0.05090  -1.18206
   D13        3.07198  -0.00126   0.00000  -0.03194  -0.03196   3.04002
   D14       -1.68609   0.00201   0.00000  -0.02200  -0.02212  -1.70821
   D15        2.36559  -0.00370   0.00000  -0.05083  -0.05072   2.31487
   D16        0.28554  -0.00049   0.00000  -0.03170  -0.03177   0.25376
   D17       -2.63587  -0.00199   0.00000  -0.04149  -0.04135  -2.67723
   D18        0.54568  -0.00309   0.00000  -0.05464  -0.05442   0.49127
   D19       -0.42613   0.00220   0.00000  -0.02001  -0.02022  -0.44635
   D20        2.75543   0.00111   0.00000  -0.03316  -0.03328   2.72214
   D21        1.68826  -0.00008   0.00000  -0.03784  -0.03789   1.65037
   D22       -1.41337  -0.00118   0.00000  -0.05098  -0.05095  -1.46432
   D23       -2.61548  -0.00052   0.00000   0.00528   0.00552  -2.60996
   D24       -0.52708  -0.00024   0.00000   0.01789   0.01806  -0.50903
   D25        1.49477  -0.00133   0.00000   0.00470   0.00492   1.49969
   D26        1.48307   0.00212   0.00000   0.00896   0.00876   1.49183
   D27       -2.71172   0.00239   0.00000   0.02157   0.02130  -2.69042
   D28       -0.68987   0.00130   0.00000   0.00837   0.00816  -0.68171
   D29       -0.59049   0.00075   0.00000   0.00983   0.00987  -0.58061
   D30        1.49791   0.00103   0.00000   0.02244   0.02241   1.52032
   D31       -2.76343  -0.00006   0.00000   0.00925   0.00928  -2.75415
   D32       -3.12596   0.00090   0.00000   0.03507   0.03495  -3.09101
   D33       -0.02387   0.00180   0.00000   0.04703   0.04715   0.02327
   D34       -1.46860  -0.00136   0.00000  -0.02035  -0.02033  -1.48893
   D35        1.68311  -0.00123   0.00000  -0.02311  -0.02307   1.66004
   D36        2.72473  -0.00001   0.00000  -0.01234  -0.01239   2.71234
   D37       -0.40675   0.00013   0.00000  -0.01510  -0.01512  -0.42187
   D38        0.69256   0.00012   0.00000  -0.01665  -0.01666   0.67589
   D39       -2.43892   0.00025   0.00000  -0.01941  -0.01940  -2.45832
   D40       -3.12921  -0.00019   0.00000  -0.00538  -0.00529  -3.13450
   D41        0.01195  -0.00006   0.00000  -0.00419  -0.00416   0.00779
   D42        0.00349  -0.00031   0.00000  -0.00288  -0.00284   0.00065
   D43       -3.13854  -0.00018   0.00000  -0.00169  -0.00170  -3.14024
   D44        3.13352   0.00001   0.00000   0.00116   0.00114   3.13466
   D45        0.00203   0.00039   0.00000   0.02193   0.02213   0.02416
   D46       -0.00057   0.00011   0.00000  -0.00081  -0.00083  -0.00140
   D47       -3.13206   0.00049   0.00000   0.01997   0.02016  -3.11190
   D48       -0.00511   0.00040   0.00000   0.00552   0.00549   0.00038
   D49        3.13689   0.00027   0.00000   0.00442   0.00444   3.14133
   D50        0.00469  -0.00032   0.00000  -0.00601  -0.00601  -0.00132
   D51       -3.13878  -0.00040   0.00000  -0.00999  -0.00991   3.13450
   D52       -0.00270   0.00015   0.00000   0.00449   0.00446   0.00176
   D53        3.12866  -0.00020   0.00000  -0.01635  -0.01611   3.11254
   D54        3.14069   0.00023   0.00000   0.00828   0.00820  -3.13430
   D55       -0.01114  -0.00012   0.00000  -0.01255  -0.01238  -0.02352
   D56        1.07230  -0.00615   0.00000  -0.07361  -0.07396   0.99835
   D57       -3.08864  -0.00572   0.00000  -0.06946  -0.07024   3.12430
   D58       -1.03091  -0.00005   0.00000  -0.00702  -0.00691  -1.03781
   D59       -1.00649  -0.00224   0.00000  -0.06389  -0.06389  -1.07038
   D60        1.11575  -0.00180   0.00000  -0.05974  -0.06017   1.05558
   D61       -3.10970   0.00386   0.00000   0.00270   0.00316  -3.10654
   D62       -3.07203  -0.00308   0.00000  -0.05415  -0.05383  -3.12586
   D63       -0.94979  -0.00264   0.00000  -0.05000  -0.05011  -0.99990
   D64        1.10794   0.00302   0.00000   0.01244   0.01322   1.12116
   D65        1.22721   0.00127   0.00000   0.03728   0.03681   1.26402
   D66       -2.90875   0.00070   0.00000   0.03237   0.03193  -2.87683
   D67       -0.81374   0.00059   0.00000   0.03907   0.03873  -0.77501
   D68       -0.89584  -0.00033   0.00000   0.00787   0.00776  -0.88807
   D69        1.25139  -0.00090   0.00000   0.00296   0.00288   1.25427
   D70       -2.93679  -0.00101   0.00000   0.00966   0.00969  -2.92710
   D71       -2.94941   0.00026   0.00000   0.00914   0.00956  -2.93985
   D72       -0.80218  -0.00030   0.00000   0.00424   0.00467  -0.79751
   D73        1.29282  -0.00041   0.00000   0.01093   0.01148   1.30430
         Item               Value     Threshold  Converged?
 Maximum Force            0.022450     0.000450     NO 
 RMS     Force            0.004637     0.000300     NO 
 Maximum Displacement     0.477999     0.001800     NO 
 RMS     Displacement     0.109543     0.001200     NO 
 Predicted change in Energy=-7.375465D-03
 GradGradGradGradGradGradGradGradGradGradGradGradGradGradGradGradGradGrad

                          Input orientation:                          
 ---------------------------------------------------------------------
 Center     Atomic      Atomic             Coordinates (Angstroms)
 Number     Number       Type             X           Y           Z
 ---------------------------------------------------------------------
      1          8           0       -1.643653    0.473863   -0.386942
      2          6           0       -1.500425   -0.684852    0.041997
      3          7           0       -0.345267   -1.133901    0.539040
      4          6           0        0.803116   -0.245521    0.784546
      5          6           0        0.366117    0.798724    1.829377
      6          8           0        1.046533    1.943191    1.732675
      7          8           0       -0.480694    0.581329    2.658941
      8          6           0        1.431305    0.316599   -0.522025
      9          6           0        2.902099    0.585331   -0.431390
     10          6           0        3.640712    1.655618    0.011309
     11          7           0        4.987107    1.416131   -0.121757
     12          6           0        5.082963    0.215771   -0.639577
     13          7           0        3.851235   -0.338566   -0.848281
     14          6           0       -2.688473   -1.640582   -0.016190
     15          6           0       -3.965443   -0.878231    0.350785
     16          7           0       -4.121946    0.287773   -0.594489
     17          1           0       -0.360093   -2.013039    1.034654
     18          1           0        1.548541   -0.870791    1.283118
     19          1           0        0.751949    2.531766    2.446319
     20          1           0        1.256631   -0.428422   -1.303976
     21          1           0        0.897666    1.216294   -0.824952
     22          1           0        3.273798    2.583449    0.418394
     23          1           0        5.998822   -0.298624   -0.887828
     24          1           0        3.671423   -1.242241   -1.257935
     25          1           0       -2.755185   -2.033306   -1.037219
     26          1           0       -2.571826   -2.496446    0.650301
     27          1           0       -4.851455   -1.510247    0.308683
     28          1           0       -3.884268   -0.457524    1.353812
     29          1           0       -4.393687   -0.010684   -1.533382
     30          1           0       -4.801770    0.974632   -0.264529
     31          1           0       -3.145745    0.702587   -0.641481
 ---------------------------------------------------------------------
                    Distance matrix (angstroms):
                    1          2          3          4          5
     1  O    0.000000
     2  C    1.243834   0.000000
     3  N    2.264542   1.335323   0.000000
     4  C    2.806524   2.459815   1.472506   0.000000
     5  C    3.009448   2.979883   2.430241   1.540482   0.000000
     6  O    3.726768   4.031377   3.581950   2.397636   1.334962
     7  O    3.262120   3.080822   2.730262   2.417685   1.205207
     8  C    3.081938   3.148978   2.527056   1.554905   2.626055
     9  C    4.547335   4.606481   3.800378   2.564087   3.404087
    10  C    5.429517   5.648896   4.893663   3.502024   3.842214
    11  N    6.702624   6.821218   5.947565   4.592195   5.053877
    12  C    6.736304   6.679570   5.716330   4.534094   5.355764
    13  N    5.573747   5.436245   4.490861   3.459163   4.539750
    14  C    2.387464   1.525865   2.460818   3.844291   4.322829
    15  C    2.786235   2.491799   3.634073   4.829868   4.874507
    16  N    2.493921   2.867662   4.191581   5.142215   5.126295
    17  H    3.138972   2.012413   1.009326   2.130665   3.010810
    18  H    3.845425   3.297142   2.051679   1.093249   2.117499
    19  H    4.242787   4.604409   4.275360   3.236885   1.879606
    20  H    3.172808   3.078758   2.541748   2.145007   3.480920
    21  H    2.683535   3.180691   2.988105   2.176311   2.739046
    22  H    5.411122   5.797988   5.189496   3.773778   3.691981
    23  H    7.697730   7.566535   6.555997   5.458482   6.349390
    24  H    5.652757   5.361763   4.401664   3.659558   4.962064
    25  H    2.818556   2.134820   3.016824   4.379099   5.097086
    26  H    3.280261   2.190846   2.612753   4.058931   4.569450
    27  H    3.835438   3.461474   4.527741   5.813790   5.904821
    28  H    2.986312   2.730430   3.694031   4.726582   4.457587
    29  H    3.018576   3.362631   4.684683   5.695148   5.883793
    30  H    3.199916   3.707658   4.995203   5.831302   5.578749
    31  H    1.540580   2.258143   3.550915   4.304180   4.295062
                    6          7          8          9         10
     6  O    0.000000
     7  O    2.246121   0.000000
     8  C    2.806693   3.720802   0.000000
     9  C    3.157544   4.581860   1.497887   0.000000
    10  C    3.126589   5.014981   2.637972   1.373698   0.000000
[...]
 7117,0.00000868,-0.00002205,0.00002394,-0.00000305,0.00001176,0.000004
 22,-0.00000636,0.00000154,-0.00000403,-0.00000342,-0.00000948,-0.00000
 024,0.00000959,0.00000267,0.00000546,-0.04618436,-0.09026936,-0.253755
 34,-0.00082501,-0.00279668,-0.00842312,-0.00002602,0.00031030,0.001499
 23,0.00026056,-0.00033060,-0.00014947,0.00000063,-0.00000897,0.0000002
 7,0.00000821,0.00000521,-0.00000046,0.00000361,0.00000305,0.00001002,-
 0.00002881,-0.00001595,0.00001211,-0.00000045,-0.00000108,-0.00000069,
 0.00000042,0.00000016,-0.00000067,-0.00000039,-0.00000282,-0.00000254,
 0.05027165,0.10102584,0.27413147,-0.00527288,-0.00733597,0.00053399,0.
 00926304,-0.01823683,0.01995965,-0.00002831,0.00095904,-0.00042012,0.0
 0015885,-0.00011807,-0.00005380,0.00007451,-0.00006343,-0.00002016,0.0
 0000139,0.00001782,0.00002963,-0.00004279,0.00012030,-0.00009109,0.000
 07150,-0.00002597,0.00009113,0.00003108,0.00002912,-0.00004430,0.00000
 701,-0.00000077,0.00000196,-0.00000302,0.00000717,-0.00000010,-0.00001
 639,0.00000110,-0.00000094,-0.00002033,0.00000235,-0.00002397,-0.05232
 391,0.01619111,-0.01324106,-0.00088013,0.01639264,-0.01763366,-0.00346
 545,0.00572919,0.00187955,-0.00192472,-0.00059161,-0.00025661,0.000025
 06,0.00004914,0.00000522,-0.00000042,-0.00001019,0.00000792,-0.0000017
 7,0.00000887,-0.00000470,0.00007594,0.00007100,-0.00003994,0.00000237,
 0.00000614,-0.00000050,-0.00000191,-0.00000034,0.00000296,-0.00000643,
 -0.00000566,0.00000955,-0.00081996,0.00507769,-0.00411131,0.05673342,-
 0.00387973,-0.00152529,0.00069516,0.00522600,-0.01267395,0.01002486,0.
 00141331,0.00102027,-0.00041104,-0.00017391,-0.00014290,-0.00055236,-0
 .00024004,-0.00005361,0.00005254,0.00012254,0.00003359,0.00005798,0.00
 014195,0.00014292,-0.00016974,0.00008565,-0.00001322,0.00015634,0.0000
 1153,0.00007553,-0.00007358,0.00000333,-0.00003028,-0.00001098,0.00002
 370,0.00000002,0.00000857,0.00000712,0.00002055,0.00000090,-0.00003415
 ,0.00000445,-0.00001918,0.01432925,-0.19604054,0.13156506,0.00129575,-
 0.01424834,0.01241406,0.00278349,-0.00159246,-0.00181418,-0.00088855,0
 .00114180,-0.00009698,0.00000409,0.00000600,0.00001237,-0.00001475,-0.
 00002637,-0.00000001,0.00000746,0.00000284,-0.00000359,0.00005563,0.00
 005658,-0.00004041,0.00000079,0.00000239,0.00000258,-0.00000142,-0.000
 00036,0.00000213,-0.00000776,0.00000455,0.00001078,-0.00114400,0.01106
 465,-0.00844160,-0.01819961,0.21187900,0.00029633,-0.00000215,0.002120
 35,-0.00198650,-0.00075249,-0.00269636,-0.00005215,-0.00072229,0.00006
 648,0.00018815,-0.00005297,0.00027774,-0.00024908,0.00003403,0.0000620
 2,0.00009345,0.00001424,0.00000641,0.00015239,-0.00002505,-0.00003608,
 -0.00005134,-0.00001485,-0.00003659,-0.00000533,-0.00002683,0.00002436
 ,-0.00000765,0.00000146,-0.00000155,0.00000545,-0.00000596,-0.00000331
 ,0.00000894,-0.00000093,0.00000169,0.00001344,0.00000270,-0.00000313,-
 0.01249277,0.13458841,-0.16398006,-0.00029487,-0.00699654,0.00596275,0
 .00201769,-0.00309472,0.00082606,0.00022331,-0.00010388,0.00089284,0.0
 0002222,0.00002140,0.00001780,-0.00001629,-0.00001322,-0.00000852,0.00
 000006,0.00000874,-0.00002065,-0.00002168,-0.00002867,0.00001847,-0.00
 000113,-0.00000441,0.00000238,0.00000087,0.00000078,0.00000109,-0.0000
 0072,0.00000936,0.00000511,-0.00227367,0.02152067,-0.01791420,0.014261
 65,-0.14374437,0.17341147,0.00108834,-0.00103815,0.00025446,-0.0006324
 3,0.00534081,0.00070716,-0.00124344,-0.00100857,0.00002383,0.00022870,
 0.00018588,-0.00024216,-0.00006929,0.00013291,0.00017306,-0.00006771,-
 0.00011457,-0.00011994,-0.00000679,-0.00006086,-0.00008937,0.00004278,
 0.00002737,-0.00006551,0.00000543,-0.00000735,0.00001926,0.00000618,0.
 00002606,0.00000580,-0.00003980,-0.00000777,-0.00000643,-0.00001320,-0
 .00000499,-0.00000135,0.00000787,-0.00002404,0.00001042,-0.01946173,-0
 .01021937,0.00047130,-0.26080354,-0.12018317,0.00580211,0.00934787,0.0
 0568711,-0.00200517,0.00000360,-0.00007555,0.00012063,-0.00007520,-0.0
 0005716,-0.00003320,-0.00000355,0.00000911,0.00001325,0.00000400,-0.00
 000592,-0.00000241,0.00001428,0.00000410,0.00000539,0.00000168,0.00000
 389,-0.00000251,-0.00000073,-0.00000122,-0.00000054,0.00001520,-0.0000
 0731,-0.00000690,0.00115766,-0.00038171,0.00023936,0.00030066,0.000095
 47,-0.00034848,0.27424363,-0.00117347,0.00221785,-0.00073632,0.0016680
 3,-0.00575347,-0.00090028,0.00129937,0.00130457,0.00010651,-0.00015697
 ,-0.00022296,0.00029718,0.00023033,-0.00017956,-0.00020652,-0.00002232
 ,0.00009622,0.00009732,-0.00014546,0.00010882,0.00010472,-0.00003609,-
 0.00001782,0.00005995,-0.00000463,0.00000442,-0.00001855,-0.00000147,-
 0.00002452,-0.00000448,0.00003244,0.00000893,0.00000600,0.00001022,0.0
 0000478,0.00000120,-0.00000834,0.00002363,-0.00001076,0.01985922,0.012
 46067,-0.00151765,-0.11269428,-0.11413306,0.00281364,-0.02275174,-0.01
 786060,0.00587532,-0.00000490,0.00005534,-0.00013631,0.00009149,0.0000
 6950,0.00003984,0.00001126,-0.00000105,0.00000212,-0.00000627,0.000004
 33,0.00000746,-0.00000590,-0.00000376,-0.00000833,-0.00000064,-0.00000
 160,0.00000147,0.00000048,0.00000125,0.00000086,-0.00001322,0.00000520
 ,0.00000702,-0.00076461,0.00084084,0.00013008,-0.00058585,0.00060455,0
 .00038966,0.12280551,0.12760355,-0.00002893,-0.00063375,0.00015068,0.0
 0140549,-0.00180569,0.00024441,0.00073814,0.00033326,0.00029964,-0.000
 05972,-0.00012641,0.00007873,0.00040492,-0.00012621,-0.00013947,-0.000
 20758,-0.00001680,-0.00002505,-0.00038139,0.00006639,0.00011107,0.0000
 1674,0.00004097,-0.00000869,-0.00000151,-0.00000604,-0.00000339,0.0000
 0198,0.00000699,0.00000396,-0.00000358,-0.00000127,0.00000118,-0.00000
 046,0.00000067,-0.00000085,0.00000156,-0.00000370,0.00000120,0.0096983
 9,0.00416084,-0.00056042,-0.00126001,-0.00222195,-0.05159240,0.0220139
 1,0.01836295,-0.00642831,0.00000513,-0.00002998,-0.00001721,0.00003258
 ,0.00003484,0.00001901,0.00002183,0.00002257,0.00002183,-0.00000556,-0
 .00000126,0.00000862,0.00000284,-0.00000313,-0.00000821,0.00000020,0.0
 0000173,-0.00000272,0.00000046,0.00000037,-0.00000019,0.00000214,-0.00
 000131,0.00000035,-0.00017118,0.00085820,0.00023855,-0.00052053,0.0000
 7524,0.00041622,-0.00514092,-0.00801615,0.05408746,-0.00023775,-0.0006
 5350,-0.00030828,0.00183949,0.00107751,0.00146412,-0.00010017,0.000027
 42,-0.00038973,0.00006603,0.00007758,0.00002264,-0.00097780,0.00019262
 ,0.00024538,0.00055031,0.00011149,0.00013410,0.00083451,-0.00007781,-0
 .00028932,-0.00006293,-0.00006151,0.00006281,-0.00000288,0.00000891,-0
 .00001650,-0.00001105,-0.00002714,-0.00001538,0.00003390,0.00000315,0.
 00000134,0.00001148,0.00000220,0.00000430,-0.00000374,0.00001853,-0.00
 001343,0.00366269,0.01086384,0.02415056,-0.06309530,-0.02404350,-0.049
 12872,-0.00127255,0.00015910,-0.00343144,-0.00002402,0.00013558,0.0000
 9360,0.00000557,-0.00002157,-0.00001440,-0.00005245,-0.00006774,-0.000
 05849,0.00002180,0.00000081,-0.00002808,-0.00000142,0.00000155,0.00001
 032,-0.00000274,-0.00000764,0.00000905,-0.00000037,0.00000035,0.000001
 72,-0.00001320,0.00001126,0.00001210,-0.00387244,0.00311426,0.00141067
 ,0.00094126,-0.00061755,-0.00058007,-0.00359388,-0.01041000,-0.0249384
 0,0.06402011,-0.00041016,0.00085981,-0.00042334,-0.00142037,-0.0005993
 5,0.00085494,0.00038505,0.00019116,0.00007987,0.00000228,-0.00008197,-
 0.00004308,-0.00002589,-0.00000508,-0.00004863,0.00004514,0.00003912,0
 .00002305,0.00000891,-0.00016461,0.00006985,0.00001091,-0.00000643,0.0
 0000890,-0.00000250,0.00000456,-0.00000211,-0.00000249,-0.00000835,-0.
 00000296,0.00001436,0.00000193,0.00000133,0.00000392,0.00000152,-0.000
 00126,-0.00000186,0.00000714,0.00000168,-0.00227342,-0.00815215,-0.017
 77488,-0.02647953,-0.09699983,-0.10615826,0.00861894,0.00568361,0.0342
 9385,0.00001527,-0.00002777,-0.00014063,0.00002565,0.00000790,-0.00000
 378,-0.00000980,0.00000643,-0.00001170,-0.00000449,0.00000501,0.000005
 73,-0.00000431,-0.00000623,0.00000448,-0.00000095,-0.00000153,0.000002
 81,0.00000043,0.00000037,0.00000030,-0.00000544,0.00000150,-0.00000274
 ,0.00362406,-0.00132006,-0.00037513,-0.00026006,0.00029629,0.00012253,
 -0.00192566,-0.00479364,-0.01410313,0.01913030,0.10703196,0.00034899,0
 .00051835,0.00017511,-0.00010939,-0.00067996,0.00012287,0.00009679,0.0
 0004641,-0.00001125,0.00006521,-0.00001762,-0.00005012,0.00021039,-0.0
 0002438,-0.00001395,-0.00012953,-0.00005393,-0.00003867,-0.00028564,0.
 00003859,-0.00013418,0.00002807,0.00001277,-0.00001307,0.00000485,0.00
 000003,0.00000325,0.00000492,0.00000770,0.00000357,-0.00001462,-0.0000
 0135,-0.00000203,-0.00000631,-0.00000058,-0.00000110,0.00000029,-0.000
 00725,0.00000031,0.00044869,-0.00425288,-0.00537607,-0.04724694,-0.093
 88375,-0.26413243,-0.00582170,-0.00328580,-0.02234439,-0.00002150,-0.0
 0001293,0.00001951,-0.00000553,0.00000306,-0.00000065,0.00000465,0.000
 00802,0.00002341,-0.00000092,-0.00000068,0.00000213,0.00000764,0.00000
 255,-0.00000577,0.00000148,0.00000303,-0.00000251,-0.00000031,-0.00000
 016,0.00000001,0.00000540,-0.00000317,-0.00000078,0.00063795,-0.000603
 18,0.00113179,0.00013615,-0.00013003,0.00045325,0.00006125,0.00022906,
 0.00387091,0.05202440,0.09956677,0.28701741,-0.00205577,0.00156288,0.0
 0214285,-0.00077782,-0.00022463,-0.00000961,0.00025622,-0.00003334,-0.
 00017633,-0.00010548,-0.00003578,-0.00001910,-0.00013488,-0.00007108,-
 0.00011106,0.00010063,0.00007273,0.00008515,0.00007984,0.00003464,0.00
 006271,-0.00000249,-0.00001653,0.00002885,-0.00001146,0.00000635,-0.00
 000881,-0.00001613,-0.00001752,0.00000013,0.00004667,0.00000669,0.0000
 0727,0.00001400,-0.00000204,0.00000263,0.00000273,0.00002233,-0.000002
 78,-0.00056394,-0.00027648,-0.00052846,0.00021101,0.00114045,0.0021278
 2,-0.14173731,-0.04450630,-0.14880814,-0.00001435,0.00000128,-0.000100
 48,0.00001325,0.00000647,0.00000939,-0.00001197,-0.00001355,-0.0000236
 8,-0.00001103,0.00001523,0.00000441,-0.00002808,-0.00001518,-0.0000104
 4,-0.00000429,-0.00001011,-0.00000142,0.00000028,-0.00000006,0.0000001
 1,-0.00001650,0.00000786,-0.00000050,0.00006166,0.00051967,0.00012544,
 0.00012211,0.00010244,0.00022697,0.00069064,-0.00029702,0.00102353,0.0
 0058659,-0.00077746,0.00083622,0.13994592,-0.00021814,0.00002799,0.000
 42593,0.00029985,0.00025986,0.00006609,-0.00020634,-0.00011819,-0.0000
 4961,0.00005750,0.00007026,0.00003933,-0.00003691,0.00007087,0.0000749
 9,0.00000215,-0.00003754,-0.00002471,0.00004623,-0.00001545,-0.0000647
 0,-0.00001377,0.00000707,-0.00001681,-0.00000343,0.00000430,0.00000308
 ,-0.00000544,0.00001907,0.00000002,-0.00001426,-0.00001441,0.00000020,
 -0.00000126,0.00000429,-0.00000083,0.00000523,-0.00002534,0.00000439,-
 0.00030657,0.00071219,0.00083980,0.01412242,0.01163529,0.02424270,-0.0
 3974280,-0.08545234,-0.07994656,0.00002114,-0.00001797,0.00001430,-0.0
 0001445,-0.00001251,-0.00000438,-0.00000308,0.00000666,0.00000021,0.00
 000717,-0.00000734,-0.00000844,0.00000400,0.00001098,-0.00000646,-0.00
 000015,-0.00000023,-0.00000245,0.00000038,-0.00000061,0.00000003,0.000
 00597,0.00000311,-0.00000029,0.00033412,-0.00055281,-0.00074498,-0.000
 17775,-0.00022886,-0.00042245,-0.00040264,0.00113490,-0.00012680,0.000
 64513,-0.00462861,0.00318218,0.04641374,0.08628964,0.00235105,-0.00157
 758,-0.00048612,-0.00053071,0.00072329,-0.00076152,0.00061264,-0.00029
 203,0.00035063,-0.00020997,-0.00008081,-0.00002754,-0.00023035,-0.0000
 3496,-0.00007636,0.00015309,0.00010396,0.00009295,0.00018094,-0.000022
 88,0.00004396,-0.00002558,0.00000462,0.00007213,-0.00000011,-0.0000026
 7,-0.00002777,-0.00000688,-0.00002903,-0.00001365,0.00004438,0.0000087
 1,-0.00000041,0.00001604,0.00000303,0.00000418,-0.00000289,0.00002975,
 -0.00001530,-0.00006236,0.00027572,0.00121355,-0.00872407,-0.00420681,
 -0.01814800,-0.13964777,-0.08253028,-0.29960279,0.00001761,0.00008963,
 0.00006723,0.00002328,0.00001249,0.00000903,-0.00001565,-0.00001926,-0
 .00001443,0.00000518,-0.00000813,0.00000560,-0.00001925,-0.00001470,0.
 00002604,-0.00000404,-0.00000424,0.00001211,0.00000026,0.00000129,0.00
 000289,-0.00001679,0.00000687,0.00001674,-0.00033940,0.00012071,0.0000
 3319,0.00019313,-0.00019876,-0.00003599,0.00089267,-0.00082187,0.00133
 430,-0.00005198,0.00393220,-0.00066178,0.15467276,0.08435280,0.3169392
 2,-0.00400059,-0.00032363,-0.00110847,-0.00010843,-0.00083499,0.000483
 12,0.00006223,0.00001355,-0.00007733,0.00006105,0.00000229,-0.00001780
 ,-0.00053682,0.00013345,0.00012172,0.00025346,0.00005547,0.00006065,0.
 00041733,-0.00023084,-0.00004316,-0.00007206,-0.00004207,0.00002907,-0
 .00000917,0.00002941,-0.00001032,-0.00002353,0.00000105,-0.00001207,0.
 00003175,-0.00000757,0.00000118,0.00000965,-0.00000125,0.00000174,0.00
 000319,-0.00000399,-0.00000204,0.00040027,0.00024661,-0.00024102,-0.00
 112478,-0.00020574,-0.00120830,-0.13685143,0.13511452,0.07180271,0.000
 03567,0.00013829,-0.00001640,0.00000130,-0.00001295,-0.00000592,-0.000
 03906,-0.00001546,-0.00004578,0.00001151,-0.00000032,-0.00001176,-0.00
 000763,0.00002654,-0.00000269,-0.00000696,-0.00001093,0.00000858,-0.00
 000008,-0.00000146,0.00000136,-0.00001074,0.00000927,0.00000422,0.0001
 1944,0.00006060,-0.00006269,-0.00008792,-0.00008594,0.00015709,0.00010
 339,-0.00103660,0.00001428,0.00057836,0.00027399,-0.00039882,0.0112753
 9,-0.01806827,-0.00814160,0.13455647,-0.00356528,0.00117826,-0.0011086
 3,0.00049214,-0.00148775,0.00110976,-0.00057993,0.00045780,-0.00033786
 ,0.00027937,0.00008594,0.00001173,0.00004748,0.00017598,0.00019733,-0.
 00010363,-0.00013152,-0.00011137,-0.00004362,-0.00017755,-0.00010014,-
 0.00000664,-0.00000980,-0.00004470,0.00000008,0.00002636,0.00000653,-0
 .00000521,0.00005097,-0.00000217,-0.00004588,-0.00003072,-0.00000785,-
 0.00001315,0.00000674,-0.00000347,0.00000691,-0.00006216,0.00001110,-0
 .00106397,-0.00262941,0.00403678,0.01148905,-0.01715614,-0.00983848,0.
 12828559,-0.26881612,-0.11919985,-0.00009329,-0.00002280,-0.00005363,-
 0.00002193,-0.00001663,-0.00001253,-0.00000986,0.00004317,0.00000595,0
 .00001401,-0.00001674,-0.00001398,0.00002930,0.00005179,-0.00000510,0.
 00000006,0.00000428,0.00000270,-0.00000029,-0.00000247,0.00000071,0.00
 001851,-0.00000152,-0.00000384,-0.00036248,0.00019623,0.00006295,0.001
 10094,-0.00026527,-0.00048864,-0.00027990,-0.00043442,-0.00035518,0.00
 011949,0.00227318,-0.00039216,0.00429886,-0.00611454,-0.00296866,-0.14
 215417,0.28207281,0.00031343,-0.00030241,0.00043213,0.00082823,0.00078
 659,-0.00012445,-0.00023849,-0.00015796,-0.00010397,0.00014269,0.00006
 382,-0.00000849,-0.00039145,0.00017499,0.00022587,0.00014441,-0.000021
 62,-0.00003551,0.00031663,-0.00020588,-0.00016511,-0.00002073,-0.00003
 266,0.00000358,0.00000557,-0.00000095,0.00000109,0.00000244,-0.0000009
 0,-0.00000794,-0.00001049,-0.00000481,-0.00001123,-0.00000398,0.000001
 72,0.00000047,-0.00000157,-0.00000660,-0.00000452,0.00021167,0.0037781
 3,-0.00409215,-0.01333800,0.01712033,0.01327579,0.06671563,-0.11755500
 ,-0.12248040,0.00008350,-0.00001061,0.00006418,-0.00001443,-0.00001852
 ,-0.00001393,-0.00003416,-0.00000478,-0.00000003,0.00001479,-0.0000033
 7,-0.00002041,0.00001056,0.00000288,0.00001305,0.00000074,0.00000148,0
 .00001132,-0.00000035,0.00000031,0.00000282,0.00000317,0.00000180,0.00
 000716,0.00017101,-0.00006759,0.00011338,-0.00118953,0.00091189,0.0005
 5132,0.00024663,0.00031374,-0.00014214,-0.00071872,0.00031515,0.000365
 79,0.01805814,-0.02404021,-0.01132497,-0.07315230,0.12448228,0.1273077
 6,0.01196297,-0.03617990,0.01255832,0.00364212,0.04183597,-0.02237097,
 0.00729899,-0.01275952,0.00786341,-0.00362387,-0.00050572,-0.00075622,
 -0.00058063,-0.00152465,-0.00254656,0.00089174,0.00125170,0.00122469,0
 .00007394,0.00073188,0.00191992,-0.00001961,0.00052833,0.00035911,-0.0
 0013078,-0.00027696,-0.00007380,-0.00012090,-0.00036048,-0.00005280,0.
 00063294,0.00013867,0.00009311,0.00026453,-0.00000072,0.00003811,0.000
 07979,0.00045836,-0.00005853,-0.00160713,-0.00181556,-0.00090661,0.009
 47803,-0.01399909,0.00998000,-0.20845691,-0.04615894,0.03738501,0.0019
 5316,0.00056442,0.00126647,0.00015120,0.00006967,0.00014832,-0.0000009
 7,-0.00016025,-0.00022004,-0.00010264,0.00007320,0.00015974,-0.0005061
 6,-0.00061501,0.00026004,-0.00004238,-0.00009396,0.00002223,0.00001627
 ,0.00002158,-0.00000183,-0.00021212,0.00009743,0.00004755,-0.00017546,
 -0.00076298,0.00030672,-0.00291187,-0.00042212,0.00071372,-0.00125060,
 0.00411142,-0.00266435,0.00017256,0.00144519,-0.00088214,-0.00791544,-
 0.00274979,-0.00113362,-0.00504125,0.00216746,0.00184496,0.19608046,-0
 .01229098,-0.00717726,-0.00181993,0.00934369,-0.00909375,0.00470350,-0
 .00179140,0.00065221,-0.00026400,0.00075677,0.00013087,0.00010640,-0.0
 0019686,0.00049655,0.00064520,-0.00007423,-0.00026440,-0.00024198,0.00
 018562,-0.00046286,-0.00035627,-0.00017121,-0.00010761,-0.00008302,-0.
 00000483,0.00013264,0.00000741,-0.00001738,0.00012147,-0.00000921,-0.0
 0011637,-0.00006594,-0.00001283,-0.00004113,0.00000434,-0.00001172,-0.
 00000759,-0.00015203,0.00002274,0.00008350,-0.00057414,0.00015723,-0.0
 2460050,-0.01223573,0.00986524,-0.05671973,-0.07473432,0.00667887,-0.0
 0003201,0.00014666,0.00020335,-0.00005689,-0.00004141,-0.00004009,-0.0
 0003058,0.00005554,-0.00000586,0.00003589,-0.00003844,-0.00003884,0.00
 010746,0.00024948,-0.00009725,-0.00000351,0.00000307,0.00000239,-0.000
 00237,-0.00000833,0.00000181,0.00004509,-0.00000752,-0.00000879,0.0000
 6957,-0.00048786,-0.00027636,-0.00015152,0.00048549,-0.00021356,0.0014
 8767,-0.00312292,0.00361373,0.00028683,0.00038414,-0.00026870,-0.00791
 456,-0.00302973,0.00314761,0.02693118,0.01075207,-0.00552122,0.0648903
 8,0.09798970,0.00203741,0.00072982,-0.01291956,-0.00540541,0.00092495,
 -0.00044160,0.00025808,0.00161463,0.00034591,0.00019650,-0.00006791,-0
 .00000350,-0.00084397,0.00026435,0.00037471,0.00040045,0.00008903,0.00
 002370,0.00074044,-0.00034077,-0.00020903,-0.00011194,-0.00004862,0.00
 005343,0.00002008,0.00001422,-0.00001787,0.00000879,-0.00002725,-0.000
 02980,-0.00000040,0.00000210,-0.00001086,-0.00000017,0.00000877,0.0000
 0866,-0.00001223,0.00000539,-0.00001558,0.00013227,-0.00017965,0.00086
 189,0.01918461,0.01148676,-0.00673070,0.04637994,0.00663232,-0.0752933
 3,-0.00044930,0.00041131,0.00040496,0.00001147,-0.00002203,-0.00001816
 ,-0.00005249,-0.00004283,-0.00002464,0.00003159,-0.00001404,-0.0000217
 8,0.00005938,0.00002342,0.00004061,0.00000129,0.00000656,0.00002660,-0
 .00000234,-0.00000032,0.00000276,-0.00000513,0.00000171,0.00001928,-0.
 00020813,-0.00033868,-0.00003596,0.00053984,-0.00028365,-0.00038135,-0
 .00098168,0.00189406,-0.00195904,0.00033584,-0.00019181,-0.00040059,-0
 .02961357,-0.00778638,0.01097290,0.01187274,0.00512042,-0.00384047,-0.
 04452396,-0.01988587,0.08921841\\-0.00000181,-0.00000340,0.00000216,0.
 00000093,0.00000570,-0.00000618,-0.00000285,-0.00000129,0.00000199,0.0
 0000485,0.00000195,0.00000167,-0.00000343,-0.00000234,-0.00000256,-0.0
 0000373,-0.00000594,0.00000153,-0.00000169,-0.00000034,0.00000078,0.00
 000412,0.00000078,0.00000614,0.00000392,-0.00000228,-0.00000363,0.0000
 0104,0.00000615,-0.00000144,-0.00000110,-0.00000051,0.00000067,0.00000
 014,-0.00000174,0.00000105,0.00000077,0.00000066,-0.00000291,0.0000027
 7,-0.00000019,0.00000139,-0.00000369,-0.00000472,0.00000228,0.00002430
 ,0.00000943,-0.00000575,-0.00000084,-0.00000084,-0.00000047,-0.0000008
 4,0.00000091,0.00000025,0.00000237,0.00000160,0.00000029,-0.00000025,0
 .00000141,-0.00000046,-0.00000094,0.00000044,-0.00000140,0.00000089,-0
 .00000129,0.00000016,0.00000045,-0.00000037,0.00000031,-0.00000016,-0.
 00000068,0.00000112,0.00000055,0.00000035,-0.00000041,-0.00000174,-0.0
 0000060,-0.00000074,0.00000020,0.00000044,-0.00000093,-0.00000011,0.00
 000015,-0.00000112,0.00000036,0.00000081,-0.00000112,0.00000221,0.0000
 0248,0.00000045,-0.00002670,-0.00000671,0.00000687\\\@


 I LOVE MANKIND - IT'S PEOPLE I CAN'T STAND.
     -- LINUS OF PEANUTS
 Job cpu time:       0 days  5 hours  9 minutes 45.6 seconds.
 File lengths (MBytes):  RWF=    607 Int=      0 D2E=      0 Chk=     18 Scr=      1
 Normal termination of Gaussian 09 at Thu Jul 29 02:52:57 2021.
