 Entering Gaussian System, Link 0=g09
 Input=opt_freq-conf-318.com
 Output=opt_freq-conf-318.log
 Initial command:
 /aerosol/software/g09/l1.exe "/scratch/nicole/10636/Gau-83429.inp" -scrdir="/scratch/nicole/10636/"
 Entering Link 1 = /aerosol/software/g09/l1.exe PID=     83436.
  
 Copyright (c) 1988,1990,1992,1993,1995,1998,2003,2009,2013,
            Gaussian, Inc.  All Rights Reserved.
  
 This is part of the Gaussian(R) 09 program.  It is based on
 the Gaussian(R) 03 system (copyright 2003, Gaussian, Inc.),
 the Gaussian(R) 98 system (copyright 1998, Gaussian, Inc.),
 the Gaussian(R) 94 system (copyright 1995, Gaussian, Inc.),
 the Gaussian 92(TM) system (copyright 1992, Gaussian, Inc.),
 the Gaussian 90(TM) system (copyright 1990, Gaussian, Inc.),
 the Gaussian 88(TM) system (copyright 1988, Gaussian, Inc.),
 the Gaussian 86(TM) system (copyright 1986, Carnegie Mellon
 University), and the Gaussian 82(TM) system (copyright 1983,
 Carnegie Mellon University). Gaussian is a federally registered
 trademark of Gaussian, Inc.
  
 This software contains proprietary and confidential information,
 including trade secrets, belonging to Gaussian, Inc.
  
 This software is provided under written license and may be
 used, copied, transmitted, or stored only in accord with that
 written license.
  
 The following legend is applicable only to US Government
 contracts under FAR:
  
                    RESTRICTED RIGHTS LEGEND
  
 Use, reproduction and disclosure by the US Government is
 subject to restrictions as set forth in subparagraphs (a)
 and (c) of the Commercial Computer Software - Restricted
 Rights clause in FAR 52.227-19.
  
 Gaussian, Inc.
 340 Quinnipiac St., Bldg. 40, Wallingford CT 06492
  
  
 ---------------------------------------------------------------
 Warning -- This program may not be used in any manner that
 competes with the business of Gaussian, Inc. or will provide
 assistance to any competitor of Gaussian, Inc.  The licensee
 of this program is prohibited from giving any competitor of
 Gaussian, Inc. access to this program.  By using this program,
 the user acknowledges that Gaussian, Inc. is engaged in the
 business of creating and licensing software in the field of
 computational chemistry and represents and warrants to the
 licensee that it is not a competitor of Gaussian, Inc. and that
 it will not use this program in any manner prohibited above.
 ---------------------------------------------------------------
  

 Cite this work as:
 Gaussian 09, Revision D.01,
 M. J. Frisch, G. W. Trucks, H. B. Schlegel, G. E. Scuseria, 
 M. A. Robb, J. R. Cheeseman, G. Scalmani, V. Barone, B. Mennucci, 
 G. A. Petersson, H. Nakatsuji, M. Caricato, X. Li, H. P. Hratchian, 
 A. F. Izmaylov, J. Bloino, G. Zheng, J. L. Sonnenberg, M. Hada, 
 M. Ehara, K. Toyota, R. Fukuda, J. Hasegawa, M. Ishida, T. Nakajima, 
 Y. Honda, O. Kitao, H. Nakai, T. Vreven, J. A. Montgomery, Jr., 
 J. E. Peralta, F. Ogliaro, M. Bearpark, J. J. Heyd, E. Brothers, 
 K. N. Kudin, V. N. Staroverov, T. Keith, R. Kobayashi, J. Normand, 
 K. Raghavachari, A. Rendell, J. C. Burant, S. S. Iyengar, J. Tomasi, 
 M. Cossi, N. Rega, J. M. Millam, M. Klene, J. E. Knox, J. B. Cross, 
 V. Bakken, C. Adamo, J. Jaramillo, R. Gomperts, R. E. Stratmann, 
 O. Yazyev, A. J. Austin, R. Cammi, C. Pomelli, J. W. Ochterski, 
 R. L. Martin, K. Morokuma, V. G. Zakrzewski, G. A. Voth, 
 P. Salvador, J. J. Dannenberg, S. Dapprich, A. D. Daniels, 
 O. Farkas, J. B. Foresman, J. V. Ortiz, J. Cioslowski, 
 and D. J. Fox, Gaussian, Inc., Wallingford CT, 2013.
 
 ******************************************
 Gaussian 09:  ES64L-G09RevD.01 24-Apr-2013
                28-Jul-2021 
 ******************************************
 %mem=2gb
 %nproc=4
 Will use up to    4 processors via shared memory.
 %chk=conf-318.chk
 ----------------------------------------------------------------------
 # B3LYP/6-311++G(d,p) opt=calcfc freq=noraman nosymm integral(ultrafin
 egrid)
 ----------------------------------------------------------------------
 1/10=4,14=-1,18=20,19=15,26=4,38=1/1,3;
 2/9=110,12=2,15=1,17=6,18=5,40=1/2;
 3/5=4,6=6,7=1111,11=2,16=1,25=1,30=1,71=2,74=-5,75=-5,140=1/1,2,3;
 4//1;
 5/5=2,38=5/2;
 8/6=4,10=90,11=11/1;
 11/6=1,8=1,9=11,15=111,16=1,31=1/1,2,10;
 10/6=1,13=1,31=1/2;
 6/7=2,8=2,9=2,10=2,28=1/1;
 7/10=1,18=20,25=1,30=1/1,2,3,16;
 1/10=4,14=-1,18=20,19=15,26=4/3(2);
 2/9=110,15=1/2;
 99//99;
 2/9=110,15=1/2;
 3/5=4,6=6,7=1111,11=2,16=1,25=1,30=1,71=1,74=-5,75=-5/1,2,3;
 4/5=5,16=3,69=1/1;
 5/5=2,38=5/2;
 7/30=1/1,2,3,16;
 1/14=-1,18=20,19=15,26=4/3(-5);
 2/9=110,15=1/2;
 6/7=2,8=2,9=2,10=2,19=2,28=1/1;
 99/9=1/99;
 ------------------------------------------------------------
 Candidate Structure: Conf:318 OPT and FREQ calc in gas phase
 ------------------------------------------------------------
 Symbolic Z-matrix:
 Charge =  1 Multiplicity = 1
 O                     1.13479   0.36017   1.71301 
 C                     1.16226  -0.2433    0.64574 
 N                     0.11396  -1.00733   0.23996 
 C                    -1.06936  -1.15699   1.0577 
 C                    -1.84054  -2.36383   0.54088 
 O                    -2.80523  -2.83052   1.35604 
 O                    -1.63337  -2.87104  -0.528 
 C                    -1.9416    0.10927   1.09446 
 C                    -2.42059   0.64013  -0.22615 
 C                    -2.81335   0.0844   -1.40888 
 N                    -3.21509   1.05471  -2.30737 
 C                    -3.07245   2.19143  -1.6678 
 N                    -2.59722   2.00042  -0.41027 
 C                     2.34258  -0.20625  -0.31324 
 C                     3.52376   0.56524   0.25722 
 N                     4.66863   0.61098  -0.69028 
 H                     0.14741  -1.55596  -0.606 
 H                    -0.76096  -1.33802   2.09037 
 H                    -2.82173  -2.33987   2.18352 
 H                    -2.80031  -0.07852   1.7472 
 H                    -1.35361   0.88582   1.58118 
 H                    -2.82341  -0.96002  -1.66902 
 H                    -3.29495   3.16978  -2.05629 
 H                    -2.40028   2.71256   0.27365 
 H                     2.02064   0.25342  -1.25462 
 H                     2.64528  -1.23191  -0.54929 
 H                     3.83569   0.10072   1.19197 
 H                     3.20224   1.57712   0.49941 
 H                     5.00063  -0.32667  -0.91571 
 H                     5.45977   1.12826  -0.30455 
 H                     4.40638   1.06602  -1.56461 
 

 GradGradGradGradGradGradGradGradGradGradGradGradGradGradGradGradGradGrad
 Berny optimization.
 Initialization pass.
                           ----------------------------
                           !    Initial Parameters    !
                           ! (Angstroms and Degrees)  !
 --------------------------                            --------------------------
 ! Name  Definition              Value          Derivative Info.                !
 --------------------------------------------------------------------------------
 ! R1    R(1,2)                  1.2264         calculate D2E/DX2 analytically  !
 ! R2    R(2,3)                  1.3592         calculate D2E/DX2 analytically  !
 ! R3    R(2,14)                 1.5212         calculate D2E/DX2 analytically  !
 ! R4    R(3,4)                  1.4461         calculate D2E/DX2 analytically  !
 ! R5    R(3,17)                 1.0088         calculate D2E/DX2 analytically  !
 ! R6    R(4,5)                  1.5226         calculate D2E/DX2 analytically  !
 ! R7    R(4,8)                  1.538          calculate D2E/DX2 analytically  !
 ! R8    R(4,18)                 1.0928         calculate D2E/DX2 analytically  !
 ! R9    R(5,6)                  1.3464         calculate D2E/DX2 analytically  !
 ! R10   R(5,7)                  1.2011         calculate D2E/DX2 analytically  !
 ! R11   R(6,19)                 0.9622         calculate D2E/DX2 analytically  !
 ! R12   R(8,9)                  1.5018         calculate D2E/DX2 analytically  !
 ! R13   R(8,20)                 1.0949         calculate D2E/DX2 analytically  !
 ! R14   R(8,21)                 1.0889         calculate D2E/DX2 analytically  !
 ! R15   R(9,10)                 1.3645         calculate D2E/DX2 analytically  !
 ! R16   R(9,13)                 1.384          calculate D2E/DX2 analytically  !
 ! R17   R(10,11)                1.3821         calculate D2E/DX2 analytically  !
 ! R18   R(10,22)                1.0764         calculate D2E/DX2 analytically  !
 ! R19   R(11,12)                1.3121         calculate D2E/DX2 analytically  !
 ! R20   R(12,13)                1.3578         calculate D2E/DX2 analytically  !
 ! R21   R(12,23)                1.0759         calculate D2E/DX2 analytically  !
 ! R22   R(13,24)                1.0068         calculate D2E/DX2 analytically  !
 ! R23   R(14,15)                1.5218         calculate D2E/DX2 analytically  !
 ! R24   R(14,25)                1.096          calculate D2E/DX2 analytically  !
 ! R25   R(14,26)                1.0951         calculate D2E/DX2 analytically  !
 ! R26   R(15,16)                1.4868         calculate D2E/DX2 analytically  !
 ! R27   R(15,27)                1.0894         calculate D2E/DX2 analytically  !
 ! R28   R(15,28)                1.089          calculate D2E/DX2 analytically  !
 ! R29   R(16,29)                1.0199         calculate D2E/DX2 analytically  !
 ! R30   R(16,30)                1.0209         calculate D2E/DX2 analytically  !
 ! R31   R(16,31)                1.0199         calculate D2E/DX2 analytically  !
 ! A1    A(1,2,3)              121.2758         calculate D2E/DX2 analytically  !
 ! A2    A(1,2,14)             123.6419         calculate D2E/DX2 analytically  !
 ! A3    A(3,2,14)             115.0822         calculate D2E/DX2 analytically  !
 ! A4    A(2,3,4)              121.3636         calculate D2E/DX2 analytically  !
 ! A5    A(2,3,17)             122.0375         calculate D2E/DX2 analytically  !
 ! A6    A(4,3,17)             116.424          calculate D2E/DX2 analytically  !
 ! A7    A(3,4,5)              107.7302         calculate D2E/DX2 analytically  !
 ! A8    A(3,4,8)              113.1007         calculate D2E/DX2 analytically  !
 ! A9    A(3,4,18)             108.6967         calculate D2E/DX2 analytically  !
 ! A10   A(5,4,8)              111.928          calculate D2E/DX2 analytically  !
 ! A11   A(5,4,18)             109.4136         calculate D2E/DX2 analytically  !
 ! A12   A(8,4,18)             105.8923         calculate D2E/DX2 analytically  !
 ! A13   A(4,5,6)              115.6021         calculate D2E/DX2 analytically  !
 ! A14   A(4,5,7)              123.327          calculate D2E/DX2 analytically  !
 ! A15   A(6,5,7)              121.0623         calculate D2E/DX2 analytically  !
 ! A16   A(5,6,19)             110.8675         calculate D2E/DX2 analytically  !
 ! A17   A(4,8,9)              116.8014         calculate D2E/DX2 analytically  !
 ! A18   A(4,8,20)             108.5318         calculate D2E/DX2 analytically  !
 ! A19   A(4,8,21)             106.9537         calculate D2E/DX2 analytically  !
 ! A20   A(9,8,20)             109.5565         calculate D2E/DX2 analytically  !
 ! A21   A(9,8,21)             108.2526         calculate D2E/DX2 analytically  !
 ! A22   A(20,8,21)            106.2217         calculate D2E/DX2 analytically  !
 ! A23   A(8,9,10)             135.2394         calculate D2E/DX2 analytically  !
 ! A24   A(8,9,13)             120.3403         calculate D2E/DX2 analytically  !
 ! A25   A(10,9,13)            104.3734         calculate D2E/DX2 analytically  !
 ! A26   A(9,10,11)            111.1751         calculate D2E/DX2 analytically  !
 ! A27   A(9,10,22)            127.3977         calculate D2E/DX2 analytically  !
 ! A28   A(11,10,22)           121.4253         calculate D2E/DX2 analytically  !
 ! A29   A(10,11,12)           105.055          calculate D2E/DX2 analytically  !
 ! A30   A(11,12,13)           111.5691         calculate D2E/DX2 analytically  !
 ! A31   A(11,12,23)           126.1078         calculate D2E/DX2 analytically  !
 ! A32   A(13,12,23)           122.323          calculate D2E/DX2 analytically  !
 ! A33   A(9,13,12)            107.8264         calculate D2E/DX2 analytically  !
 ! A34   A(9,13,24)            125.441          calculate D2E/DX2 analytically  !
 ! A35   A(12,13,24)           126.7321         calculate D2E/DX2 analytically  !
 ! A36   A(2,14,15)            112.2264         calculate D2E/DX2 analytically  !
 ! A37   A(2,14,25)            108.8913         calculate D2E/DX2 analytically  !
 ! A38   A(2,14,26)            109.1188         calculate D2E/DX2 analytically  !
 ! A39   A(15,14,25)           109.7159         calculate D2E/DX2 analytically  !
 ! A40   A(15,14,26)           109.9419         calculate D2E/DX2 analytically  !
 ! A41   A(25,14,26)           106.7903         calculate D2E/DX2 analytically  !
 ! A42   A(14,15,16)           111.9861         calculate D2E/DX2 analytically  !
 ! A43   A(14,15,27)           109.1305         calculate D2E/DX2 analytically  !
 ! A44   A(14,15,28)           108.9821         calculate D2E/DX2 analytically  !
 ! A45   A(16,15,27)           109.8421         calculate D2E/DX2 analytically  !
 ! A46   A(16,15,28)           109.9065         calculate D2E/DX2 analytically  !
 ! A47   A(27,15,28)           106.8527         calculate D2E/DX2 analytically  !
 ! A48   A(15,16,29)           111.299          calculate D2E/DX2 analytically  !
 ! A49   A(15,16,30)           111.8094         calculate D2E/DX2 analytically  !
 ! A50   A(15,16,31)           111.2249         calculate D2E/DX2 analytically  !
 ! A51   A(29,16,30)           107.2818         calculate D2E/DX2 analytically  !
 ! A52   A(29,16,31)           107.7209         calculate D2E/DX2 analytically  !
 ! A53   A(30,16,31)           107.2822         calculate D2E/DX2 analytically  !
 ! D1    D(1,2,3,4)             -0.927          calculate D2E/DX2 analytically  !
 ! D2    D(1,2,3,17)          -175.9471         calculate D2E/DX2 analytically  !
 ! D3    D(14,2,3,4)           178.9339         calculate D2E/DX2 analytically  !
 ! D4    D(14,2,3,17)            3.9138         calculate D2E/DX2 analytically  !
 ! D5    D(1,2,14,15)            4.8672         calculate D2E/DX2 analytically  !
 ! D6    D(1,2,14,25)         -116.8023         calculate D2E/DX2 analytically  !
 ! D7    D(1,2,14,26)          126.9811         calculate D2E/DX2 analytically  !
 ! D8    D(3,2,14,15)         -174.99           calculate D2E/DX2 analytically  !
 ! D9    D(3,2,14,25)           63.3405         calculate D2E/DX2 analytically  !
 ! D10   D(3,2,14,26)          -52.8761         calculate D2E/DX2 analytically  !
 ! D11   D(2,3,4,5)           -163.3057         calculate D2E/DX2 analytically  !
 ! D12   D(2,3,4,8)             72.4572         calculate D2E/DX2 analytically  !
 ! D13   D(2,3,4,18)           -44.8421         calculate D2E/DX2 analytically  !
 ! D14   D(17,3,4,5)            11.981          calculate D2E/DX2 analytically  !
 ! D15   D(17,3,4,8)          -112.2561         calculate D2E/DX2 analytically  !
 ! D16   D(17,3,4,18)          130.4447         calculate D2E/DX2 analytically  !
 ! D17   D(3,4,5,6)            165.8373         calculate D2E/DX2 analytically  !
 ! D18   D(3,4,5,7)            -15.219          calculate D2E/DX2 analytically  !
 ! D19   D(8,4,5,6)            -69.2207         calculate D2E/DX2 analytically  !
 ! D20   D(8,4,5,7)            109.7231         calculate D2E/DX2 analytically  !
 ! D21   D(18,4,5,6)            47.8348         calculate D2E/DX2 analytically  !
 ! D22   D(18,4,5,7)          -133.2214         calculate D2E/DX2 analytically  !
 ! D23   D(3,4,8,9)             56.7831         calculate D2E/DX2 analytically  !
 ! D24   D(3,4,8,20)          -178.8236         calculate D2E/DX2 analytically  !
 ! D25   D(3,4,8,21)           -64.6058         calculate D2E/DX2 analytically  !
 ! D26   D(5,4,8,9)            -65.1291         calculate D2E/DX2 analytically  !
 ! D27   D(5,4,8,20)            59.2642         calculate D2E/DX2 analytically  !
 ! D28   D(5,4,8,21)           173.4821         calculate D2E/DX2 analytically  !
 ! D29   D(18,4,8,9)           175.7167         calculate D2E/DX2 analytically  !
 ! D30   D(18,4,8,20)          -59.89           calculate D2E/DX2 analytically  !
 ! D31   D(18,4,8,21)           54.3278         calculate D2E/DX2 analytically  !
 ! D32   D(4,5,6,19)            -3.1825         calculate D2E/DX2 analytically  !
 ! D33   D(7,5,6,19)           177.8478         calculate D2E/DX2 analytically  !
 ! D34   D(4,8,9,10)            35.2995         calculate D2E/DX2 analytically  !
 ! D35   D(4,8,9,13)          -147.6284         calculate D2E/DX2 analytically  !
 ! D36   D(20,8,9,10)          -88.572          calculate D2E/DX2 analytically  !
 ! D37   D(20,8,9,13)           88.5001         calculate D2E/DX2 analytically  !
 ! D38   D(21,8,9,10)          156.0038         calculate D2E/DX2 analytically  !
 ! D39   D(21,8,9,13)          -26.9241         calculate D2E/DX2 analytically  !
 ! D40   D(8,9,10,11)          177.7149         calculate D2E/DX2 analytically  !
 ! D41   D(8,9,10,22)           -2.7787         calculate D2E/DX2 analytically  !
 ! D42   D(13,9,10,11)           0.3232         calculate D2E/DX2 analytically  !
 ! D43   D(13,9,10,22)         179.8295         calculate D2E/DX2 analytically  !
 ! D44   D(8,9,13,12)         -178.07           calculate D2E/DX2 analytically  !
 ! D45   D(8,9,13,24)            2.1942         calculate D2E/DX2 analytically  !
 ! D46   D(10,9,13,12)          -0.1978         calculate D2E/DX2 analytically  !
 ! D47   D(10,9,13,24)        -179.9336         calculate D2E/DX2 analytically  !
 ! D48   D(9,10,11,12)          -0.3247         calculate D2E/DX2 analytically  !
 ! D49   D(22,10,11,12)       -179.8651         calculate D2E/DX2 analytically  !
 ! D50   D(10,11,12,13)          0.191          calculate D2E/DX2 analytically  !
 ! D51   D(10,11,12,23)       -179.6929         calculate D2E/DX2 analytically  !
 ! D52   D(11,12,13,9)           0.0032         calculate D2E/DX2 analytically  !
 ! D53   D(11,12,13,24)        179.7346         calculate D2E/DX2 analytically  !
 ! D54   D(23,12,13,9)         179.8922         calculate D2E/DX2 analytically  !
 ! D55   D(23,12,13,24)         -0.3764         calculate D2E/DX2 analytically  !
 ! D56   D(2,14,15,16)        -179.3655         calculate D2E/DX2 analytically  !
 ! D57   D(2,14,15,27)          58.798          calculate D2E/DX2 analytically  !
 ! D58   D(2,14,15,28)         -57.5501         calculate D2E/DX2 analytically  !
 ! D59   D(25,14,15,16)        -58.1686         calculate D2E/DX2 analytically  !
 ! D60   D(25,14,15,27)        179.995          calculate D2E/DX2 analytically  !
 ! D61   D(25,14,15,28)         63.6469         calculate D2E/DX2 analytically  !
 ! D62   D(26,14,15,16)         58.99           calculate D2E/DX2 analytically  !
 ! D63   D(26,14,15,27)        -62.8465         calculate D2E/DX2 analytically  !
 ! D64   D(26,14,15,28)       -179.1945         calculate D2E/DX2 analytically  !
 ! D65   D(14,15,16,29)        -59.978          calculate D2E/DX2 analytically  !
 ! D66   D(14,15,16,30)       -179.9408         calculate D2E/DX2 analytically  !
 ! D67   D(14,15,16,31)         60.1466         calculate D2E/DX2 analytically  !
 ! D68   D(27,15,16,29)         61.4498         calculate D2E/DX2 analytically  !
 ! D69   D(27,15,16,30)        -58.5131         calculate D2E/DX2 analytically  !
 ! D70   D(27,15,16,31)       -178.4257         calculate D2E/DX2 analytically  !
 ! D71   D(28,15,16,29)        178.7381         calculate D2E/DX2 analytically  !
 ! D72   D(28,15,16,30)         58.7752         calculate D2E/DX2 analytically  !
 ! D73   D(28,15,16,31)        -61.1374         calculate D2E/DX2 analytically  !
 --------------------------------------------------------------------------------
 Trust Radius=3.00D-01 FncErr=1.00D-07 GrdErr=1.00D-06
 Number of steps in this run=    167 maximum allowed number of steps=    186.
 GradGradGradGradGradGradGradGradGradGradGradGradGradGradGradGradGradGrad

                          Input orientation:                          
 ---------------------------------------------------------------------
 Center     Atomic      Atomic             Coordinates (Angstroms)
 Number     Number       Type             X           Y           Z
 ---------------------------------------------------------------------
      1          8           0        1.134793    0.360172    1.713014
      2          6           0        1.162257   -0.243302    0.645742
      3          7           0        0.113957   -1.007325    0.239961
      4          6           0       -1.069364   -1.156993    1.057696
      5          6           0       -1.840539   -2.363826    0.540876
      6          8           0       -2.805228   -2.830522    1.356037
      7          8           0       -1.633368   -2.871040   -0.528005
      8          6           0       -1.941597    0.109268    1.094457
      9          6           0       -2.420593    0.640134   -0.226148
     10          6           0       -2.813354    0.084404   -1.408885
     11          7           0       -3.215093    1.054711   -2.307369
     12          6           0       -3.072450    2.191426   -1.667803
     13          7           0       -2.597217    2.000422   -0.410274
     14          6           0        2.342582   -0.206253   -0.313243
     15          6           0        3.523756    0.565241    0.257219
     16          7           0        4.668626    0.610979   -0.690278
     17          1           0        0.147411   -1.555964   -0.605997
     18          1           0       -0.760965   -1.338020    2.090369
     19          1           0       -2.821728   -2.339868    2.183521
     20          1           0       -2.800315   -0.078519    1.747195
     21          1           0       -1.353609    0.885824    1.581179
     22          1           0       -2.823414   -0.960017   -1.669022
     23          1           0       -3.294949    3.169775   -2.056286
     24          1           0       -2.400277    2.712564    0.273645
     25          1           0        2.020644    0.253423   -1.254621
     26          1           0        2.645282   -1.231912   -0.549292
     27          1           0        3.835693    0.100720    1.191966
     28          1           0        3.202235    1.577124    0.499409
     29          1           0        5.000631   -0.326669   -0.915711
     30          1           0        5.459766    1.128265   -0.304546
     31          1           0        4.406382    1.066022   -1.564605
 ---------------------------------------------------------------------
                    Distance matrix (angstroms):
                    1          2          3          4          5
     1  O    0.000000
     2  C    1.226379   0.000000
     3  N    2.254339   1.359162   0.000000
     4  C    2.754913   2.446359   1.446147   0.000000
     5  C    4.200795   3.677554   2.398061   1.522583   0.000000
     6  O    5.082493   4.789485   3.618192   2.429595   1.346447
     7  O    4.808910   4.012257   2.667649   2.402187   1.201121
     8  C    3.147974   3.155877   2.490431   1.538037   2.536308
     9  C    4.059495   3.791763   3.058647   2.589158   3.154134
    10  C    5.040850   4.487133   3.532664   3.265974   3.277463
    11  N    5.963838   5.437544   4.671558   4.562833   4.657068
    12  C    5.699501   5.404917   4.901506   4.759476   5.210200
    13  N    4.596376   4.503677   4.101196   3.802439   4.530331
    14  C    2.425966   1.521247   2.431979   3.797994   4.783633
    15  C    2.805091   2.526138   3.754996   4.970273   6.118461
    16  N    4.280969   3.848295   4.922323   6.253453   7.261848
    17  H    3.166120   2.078424   1.008845   2.099427   2.433085
    18  H    2.572966   2.642751   2.073368   1.092838   2.149113
    19  H    4.813071   4.757362   3.764485   2.395298   1.913528
    20  H    3.959633   4.116106   3.409900   2.152836   2.756628
    21  H    2.546731   2.911967   2.745293   2.127894   3.446673
    22  H    5.371077   4.664481   3.503513   3.248150   2.796492
    23  H    6.459421   6.230308   5.860167   5.776767   6.283414
    24  H    4.483554   4.644055   4.489998   4.166478   5.114142
    25  H    3.098868   2.143581   2.731065   4.109043   4.998253
    26  H    3.151878   2.145884   2.661008   4.048039   4.753135
    27  H    2.762909   2.750268   3.998175   5.065517   6.222341
    28  H    2.688517   2.738042   4.035363   5.102317   6.400186
    29  H    4.725109   4.144660   5.067392   6.436507   7.285140
    30  H    4.833829   4.610079   5.782292   7.050365   8.136577
    31  H    4.684475   4.138153   5.097071   6.465451   7.431078
                    6          7          8          9         10
     6  O    0.000000
     7  O    2.219124   0.000000
     8  C    3.075167   3.407290   0.000000
     9  C    3.833628   3.610981   1.501750   0.000000
    10  C    4.017668   3.301964   2.650905   1.364538   0.000000
    11  N    5.355705   4.591243   3.753408   2.265962   1.382087
    12  C    5.868133   5.385041   3.639271   2.215806   2.138624
    13  N    5.147926   4.967294   2.504100   1.384009   2.171420
    14  C    6.014419   4.791179   4.520549   4.838574   5.279071
    15  C    7.265993   6.246642   5.547879   5.964440   6.570089
    16  N    8.478788   7.201800   6.865278   7.104456   7.534833
    17  H    3.767247   2.215103   3.166779   3.400261   3.478730
    18  H    2.635492   3.157074   2.116689   3.468964   4.298880
    19  H    0.962156   3.007776   2.821163   3.853287   4.333883
    20  H    2.779667   3.786353   1.094864   2.134182   3.160309
    21  H    3.996138   4.317517   1.088884   2.113114   3.422515
    22  H    3.556699   2.523914   3.091567   2.191947   1.076377
    23  H    6.920069   6.448872   4.596243   3.242374   3.189135
    24  H    5.662276   5.692752   2.767900   2.131941   3.147819
    25  H    6.294068   4.862309   4.608502   4.575138   4.839411
    26  H    5.991152   4.581926   5.053724   5.410367   5.680519
    27  H    7.260919   6.457577   5.778119   6.437635   7.139645
    28  H    7.500052   6.650173   5.382164   5.746354   6.485146
    29  H    8.506560   7.115764   7.240535   7.515636   7.840317
    30  H    9.313413   8.145976   7.601035   7.895852   8.411523
    31  H    8.701754   7.283789   6.948584   6.969967   7.287826
                   11         12         13         14         15
    11  N    0.000000
    12  C    1.312064   0.000000
    13  N    2.207964   1.357832   0.000000
    14  C    6.037741   6.075053   5.411140   0.000000
    15  C    7.226948   7.061170   6.322310   1.521776   0.000000
    16  N    8.060081   7.961007   7.402798   2.494094   1.486798
    17  H    4.584400   5.053501   4.496573   2.593492   4.079750
    18  H    5.575661   5.650116   4.557437   4.085370   5.034052
    19  H    5.643225   5.952158   5.061254   6.120151   7.239853
    20  H    4.230336   4.109614   3.002985   5.541760   6.529037
    21  H    4.314446   3.900627   2.598995   4.294566   5.064024
    22  H    2.149425   3.161268   3.224873   5.393868   6.806128
    23  H    2.131411   1.075914   2.136252   6.798347   7.657065
    24  H    3.173961   2.119581   1.006816   5.599879   6.301225
    25  H    5.400303   5.464996   5.008948   1.095964   2.154585
    26  H    6.531728   6.757423   6.160446   1.095135   2.156834
    27  H    7.928999   7.763490   6.896258   2.142259   1.089421
    28  H    7.023746   6.666772   5.885605   2.140056   1.089008
    29  H    8.446481   8.490059   7.962293   2.728130   2.086247
    30  H    8.903363   8.705601   8.104740   3.390848   2.093014
    31  H    7.657591   7.563737   7.159328   2.728344   2.085390
                   16         17         18         19         20
    16  N    0.000000
    17  H    5.014393   0.000000
    18  H    6.403987   2.853600   0.000000
    19  H    8.548194   4.148699   2.293278   0.000000
    20  H    7.886809   4.050857   2.421375   2.303158   0.000000
    21  H    6.442234   3.605431   2.357113   3.594896   1.746561
    22  H    7.717294   3.211071   4.304603   4.092198   3.528188
    23  H    8.475373   6.023769   6.628427   6.968219   5.026187
    24  H    7.437419   5.048249   4.732342   5.417778   3.181435
    25  H    2.730960   2.683952   4.632385   6.480320   5.688825
    26  H    2.740446   2.519442   4.310636   6.211605   6.021519
    27  H    2.120610   4.425009   4.899629   7.159673   6.661607
    28  H    2.121107   4.513327   5.170703   7.380189   6.350491
    29  H    1.019918   5.016058   6.576879   8.651446   8.246660
    30  H    1.020919   5.959620   7.107437   9.316736   8.596214
    31  H    1.019943   5.092404   6.770504   8.825764   8.013393
                   21         22         23         24         25
    21  H    0.000000
    22  H    4.016374   0.000000
    23  H    4.713426   4.174626   0.000000
    24  H    2.478333   4.176224   2.537334   0.000000
    25  H    4.452783   5.010894   6.115824   5.284649   0.000000
    26  H    5.001484   5.588771   7.545345   6.457072   1.758943
    27  H    5.262769   7.324898   8.415243   6.822930   3.050166
    28  H    4.733270   6.888224   7.161112   5.720869   2.494988
    29  H    6.934045   7.885702   9.074288   8.088570   3.054782
    30  H    7.073671   8.650652   9.158679   8.038942   3.673629
    31  H    6.565510   7.509040   7.998627   7.240226   2.539321
                   26         27         28         29         30
    26  H    0.000000
    27  H    2.494989   0.000000
    28  H    3.049697   1.749478   0.000000
    29  H    2.549784   2.445822   2.976780   0.000000
    30  H    3.681257   2.435777   2.438086   1.643521   0.000000
    31  H    3.068034   2.975934   2.443635   1.647357   1.643545
                   31
    31  H    0.000000
 Symmetry turned off by external request.
 Stoichiometry    C9H15N4O3(1+)
 Framework group  C1[X(C9H15N4O3)]
 Deg. of freedom    87
 Full point group                 C1      NOp   1
 Rotational constants (GHZ):      0.6292239      0.3107285      0.2460042
 Standard basis: 6-311++G(d,p) (5D, 7F)
   457 basis functions,   711 primitive gaussians,   473 cartesian basis functions
    60 alpha electrons       60 beta electrons
       nuclear repulsion energy      1133.0540732988 Hartrees.
 NAtoms=   31 NActive=   31 NUniq=   31 SFac= 1.00D+00 NAtFMM=   60 NAOKFM=F Big=F
 Integral buffers will be    131072 words long.
 Raffenetti 2 integral format.
 Two-electron integral symmetry is turned off.
 One-electron integrals computed using PRISM.
 NBasis=   457 RedAO= T EigKep=  2.32D-06  NBF=   457
 NBsUse=   457 1.00D-06 EigRej= -1.00D+00 NBFU=   457
 ExpMin= 3.60D-02 ExpMax= 8.59D+03 ExpMxC= 1.30D+03 IAcc=3 IRadAn=         5 AccDes= 0.00D+00
 Harris functional with IExCor=  402 and IRadAn=       5 diagonalized for initial guess.
 HarFok:  IExCor=  402 AccDes= 0.00D+00 IRadAn=         5 IDoV= 1 UseB2=F ITyADJ=14
 ICtDFT=  3500011 ScaDFX=  1.000000  1.000000  1.000000  1.000000
 FoFCou: FMM=F IPFlag=           0 FMFlag=      100000 FMFlg1=           0
         NFxFlg=           0 DoJE=T BraDBF=F KetDBF=T FulRan=T
         wScrn=  0.000000 ICntrl=     500 IOpCl=  0 I1Cent=   200000004 NGrid=           0
         NMat0=    1 NMatS0=      1 NMatT0=    0 NMatD0=    1 NMtDS0=    0 NMtDT0=    0
 Symmetry not used in FoFCou.
 Requested convergence on RMS density matrix=1.00D-08 within 128 cycles.
 Requested convergence on MAX density matrix=1.00D-06.
 Requested convergence on             energy=1.00D-06.
 No special actions if energy rises.
 EnCoef did     1 forward-backward iterations
 SCF Done:  E(RB3LYP) =  -796.675282801     A.U. after   17 cycles
            NFock= 17  Conv=0.39D-08     -V/T= 2.0037
 DoSCS=F DFT=T ScalE2(SS,OS)=  1.000000  1.000000
 Range of M.O.s used for correlation:     1   457
 NBasis=   457 NAE=    60 NBE=    60 NFC=     0 NFV=     0
 NROrb=    457 NOA=    60 NOB=    60 NVA=   397 NVB=   397

 **** Warning!!: The largest alpha MO coefficient is  0.11521667D+03

 Symmetrizing basis deriv contribution to polar:
 IMax=3 JMax=2 DiffMx= 0.00D+00
 G2DrvN: will do    32 centers at a time, making    1 passes.
 Calling FoFCou, ICntrl=  3107 FMM=F I1Cent=   0 AccDes= 0.00D+00.
 End of G2Drv F.D. properties file   721 does not exist.
 End of G2Drv F.D. properties file   722 does not exist.
 End of G2Drv F.D. properties file   788 does not exist.
          IDoAtm=1111111111111111111111111111111
          Differentiating once with respect to nuclear coordinates.
          There are    96 degrees of freedom in the 1st order CPHF.  IDoFFX=6 NUNeed=     0.
     90 vectors produced by pass  0 Test12= 2.48D-14 1.04D-09 XBig12= 2.85D-01 1.42D-01.
 AX will form    90 AO Fock derivatives at one time.
     90 vectors produced by pass  1 Test12= 2.48D-14 1.04D-09 XBig12= 1.62D-02 2.82D-02.
     90 vectors produced by pass  2 Test12= 2.48D-14 1.04D-09 XBig12= 1.96D-04 2.15D-03.
     90 vectors produced by pass  3 Test12= 2.48D-14 1.04D-09 XBig12= 5.78D-07 7.93D-05.
     90 vectors produced by pass  4 Test12= 2.48D-14 1.04D-09 XBig12= 1.31D-09 3.79D-06.
     84 vectors produced by pass  5 Test12= 2.48D-14 1.04D-09 XBig12= 1.79D-12 1.48D-07.
     33 vectors produced by pass  6 Test12= 2.48D-14 1.04D-09 XBig12= 3.67D-15 7.33D-09.
      8 vectors produced by pass  7 Test12= 2.48D-14 1.04D-09 XBig12= 4.26D-16 2.27D-09.
      1 vectors produced by pass  8 Test12= 2.48D-14 1.04D-09 XBig12= 2.50D-16 1.11D-09.
 InvSVY:  IOpt=1 It=  1 EMax= 9.99D-16
 Solved reduced A of dimension   576 with    96 vectors.
 End of Minotr F.D. properties file   721 does not exist.
 End of Minotr F.D. properties file   722 does not exist.
 End of Minotr F.D. properties file   788 does not exist.

 **********************************************************************

            Population analysis using the SCF density.

 **********************************************************************

 Alpha  occ. eigenvalues --  -19.28270 -19.23466 -19.22647 -14.65281 -14.47397
 Alpha  occ. eigenvalues --  -14.45577 -14.37386 -10.42567 -10.42241 -10.42181
 Alpha  occ. eigenvalues --  -10.36555 -10.35513 -10.30616 -10.30299 -10.29587
 Alpha  occ. eigenvalues --  -10.26384  -1.22493  -1.22441  -1.18806  -1.14535
 Alpha  occ. eigenvalues --   -1.10614  -1.06696  -0.97919  -0.95901  -0.91942
 Alpha  occ. eigenvalues --   -0.86610  -0.83790  -0.80690  -0.80111  -0.78261
 Alpha  occ. eigenvalues --   -0.74246  -0.72034  -0.70853  -0.70390  -0.68805
 Alpha  occ. eigenvalues --   -0.67780  -0.65582  -0.63953  -0.62149  -0.60512
 Alpha  occ. eigenvalues --   -0.59051  -0.57802  -0.57198  -0.55892  -0.55313
 Alpha  occ. eigenvalues --   -0.54262  -0.54142  -0.52311  -0.51174  -0.50152
 Alpha  occ. eigenvalues --   -0.49864  -0.49275  -0.48915  -0.43687  -0.41158
 Alpha  occ. eigenvalues --   -0.40131  -0.39508  -0.36909  -0.35279  -0.31847
 Alpha virt. eigenvalues --   -0.20736  -0.15276  -0.14932  -0.13718  -0.13092
 Alpha virt. eigenvalues --   -0.11750  -0.10892  -0.10610  -0.09655  -0.09309
 Alpha virt. eigenvalues --   -0.08504  -0.07444  -0.06864  -0.06640  -0.06239
 Alpha virt. eigenvalues --   -0.05556  -0.05227  -0.04670  -0.04341  -0.03869
 Alpha virt. eigenvalues --   -0.03273  -0.02742  -0.02518  -0.02329  -0.01803
 Alpha virt. eigenvalues --   -0.00948  -0.00834  -0.00475  -0.00031   0.00191
 Alpha virt. eigenvalues --    0.00640   0.00657   0.01133   0.01379   0.01764
 Alpha virt. eigenvalues --    0.02090   0.02716   0.02759   0.03459   0.03710
 Alpha virt. eigenvalues --    0.03820   0.04336   0.04390   0.04610   0.04980
 Alpha virt. eigenvalues --    0.05316   0.05593   0.05913   0.06278   0.06568
 Alpha virt. eigenvalues --    0.06934   0.07301   0.07726   0.08000   0.08860
 Alpha virt. eigenvalues --    0.09288   0.09546   0.09723   0.09890   0.10523
 Alpha virt. eigenvalues --    0.10986   0.11574   0.11735   0.12134   0.12453
 Alpha virt. eigenvalues --    0.12701   0.13287   0.13519   0.13921   0.14115
 Alpha virt. eigenvalues --    0.14862   0.15170   0.16152   0.16825   0.17231
 Alpha virt. eigenvalues --    0.17918   0.18161   0.18582   0.18884   0.19189
 Alpha virt. eigenvalues --    0.19363   0.19839   0.20624   0.20753   0.21070
 Alpha virt. eigenvalues --    0.21678   0.22447   0.22754   0.22924   0.23124
 Alpha virt. eigenvalues --    0.23905   0.24169   0.24902   0.25450   0.25959
 Alpha virt. eigenvalues --    0.26452   0.26659   0.26894   0.27321   0.28118
 Alpha virt. eigenvalues --    0.28296   0.28743   0.29322   0.29917   0.30436
 Alpha virt. eigenvalues --    0.31190   0.31604   0.32125   0.32959   0.34213
 Alpha virt. eigenvalues --    0.34820   0.35105   0.37250   0.38833   0.39269
 Alpha virt. eigenvalues --    0.40581   0.41085   0.41967   0.42606   0.44339
 Alpha virt. eigenvalues --    0.45079   0.45904   0.46240   0.46928   0.47211
 Alpha virt. eigenvalues --    0.47936   0.48512   0.49795   0.50484   0.51614
 Alpha virt. eigenvalues --    0.52128   0.52332   0.52962   0.54646   0.55507
 Alpha virt. eigenvalues --    0.55959   0.56615   0.57112   0.57596   0.58070
 Alpha virt. eigenvalues --    0.58788   0.60064   0.60462   0.61064   0.61489
 Alpha virt. eigenvalues --    0.62165   0.63491   0.64314   0.65152   0.66254
 Alpha virt. eigenvalues --    0.67010   0.67674   0.68469   0.70064   0.71214
 Alpha virt. eigenvalues --    0.72302   0.73745   0.74128   0.76607   0.77135
 Alpha virt. eigenvalues --    0.77997   0.79623   0.80439   0.82228   0.83578
 Alpha virt. eigenvalues --    0.84280   0.85523   0.86084   0.86338   0.88698
 Alpha virt. eigenvalues --    0.89791   0.91862   0.92831   0.94049   0.95050
 Alpha virt. eigenvalues --    0.98133   0.98393   0.99142   1.00677   1.01793
 Alpha virt. eigenvalues --    1.02380   1.04290   1.05202   1.05972   1.06531
 Alpha virt. eigenvalues --    1.08029   1.08903   1.09926   1.10477   1.11712
 Alpha virt. eigenvalues --    1.12429   1.13368   1.14865   1.16249   1.16849
 Alpha virt. eigenvalues --    1.17545   1.17893   1.18897   1.21215   1.21917
 Alpha virt. eigenvalues --    1.22838   1.23666   1.27260   1.29054   1.30826
 Alpha virt. eigenvalues --    1.32091   1.33914   1.35574   1.35926   1.37153
 Alpha virt. eigenvalues --    1.37892   1.39748   1.40414   1.41738   1.41952
 Alpha virt. eigenvalues --    1.44720   1.46102   1.49165   1.49769   1.51405
 Alpha virt. eigenvalues --    1.52061   1.53397   1.53670   1.54330   1.55048
 Alpha virt. eigenvalues --    1.55748   1.56568   1.57164   1.57780   1.58178
 Alpha virt. eigenvalues --    1.60393   1.60926   1.62126   1.63567   1.64876
 Alpha virt. eigenvalues --    1.66424   1.67562   1.68117   1.68599   1.69300
 Alpha virt. eigenvalues --    1.69942   1.72462   1.73863   1.74789   1.77423
 Alpha virt. eigenvalues --    1.78196   1.80324   1.80468   1.82856   1.83830
 Alpha virt. eigenvalues --    1.85657   1.87309   1.89493   1.91453   1.92584
 Alpha virt. eigenvalues --    1.94622   1.96008   1.97144   1.99689   2.01718
 Alpha virt. eigenvalues --    2.04189   2.05369   2.06129   2.07711   2.08547
 Alpha virt. eigenvalues --    2.10435   2.10987   2.14806   2.16355   2.17674
 Alpha virt. eigenvalues --    2.20058   2.20284   2.23262   2.24483   2.25314
 Alpha virt. eigenvalues --    2.28681   2.29439   2.31565   2.32843   2.34749
 Alpha virt. eigenvalues --    2.37437   2.38546   2.39138   2.40273   2.44411
 Alpha virt. eigenvalues --    2.46052   2.46592   2.48818   2.49650   2.51339
 Alpha virt. eigenvalues --    2.51903   2.52654   2.52783   2.53687   2.54239
 Alpha virt. eigenvalues --    2.54839   2.58372   2.59761   2.61825   2.62522
 Alpha virt. eigenvalues --    2.65066   2.65874   2.67171   2.70206   2.70976
 Alpha virt. eigenvalues --    2.72864   2.73322   2.75568   2.76106   2.77743
 Alpha virt. eigenvalues --    2.78649   2.80153   2.80970   2.82016   2.82598
 Alpha virt. eigenvalues --    2.82880   2.83811   2.84007   2.84346   2.86060
 Alpha virt. eigenvalues --    2.88078   2.89468   2.91011   2.92782   2.94284
 Alpha virt. eigenvalues --    2.95582   2.97107   3.00772   3.03552   3.05839
 Alpha virt. eigenvalues --    3.08733   3.12505   3.16998   3.19115   3.22725
 Alpha virt. eigenvalues --    3.24939   3.28299   3.29078   3.35525   3.36732
 Alpha virt. eigenvalues --    3.44224   3.46402   3.48402   3.52682   3.57344
 Alpha virt. eigenvalues --    3.60165   3.61139   3.62820   3.63865   3.64808
 Alpha virt. eigenvalues --    3.73049   3.78594   3.79327   3.79889   3.80503
 Alpha virt. eigenvalues --    3.83756   3.87482   3.92422   3.95297   3.98666
 Alpha virt. eigenvalues --    4.07719   4.10432   4.25459   4.43071   4.43137
 Alpha virt. eigenvalues --    4.44465   4.58137   4.70016   4.74302   4.84645
 Alpha virt. eigenvalues --    4.85731   4.91880   4.99088   4.99407   5.11507
 Alpha virt. eigenvalues --    5.16726   5.20234   5.30398   5.51976   5.66164
 Alpha virt. eigenvalues --    5.79502  23.65769  23.67079  23.70956  23.71170
 Alpha virt. eigenvalues --   23.73365  23.77667  23.84458  23.88358  24.07720
 Alpha virt. eigenvalues --   35.31302  35.47522  35.49274  35.62271  49.79343
 Alpha virt. eigenvalues --   49.89111  49.92047
          Condensed to atoms (all electrons):
               1          2          3          4          5          6
     1  O    8.053830   0.249176  -0.132627   0.071528   0.013348   0.000178
     2  C    0.249176   9.945482  -0.673480  -0.456456   0.173240   0.036219
     3  N   -0.132627  -0.673480   7.779737  -0.004778  -0.393973   0.020457
     4  C    0.071528  -0.456456  -0.004778   9.229953  -1.601974  -0.038634
     5  C    0.013348   0.173240  -0.393973  -1.601974   7.704999   0.190878
     6  O    0.000178   0.036219   0.020457  -0.038634   0.190878   7.788017
     7  O    0.000159   0.085702   0.053963  -0.165865   0.431910  -0.112953
     8  C   -0.154617  -1.062224   0.449487  -2.295978   1.179704  -0.039515
     9  C    0.088804   0.286890  -0.174614   1.041826  -0.773875  -0.023798
    10  C    0.008173  -0.151446  -0.003466  -0.418717  -0.074107   0.005645
    11  N   -0.000074   0.011465  -0.003394   0.024967  -0.004032   0.000090
    12  C    0.001844   0.041285  -0.017247   0.008222  -0.091160   0.002597
    13  N   -0.005275   0.076555   0.026682   0.035385  -0.035453   0.000114
    14  C    0.140012  -2.925591  -0.187845  -0.051328  -0.202092  -0.004595
    15  C   -0.030997   0.870617   0.057016  -0.134271   0.079363  -0.001874
    16  N    0.004615  -0.031222   0.000444   0.001965  -0.001761   0.000001
    17  H    0.002356   0.029917   0.262222   0.005769  -0.075535   0.025309
    18  H   -0.003864   0.059588  -0.076286   0.527291  -0.125785   0.018763
    19  H    0.000869   0.003109   0.003507   0.073584  -0.033497   0.206303
    20  H    0.001965   0.002194   0.032599   0.059001  -0.153442  -0.011617
    21  H   -0.015431   0.025706  -0.035797  -0.054414   0.095125  -0.005917
    22  H    0.000827   0.021618   0.003477   0.053219  -0.091292  -0.009542
    23  H    0.000032  -0.000450  -0.000140  -0.003424  -0.002052   0.000068
    24  H    0.000747   0.005453  -0.001747  -0.004612  -0.003302  -0.000038
    25  H    0.007085  -0.168774   0.032241   0.015724   0.001305   0.000100
    26  H    0.001273  -0.058774   0.033961   0.030592  -0.025883  -0.000963
    27  H   -0.006344  -0.043090  -0.007578  -0.002232   0.005375   0.000059
    28  H   -0.009921   0.030388  -0.011843   0.006276  -0.004048   0.000053
    29  H    0.000222   0.001776  -0.002268  -0.001343  -0.000054   0.000011
    30  H    0.000713   0.010993   0.001756  -0.000165   0.000172  -0.000004
    31  H    0.001226  -0.004000   0.001148   0.000537  -0.000369   0.000003
               7          8          9         10         11         12
     1  O    0.000159  -0.154617   0.088804   0.008173  -0.000074   0.001844
     2  C    0.085702  -1.062224   0.286890  -0.151446   0.011465   0.041285
     3  N    0.053963   0.449487  -0.174614  -0.003466  -0.003394  -0.017247
     4  C   -0.165865  -2.295978   1.041826  -0.418717   0.024967   0.008222
     5  C    0.431910   1.179704  -0.773875  -0.074107  -0.004032  -0.091160
     6  O   -0.112953  -0.039515  -0.023798   0.005645   0.000090   0.002597
     7  O    7.922191  -0.141219   0.064102  -0.007845   0.002968   0.006208
     8  C   -0.141219  25.563981 -14.592483  -2.027450  -0.242195  -0.510743
     9  C    0.064102 -14.592483  20.171986   0.067051  -0.006800   0.009888
    10  C   -0.007845  -2.027450   0.067051   8.090204   0.603318  -0.193503
    11  N    0.002968  -0.242195  -0.006800   0.603318   6.534611   0.279720
    12  C    0.006208  -0.510743   0.009888  -0.193503   0.279720   5.623997
    13  N    0.001562  -0.331052  -0.064636   0.053255   0.059045   0.179647
    14  C   -0.020988  -0.427183   0.463227   0.045433   0.000544  -0.011677
    15  C   -0.003085   0.159753  -0.142277  -0.011184  -0.001052  -0.003372
    16  N   -0.000016  -0.001545   0.001911  -0.000271   0.000012   0.000019
    17  H    0.062550  -0.128829   0.104879   0.027538   0.000559   0.014811
    18  H   -0.011483   0.069082  -0.130942  -0.016932   0.000131  -0.008683
    19  H    0.015780   0.103259  -0.111417  -0.005966  -0.000216  -0.001462
    20  H    0.001240   0.220570  -0.011448   0.018430   0.001598   0.014832
    21  H   -0.003332   1.242686  -0.830337  -0.038328  -0.006397  -0.008818
    22  H    0.035899  -0.179012  -0.103069   0.524978  -0.073508   0.070579
    23  H    0.000077   0.011552   0.037666   0.004160  -0.078899   0.452480
    24  H    0.000282  -0.146586   0.094396   0.004188   0.011018   0.000777
    25  H    0.000302  -0.020920   0.026018  -0.011392   0.000557  -0.004827
    26  H   -0.004295   0.015056  -0.011624   0.002268  -0.000110  -0.000367
    27  H    0.000241  -0.004404   0.003492   0.000116  -0.000005   0.000172
    28  H   -0.000056  -0.012093   0.004719   0.000167   0.000145   0.000706
    29  H    0.000040  -0.001425   0.000796  -0.000133   0.000010   0.000000
    30  H   -0.000011   0.001080  -0.000794  -0.000103  -0.000004  -0.000028
    31  H    0.000029   0.000694   0.000107   0.000604  -0.000017   0.000088
              13         14         15         16         17         18
     1  O   -0.005275   0.140012  -0.030997   0.004615   0.002356  -0.003864
     2  C    0.076555  -2.925591   0.870617  -0.031222   0.029917   0.059588
     3  N    0.026682  -0.187845   0.057016   0.000444   0.262222  -0.076286
     4  C    0.035385  -0.051328  -0.134271   0.001965   0.005769   0.527291
     5  C   -0.035453  -0.202092   0.079363  -0.001761  -0.075535  -0.125785
     6  O    0.000114  -0.004595  -0.001874   0.000001   0.025309   0.018763
     7  O    0.001562  -0.020988  -0.003085  -0.000016   0.062550  -0.011483
     8  C   -0.331052  -0.427183   0.159753  -0.001545  -0.128829   0.069082
     9  C   -0.064636   0.463227  -0.142277   0.001911   0.104879  -0.130942
    10  C    0.053255   0.045433  -0.011184  -0.000271   0.027538  -0.016932
    11  N    0.059045   0.000544  -0.001052   0.000012   0.000559   0.000131
    12  C    0.179647  -0.011677  -0.003372   0.000019   0.014811  -0.008683
    13  N    6.865333   0.008003  -0.003507   0.000180  -0.006719   0.003133
    14  C    0.008003  10.082091  -1.760673  -0.022760   0.021985  -0.051760
    15  C   -0.003507  -1.760673   7.203047   0.018412  -0.064077   0.001286
    16  N    0.000180  -0.022760   0.018412   6.210332   0.000316  -0.000223
    17  H   -0.006719   0.021985  -0.064077   0.000316   0.434933  -0.001691
    18  H    0.003133  -0.051760   0.001286  -0.000223  -0.001691   0.502656
    19  H    0.000501   0.004583   0.000403  -0.000001  -0.004571  -0.019832
    20  H    0.036490   0.022782  -0.004402   0.000089  -0.000984  -0.010169
    21  H   -0.013411  -0.087643   0.029427  -0.000746  -0.007304  -0.005600
    22  H    0.014731   0.011960  -0.000919   0.000013  -0.001057  -0.003165
    23  H   -0.129412  -0.001146   0.000026  -0.000004   0.000653  -0.000154
    24  H    0.349499   0.005685  -0.001243   0.000054   0.000176  -0.000925
    25  H    0.002631   0.566206  -0.096186   0.002373   0.001437  -0.000264
    26  H    0.001053   0.395988  -0.044894   0.004722  -0.013319   0.003915
    27  H   -0.000338   0.050960   0.355065  -0.018090   0.002943  -0.002564
    28  H    0.001462  -0.040431   0.364813  -0.012281   0.001282   0.001056
    29  H    0.000019   0.004081  -0.016374   0.353137   0.000394  -0.000039
    30  H    0.000015  -0.019080  -0.003517   0.338818  -0.000633   0.000033
    31  H   -0.000127   0.024607  -0.029896   0.347743   0.000757   0.000000
              19         20         21         22         23         24
     1  O    0.000869   0.001965  -0.015431   0.000827   0.000032   0.000747
     2  C    0.003109   0.002194   0.025706   0.021618  -0.000450   0.005453
     3  N    0.003507   0.032599  -0.035797   0.003477  -0.000140  -0.001747
     4  C    0.073584   0.059001  -0.054414   0.053219  -0.003424  -0.004612
     5  C   -0.033497  -0.153442   0.095125  -0.091292  -0.002052  -0.003302
     6  O    0.206303  -0.011617  -0.005917  -0.009542   0.000068  -0.000038
     7  O    0.015780   0.001240  -0.003332   0.035899   0.000077   0.000282
     8  C    0.103259   0.220570   1.242686  -0.179012   0.011552  -0.146586
     9  C   -0.111417  -0.011448  -0.830337  -0.103069   0.037666   0.094396
    10  C   -0.005966   0.018430  -0.038328   0.524978   0.004160   0.004188
    11  N   -0.000216   0.001598  -0.006397  -0.073508  -0.078899   0.011018
    12  C   -0.001462   0.014832  -0.008818   0.070579   0.452480   0.000777
    13  N    0.000501   0.036490  -0.013411   0.014731  -0.129412   0.349499
    14  C    0.004583   0.022782  -0.087643   0.011960  -0.001146   0.005685
    15  C    0.000403  -0.004402   0.029427  -0.000919   0.000026  -0.001243
    16  N   -0.000001   0.000089  -0.000746   0.000013  -0.000004   0.000054
    17  H   -0.004571  -0.000984  -0.007304  -0.001057   0.000653   0.000176
    18  H   -0.019832  -0.010169  -0.005600  -0.003165  -0.000154  -0.000925
    19  H    0.487930   0.002467   0.007114   0.002959  -0.000030  -0.000093
    20  H    0.002467   0.593233  -0.050815   0.006016  -0.000462   0.001883
    21  H    0.007114  -0.050815   0.594731  -0.004165   0.002176  -0.011094
    22  H    0.002959   0.006016  -0.004165   0.529895   0.001271   0.001460
    23  H   -0.000030  -0.000462   0.002176   0.001271   0.517282  -0.001772
    24  H   -0.000093   0.001883  -0.011094   0.001460  -0.001772   0.397381
    25  H    0.000049  -0.000012  -0.001225  -0.000695  -0.000432   0.000166
    26  H    0.000064   0.000822  -0.001522  -0.000129   0.000001   0.000018
    27  H    0.000044  -0.000189   0.000352   0.000091   0.000004  -0.000008
    28  H   -0.000065   0.000469  -0.002523   0.000010  -0.000020   0.000211
    29  H    0.000002  -0.000026  -0.000108   0.000009  -0.000002   0.000012
    30  H    0.000001  -0.000011   0.000189  -0.000016   0.000000  -0.000010
    31  H   -0.000003   0.000044  -0.000062   0.000028   0.000012  -0.000024
              25         26         27         28         29         30
     1  O    0.007085   0.001273  -0.006344  -0.009921   0.000222   0.000713
     2  C   -0.168774  -0.058774  -0.043090   0.030388   0.001776   0.010993
     3  N    0.032241   0.033961  -0.007578  -0.011843  -0.002268   0.001756
     4  C    0.015724   0.030592  -0.002232   0.006276  -0.001343  -0.000165
     5  C    0.001305  -0.025883   0.005375  -0.004048  -0.000054   0.000172
     6  O    0.000100  -0.000963   0.000059   0.000053   0.000011  -0.000004
     7  O    0.000302  -0.004295   0.000241  -0.000056   0.000040  -0.000011
     8  C   -0.020920   0.015056  -0.004404  -0.012093  -0.001425   0.001080
     9  C    0.026018  -0.011624   0.003492   0.004719   0.000796  -0.000794
    10  C   -0.011392   0.002268   0.000116   0.000167  -0.000133  -0.000103
    11  N    0.000557  -0.000110  -0.000005   0.000145   0.000010  -0.000004
    12  C   -0.004827  -0.000367   0.000172   0.000706   0.000000  -0.000028
    13  N    0.002631   0.001053  -0.000338   0.001462   0.000019   0.000015
    14  C    0.566206   0.395988   0.050960  -0.040431   0.004081  -0.019080
    15  C   -0.096186  -0.044894   0.355065   0.364813  -0.016374  -0.003517
    16  N    0.002373   0.004722  -0.018090  -0.012281   0.353137   0.338818
    17  H    0.001437  -0.013319   0.002943   0.001282   0.000394  -0.000633
    18  H   -0.000264   0.003915  -0.002564   0.001056  -0.000039   0.000033
    19  H    0.000049   0.000064   0.000044  -0.000065   0.000002   0.000001
    20  H   -0.000012   0.000822  -0.000189   0.000469  -0.000026  -0.000011
    21  H   -0.001225  -0.001522   0.000352  -0.002523  -0.000108   0.000189
    22  H   -0.000695  -0.000129   0.000091   0.000010   0.000009  -0.000016
    23  H   -0.000432   0.000001   0.000004  -0.000020  -0.000002   0.000000
    24  H    0.000166   0.000018  -0.000008   0.000211   0.000012  -0.000010
    25  H    0.540257  -0.079123   0.011077  -0.018577   0.003505  -0.000096
    26  H   -0.079123   0.577304  -0.024169   0.015939  -0.000387   0.002489
    27  H    0.011077  -0.024169   0.438674  -0.025722  -0.006695  -0.004744
    28  H   -0.018577   0.015939  -0.025722   0.441443   0.002277  -0.001950
    29  H    0.003505  -0.000387  -0.006695   0.002277   0.364052  -0.011500
    30  H   -0.000096   0.002489  -0.004744  -0.001950  -0.011500   0.347160
    31  H   -0.001125   0.001501   0.002774  -0.008522  -0.031692  -0.013278
              31
     1  O    0.001226
     2  C   -0.004000
     3  N    0.001148
     4  C    0.000537
     5  C   -0.000369
     6  O    0.000003
     7  O    0.000029
     8  C    0.000694
     9  C    0.000107
    10  C    0.000604
    11  N   -0.000017
    12  C    0.000088
    13  N   -0.000127
    14  C    0.024607
    15  C   -0.029896
    16  N    0.347743
    17  H    0.000757
    18  H    0.000000
    19  H   -0.000003
    20  H    0.000044
    21  H   -0.000062
    22  H    0.000028
    23  H    0.000012
    24  H   -0.000024
    25  H   -0.001125
    26  H    0.001501
    27  H    0.002774
    28  H   -0.008522
    29  H   -0.031692
    30  H   -0.013278
    31  H    0.368509
 Mulliken charges:
               1
     1  O   -0.289832
     2  C   -0.391865
     3  N   -0.031616
     4  C    0.048349
     5  C   -0.181731
     6  O   -0.045413
     7  O   -0.214053
     8  C   -0.697431
     9  C    0.510355
    10  C   -0.494684
    11  N   -0.114058
    12  C    0.144017
    13  N   -0.125364
    14  C   -0.033355
    15  C   -0.785425
    16  N   -0.196238
    17  H    0.303933
    18  H    0.283426
    19  H    0.264628
    20  H    0.226852
    21  H    0.187484
    22  H    0.187526
    23  H    0.190938
    24  H    0.298047
    25  H    0.192614
    26  H    0.178595
    27  H    0.274732
    28  H    0.276635
    29  H    0.341705
    30  H    0.352526
    31  H    0.338702
 Sum of Mulliken charges =   1.00000
 Mulliken charges with hydrogens summed into heavy atoms:
               1
     1  O   -0.289832
     2  C   -0.391865
     3  N    0.272317
     4  C    0.331775
     5  C   -0.181731
     6  O    0.219215
     7  O   -0.214053
     8  C   -0.283096
     9  C    0.510355
    10  C   -0.307157
    11  N   -0.114058
    12  C    0.334955
    13  N    0.172683
    14  C    0.337854
    15  C   -0.234058
    16  N    0.836695
 APT charges:
               1
     1  O   -0.299490
     2  C   -0.462950
     3  N   -0.300716
     4  C   -0.236761
     5  C   -0.902479
     6  O    0.108521
     7  O   -0.007186
     8  C   -1.430102
     9  C    0.679927
    10  C   -0.695059
    11  N   -0.213563
    12  C   -0.244740
    13  N   -0.495773
    14  C   -0.508103
    15  C   -0.388825
    16  N   -1.696805
    17  H    0.499513
    18  H    0.487610
    19  H    0.539476
    20  H    0.668944
    21  H    0.223991
    22  H    0.421287
    23  H    0.936301
    24  H    0.565271
    25  H    0.251314
    26  H    0.432642
    27  H    0.465069
    28  H    0.228640
    29  H    0.717912
    30  H    1.215438
    31  H    0.440695
 Sum of APT charges =   1.00000
 APT charges with hydrogens summed into heavy atoms:
               1
     1  O   -0.299490
     2  C   -0.462950
     3  N    0.198797
     4  C    0.250849
     5  C   -0.902479
     6  O    0.647997
     7  O   -0.007186
     8  C   -0.537167
     9  C    0.679927
    10  C   -0.273771
    11  N   -0.213563
    12  C    0.691561
    13  N    0.069498
    14  C    0.175852
    15  C    0.304884
    16  N    0.677240
 Electronic spatial extent (au):  <R**2>=           4674.6106
 Charge=              1.0000 electrons
 Dipole moment (field-independent basis, Debye):
    X=             19.4458    Y=              4.4315    Z=              1.1647  Tot=             19.9783
 Quadrupole moment (field-independent basis, Debye-Ang):
   XX=              0.5243   YY=            -85.6888   ZZ=            -93.8673
   XY=              1.9871   XZ=            -33.6415   YZ=             -7.7201
 Traceless Quadrupole moment (field-independent basis, Debye-Ang):
   XX=             60.2016   YY=            -26.0115   ZZ=            -34.1900
   XY=              1.9871   XZ=            -33.6415   YZ=             -7.7201
 Octapole moment (field-independent basis, Debye-Ang**2):
  XXX=            667.5460  YYY=            124.6159  ZZZ=             40.8806  XYY=             67.8389
  XXY=             92.8769  XXZ=            -14.1651  XZZ=             78.2478  YZZ=             -1.1764
  YYZ=              7.1886  XYZ=             -0.5386
 Hexadecapole moment (field-independent basis, Debye-Ang**3):
 XXXX=          -1558.3494 YYYY=          -1373.4061 ZZZZ=           -886.4587 XXXY=            163.1966
 XXXZ=           -618.1064 YYYX=           -262.2269 YYYZ=            154.1536 ZZZX=           -344.0165
 ZZZY=            175.9971 XXYY=           -725.1615 XXZZ=           -722.9869 YYZZ=           -322.1210
 XXYZ=             15.6816 YYXZ=            -64.6961 ZZXY=             24.6071
 N-N= 1.133054073299D+03 E-N=-4.112191590755D+03  KE= 7.937649245149D+02
  Exact polarizability:   0.000   0.000   0.000   0.000   0.000   0.000
 Approx polarizability: 173.950   6.756 202.771   6.567  16.452 225.813
 Calling FoFJK, ICntrl=    100147 FMM=F ISym2X=0 I1Cent= 0 IOpClX= 0 NMat=1 NMatS=1 NMatT=0.
 -------------------------------------------------------------------
 Center     Atomic                   Forces (Hartrees/Bohr)
 Number     Number              X              Y              Z
 -------------------------------------------------------------------
      1        8           0.012380613    0.003259704   -0.006176499
      2        6          -0.021200480   -0.006129886    0.010715883
      3        7           0.014852813    0.005409021   -0.000226472
      4        6          -0.000846400    0.002032568    0.000757681
      5        6          -0.004615280   -0.007372214   -0.000425660
      6        8           0.002694565   -0.000043774   -0.004734555
      7        8           0.002871516   -0.000048590    0.001094692
      8        6          -0.006723063    0.007422249   -0.003625650
      9        6           0.003136797    0.001420792    0.006565743
     10        6          -0.002560950   -0.003666570   -0.009076594
     11        7           0.002089575   -0.001197046    0.003256521
     12        6          -0.002565539   -0.001332794   -0.005938692
     13        7           0.003988551    0.000693520    0.006599450
     14        6           0.008344430   -0.002162794   -0.013123521
     15        6          -0.024547229   -0.000845240    0.021297000
     16        7           0.005504665    0.001109219   -0.002701860
     17        1          -0.002165023   -0.001890526   -0.004136929
     18        1           0.001744231   -0.002142244    0.001156770
     19        1          -0.002248472    0.000778428    0.004188006
     20        1          -0.000625170   -0.000724106    0.002419529
     21        1           0.001529979    0.000327230    0.003220409
     22        1          -0.001173480   -0.000628797   -0.002021959
     23        1          -0.000958291    0.002228560   -0.001304702
     24        1          -0.000903840    0.002284443    0.000626455
     25        1          -0.002279004   -0.000499274   -0.000437241
     26        1          -0.001208447   -0.001440883   -0.000298846
     27        1           0.006462049    0.000851426   -0.001077730
     28        1           0.005316943    0.002911649   -0.001825684
     29        1           0.001681409   -0.004092070   -0.002055281
     30        1           0.002729301    0.002086554    0.001984768
     31        1          -0.000706771    0.001401445   -0.004695031
 -------------------------------------------------------------------
 Cartesian Forces:  Max     0.024547229 RMS     0.005830237
 FormGI is forming the generalized inverse of G from B-inverse, IUseBI=4.

 GradGradGradGradGradGradGradGradGradGradGradGradGradGradGradGradGradGrad
 Berny optimization.
 Internal  Forces:  Max     0.017392983 RMS     0.003420531
 Search for a local minimum.
 Step number   1 out of a maximum of  167
 All quantities printed in internal units (Hartrees-Bohrs-Radians)
 Mixed Optimization -- RFO/linear search
 Second derivative matrix not updated -- analytic derivatives used.
 ITU=  0
     Eigenvalues ---   -0.00067   0.00002   0.00155   0.00190   0.00202
     Eigenvalues ---    0.00346   0.00493   0.00523   0.00820   0.00889
     Eigenvalues ---    0.00981   0.02078   0.02146   0.02599   0.03352
     Eigenvalues ---    0.03818   0.03844   0.03882   0.04124   0.04269
     Eigenvalues ---    0.04325   0.04720   0.04916   0.05004   0.05127
     Eigenvalues ---    0.05358   0.05392   0.05896   0.06078   0.07491
     Eigenvalues ---    0.08223   0.08612   0.10381   0.10624   0.11065
     Eigenvalues ---    0.11661   0.11791   0.12183   0.13039   0.13254
     Eigenvalues ---    0.13764   0.15932   0.16124   0.16339   0.16550
     Eigenvalues ---    0.17675   0.19169   0.19391   0.20487   0.22033
     Eigenvalues ---    0.22846   0.23088   0.23950   0.24255   0.24331
     Eigenvalues ---    0.25487   0.29276   0.29548   0.31303   0.32582
     Eigenvalues ---    0.32627   0.32965   0.33220   0.33504   0.34061
     Eigenvalues ---    0.34224   0.34260   0.34742   0.35099   0.35420
     Eigenvalues ---    0.37637   0.37833   0.38521   0.41345   0.42853
     Eigenvalues ---    0.43388   0.43559   0.44462   0.44482   0.45688
     Eigenvalues ---    0.46864   0.47636   0.47975   0.53409   0.57763
     Eigenvalues ---    0.78864   0.89010
 RFO step:  Lambda=-9.38265780D-03 EMin=-6.73203263D-04
 Linear search not attempted -- first point.
 Iteration  1 RMS(Cart)=  0.13920221 RMS(Int)=  0.01903837
 Iteration  2 RMS(Cart)=  0.03980518 RMS(Int)=  0.00101544
 Iteration  3 RMS(Cart)=  0.00147445 RMS(Int)=  0.00041727
 Iteration  4 RMS(Cart)=  0.00000242 RMS(Int)=  0.00041727
 Iteration  5 RMS(Cart)=  0.00000000 RMS(Int)=  0.00041727
 Variable       Old X    -DE/DX   Delta X   Delta X   Delta X     New X
                                 (Linear)    (Quad)   (Total)
    R1        2.31752  -0.00405   0.00000  -0.00434  -0.00434   2.31318
    R2        2.56844  -0.00732   0.00000  -0.03293  -0.03293   2.53552
    R3        2.87474   0.00284   0.00000   0.03197   0.03197   2.90671
    R4        2.73282   0.00579   0.00000   0.01547   0.01547   2.74829
    R5        1.90644   0.00442   0.00000   0.01062   0.01062   1.91706
    R6        2.87726   0.00591   0.00000   0.02715   0.02715   2.90441
    R7        2.90647   0.00834   0.00000   0.02315   0.02315   2.92962
    R8        2.06516   0.00194   0.00000   0.00546   0.00546   2.07062
    R9        2.54442  -0.00090   0.00000  -0.01193  -0.01193   2.53248
   R10        2.26979  -0.00046   0.00000   0.00119   0.00119   2.27098
   R11        1.81821   0.00404   0.00000   0.00751   0.00751   1.82572
   R12        2.83790   0.00073   0.00000  -0.00532  -0.00532   2.83258
   R13        2.06899   0.00206   0.00000   0.00631   0.00631   2.07531
   R14        2.05769   0.00250   0.00000   0.00848   0.00848   2.06617
   R15        2.57860   0.01033   0.00000   0.02059   0.02058   2.59919
   R16        2.61540   0.00339   0.00000   0.00373   0.00375   2.61915
   R17        2.61177  -0.00262   0.00000  -0.01048  -0.01050   2.60126
   R18        2.03406   0.00111   0.00000   0.00380   0.00380   2.03786
   R19        2.47944  -0.00025   0.00000  -0.00327  -0.00327   2.47617
   R20        2.56593   0.00700   0.00000   0.01659   0.01661   2.58254
   R21        2.03318   0.00270   0.00000   0.00664   0.00664   2.03983
   R22        1.90261   0.00186   0.00000   0.00381   0.00381   1.90642
   R23        2.87574   0.00307   0.00000   0.00037   0.00037   2.87611
   R24        2.07107   0.00084   0.00000   0.00266   0.00266   2.07373
   R25        2.06951   0.00108   0.00000  -0.00213  -0.00213   2.06738
   R26        2.80964   0.01187   0.00000   0.06176   0.06176   2.87141
   R27        2.05871   0.00056   0.00000  -0.00062  -0.00062   2.05809
   R28        2.05793   0.00073   0.00000  -0.00042  -0.00042   2.05751
   R29        1.92737   0.00476   0.00000   0.00875   0.00875   1.93612
   R30        1.92926   0.00392   0.00000   0.00704   0.00704   1.93630
   R31        1.92741   0.00483   0.00000   0.00917   0.00917   1.93658
    A1        2.11666   0.01739   0.00000   0.06106   0.06095   2.17761
    A2        2.15796  -0.01417   0.00000  -0.06096  -0.06104   2.09692
    A3        2.00856  -0.00323   0.00000  -0.00005  -0.00014   2.00843
    A4        2.11819   0.00765   0.00000   0.03686   0.03652   2.15471
    A5        2.12996  -0.00208   0.00000  -0.00119  -0.00152   2.12843
    A6        2.03198  -0.00552   0.00000  -0.03215  -0.03250   1.99948
    A7        1.88025  -0.00510   0.00000  -0.03040  -0.03057   1.84967
    A8        1.97398   0.00129   0.00000   0.00519   0.00539   1.97937
    A9        1.89711   0.00126   0.00000   0.00290   0.00243   1.89954
   A10        1.95351   0.00430   0.00000   0.02834   0.02842   1.98193
   A11        1.90963  -0.00112   0.00000  -0.02001  -0.02038   1.88925
   A12        1.84817  -0.00060   0.00000   0.01340   0.01346   1.86163
   A13        2.01764   0.00411   0.00000   0.01747   0.01742   2.03506
   A14        2.15246  -0.00413   0.00000  -0.01849  -0.01854   2.13392
   A15        2.11294   0.00004   0.00000   0.00132   0.00127   2.11420
   A16        1.93500   0.00474   0.00000   0.02643   0.02643   1.96144
   A17        2.03857  -0.00116   0.00000  -0.01803  -0.01797   2.02060
   A18        1.89424  -0.00067   0.00000  -0.00603  -0.00593   1.88831
   A19        1.86669  -0.00080   0.00000  -0.01121  -0.01115   1.85554
   A20        1.91212   0.00200   0.00000   0.02432   0.02422   1.93634
   A21        1.88936   0.00125   0.00000   0.01830   0.01811   1.90748
   A22        1.85392  -0.00067   0.00000  -0.00752  -0.00783   1.84609
   A23        2.36037   0.00084   0.00000  -0.00800  -0.00805   2.35233
   A24        2.10033  -0.00038   0.00000   0.00791   0.00788   2.10822
   A25        1.82166  -0.00046   0.00000   0.00055   0.00056   1.82222
   A26        1.94037  -0.00137   0.00000  -0.00469  -0.00469   1.93568
   A27        2.22351   0.00282   0.00000   0.01542   0.01542   2.23893
   A28        2.11927  -0.00146   0.00000  -0.01070  -0.01070   2.10857
   A29        1.83356   0.00335   0.00000   0.01051   0.01050   1.84406
   A30        1.94725   0.00016   0.00000  -0.00228  -0.00225   1.94500
   A31        2.20100  -0.00058   0.00000  -0.00022  -0.00023   2.20077
   A32        2.13494   0.00042   0.00000   0.00249   0.00248   2.13742
   A33        1.88193  -0.00168   0.00000  -0.00411  -0.00416   1.87777
   A34        2.18936   0.00224   0.00000   0.01338   0.01325   2.20261
   A35        2.21189  -0.00055   0.00000  -0.00916  -0.00928   2.20262
   A36        1.95872  -0.01232   0.00000  -0.07192  -0.07214   1.88658
   A37        1.90051   0.00225   0.00000  -0.01944  -0.02003   1.88048
   A38        1.90448   0.00312   0.00000   0.03605   0.03682   1.94130
   A39        1.91490   0.00497   0.00000   0.01841   0.01654   1.93145
   A40        1.91885   0.00444   0.00000   0.02955   0.02988   1.94873
   A41        1.86384  -0.00197   0.00000   0.01111   0.01067   1.87452
   A42        1.95453  -0.00355   0.00000  -0.01605  -0.01553   1.93899
   A43        1.90469   0.00478   0.00000   0.05416   0.05318   1.95787
   A44        1.90210   0.00456   0.00000   0.03368   0.03261   1.93471
   A45        1.91711  -0.00289   0.00000  -0.05203  -0.05174   1.86537
   A46        1.91823  -0.00275   0.00000  -0.03848  -0.03839   1.87984
   A47        1.86493   0.00014   0.00000   0.02170   0.01865   1.88358
   A48        1.94253   0.00097   0.00000   0.00646   0.00647   1.94901
   A49        1.95144  -0.00105   0.00000  -0.00901  -0.00900   1.94244
   A50        1.94124   0.00097   0.00000   0.00033   0.00033   1.94157
   A51        1.87242   0.00009   0.00000   0.00440   0.00441   1.87683
   A52        1.88008  -0.00117   0.00000  -0.00641  -0.00641   1.87368
   A53        1.87243   0.00011   0.00000   0.00433   0.00432   1.87675
    D1       -0.01618   0.00008   0.00000   0.02932   0.02897   0.01279
    D2       -3.07086  -0.00038   0.00000  -0.01925  -0.02004  -3.09090
    D3        3.12299   0.00042   0.00000   0.05372   0.05451  -3.10569
    D4        0.06831  -0.00004   0.00000   0.00515   0.00550   0.07381
    D5        0.08495   0.00026   0.00000   0.25435   0.25477   0.33972
    D6       -2.03859   0.00049   0.00000   0.29158   0.29045  -1.74813
    D7        2.21624  -0.00012   0.00000   0.26920   0.26871   2.48495
    D8       -3.05415  -0.00014   0.00000   0.22910   0.23032  -2.82383
    D9        1.10550   0.00009   0.00000   0.26633   0.26600   1.37150
   D10       -0.92286  -0.00052   0.00000   0.24396   0.24427  -0.67860
   D11       -2.85022   0.00232   0.00000  -0.00601  -0.00587  -2.85609
   D12        1.26462  -0.00033   0.00000  -0.02352  -0.02333   1.24129
   D13       -0.78264  -0.00118   0.00000  -0.04519  -0.04506  -0.82771
   D14        0.20911   0.00287   0.00000   0.04120   0.04103   0.25014
   D15       -1.95924   0.00022   0.00000   0.02368   0.02357  -1.93567
   D16        2.27669  -0.00063   0.00000   0.00202   0.00183   2.27852
   D17        2.89441  -0.00040   0.00000   0.04749   0.04783   2.94224
   D18       -0.26562   0.00051   0.00000   0.06638   0.06667  -0.19896
   D19       -1.20813   0.00048   0.00000   0.05138   0.05142  -1.15671
   D20        1.91503   0.00139   0.00000   0.07028   0.07025   1.98528
   D21        0.83488   0.00161   0.00000   0.07233   0.07203   0.90691
   D22       -2.32515   0.00253   0.00000   0.09122   0.09087  -2.23429
   D23        0.99105  -0.00250   0.00000  -0.05071  -0.05064   0.94041
   D24       -3.12106  -0.00124   0.00000  -0.03653  -0.03648   3.12564
   D25       -1.12758  -0.00274   0.00000  -0.05384  -0.05383  -1.18141
   D26       -1.13672   0.00001   0.00000  -0.03592  -0.03584  -1.17256
   D27        1.03436   0.00128   0.00000  -0.02174  -0.02168   1.01268
   D28        3.02783  -0.00023   0.00000  -0.03905  -0.03902   2.98881
   D29        3.06684  -0.00063   0.00000  -0.03561  -0.03569   3.03114
   D30       -1.04528   0.00064   0.00000  -0.02143  -0.02153  -1.06681
   D31        0.94820  -0.00086   0.00000  -0.03875  -0.03888   0.90932
   D32       -0.05555   0.00068   0.00000   0.03212   0.03221  -0.02334
   D33        3.10403  -0.00017   0.00000   0.01393   0.01384   3.11786
   D34        0.61609  -0.00002   0.00000  -0.02778  -0.02776   0.58834
   D35       -2.57660   0.00005   0.00000  -0.01323  -0.01324  -2.58984
   D36       -1.54587   0.00008   0.00000  -0.02636  -0.02617  -1.57205
   D37        1.54462   0.00015   0.00000  -0.01181  -0.01165   1.53296
   D38        2.72278  -0.00089   0.00000  -0.04048  -0.04064   2.68214
   D39       -0.46991  -0.00081   0.00000  -0.02593  -0.02612  -0.49603
   D40        3.10171   0.00016   0.00000   0.01297   0.01284   3.11455
   D41       -0.04850   0.00022   0.00000   0.01810   0.01806  -0.03044
   D42        0.00564   0.00010   0.00000  -0.00019  -0.00024   0.00540
   D43        3.13862   0.00016   0.00000   0.00494   0.00498  -3.13959
   D44       -3.10791   0.00003   0.00000  -0.00625  -0.00629  -3.11420
   D45        0.03830  -0.00050   0.00000  -0.03075  -0.03097   0.00732
   D46       -0.00345   0.00012   0.00000   0.00402   0.00404   0.00059
   D47       -3.14043  -0.00041   0.00000  -0.02049  -0.02064   3.12211
   D48       -0.00567  -0.00029   0.00000  -0.00380  -0.00378  -0.00945
   D49       -3.13924  -0.00037   0.00000  -0.00871  -0.00870   3.13524
   D50        0.00333   0.00037   0.00000   0.00645   0.00647   0.00980
   D51       -3.13623   0.00038   0.00000   0.00842   0.00835  -3.12789
   D52        0.00006  -0.00031   0.00000  -0.00678  -0.00677  -0.00672
   D53        3.13696   0.00024   0.00000   0.01821   0.01798  -3.12824
   D54        3.13971  -0.00032   0.00000  -0.00866  -0.00858   3.13113
   D55       -0.00657   0.00023   0.00000   0.01633   0.01618   0.00961
   D56       -3.13052   0.00027   0.00000   0.15396   0.15379  -2.97673
   D57        1.02622   0.00296   0.00000   0.19288   0.19355   1.21976
   D58       -1.00444  -0.00240   0.00000   0.11807   0.11724  -0.88720
   D59       -1.01523  -0.00164   0.00000   0.09415   0.09391  -0.92132
   D60        3.14150   0.00106   0.00000   0.13307   0.13367  -3.00801
   D61        1.11085  -0.00430   0.00000   0.05826   0.05737   1.16822
   D62        1.02957   0.00152   0.00000   0.13595   0.13618   1.16575
   D63       -1.09688   0.00421   0.00000   0.17487   0.17594  -0.92094
   D64       -3.12753  -0.00114   0.00000   0.10006   0.09963  -3.02790
   D65       -1.04681   0.00001   0.00000  -0.00103  -0.00106  -1.04787
   D66       -3.14056  -0.00006   0.00000  -0.00494  -0.00495   3.13767
   D67        1.04976  -0.00016   0.00000  -0.00457  -0.00459   1.04517
   D68        1.07250   0.00169   0.00000   0.02089   0.02069   1.09319
   D69       -1.02125   0.00162   0.00000   0.01698   0.01680  -1.00445
   D70       -3.11412   0.00152   0.00000   0.01735   0.01716  -3.09696
   D71        3.11957  -0.00149   0.00000  -0.00638  -0.00618   3.11339
   D72        1.02582  -0.00156   0.00000  -0.01029  -0.01008   1.01574
   D73       -1.06705  -0.00166   0.00000  -0.00992  -0.00971  -1.07676
         Item               Value     Threshold  Converged?
 Maximum Force            0.017393     0.000450     NO 
 RMS     Force            0.003421     0.000300     NO 
 Maximum Displacement     0.802454     0.001800     NO 
 RMS     Displacement     0.163804     0.001200     NO 
 Predicted change in Energy=-5.513342D-03
 GradGradGradGradGradGradGradGradGradGradGradGradGradGradGradGradGradGrad

                          Input orientation:                          
 ---------------------------------------------------------------------
 Center     Atomic      Atomic             Coordinates (Angstroms)
 Number     Number       Type             X           Y           Z
 ---------------------------------------------------------------------
      1          8           0        1.211025    0.482368    1.653595
      2          6           0        1.140703   -0.193884    0.635700
      3          7           0        0.104161   -0.981258    0.310298
      4          6           0       -1.087724   -1.118184    1.132334
      5          6           0       -1.802645   -2.383966    0.633436
      6          8           0       -2.804155   -2.846767    1.394192
      7          8           0       -1.488187   -2.939163   -0.384934
      8          6           0       -1.987565    0.144215    1.127619
      9          6           0       -2.401772    0.644267   -0.223376
     10          6           0       -2.695348    0.049610   -1.428367
     11          7           0       -3.061753    0.990392   -2.364050
     12          6           0       -3.007287    2.144239   -1.745472
     13          7           0       -2.608152    1.996473   -0.446815
     14          6           0        2.279963   -0.156032   -0.397064
     15          6           0        3.525553    0.381669    0.292706
     16          7           0        4.628081    0.666331   -0.713389
     17          1           0        0.109142   -1.557610   -0.524529
     18          1           0       -0.783414   -1.283246    2.171932
     19          1           0       -2.935190   -2.317471    2.191738
     20          1           0       -2.864384   -0.057374    1.757384
     21          1           0       -1.423596    0.925334    1.644586
     22          1           0       -2.663015   -0.998079   -1.681795
     23          1           0       -3.243545    3.106790   -2.173079
     24          1           0       -2.501512    2.735549    0.231517
     25          1           0        1.970474    0.510384   -1.212130
     26          1           0        2.454051   -1.144987   -0.831246
     27          1           0        3.931954   -0.323920    1.015967
     28          1           0        3.307700    1.310721    0.816974
     29          1           0        4.900472   -0.178356   -1.225254
     30          1           0        5.467001    1.032048   -0.252559
     31          1           0        4.328918    1.360150   -1.405718
 ---------------------------------------------------------------------
                    Distance matrix (angstroms):
                    1          2          3          4          5
     1  O    0.000000
     2  C    1.224080   0.000000
     3  N    2.274158   1.341738   0.000000
     4  C    2.849162   2.463100   1.454332   0.000000
     5  C    4.282382   3.668754   2.389125   1.536950   0.000000
     6  O    5.222269   4.814042   3.621223   2.450042   1.340133
     7  O    4.811259   3.935646   2.617692   2.403838   1.201751
     8  C    3.259137   3.184706   2.511976   1.550286   2.582656
     9  C    4.074497   3.740272   3.034278   2.582809   3.203635
    10  C    4.994548   4.362905   3.452954   3.241200   3.312135
    11  N    5.886951   5.297325   4.589396   4.535150   4.685783
    12  C    5.666535   5.323779   4.865802   4.754986   5.254998
    13  N    4.614147   4.474753   4.098384   3.808740   4.583015
    14  C    2.399038   1.538164   2.432174   3.821794   4.763749
    15  C    2.686857   2.477179   3.682906   4.923094   6.012863
    16  N    4.160857   3.836903   4.922229   6.265909   7.243790
    17  H    3.181176   2.066397   1.014466   2.090641   2.382998
    18  H    2.713641   2.692386   2.084387   1.095726   2.148811
    19  H    5.031878   4.852193   3.816142   2.444127   1.927534
    20  H    4.112304   4.161433   3.429268   2.161602   2.793488
    21  H    2.671615   2.974244   2.783786   2.133349   3.481029
    22  H    5.322099   4.526123   3.409690   3.227273   2.832175
    23  H    6.432279   6.164846   5.838359   5.781325   6.332544
    24  H    4.569689   4.691553   4.539868   4.202562   5.182604
    25  H    2.964781   2.144526   2.833003   4.183458   5.100961
    26  H    3.219912   2.186644   2.617615   4.049757   4.669028
    27  H    2.908630   2.820035   3.947412   5.083460   6.105387
    28  H    2.404610   2.644348   3.971467   5.031777   6.308726
    29  H    4.726135   4.195147   5.099722   6.503844   7.297344
    30  H    4.695626   4.583533   5.755889   7.036039   8.080958
    31  H    4.455463   4.092325   5.125960   6.474863   7.468106
                    6          7          8          9         10
     6  O    0.000000
     7  O    2.214859   0.000000
     8  C    3.111889   3.470506   0.000000
     9  C    3.868560   3.701582   1.498935   0.000000
    10  C    4.045698   3.388030   2.653859   1.375430   0.000000
[...]
 02920,0.00006173,-0.00007591,-0.00000377,-0.00000840,0.00005094,0.0000
 1439,-0.00001756,-0.00001363,0.00002712,0.00000529,0.00003877,-0.00004
 120,-0.00009828,-0.00000121,-0.05764654,0.11564197,-0.18385844,-0.0033
 6044,0.00864415,-0.01107628,0.00107271,-0.00038271,0.00170127,-0.00001
 719,0.00024323,-0.00015829,-0.00014691,-0.00005384,0.00004756,-0.00000
 153,-0.00000231,-0.00000284,0.00004142,-0.00002858,0.00002943,-0.00003
 119,0.00005372,0.00000040,-0.00000735,-0.00000522,0.00000555,0.0000075
 9,-0.00000172,0.00000443,0.00003527,0.00000819,-0.00001570,0.06005732,
 -0.12562755,0.19910642,-0.00300752,-0.00104292,0.00577040,0.00217243,0
 .02465643,0.00398918,-0.00030453,-0.00179791,-0.00016977,0.00018899,0.
 00001613,-0.00019482,-0.00011540,0.00020591,0.00031941,0.00008941,-0.0
 0002015,-0.00011829,0.00012822,-0.00017871,-0.00023691,0.00005072,0.00
 001077,-0.00003330,-0.00003355,0.00001193,0.00004321,0.00000254,0.0000
 5321,0.00002924,0.00000124,-0.00000709,-0.00004575,0.00000936,0.000000
 43,0.00001326,-0.00000251,-0.00008145,-0.00003728,-0.05699616,0.034206
 53,0.01293901,0.00309876,-0.02972366,-0.01311275,0.00147685,0.00014506
 ,-0.00040224,-0.00169901,-0.00027888,0.00072144,0.00006116,0.00001565,
 -0.00007328,0.00001215,0.00001933,-0.00000039,-0.00000764,-0.00001798,
 -0.00000344,0.00007301,-0.00004364,-0.00000818,-0.00003393,-0.00000861
 ,0.00000047,0.00000167,-0.00000398,-0.00000202,0.00002351,-0.00000632,
 0.00000563,-0.00137434,0.00754494,0.00369753,0.06055870,0.00023894,0.0
 0123064,0.00117926,-0.00107117,0.00052683,-0.00003906,-0.00072869,0.00
 027807,0.00059793,0.00019805,0.00050945,-0.00022106,0.00004416,-0.0000
 3496,-0.00005165,0.00000150,0.00001281,0.00000397,0.00001030,-0.000013
 34,0.00005267,-0.00011134,-0.00006522,0.00006032,0.00000826,-0.0000451
 4,-0.00001150,-0.00001200,-0.00002208,-0.00001185,-0.00000779,0.000002
 30,0.00002994,-0.00000431,0.00000132,-0.00001922,0.00001467,0.00006865
 ,0.00002611,0.03297850,-0.26758113,-0.09054890,0.00134466,-0.00796533,
 -0.00359429,-0.00019184,0.00024748,0.00041694,0.00013598,0.00048024,0.
 00038122,-0.00000112,-0.00001847,0.00003005,-0.00000810,0.00000323,-0.
 00000307,-0.00000700,0.00004387,0.00000720,-0.00002021,0.00001381,0.00
 001833,0.00002401,0.00001912,-0.00000944,-0.00000522,0.00000204,-0.000
 00032,-0.00002190,-0.00000175,-0.00000097,0.00273983,-0.01703085,-0.00
 742532,-0.03300581,0.28800193,0.00410924,0.00043526,-0.00424083,-0.000
 42430,-0.02156913,-0.00806442,-0.00159125,0.00112940,0.00085592,0.0000
 2288,0.00034174,-0.00038939,0.00008935,0.00000866,-0.00001737,-0.00006
 497,-0.00003663,0.00002782,-0.00008704,0.00003755,-0.00002100,-0.00015
 254,-0.00007021,0.00010228,0.00000924,0.00001826,0.00000646,0.00000166
 ,0.00001147,0.00001490,-0.00000558,0.00000064,-0.00001074,0.00000386,0
 .00000619,-0.00000146,-0.00001421,-0.00003566,-0.00001645,0.01220964,-
 0.08898817,-0.08189803,0.00261883,-0.01191999,-0.00639777,-0.00017239,
 0.00050258,0.00061818,0.00081033,0.00002644,0.00081640,0.00003848,-0.0
 0004216,0.00003623,0.00001870,-0.00000612,-0.00000680,-0.00003584,0.00
 006387,-0.00000321,-0.00004653,0.00002712,-0.00001230,-0.00001063,-0.0
 0000588,0.00001895,0.00000518,-0.00000086,-0.00000019,0.00000038,-0.00
 000436,-0.00000517,-0.00291658,0.02225904,0.01036602,-0.01274555,0.099
 17626,0.08824781,0.00012205,0.00012113,0.00126745,0.00112521,-0.000169
 67,-0.00227423,-0.00041253,-0.00035686,0.00044624,0.00004905,-0.000000
 08,-0.00011229,0.00001518,0.00005813,0.00000466,-0.00003832,-0.0000379
 4,0.00002110,-0.00000902,-0.00004310,0.00001856,-0.00002418,-0.0000000
 1,-0.00000444,-0.00000882,-0.00001829,-0.00003994,-0.00003521,0.000003
 05,0.00002243,-0.00001712,-0.00001443,0.00001752,0.00001534,-0.0000083
 8,0.00000568,-0.00001633,0.00000928,0.00001154,-0.01069473,0.01837014,
 -0.01653787,-0.10145477,0.08641094,-0.07449308,0.00629263,-0.02308723,
 0.02363292,0.00001028,0.00017579,-0.00007302,-0.00004760,0.00000539,0.
 00003823,0.00000277,0.00001400,-0.00001588,-0.00001513,0.00000224,0.00
 001104,0.00000857,-0.00000149,-0.00000749,0.00002136,0.00001586,-0.000
 00198,0.00000381,0.00000048,0.00000167,0.00001246,-0.00000350,-0.00001
 000,-0.00406294,-0.00260100,-0.00132875,0.00135284,-0.00030072,0.00059
 491,0.11081866,-0.00022085,0.00036988,-0.00062165,0.00061579,0.0006820
 0,0.00021886,0.00010292,-0.00041366,0.00002660,-0.00000249,-0.00000395
 ,0.00000878,-0.00003401,0.00002850,0.00002954,0.00002390,-0.00000195,-
 0.00001297,0.00002348,-0.00003367,-0.00001549,0.00000263,0.00001882,-0
 .00000773,-0.00000745,-0.00001263,-0.00001313,-0.00000939,0.00000590,0
 .00000631,-0.00000241,-0.00000780,0.00000731,0.00000291,-0.00000442,-0
 .00000166,0.00000562,0.00000628,0.00000605,-0.00536192,0.01032525,-0.0
 0927664,0.07824462,-0.17833621,0.11195844,0.00072658,-0.00424531,0.003
 57954,-0.00005087,0.00003860,-0.00003387,-0.00001379,0.00000709,0.0000
 0231,-0.00000483,0.00000559,0.00000064,0.00000359,-0.00000492,0.000003
 47,-0.00000010,-0.00000685,0.00000053,0.00000467,0.00000444,-0.0000015
 2,-0.00000026,0.00000023,0.00000026,-0.00000361,-0.00000019,0.00000089
 ,-0.00302989,-0.00008531,-0.00126345,0.00064305,0.00100248,-0.00017691
 ,-0.08074234,0.18540772,0.00000817,0.00038485,-0.00025255,-0.00016387,
 -0.00024336,0.00030786,0.00013502,0.00002174,0.00002541,-0.00002995,-0
 .00003056,0.00006636,-0.00004231,0.00000938,0.00004278,0.00003359,0.00
 001186,-0.00002578,0.00003240,-0.00001742,-0.00002635,0.00000540,0.000
 00045,-0.00000819,-0.00000321,-0.00000424,-0.00000280,0.00000300,0.000
 00569,-0.00000116,0.00000130,-0.00000405,0.00000347,-0.00000128,-0.000
 00246,-0.00000502,0.00000857,0.00000477,0.00000230,-0.00694124,0.00758
 803,-0.00697467,-0.06601236,0.10585084,-0.14474190,-0.00430518,0.01842
 142,-0.01950096,-0.00006807,0.00004107,-0.00003840,0.00000654,-0.00000
 311,-0.00000077,-0.00000134,-0.00000158,0.00000716,0.00000482,-0.00000
 318,0.00000060,-0.00000635,-0.00000564,0.00000478,-0.00000173,0.000000
 89,-0.00000052,-0.00000084,0.,-0.00000040,-0.00000692,0.00000003,0.000
 00262,-0.00184871,-0.00090717,0.00012381,0.00075539,0.00021734,0.00021
 813,0.07042919,-0.12123541,0.15972350,-0.00072806,0.00281410,0.0019384
 1,-0.00023354,-0.00390834,-0.00366597,0.00100939,0.00159898,0.00119462
 ,-0.00025738,0.00000471,0.00023078,-0.00008361,-0.00022105,-0.00008522
 ,0.00006580,0.00007923,-0.00000040,0.00004010,0.00017525,0.00008811,-0
 .00000541,-0.00001252,-0.00002979,0.00002377,-0.00001563,-0.00004745,-
 0.00000401,-0.00001176,-0.00002456,0.00000871,-0.00000619,0.00005886,-
 0.00000575,-0.00002109,-0.00003052,0.00003022,0.00006659,0.00004652,0.
 00616861,-0.02467975,-0.01322955,-0.05478674,0.03893532,0.01992437,-0.
 01049830,0.01936573,0.01698284,0.00052930,0.00002442,-0.00021328,-0.00
 003284,-0.00004223,-0.00001883,-0.00003040,-0.00002719,0.00002164,0.00
 003313,0.00000490,0.00001161,-0.00005811,0.00002809,0.00003855,0.00000
 491,-0.00000253,-0.00001245,-0.00000366,0.00000079,0.00000057,-0.00004
 540,0.00001051,-0.00000282,0.00090524,0.00051078,-0.00013964,-0.005422
 06,-0.00128202,-0.00190917,-0.00132106,0.01035417,0.00583056,0.0662264
 0,0.00238732,0.00095549,0.00103848,0.00025073,-0.00167235,-0.00289467,
 0.00002040,0.00042192,0.00023312,-0.00003025,-0.00002711,0.00001299,0.
 00000415,-0.00003333,-0.00001697,-0.00000815,-0.00000004,0.00001011,-0
 .00000590,0.00003165,0.00002460,0.00001303,0.00000965,-0.00000685,-0.0
 0001220,0.00001310,-0.00001578,-0.00000147,-0.00000254,-0.00000220,-0.
 00000100,-0.00001288,0.00000172,0.00000660,-0.00000217,0.00002184,-0.0
 0001438,-0.00000512,-0.00000487,-0.00104725,-0.00914545,-0.00416111,0.
 04678567,-0.25234060,-0.11942089,-0.00572073,0.01266455,0.01105746,0.0
 0006260,0.00008555,0.00002313,-0.00001248,-0.00001257,0.00000948,-0.00
 000127,-0.00000052,-0.00000082,0.00000480,0.00000204,0.00000569,-0.000
 00989,0.00001943,0.00000273,0.00000412,0.00000040,-0.00000197,0.000003
 87,0.00000050,0.00000169,0.00001532,0.00000815,-0.00000193,-0.00023938
 ,0.00072181,0.00009436,-0.00157087,0.00104096,-0.00106054,0.00329340,-
 0.01573396,-0.01078953,-0.04293691,0.26197254,0.00161413,0.00054234,-0
 .00153286,0.00090276,0.00041460,0.00092667,-0.00025180,-0.00080305,-0.
 00061470,0.00009089,0.00006181,-0.00001633,0.00003645,0.00002589,-0.00
 000385,-0.00001263,-0.00000204,-0.00000211,-0.00002855,-0.00003799,-0.
 00001381,-0.00000661,0.00000028,0.00002674,0.00001564,-0.00000750,0.00
 002357,0.00000894,-0.00000948,-0.00000223,0.00000852,0.00001222,-0.000
 02290,-0.00001054,0.00001687,-0.00000313,0.00001175,0.00000325,-0.0000
 1211,-0.00090053,-0.01337695,-0.00658182,0.02145570,-0.11039175,-0.116
 48169,0.00957627,-0.01777440,-0.01685127,-0.00008614,-0.00002014,0.000
 13593,-0.00000602,0.00001865,0.00001022,0.00000562,0.00000130,0.000003
 38,-0.00000053,0.00001096,-0.00000759,0.00000122,-0.00000825,0.0000064
 3,-0.00000156,0.00000056,0.00000635,-0.00000752,0.00000013,-0.00000012
 ,-0.00000955,-0.00000370,0.00001456,0.00058822,0.00011235,0.00018224,-
 0.00146573,-0.00023457,-0.00061455,-0.00439486,0.01662071,0.01274407,-
 0.02914403,0.12427238,0.13021844,-0.00023785,-0.00082086,-0.00115204,-
 0.00127699,0.00044557,0.00204135,0.00052915,0.00004553,-0.00037319,-0.
 00015696,0.00005037,0.00016146,-0.00017266,-0.00014003,0.00004391,0.00
 016609,0.00009166,-0.00007326,0.00010668,0.00006592,-0.00004178,0.0000
 2442,0.00002772,-0.00001633,0.00001138,0.00003413,0.00000044,0.0000301
 1,0.00000674,-0.00002558,0.00003601,-0.00001619,0.00000271,-0.00000758
 ,-0.00000544,0.00001042,0.00001549,-0.00001686,-0.00000152,0.00183046,
 0.00149680,-0.00078188,-0.00518945,0.02012007,0.01260997,-0.08104654,0
 .07235133,0.04364680,-0.00014312,-0.00012538,-0.00002943,0.00003239,-0
 .00000173,-0.00002800,-0.00003644,-0.00001572,0.00002926,0.00003404,-0
 .00001635,0.00000081,-0.00002346,0.00000823,0.00001616,-0.00002760,-0.
 00001962,-0.00000610,-0.00000454,-0.00000185,-0.00000003,-0.00001730,0
 .00001759,0.00000774,-0.00039011,0.00021884,-0.00012606,-0.00031117,-0
 .00101700,-0.00011801,0.00116250,-0.00025409,-0.00091463,-0.00251706,-
 0.00273725,0.00261364,0.07943954,-0.00062952,-0.00041231,-0.00022105,0
 .00025378,0.00016877,0.00031001,-0.00036790,-0.00033146,-0.00000445,0.
 00006468,-0.00002438,-0.00009178,0.00000169,0.00015226,0.00010347,-0.0
 0001611,-0.00005205,-0.00001535,0.00000898,-0.00011811,-0.00006723,-0.
 00000884,0.00000132,0.00000742,-0.00000890,0.00000128,0.00000972,-0.00
 000818,0.00001545,0.00001005,-0.00001232,-0.00001247,-0.00001144,0.000
 00273,0.00000285,0.00001085,-0.00000985,-0.00002393,-0.00001655,0.0005
 0005,0.00183884,0.00117925,0.00049958,0.01313587,0.00336185,0.06565655
 ,-0.28147826,-0.14559205,-0.00006799,0.00009222,0.00004592,-0.00000990
 ,0.00001028,0.00001238,0.00001113,0.00001828,-0.00001068,-0.00001572,0
 .00000190,0.00000095,0.00001777,-0.00001355,-0.00001077,0.00000324,0.0
 0000523,0.00000429,0.00000674,-0.00000009,-0.00000043,0.00001765,0.000
 00178,-0.00000182,0.00018352,-0.00017008,-0.00000608,-0.00000026,-0.00
 070163,-0.00021640,-0.00015742,0.00047113,0.00047635,-0.00214939,-0.00
 035560,0.00182273,-0.07220366,0.29703492,0.00024853,0.00026934,0.00031
 017,0.00022418,-0.00035703,-0.00120887,-0.00039824,-0.00002212,0.00020
 522,0.00008259,-0.00007285,-0.00007237,0.00003912,0.00009445,0.0000703
 8,-0.00005075,-0.00003838,-0.00000566,-0.00003099,-0.00005361,-0.00004
 964,0.00000011,-0.00001772,0.00001244,-0.00001297,0.00000412,0.0000166
 4,0.00000403,0.00000090,0.00001858,0.00000313,-0.00000005,-0.00003687,
 -0.00000071,0.00002791,0.00002051,-0.00000833,-0.00002962,-0.00003550,
 -0.00111948,0.00062291,0.00173020,0.00661911,-0.01825437,-0.01284113,0
 .04107232,-0.15299211,-0.15985970,0.00002787,0.00005313,0.00009109,-0.
 00001270,-0.00000309,0.00000868,0.00002094,0.00000164,-0.00000292,-0.0
 0001108,0.00001268,-0.00000714,0.00000901,-0.00000344,-0.00000968,-0.0
 0000061,0.00000192,0.00001438,0.00000132,0.00000006,0.00000201,0.00001
 105,-0.00000273,0.00000227,-0.00003624,0.00027944,0.00006597,0.0005810
 6,-0.00000271,0.00040965,-0.00097120,-0.00009994,-0.00015888,0.0026157
 8,0.00286499,-0.00197648,-0.04845028,0.15959746,0.16502864,0.00074931,
 0.00060279,0.00040963,-0.00041180,-0.00168905,-0.00201026,-0.00021271,
 0.00030901,0.00049504,-0.00006201,-0.00009084,-0.00004522,-0.00012749,
 -0.00003365,0.00008948,0.00006234,0.00002178,-0.00004350,0.00005973,0.
 00002426,-0.00003096,-0.00000474,-0.00000094,0.00000653,0.00001436,0.0
 0000993,0.00000454,0.00001577,-0.00000104,-0.00000966,0.00002314,0.000
 00090,0.00000146,-0.00000749,0.00000458,-0.00000824,0.00001784,0.00000
 201,0.00000311,-0.00254617,-0.00017100,0.00438664,-0.01698984,-0.00677
 528,-0.00764781,-0.29331351,-0.09746635,-0.13156214,-0.00002322,-0.000
 01257,0.00000394,0.00000402,-0.00000516,-0.00000798,-0.00001435,-0.000
 01121,0.00001050,0.00001328,0.00000446,-0.00000452,-0.00001871,0.00000
 802,0.00000833,-0.00001452,-0.00000957,-0.00000071,-0.00000767,-0.0000
 0084,-0.00000072,-0.00002414,0.00000377,0.00000600,0.00050607,0.000142
 53,0.00018879,0.00013656,-0.00015806,0.00003947,0.00144053,-0.00011735
 ,-0.00040595,0.00027146,0.00113766,-0.00027278,0.01176117,0.00319130,0
 .00525712,0.30803382,0.00025556,0.00005838,0.00014171,-0.00015433,-0.0
 0005355,-0.00077871,-0.00004799,0.00001012,0.00010990,-0.00002015,-0.0
 0005116,0.00000102,-0.00005391,0.00001741,0.00005759,0.00003277,-0.000
 00178,-0.00002160,0.00003515,-0.00002037,-0.00002567,0.00000905,0.0000
 1470,-0.00000217,0.00000263,0.00001818,0.00000109,0.00000720,0.0000026
 0,-0.00000708,0.00000906,-0.00001562,-0.00000568,-0.00000153,0.0000041
 4,0.00001753,-0.00000155,-0.00001655,-0.00000995,-0.00087933,0.0001469
 1,0.00174172,-0.00547648,-0.00250691,-0.00185492,-0.09709581,-0.104081
 88,-0.05511435,-0.00003732,0.00000504,-0.00001112,-0.00000714,0.000000
 44,0.00000057,-0.00000773,0.00000488,0.00000130,0.00000627,-0.00000348
 ,0.00000239,-0.00000732,0.00000395,0.00000294,-0.00000549,-0.00000485,
 -0.00000135,0.00000303,0.00000015,0.00000101,0.00000421,0.00001242,0.0
 0000167,-0.00002255,0.00015577,-0.00020303,0.00028578,0.00019343,-0.00
 005377,-0.00013566,-0.00053625,0.00013807,0.00106964,0.00046034,-0.000
 22756,-0.02790107,-0.00913262,-0.01281581,0.10540174,0.10210654,-0.000
 20195,-0.00025792,-0.00047384,0.00066739,0.00106358,0.00202448,0.00065
 072,-0.00005977,-0.00060914,-0.00009063,0.00014239,0.00012383,-0.00006
 127,-0.00009327,-0.00002264,0.00009734,0.00006543,-0.00003357,0.000046
 70,0.00004198,-0.00001320,0.00000395,0.00002129,0.00000144,0.00000360,
 0.00002003,-0.00000505,0.00001239,0.00000035,-0.00001090,0.00001508,-0
 .00000932,-0.00000598,-0.00000111,-0.00000342,0.00001698,0.00000291,-0
 .00001129,-0.00000723,0.00264109,0.00039987,-0.00526737,0.01957843,0.0
 0847868,0.01621953,-0.12249168,-0.05135393,-0.12488003,-0.00006340,-0.
 00011878,-0.00002915,0.00003651,0.00000689,-0.00002034,-0.00002038,-0.
 00000711,0.00002141,0.00001891,-0.00001041,-0.00000133,-0.00001015,-0.
 00000254,0.00000917,-0.00001036,-0.00000738,-0.00000247,-0.00000237,-0
 .00000065,0.00000184,-0.00000243,0.00000931,0.00000793,-0.00026976,-0.
 00035255,-0.00001538,-0.00010485,0.00010576,-0.00003440,-0.00017624,0.
 00069953,0.00032783,0.00018516,-0.00051690,0.00049956,-0.01740013,-0.0
 0508844,-0.00887268,0.13547353,0.05720017,0.13091404,0.00002596,-0.000
 18829,-0.00069307,-0.00092288,0.00057844,0.00074055,0.00036346,0.00011
 484,-0.00018118,-0.00008048,-0.00003295,0.00015558,-0.00012478,-0.0001
 4092,0.00001458,0.00011147,0.00007866,-0.00005130,0.00006285,0.0000824
 9,-0.00001211,0.00002727,0.00001252,-0.00000126,0.00002098,0.00001772,
 0.00001558,0.00003725,-0.00001368,-0.00002130,0.00004832,0.00000828,-0
 .00000963,-0.00001800,0.00001911,-0.00000634,0.00003056,0.00000354,0.0
 0000053,0.00244929,-0.00087149,0.00121872,0.01279281,-0.01908797,0.014
 45830,-0.09921559,0.07963997,-0.07172816,-0.00003763,-0.00012275,-0.00
 002074,0.00002061,-0.00000278,-0.00002563,-0.00002570,-0.00002336,0.00
 002813,0.00003245,-0.00000321,-0.00000908,-0.00002295,0.00000815,0.000
 01941,-0.00002517,-0.00001853,-0.00000162,-0.00001598,-0.00000031,-0.0
 0000143,-0.00003709,0.00000797,0.00001713,-0.00100910,0.00060162,-0.00
 116097,-0.00013033,0.00021543,-0.00027759,-0.00429549,-0.00089829,0.00
 349999,0.00071634,0.00035969,-0.00033040,-0.00362063,0.00524657,-0.005
 71370,-0.00933105,0.02473327,-0.01852698,0.10217322,0.00039413,-0.0004
 3091,-0.00050832,-0.00086601,0.00050321,0.00096098,0.00055120,0.000086
 01,-0.00027827,-0.00015990,0.00005655,0.00015423,-0.00013669,-0.000088
 80,0.00003321,0.00014220,0.00006372,-0.00005434,0.00009790,0.00002922,
 -0.00003232,0.00002326,0.00004316,-0.00002951,0.00000819,0.00005016,-0
 .00001480,0.00001049,0.00001631,-0.00002451,0.00001222,-0.00004417,0.0
 0001590,-0.00000212,-0.00002022,0.00003640,-0.00001585,-0.00003766,-0.
 00001299,0.00074304,-0.00022494,-0.00140945,-0.00089605,-0.00361493,0.
 00560351,0.08567227,-0.23109810,0.14584155,-0.00010072,-0.00008064,-0.
 00004508,0.00002615,-0.00000547,-0.00002035,-0.00003281,0.00000193,0.0
 0001575,0.00002789,-0.00002189,0.00001364,-0.00002292,0.00001398,0.000
 01358,-0.00001840,-0.00001616,-0.00000870,0.00001778,0.00000001,0.0000
 0080,0.00001741,0.00003089,-0.00000606,-0.00060446,0.00019729,-0.00010
 794,-0.00002691,-0.00019878,0.00014231,-0.00080171,0.00105319,0.000074
 92,0.00027339,0.00093617,-0.00103967,0.01031259,-0.02012584,0.02093461
 ,-0.00432183,0.01320959,-0.01036155,-0.09032372,0.23971711,-0.00024814
 ,-0.00032312,-0.00006618,0.00004517,0.00002374,-0.00020649,-0.00047431
 ,-0.00016139,0.00011278,0.00010599,-0.00006049,-0.00012105,0.00006310,
 0.00010680,0.00005120,-0.00007420,-0.00004940,0.00000944,-0.00005197,-
 0.00005826,-0.00003614,-0.00000046,-0.00002317,0.00003066,-0.00001580,
 0.00000946,0.00002327,0.00000996,-0.00001642,0.00002271,0.00001825,0.0
 0000985,-0.00006124,-0.00000135,0.00004566,0.00003928,-0.00001204,-0.0
 0003781,-0.00004692,-0.00019976,-0.00088870,0.00219471,-0.00633260,0.0
 1683992,-0.01596057,-0.07914994,0.14913284,-0.19035139,0.00004424,0.00
 004488,0.00007663,-0.00001511,0.00000698,0.00001281,0.00002381,0.00000
 248,-0.00000602,-0.00001664,0.00001752,-0.00001358,0.00001726,-0.00000
 364,-0.00001683,0.00000005,0.00000195,0.00001664,-0.00000567,0.0000006
 4,0.00000372,0.00001511,-0.00000405,0.00000775,0.00043841,0.00047383,0
 .00040397,-0.00011068,-0.00012937,-0.00000466,0.00391815,-0.00040938,-
 0.00186234,-0.00061471,-0.00077973,-0.00006059,0.00835360,-0.01559819,
 0.01713071,-0.00433367,0.01171409,-0.00986335,0.07860397,-0.15988755,0
 .19854106\\0.00000084,0.00000009,-0.00000118,-0.00000002,0.00000053,-0
 .00000072,-0.00000057,-0.00000129,0.00000129,-0.00000062,-0.00000022,0
 .00000072,0.00000121,0.00000032,0.00000096,0.00000080,0.00000101,0.000
 00102,0.00000005,-0.00000027,0.00000121,0.00000025,0.00000104,0.000000
 51,0.00000010,0.00000063,-0.00000007,0.00000008,-0.00000037,-0.0000002
 5,-0.00000009,-0.00000074,-0.00000045,-0.00000018,-0.00000071,-0.00000
 046,-0.00000048,-0.00000053,-0.00000020,-0.00000055,0.00000029,0.00000
 066,0.00000065,-0.00000029,-0.00000052,-0.00000075,0.00000020,0.000000
 11,-0.00000024,0.,0.00000027,-0.00000016,0.00000090,0.00000073,-0.0000
 0016,0.00000082,0.00000146,-0.00000028,0.00000098,-0.00000023,0.000000
 29,0.00000091,-0.00000075,-0.00000046,-0.00000049,0.00000021,0.0000000
 2,-0.00000071,-0.00000094,0.00000037,0.00000031,-0.00000090,-0.0000001
 1,-0.00000094,-0.00000016,-0.00000011,-0.00000051,0.00000028,-0.000000
 13,0.00000004,-0.00000009,0.00000043,0.00000071,-0.00000083,-0.0000002
 7,-0.00000082,-0.00000010,0.00000011,-0.00000029,-0.00000078,-0.000000
 03,-0.00000060,-0.00000081\\\@


 In the beginning there was nothing, which exploded.
 Job cpu time:       0 days  5 hours 12 minutes 58.5 seconds.
 File lengths (MBytes):  RWF=    608 Int=      0 D2E=      0 Chk=     18 Scr=      1
 Normal termination of Gaussian 09 at Thu Jul 29 02:13:33 2021.
