 Entering Gaussian System, Link 0=g09
 Input=opt_freq-conf-214.com
 Output=opt_freq-conf-214.log
 Initial command:
 /aerosol/software/g09/l1.exe "/scratch/nicole/10635/Gau-83431.inp" -scrdir="/scratch/nicole/10635/"
 Entering Link 1 = /aerosol/software/g09/l1.exe PID=     83435.
  
 Copyright (c) 1988,1990,1992,1993,1995,1998,2003,2009,2013,
            Gaussian, Inc.  All Rights Reserved.
  
 This is part of the Gaussian(R) 09 program.  It is based on
 the Gaussian(R) 03 system (copyright 2003, Gaussian, Inc.),
 the Gaussian(R) 98 system (copyright 1998, Gaussian, Inc.),
 the Gaussian(R) 94 system (copyright 1995, Gaussian, Inc.),
 the Gaussian 92(TM) system (copyright 1992, Gaussian, Inc.),
 the Gaussian 90(TM) system (copyright 1990, Gaussian, Inc.),
 the Gaussian 88(TM) system (copyright 1988, Gaussian, Inc.),
 the Gaussian 86(TM) system (copyright 1986, Carnegie Mellon
 University), and the Gaussian 82(TM) system (copyright 1983,
 Carnegie Mellon University). Gaussian is a federally registered
 trademark of Gaussian, Inc.
  
 This software contains proprietary and confidential information,
 including trade secrets, belonging to Gaussian, Inc.
  
 This software is provided under written license and may be
 used, copied, transmitted, or stored only in accord with that
 written license.
  
 The following legend is applicable only to US Government
 contracts under FAR:
  
                    RESTRICTED RIGHTS LEGEND
  
 Use, reproduction and disclosure by the US Government is
 subject to restrictions as set forth in subparagraphs (a)
 and (c) of the Commercial Computer Software - Restricted
 Rights clause in FAR 52.227-19.
  
 Gaussian, Inc.
 340 Quinnipiac St., Bldg. 40, Wallingford CT 06492
  
  
 ---------------------------------------------------------------
 Warning -- This program may not be used in any manner that
 competes with the business of Gaussian, Inc. or will provide
 assistance to any competitor of Gaussian, Inc.  The licensee
 of this program is prohibited from giving any competitor of
 Gaussian, Inc. access to this program.  By using this program,
 the user acknowledges that Gaussian, Inc. is engaged in the
 business of creating and licensing software in the field of
 computational chemistry and represents and warrants to the
 licensee that it is not a competitor of Gaussian, Inc. and that
 it will not use this program in any manner prohibited above.
 ---------------------------------------------------------------
  

 Cite this work as:
 Gaussian 09, Revision D.01,
 M. J. Frisch, G. W. Trucks, H. B. Schlegel, G. E. Scuseria, 
 M. A. Robb, J. R. Cheeseman, G. Scalmani, V. Barone, B. Mennucci, 
 G. A. Petersson, H. Nakatsuji, M. Caricato, X. Li, H. P. Hratchian, 
 A. F. Izmaylov, J. Bloino, G. Zheng, J. L. Sonnenberg, M. Hada, 
 M. Ehara, K. Toyota, R. Fukuda, J. Hasegawa, M. Ishida, T. Nakajima, 
 Y. Honda, O. Kitao, H. Nakai, T. Vreven, J. A. Montgomery, Jr., 
 J. E. Peralta, F. Ogliaro, M. Bearpark, J. J. Heyd, E. Brothers, 
 K. N. Kudin, V. N. Staroverov, T. Keith, R. Kobayashi, J. Normand, 
 K. Raghavachari, A. Rendell, J. C. Burant, S. S. Iyengar, J. Tomasi, 
 M. Cossi, N. Rega, J. M. Millam, M. Klene, J. E. Knox, J. B. Cross, 
 V. Bakken, C. Adamo, J. Jaramillo, R. Gomperts, R. E. Stratmann, 
 O. Yazyev, A. J. Austin, R. Cammi, C. Pomelli, J. W. Ochterski, 
 R. L. Martin, K. Morokuma, V. G. Zakrzewski, G. A. Voth, 
 P. Salvador, J. J. Dannenberg, S. Dapprich, A. D. Daniels, 
 O. Farkas, J. B. Foresman, J. V. Ortiz, J. Cioslowski, 
 and D. J. Fox, Gaussian, Inc., Wallingford CT, 2013.
 
 ******************************************
 Gaussian 09:  ES64L-G09RevD.01 24-Apr-2013
                28-Jul-2021 
 ******************************************
 %mem=2gb
 %nproc=4
 Will use up to    4 processors via shared memory.
 %chk=conf-214.chk
 ----------------------------------------------------------------------
 # B3LYP/6-311++G(d,p) opt=calcfc freq=noraman nosymm integral(ultrafin
 egrid)
 ----------------------------------------------------------------------
 1/10=4,14=-1,18=20,19=15,26=4,38=1/1,3;
 2/9=110,12=2,15=1,17=6,18=5,40=1/2;
 3/5=4,6=6,7=1111,11=2,16=1,25=1,30=1,71=2,74=-5,75=-5,140=1/1,2,3;
 4//1;
 5/5=2,38=5/2;
 8/6=4,10=90,11=11/1;
 11/6=1,8=1,9=11,15=111,16=1,31=1/1,2,10;
 10/6=1,13=1,31=1/2;
 6/7=2,8=2,9=2,10=2,28=1/1;
 7/10=1,18=20,25=1,30=1/1,2,3,16;
 1/10=4,14=-1,18=20,19=15,26=4/3(2);
 2/9=110,15=1/2;
 99//99;
 2/9=110,15=1/2;
 3/5=4,6=6,7=1111,11=2,16=1,25=1,30=1,71=1,74=-5,75=-5/1,2,3;
 4/5=5,16=3,69=1/1;
 5/5=2,38=5/2;
 7/30=1/1,2,3,16;
 1/14=-1,18=20,19=15,26=4/3(-5);
 2/9=110,15=1/2;
 6/7=2,8=2,9=2,10=2,19=2,28=1/1;
 99/9=1/99;
 ------------------------------------------------------------
 Candidate Structure: Conf:214 OPT and FREQ calc in gas phase
 ------------------------------------------------------------
 Symbolic Z-matrix:
 Charge =  1 Multiplicity = 1
 O                    -1.0496   -0.53171  -1.26429 
 C                    -1.10935  -0.17362  -0.09274 
 N                    -0.07815  -0.35767   0.78573 
 C                     1.02197  -1.24123   0.46697 
 C                     0.99565  -2.41586   1.43875 
 O                     1.65977  -3.52102   1.03213 
 O                     0.4677   -2.37978   2.51493 
 C                     2.39123  -0.554     0.56355 
 C                     2.65125   0.44626  -0.52716 
 C                     1.96614   0.8207   -1.6442 
 N                     2.65836   1.78482  -2.35484 
 C                     3.75716   1.98695  -1.66937 
 N                     3.80598   1.20777  -0.55842 
 C                    -2.2992    0.57826   0.4719 
 C                    -3.58898   0.26692  -0.27238 
 N                    -4.74081   1.0379    0.26778 
 H                    -0.28411  -0.2903    1.77378 
 H                     0.86987  -1.58714  -0.55552 
 H                     1.993    -3.39268   0.13839 
 H                     2.48575  -0.07101   1.5373 
 H                     3.17116  -1.32253   0.52594 
 H                     0.99862   0.45657  -1.9497 
 H                     4.54429   2.67546  -1.92422 
 H                     4.54554   1.18272   0.12319 
 H                    -2.08898   1.64809   0.38756 
 H                    -2.4075    0.3501    1.53438 
 H                    -3.79994  -0.79962  -0.20382 
 H                    -3.44895   0.49931  -1.32737 
 H                    -4.57879   2.04215   0.19387 
 H                    -5.60488   0.83192  -0.23548 
 H                    -4.90422   0.82239   1.25117 
 

 GradGradGradGradGradGradGradGradGradGradGradGradGradGradGradGradGradGrad
 Berny optimization.
 Initialization pass.
                           ----------------------------
                           !    Initial Parameters    !
                           ! (Angstroms and Degrees)  !
 --------------------------                            --------------------------
 ! Name  Definition              Value          Derivative Info.                !
 --------------------------------------------------------------------------------
 ! R1    R(1,2)                  1.2265         calculate D2E/DX2 analytically  !
 ! R2    R(2,3)                  1.3671         calculate D2E/DX2 analytically  !
 ! R3    R(2,14)                 1.5165         calculate D2E/DX2 analytically  !
 ! R4    R(3,4)                  1.4466         calculate D2E/DX2 analytically  !
 ! R5    R(3,17)                 1.0115         calculate D2E/DX2 analytically  !
 ! R6    R(4,5)                  1.5247         calculate D2E/DX2 analytically  !
 ! R7    R(4,8)                  1.5351         calculate D2E/DX2 analytically  !
 ! R8    R(4,18)                 1.0901         calculate D2E/DX2 analytically  !
 ! R9    R(5,6)                  1.3519         calculate D2E/DX2 analytically  !
 ! R10   R(5,7)                  1.1993         calculate D2E/DX2 analytically  !
 ! R11   R(6,19)                 0.9624         calculate D2E/DX2 analytically  !
 ! R12   R(8,9)                  1.5026         calculate D2E/DX2 analytically  !
 ! R13   R(8,20)                 1.0911         calculate D2E/DX2 analytically  !
 ! R14   R(8,21)                 1.0956         calculate D2E/DX2 analytically  !
 ! R15   R(9,10)                 1.3628         calculate D2E/DX2 analytically  !
 ! R16   R(9,13)                 1.3836         calculate D2E/DX2 analytically  !
 ! R17   R(10,11)                1.3834         calculate D2E/DX2 analytically  !
 ! R18   R(10,22)                1.078          calculate D2E/DX2 analytically  !
 ! R19   R(11,12)                1.3108         calculate D2E/DX2 analytically  !
 ! R20   R(12,13)                1.3578         calculate D2E/DX2 analytically  !
 ! R21   R(12,23)                1.0764         calculate D2E/DX2 analytically  !
 ! R22   R(13,24)                1.0061         calculate D2E/DX2 analytically  !
 ! R23   R(14,15)                1.5213         calculate D2E/DX2 analytically  !
 ! R24   R(14,25)                1.0935         calculate D2E/DX2 analytically  !
 ! R25   R(14,26)                1.0921         calculate D2E/DX2 analytically  !
 ! R26   R(15,16)                1.4876         calculate D2E/DX2 analytically  !
 ! R27   R(15,27)                1.0894         calculate D2E/DX2 analytically  !
 ! R28   R(15,28)                1.0893         calculate D2E/DX2 analytically  !
 ! R29   R(16,29)                1.0199         calculate D2E/DX2 analytically  !
 ! R30   R(16,30)                1.0209         calculate D2E/DX2 analytically  !
 ! R31   R(16,31)                1.0199         calculate D2E/DX2 analytically  !
 ! A1    A(1,2,3)              122.5296         calculate D2E/DX2 analytically  !
 ! A2    A(1,2,14)             122.5885         calculate D2E/DX2 analytically  !
 ! A3    A(3,2,14)             114.7914         calculate D2E/DX2 analytically  !
 ! A4    A(2,3,4)              120.9497         calculate D2E/DX2 analytically  !
 ! A5    A(2,3,17)             117.7175         calculate D2E/DX2 analytically  !
 ! A6    A(4,3,17)             114.253          calculate D2E/DX2 analytically  !
 ! A7    A(3,4,5)              108.4804         calculate D2E/DX2 analytically  !
 ! A8    A(3,4,8)              113.0197         calculate D2E/DX2 analytically  !
 ! A9    A(3,4,18)             107.1214         calculate D2E/DX2 analytically  !
 ! A10   A(5,4,8)              108.6745         calculate D2E/DX2 analytically  !
 ! A11   A(5,4,18)             110.5452         calculate D2E/DX2 analytically  !
 ! A12   A(8,4,18)             108.9981         calculate D2E/DX2 analytically  !
 ! A13   A(4,5,6)              115.4415         calculate D2E/DX2 analytically  !
 ! A14   A(4,5,7)              123.8043         calculate D2E/DX2 analytically  !
 ! A15   A(6,5,7)              120.7138         calculate D2E/DX2 analytically  !
 ! A16   A(5,6,19)             109.8994         calculate D2E/DX2 analytically  !
 ! A17   A(4,8,9)              113.9978         calculate D2E/DX2 analytically  !
 ! A18   A(4,8,20)             109.366          calculate D2E/DX2 analytically  !
 ! A19   A(4,8,21)             108.5884         calculate D2E/DX2 analytically  !
 ! A20   A(9,8,20)             109.7652         calculate D2E/DX2 analytically  !
 ! A21   A(9,8,21)             108.5944         calculate D2E/DX2 analytically  !
 ! A22   A(20,8,21)            106.2301         calculate D2E/DX2 analytically  !
 ! A23   A(8,9,10)             133.699          calculate D2E/DX2 analytically  !
 ! A24   A(8,9,13)             121.8173         calculate D2E/DX2 analytically  !
 ! A25   A(10,9,13)            104.467          calculate D2E/DX2 analytically  !
 ! A26   A(9,10,11)            111.1605         calculate D2E/DX2 analytically  !
 ! A27   A(9,10,22)            126.2051         calculate D2E/DX2 analytically  !
 ! A28   A(11,10,22)           122.6126         calculate D2E/DX2 analytically  !
 ! A29   A(10,11,12)           104.9693         calculate D2E/DX2 analytically  !
 ! A30   A(11,12,13)           111.6857         calculate D2E/DX2 analytically  !
 ! A31   A(11,12,23)           126.0041         calculate D2E/DX2 analytically  !
 ! A32   A(13,12,23)           122.3101         calculate D2E/DX2 analytically  !
 ! A33   A(9,13,12)            107.7173         calculate D2E/DX2 analytically  !
 ! A34   A(9,13,24)            125.7679         calculate D2E/DX2 analytically  !
 ! A35   A(12,13,24)           126.5148         calculate D2E/DX2 analytically  !
 ! A36   A(2,14,15)            112.4305         calculate D2E/DX2 analytically  !
 ! A37   A(2,14,25)            107.7876         calculate D2E/DX2 analytically  !
 ! A38   A(2,14,26)            109.6605         calculate D2E/DX2 analytically  !
 ! A39   A(15,14,25)           108.9935         calculate D2E/DX2 analytically  !
 ! A40   A(15,14,26)           110.4352         calculate D2E/DX2 analytically  !
 ! A41   A(25,14,26)           107.3665         calculate D2E/DX2 analytically  !
 ! A42   A(14,15,16)           111.8848         calculate D2E/DX2 analytically  !
 ! A43   A(14,15,27)           109.4968         calculate D2E/DX2 analytically  !
 ! A44   A(14,15,28)           108.734          calculate D2E/DX2 analytically  !
 ! A45   A(16,15,27)           109.5496         calculate D2E/DX2 analytically  !
 ! A46   A(16,15,28)           109.9155         calculate D2E/DX2 analytically  !
 ! A47   A(27,15,28)           107.1398         calculate D2E/DX2 analytically  !
 ! A48   A(15,16,29)           111.1616         calculate D2E/DX2 analytically  !
 ! A49   A(15,16,30)           111.825          calculate D2E/DX2 analytically  !
 ! A50   A(15,16,31)           111.386          calculate D2E/DX2 analytically  !
 ! A51   A(29,16,30)           107.301          calculate D2E/DX2 analytically  !
 ! A52   A(29,16,31)           107.6609         calculate D2E/DX2 analytically  !
 ! A53   A(30,16,31)           107.2807         calculate D2E/DX2 analytically  !
 ! D1    D(1,2,3,4)            -13.7324         calculate D2E/DX2 analytically  !
 ! D2    D(1,2,3,17)          -162.6151         calculate D2E/DX2 analytically  !
 ! D3    D(14,2,3,4)           169.6455         calculate D2E/DX2 analytically  !
 ! D4    D(14,2,3,17)           20.7628         calculate D2E/DX2 analytically  !
 ! D5    D(1,2,14,15)           27.4281         calculate D2E/DX2 analytically  !
 ! D6    D(1,2,14,25)          -92.7184         calculate D2E/DX2 analytically  !
 ! D7    D(1,2,14,26)          150.6984         calculate D2E/DX2 analytically  !
 ! D8    D(3,2,14,15)         -155.952          calculate D2E/DX2 analytically  !
 ! D9    D(3,2,14,25)           83.9015         calculate D2E/DX2 analytically  !
 ! D10   D(3,2,14,26)          -32.6817         calculate D2E/DX2 analytically  !
 ! D11   D(2,3,4,5)           -114.4931         calculate D2E/DX2 analytically  !
 ! D12   D(2,3,4,8)            124.9223         calculate D2E/DX2 analytically  !
 ! D13   D(2,3,4,18)             4.8568         calculate D2E/DX2 analytically  !
 ! D14   D(17,3,4,5)            35.3894         calculate D2E/DX2 analytically  !
 ! D15   D(17,3,4,8)           -85.1953         calculate D2E/DX2 analytically  !
 ! D16   D(17,3,4,18)          154.7393         calculate D2E/DX2 analytically  !
 ! D17   D(3,4,5,6)            159.6472         calculate D2E/DX2 analytically  !
 ! D18   D(3,4,5,7)            -22.6568         calculate D2E/DX2 analytically  !
 ! D19   D(8,4,5,6)            -77.1104         calculate D2E/DX2 analytically  !
 ! D20   D(8,4,5,7)            100.5856         calculate D2E/DX2 analytically  !
 ! D21   D(18,4,5,6)            42.4697         calculate D2E/DX2 analytically  !
 ! D22   D(18,4,5,7)          -139.8342         calculate D2E/DX2 analytically  !
 ! D23   D(3,4,8,9)            -70.9751         calculate D2E/DX2 analytically  !
 ! D24   D(3,4,8,20)            52.3124         calculate D2E/DX2 analytically  !
 ! D25   D(3,4,8,21)           167.8289         calculate D2E/DX2 analytically  !
 ! D26   D(5,4,8,9)            168.5509         calculate D2E/DX2 analytically  !
 ! D27   D(5,4,8,20)           -68.1617         calculate D2E/DX2 analytically  !
 ! D28   D(5,4,8,21)            47.3549         calculate D2E/DX2 analytically  !
 ! D29   D(18,4,8,9)            48.0098         calculate D2E/DX2 analytically  !
 ! D30   D(18,4,8,20)          171.2972         calculate D2E/DX2 analytically  !
 ! D31   D(18,4,8,21)          -73.1862         calculate D2E/DX2 analytically  !
 ! D32   D(4,5,6,19)            -4.2457         calculate D2E/DX2 analytically  !
 ! D33   D(7,5,6,19)           177.9811         calculate D2E/DX2 analytically  !
 ! D34   D(4,8,9,10)            -5.0285         calculate D2E/DX2 analytically  !
 ! D35   D(4,8,9,13)           176.7125         calculate D2E/DX2 analytically  !
 ! D36   D(20,8,9,10)         -128.0989         calculate D2E/DX2 analytically  !
 ! D37   D(20,8,9,13)           53.642          calculate D2E/DX2 analytically  !
 ! D38   D(21,8,9,10)          116.1642         calculate D2E/DX2 analytically  !
 ! D39   D(21,8,9,13)          -62.0949         calculate D2E/DX2 analytically  !
 ! D40   D(8,9,10,11)         -178.6068         calculate D2E/DX2 analytically  !
 ! D41   D(8,9,10,22)            3.0695         calculate D2E/DX2 analytically  !
 ! D42   D(13,9,10,11)          -0.1345         calculate D2E/DX2 analytically  !
 ! D43   D(13,9,10,22)        -178.4582         calculate D2E/DX2 analytically  !
 ! D44   D(8,9,13,12)          178.7672         calculate D2E/DX2 analytically  !
 ! D45   D(8,9,13,24)           -1.1857         calculate D2E/DX2 analytically  !
 ! D46   D(10,9,13,12)           0.067          calculate D2E/DX2 analytically  !
 ! D47   D(10,9,13,24)        -179.8859         calculate D2E/DX2 analytically  !
 ! D48   D(9,10,11,12)           0.1507         calculate D2E/DX2 analytically  !
 ! D49   D(22,10,11,12)        178.5449         calculate D2E/DX2 analytically  !
 ! D50   D(10,11,12,13)         -0.1052         calculate D2E/DX2 analytically  !
 ! D51   D(10,11,12,23)        179.8774         calculate D2E/DX2 analytically  !
 ! D52   D(11,12,13,9)           0.0256         calculate D2E/DX2 analytically  !
 ! D53   D(11,12,13,24)        179.978          calculate D2E/DX2 analytically  !
 ! D54   D(23,12,13,9)        -179.9578         calculate D2E/DX2 analytically  !
 ! D55   D(23,12,13,24)         -0.0055         calculate D2E/DX2 analytically  !
 ! D56   D(2,14,15,16)        -178.4771         calculate D2E/DX2 analytically  !
 ! D57   D(2,14,15,27)          59.8705         calculate D2E/DX2 analytically  !
 ! D58   D(2,14,15,28)         -56.8858         calculate D2E/DX2 analytically  !
 ! D59   D(25,14,15,16)        -59.0308         calculate D2E/DX2 analytically  !
 ! D60   D(25,14,15,27)        179.3167         calculate D2E/DX2 analytically  !
 ! D61   D(25,14,15,28)         62.5605         calculate D2E/DX2 analytically  !
 ! D62   D(26,14,15,16)         58.687          calculate D2E/DX2 analytically  !
 ! D63   D(26,14,15,27)        -62.9654         calculate D2E/DX2 analytically  !
 ! D64   D(26,14,15,28)       -179.7217         calculate D2E/DX2 analytically  !
 ! D65   D(14,15,16,29)         59.7998         calculate D2E/DX2 analytically  !
 ! D66   D(14,15,16,30)        179.7036         calculate D2E/DX2 analytically  !
 ! D67   D(14,15,16,31)        -60.2646         calculate D2E/DX2 analytically  !
 ! D68   D(27,15,16,29)       -178.5782         calculate D2E/DX2 analytically  !
 ! D69   D(27,15,16,30)        -58.6744         calculate D2E/DX2 analytically  !
 ! D70   D(27,15,16,31)         61.3575         calculate D2E/DX2 analytically  !
 ! D71   D(28,15,16,29)        -61.1086         calculate D2E/DX2 analytically  !
 ! D72   D(28,15,16,30)         58.7951         calculate D2E/DX2 analytically  !
 ! D73   D(28,15,16,31)        178.827          calculate D2E/DX2 analytically  !
 --------------------------------------------------------------------------------
 Trust Radius=3.00D-01 FncErr=1.00D-07 GrdErr=1.00D-06
 Number of steps in this run=    167 maximum allowed number of steps=    186.
 GradGradGradGradGradGradGradGradGradGradGradGradGradGradGradGradGradGrad

                          Input orientation:                          
 ---------------------------------------------------------------------
 Center     Atomic      Atomic             Coordinates (Angstroms)
 Number     Number       Type             X           Y           Z
 ---------------------------------------------------------------------
      1          8           0       -1.049596   -0.531706   -1.264292
      2          6           0       -1.109346   -0.173623   -0.092736
      3          7           0       -0.078151   -0.357673    0.785728
      4          6           0        1.021972   -1.241229    0.466970
      5          6           0        0.995651   -2.415864    1.438746
      6          8           0        1.659768   -3.521016    1.032134
      7          8           0        0.467700   -2.379782    2.514929
      8          6           0        2.391234   -0.553995    0.563546
      9          6           0        2.651246    0.446263   -0.527163
     10          6           0        1.966139    0.820698   -1.644203
     11          7           0        2.658360    1.784824   -2.354840
     12          6           0        3.757165    1.986952   -1.669368
     13          7           0        3.805978    1.207767   -0.558422
     14          6           0       -2.299205    0.578256    0.471900
     15          6           0       -3.588979    0.266920   -0.272377
     16          7           0       -4.740810    1.037903    0.267777
     17          1           0       -0.284107   -0.290299    1.773778
     18          1           0        0.869867   -1.587145   -0.555517
     19          1           0        1.992998   -3.392677    0.138393
     20          1           0        2.485753   -0.071009    1.537297
     21          1           0        3.171155   -1.322535    0.525938
     22          1           0        0.998621    0.456573   -1.949698
     23          1           0        4.544285    2.675463   -1.924222
     24          1           0        4.545540    1.182715    0.123195
     25          1           0       -2.088981    1.648089    0.387562
     26          1           0       -2.407496    0.350098    1.534384
     27          1           0       -3.799939   -0.799621   -0.203819
     28          1           0       -3.448949    0.499307   -1.327374
     29          1           0       -4.578785    2.042150    0.193870
     30          1           0       -5.604884    0.831919   -0.235479
     31          1           0       -4.904217    0.822388    1.251171
 ---------------------------------------------------------------------
                    Distance matrix (angstroms):
                    1          2          3          4          5
     1  O    0.000000
     2  C    1.226515   0.000000
     3  N    2.275209   1.367090   0.000000
     4  C    2.791431   2.448585   1.446564   0.000000
     5  C    3.878080   3.435709   2.411563   1.524733   0.000000
     6  O    4.642219   4.487579   3.617709   2.433849   1.351941
     7  O    4.472145   3.762197   2.716066   2.407832   1.199251
     8  C    3.896254   3.581822   2.487120   1.535088   2.485998
     9  C    3.898207   3.836019   3.133624   2.547639   3.846761
    10  C    3.326858   3.585294   3.387070   3.098394   4.574031
    11  N    4.506056   4.811262   4.684223   4.449424   5.899295
    12  C    5.441752   5.553087   5.121953   4.739870   6.055669
    13  N    5.205825   5.126940   4.398158   3.847037   5.001732
    14  C    2.409959   1.516542   2.430541   3.786920   4.555834
    15  C    2.840804   2.524862   3.719626   4.907343   5.580690
    16  N    4.293713   3.845165   4.894517   6.200304   6.797548
    17  H    3.142311   2.044140   1.011534   2.077945   2.503608
    18  H    2.302314   2.475782   2.051652   1.090080   2.163258
    19  H    4.405684   4.476635   3.730945   2.383187   1.907821
    20  H    4.534295   3.948705   2.687124   2.158163   2.780011
    21  H    4.652427   4.474980   3.399476   2.151529   2.600271
    22  H    2.375220   2.879060   3.050408   2.953534   4.442124
    23  H    6.481739   6.590537   6.157163   5.784892   7.058610
    24  H    6.014142   5.819280   4.918360   4.290597   5.223233
    25  H    2.925825   2.123442   2.867936   4.246469   5.209190
    26  H    3.233275   2.146392   2.547013   3.928479   4.386468
    27  H    2.959860   2.764689   3.876368   4.888334   5.320522
    28  H    2.612253   2.729635   4.069631   5.122331   5.992004
    29  H    4.605014   4.126597   5.134701   6.497972   7.245546
    30  H    4.865036   4.608834   5.744804   6.979011   7.544414
    31  H    4.797836   4.147188   4.989999   6.324018   6.732748
                    6          7          8          9         10
     6  O    0.000000
     7  O    2.218586   0.000000
     8  C    3.091574   3.292624   0.000000
     9  C    4.376498   4.691346   1.502588   0.000000
    10  C    5.109513   5.457726   2.635269   1.362847   0.000000
    11  N    6.373438   6.771823   3.749454   2.265436   1.383370
    12  C    6.483432   6.884568   3.648025   2.213913   2.137418
    13  N    5.431157   5.784470   2.522720   1.383571   2.171117
    14  C    5.726373   4.536487   4.826034   5.051981   4.767581
    15  C    6.602995   5.588448   6.093899   6.247999   5.748731
    16  N    7.895276   6.622600   7.313526   7.458181   6.977536
    17  H    3.842683   2.341037   2.948159   3.801730   4.240344
    18  H    2.623821   3.196506   2.152732   2.703491   2.860901
    19  H    0.962438   3.000069   2.897837   3.951420   4.575030
    20  H    3.583293   3.218499   1.091055   2.134702   3.344710
    21  H    2.715482   3.518882   1.095603   2.123199   3.279485
    22  H    5.014943   5.315984   3.045819   2.180569   1.077963
    23  H    7.446935   7.866392   4.610209   3.241096   3.188323
    24  H    5.592758   5.919507   2.801983   2.133934   3.147708
    25  H    6.417807   5.223606   4.995245   4.975024   4.610493
    26  H    5.637412   4.084172   4.978727   5.463524   5.427114
    27  H    6.224305   5.301061   6.243381   6.578341   6.160178
    28  H    6.915870   6.196175   6.228384   6.152685   5.433862
    29  H    8.400657   7.099845   7.446999   7.439093   6.906989
    30  H    8.563296   7.399732   8.154575   8.270278   7.700975
    31  H    7.873946   6.380318   7.455927   7.771033   7.455533
                   11         12         13         14         15
    11  N    0.000000
    12  C    1.310762   0.000000
    13  N    2.208424   1.357834   0.000000
    14  C    5.832985   6.576402   6.223432   0.000000
    15  C    6.757953   7.673064   7.460053   1.521313   0.000000
    16  N    7.885666   8.767485   8.588308   2.492865   1.487580
    17  H    5.478114   5.776937   4.940865   2.551449   3.926757
    18  H    4.219768   4.727718   4.053675   3.973356   4.837255
    19  H    5.784931   5.943121   4.993649   5.856836   6.687290
    20  H    4.315395   4.016764   2.787526   4.944940   6.347557
    21  H    4.268198   4.014408   2.825113   5.791439   6.990213
    22  H    2.164053   3.167050   3.221986   4.093239   4.888297
    23  H    2.129644   1.076363   2.136502   7.548048   8.641739
    24  H    3.172481   2.116982   1.006073   6.880225   8.195459
    25  H    5.484224   6.206706   5.986594   1.093550   2.143161
    26  H    6.545793   7.137672   6.612314   1.092088   2.160372
    27  H    7.281200   8.186736   7.874346   2.146472   1.089364
    28  H    6.325146   7.366012   7.329882   2.136710   1.089325
    29  H    7.677136   8.541825   8.459692   2.723375   2.085316
    30  H    8.583759   9.541388   9.423899   3.390021   2.093910
    31  H    8.433396   9.214406   8.904528   2.730009   2.087964
                   16         17         18         19         20
    16  N    0.000000
    17  H    4.888186   0.000000
    18  H    6.248871   2.905009   0.000000
    19  H    8.061696   4.181439   2.236712   0.000000
    20  H    7.420551   2.788572   3.047888   3.637749   0.000000
    21  H    8.260599   3.815947   2.556460   2.413241   1.748983
    22  H    6.180308   4.008427   2.477317   4.490616   3.827406
    23  H    9.679848   6.766411   5.791764   6.898244   4.874708
    24  H    9.288604   5.312220   4.652241   5.239267   2.795395
    25  H    2.723761   2.989401   4.484520   6.491068   5.020496
    26  H    2.742576   2.230740   4.343007   5.943190   4.911337
    27  H    2.117577   4.065880   4.748787   6.356034   6.562948
    28  H    2.122144   4.500761   4.858109   6.849146   6.614551
    29  H    1.019914   5.136213   6.589474   8.528115   7.495194
    30  H    1.020940   5.797168   6.919299   8.701425   8.331651
    31  H    1.019908   4.780858   6.512297   8.159449   7.449273
                   21         22         23         24         25
    21  H    0.000000
    22  H    3.743515   0.000000
    23  H    4.885976   4.182805   0.000000
    24  H    2.885726   4.171906   2.533814   0.000000
    25  H    6.042581   4.051640   7.099300   6.656075   0.000000
    26  H    5.910670   4.873583   8.105341   7.143488   1.761089
    27  H    7.028666   5.258545   9.201200   8.583916   3.044404
    28  H    7.111937   4.491102   8.305642   8.153714   2.471886
    29  H    8.455350   6.181942   9.387109   9.164984   2.528226
    30  H    9.068643   6.832694  10.452566  10.162815   3.662770
    31  H    8.386792   6.724796  10.138599   9.523658   3.058293
                   26         27         28         29         30
    26  H    0.000000
    27  H    2.506413   0.000000
    28  H    3.049024   1.752935   0.000000
    29  H    3.061783   2.973284   2.443579   0.000000
    30  H    3.686171   2.433259   2.439450   1.643739   0.000000
    31  H    2.556732   2.442814   2.978435   1.646696   1.643518
                   31
    31  H    0.000000
 Symmetry turned off by external request.
 Stoichiometry    C9H15N4O3(1+)
 Framework group  C1[X(C9H15N4O3)]
 Deg. of freedom    87
 Full point group                 C1      NOp   1
 Rotational constants (GHZ):      0.5724950      0.3213214      0.2246511
 Standard basis: 6-311++G(d,p) (5D, 7F)
   457 basis functions,   711 primitive gaussians,   473 cartesian basis functions
    60 alpha electrons       60 beta electrons
       nuclear repulsion energy      1121.2879976823 Hartrees.
 NAtoms=   31 NActive=   31 NUniq=   31 SFac= 1.00D+00 NAtFMM=   60 NAOKFM=F Big=F
 Integral buffers will be    131072 words long.
 Raffenetti 2 integral format.
 Two-electron integral symmetry is turned off.
 One-electron integrals computed using PRISM.
 NBasis=   457 RedAO= T EigKep=  3.49D-06  NBF=   457
 NBsUse=   456 1.00D-06 EigRej=  9.52D-07 NBFU=   456
 ExpMin= 3.60D-02 ExpMax= 8.59D+03 ExpMxC= 1.30D+03 IAcc=3 IRadAn=         5 AccDes= 0.00D+00
 Harris functional with IExCor=  402 and IRadAn=       5 diagonalized for initial guess.
 HarFok:  IExCor=  402 AccDes= 0.00D+00 IRadAn=         5 IDoV= 1 UseB2=F ITyADJ=14
 ICtDFT=  3500011 ScaDFX=  1.000000  1.000000  1.000000  1.000000
 FoFCou: FMM=F IPFlag=           0 FMFlag=      100000 FMFlg1=           0
         NFxFlg=           0 DoJE=T BraDBF=F KetDBF=T FulRan=T
         wScrn=  0.000000 ICntrl=     500 IOpCl=  0 I1Cent=   200000004 NGrid=           0
         NMat0=    1 NMatS0=      1 NMatT0=    0 NMatD0=    1 NMtDS0=    0 NMtDT0=    0
 Symmetry not used in FoFCou.
 Requested convergence on RMS density matrix=1.00D-08 within 128 cycles.
 Requested convergence on MAX density matrix=1.00D-06.
 Requested convergence on             energy=1.00D-06.
 No special actions if energy rises.
 EnCoef did     1 forward-backward iterations
 SCF Done:  E(RB3LYP) =  -796.675928949     A.U. after   17 cycles
            NFock= 17  Conv=0.35D-08     -V/T= 2.0037
 DoSCS=F DFT=T ScalE2(SS,OS)=  1.000000  1.000000
 Range of M.O.s used for correlation:     1   456
 NBasis=   457 NAE=    60 NBE=    60 NFC=     0 NFV=     0
 NROrb=    456 NOA=    60 NOB=    60 NVA=   396 NVB=   396

 **** Warning!!: The largest alpha MO coefficient is  0.10382709D+03

 Symmetrizing basis deriv contribution to polar:
 IMax=3 JMax=2 DiffMx= 0.00D+00
 G2DrvN: will do    32 centers at a time, making    1 passes.
 Calling FoFCou, ICntrl=  3107 FMM=F I1Cent=   0 AccDes= 0.00D+00.
 End of G2Drv F.D. properties file   721 does not exist.
 End of G2Drv F.D. properties file   722 does not exist.
 End of G2Drv F.D. properties file   788 does not exist.
          IDoAtm=1111111111111111111111111111111
          Differentiating once with respect to nuclear coordinates.
          There are    96 degrees of freedom in the 1st order CPHF.  IDoFFX=6 NUNeed=     0.
     90 vectors produced by pass  0 Test12= 2.47D-14 1.04D-09 XBig12= 2.07D-01 8.27D-02.
 AX will form    90 AO Fock derivatives at one time.
     90 vectors produced by pass  1 Test12= 2.47D-14 1.04D-09 XBig12= 1.99D-02 2.91D-02.
     90 vectors produced by pass  2 Test12= 2.47D-14 1.04D-09 XBig12= 2.86D-04 2.00D-03.
     90 vectors produced by pass  3 Test12= 2.47D-14 1.04D-09 XBig12= 9.29D-07 9.79D-05.
     90 vectors produced by pass  4 Test12= 2.47D-14 1.04D-09 XBig12= 2.09D-09 3.79D-06.
     84 vectors produced by pass  5 Test12= 2.47D-14 1.04D-09 XBig12= 2.75D-12 1.82D-07.
     32 vectors produced by pass  6 Test12= 2.47D-14 1.04D-09 XBig12= 3.80D-15 6.37D-09.
      5 vectors produced by pass  7 Test12= 2.47D-14 1.04D-09 XBig12= 3.39D-16 1.93D-09.
 InvSVY:  IOpt=1 It=  1 EMax= 4.44D-16
 Solved reduced A of dimension   571 with    96 vectors.
 End of Minotr F.D. properties file   721 does not exist.
 End of Minotr F.D. properties file   722 does not exist.
 End of Minotr F.D. properties file   788 does not exist.

 **********************************************************************

            Population analysis using the SCF density.

 **********************************************************************

 Alpha  occ. eigenvalues --  -19.28389 -19.23586 -19.22984 -14.65094 -14.47756
 Alpha  occ. eigenvalues --  -14.45380 -14.37335 -10.42640 -10.42257 -10.42105
 Alpha  occ. eigenvalues --  -10.36395 -10.35384 -10.30608 -10.30542 -10.29618
 Alpha  occ. eigenvalues --  -10.26401  -1.22550  -1.22302  -1.18796  -1.14714
 Alpha  occ. eigenvalues --   -1.10512  -1.07113  -0.97868  -0.95798  -0.92206
 Alpha  occ. eigenvalues --   -0.86566  -0.83749  -0.80495  -0.79969  -0.77684
 Alpha  occ. eigenvalues --   -0.74153  -0.72548  -0.70761  -0.70213  -0.68950
 Alpha  occ. eigenvalues --   -0.67839  -0.65536  -0.63187  -0.62625  -0.60991
 Alpha  occ. eigenvalues --   -0.59057  -0.57611  -0.56888  -0.56180  -0.55473
 Alpha  occ. eigenvalues --   -0.54540  -0.52812  -0.52611  -0.51863  -0.50354
 Alpha  occ. eigenvalues --   -0.50135  -0.49521  -0.48436  -0.44036  -0.41252
 Alpha  occ. eigenvalues --   -0.41006  -0.39397  -0.36795  -0.35334  -0.31822
 Alpha virt. eigenvalues --   -0.20525  -0.15182  -0.14796  -0.13935  -0.12577
 Alpha virt. eigenvalues --   -0.11815  -0.10949  -0.10276  -0.09259  -0.08978
 Alpha virt. eigenvalues --   -0.08395  -0.07447  -0.07191  -0.06929  -0.06127
 Alpha virt. eigenvalues --   -0.05277  -0.04763  -0.04449  -0.03933  -0.03645
 Alpha virt. eigenvalues --   -0.03154  -0.02921  -0.02522  -0.01886  -0.01558
 Alpha virt. eigenvalues --   -0.01328  -0.00912  -0.00621   0.00030   0.00228
 Alpha virt. eigenvalues --    0.00845   0.01170   0.01303   0.01552   0.01846
 Alpha virt. eigenvalues --    0.02171   0.02275   0.02610   0.02725   0.03272
 Alpha virt. eigenvalues --    0.03845   0.04450   0.04713   0.04903   0.05260
 Alpha virt. eigenvalues --    0.05512   0.05894   0.06109   0.06319   0.06386
 Alpha virt. eigenvalues --    0.07209   0.07267   0.07776   0.08408   0.08972
 Alpha virt. eigenvalues --    0.09344   0.09568   0.09954   0.10443   0.10565
 Alpha virt. eigenvalues --    0.11017   0.11514   0.11854   0.12300   0.12544
 Alpha virt. eigenvalues --    0.13190   0.13322   0.13858   0.14053   0.14662
 Alpha virt. eigenvalues --    0.15510   0.16126   0.16241   0.16520   0.16852
 Alpha virt. eigenvalues --    0.17249   0.17553   0.18434   0.18688   0.19583
 Alpha virt. eigenvalues --    0.19843   0.19911   0.20721   0.21000   0.21462
 Alpha virt. eigenvalues --    0.21987   0.22070   0.22712   0.23333   0.23643
 Alpha virt. eigenvalues --    0.23778   0.24082   0.24846   0.25214   0.26244
 Alpha virt. eigenvalues --    0.26454   0.26548   0.27096   0.27350   0.27433
 Alpha virt. eigenvalues --    0.28150   0.28440   0.28775   0.29740   0.30318
 Alpha virt. eigenvalues --    0.31501   0.31884   0.33214   0.33637   0.34223
 Alpha virt. eigenvalues --    0.34425   0.35920   0.38324   0.38921   0.39817
 Alpha virt. eigenvalues --    0.40057   0.40672   0.42611   0.43741   0.44751
 Alpha virt. eigenvalues --    0.45741   0.46298   0.46877   0.47791   0.48444
 Alpha virt. eigenvalues --    0.49082   0.49803   0.50666   0.51904   0.52513
 Alpha virt. eigenvalues --    0.53291   0.54094   0.54775   0.55201   0.56309
 Alpha virt. eigenvalues --    0.56734   0.56968   0.57504   0.58759   0.58884
 Alpha virt. eigenvalues --    0.59946   0.60188   0.61209   0.61601   0.62335
 Alpha virt. eigenvalues --    0.63008   0.63707   0.64299   0.64623   0.66344
 Alpha virt. eigenvalues --    0.67096   0.67573   0.70056   0.70968   0.71712
 Alpha virt. eigenvalues --    0.73155   0.74497   0.75555   0.76402   0.77225
 Alpha virt. eigenvalues --    0.78922   0.79779   0.81633   0.82234   0.83951
 Alpha virt. eigenvalues --    0.84537   0.85540   0.86194   0.87091   0.89009
 Alpha virt. eigenvalues --    0.91460   0.92718   0.93736   0.94267   0.94926
 Alpha virt. eigenvalues --    0.97726   0.98090   0.99009   1.00608   1.02570
 Alpha virt. eigenvalues --    1.03688   1.04631   1.06128   1.06554   1.06745
 Alpha virt. eigenvalues --    1.08314   1.09015   1.10195   1.11215   1.12218
 Alpha virt. eigenvalues --    1.13926   1.14383   1.15360   1.16243   1.17440
 Alpha virt. eigenvalues --    1.20270   1.20757   1.21765   1.23005   1.23232
 Alpha virt. eigenvalues --    1.24649   1.26516   1.29555   1.29788   1.30617
 Alpha virt. eigenvalues --    1.33292   1.34909   1.35721   1.36288   1.37807
 Alpha virt. eigenvalues --    1.39727   1.40653   1.42227   1.43189   1.44037
 Alpha virt. eigenvalues --    1.46441   1.49006   1.49835   1.50395   1.51743
 Alpha virt. eigenvalues --    1.52473   1.52955   1.54089   1.54798   1.54878
 Alpha virt. eigenvalues --    1.56010   1.56272   1.57666   1.58256   1.59427
 Alpha virt. eigenvalues --    1.60870   1.61969   1.63563   1.63985   1.65083
 Alpha virt. eigenvalues --    1.65991   1.67335   1.69640   1.70282   1.72498
 Alpha virt. eigenvalues --    1.73071   1.74836   1.75088   1.75785   1.77452
 Alpha virt. eigenvalues --    1.78446   1.80205   1.82559   1.84888   1.86215
 Alpha virt. eigenvalues --    1.86410   1.90114   1.92643   1.93308   1.93853
 Alpha virt. eigenvalues --    1.96294   1.97836   1.98629   2.00617   2.02176
 Alpha virt. eigenvalues --    2.04923   2.07397   2.07666   2.09165   2.10183
 Alpha virt. eigenvalues --    2.11871   2.13463   2.15287   2.16519   2.17568
 Alpha virt. eigenvalues --    2.20406   2.20773   2.25153   2.27419   2.29243
 Alpha virt. eigenvalues --    2.30906   2.32292   2.34012   2.37486   2.39018
 Alpha virt. eigenvalues --    2.39412   2.40453   2.41200   2.43191   2.47193
 Alpha virt. eigenvalues --    2.47965   2.48795   2.49359   2.49832   2.50863
 Alpha virt. eigenvalues --    2.52257   2.53262   2.53856   2.55319   2.56132
 Alpha virt. eigenvalues --    2.58697   2.59941   2.61239   2.62556   2.64456
 Alpha virt. eigenvalues --    2.65915   2.67291   2.69886   2.71123   2.72355
 Alpha virt. eigenvalues --    2.72850   2.73823   2.76557   2.77358   2.77902
 Alpha virt. eigenvalues --    2.79127   2.80571   2.81416   2.81580   2.82651
 Alpha virt. eigenvalues --    2.83319   2.83679   2.84432   2.85336   2.86859
 Alpha virt. eigenvalues --    2.88106   2.90360   2.91030   2.93319   2.95793
 Alpha virt. eigenvalues --    2.96477   2.98040   3.01750   3.05970   3.07768
 Alpha virt. eigenvalues --    3.11797   3.13850   3.20204   3.22956   3.24196
 Alpha virt. eigenvalues --    3.27330   3.30060   3.34530   3.35967   3.42344
 Alpha virt. eigenvalues --    3.43440   3.46898   3.53331   3.56324   3.59736
 Alpha virt. eigenvalues --    3.61248   3.61737   3.64753   3.65327   3.71444
 Alpha virt. eigenvalues --    3.77496   3.78656   3.79615   3.80377   3.86971
 Alpha virt. eigenvalues --    3.88321   3.94572   3.95241   3.99130   4.09205
 Alpha virt. eigenvalues --    4.11310   4.25741   4.43243   4.43418   4.44634
 Alpha virt. eigenvalues --    4.57770   4.70580   4.71868   4.84227   4.86022
 Alpha virt. eigenvalues --    4.88665   4.97244   5.00415   5.08418   5.15369
 Alpha virt. eigenvalues --    5.20785   5.29333   5.49763   5.67335   5.78002
 Alpha virt. eigenvalues --   23.65386  23.68222  23.69748  23.71651  23.73661
 Alpha virt. eigenvalues --   23.77443  23.82039  23.88431  24.07657  35.31373
 Alpha virt. eigenvalues --   35.46411  35.49733  35.62767  49.78154  49.89290
 Alpha virt. eigenvalues --   49.91612
          Condensed to atoms (all electrons):
               1          2          3          4          5          6
     1  O    8.018557   0.276445  -0.113669  -0.074129   0.016538  -0.001428
     2  C    0.276445  10.074468  -0.330281  -1.542172   0.232653   0.026474
     3  N   -0.113669  -0.330281   8.021783  -1.373011   0.246504   0.008629
     4  C   -0.074129  -1.542172  -1.373011  15.909422  -3.168207  -0.115589
     5  C    0.016538   0.232653   0.246504  -3.168207   8.619010   0.282481
     6  O   -0.001428   0.026474   0.008629  -0.115589   0.282481   7.862638
     7  O   -0.000286   0.076046   0.047738  -0.202142   0.377011  -0.122028
     8  C    0.005735  -0.052897   0.330859  -1.178572  -0.458480  -0.111267
     9  C   -0.022679   0.283319   0.102863  -1.326700   0.293334   0.004466
    10  C    0.012138  -0.302759   0.262093  -1.047425  -0.107492  -0.023576
    11  N    0.001422   0.031735  -0.007303  -0.010412   0.006413   0.000246
    12  C    0.001510  -0.015140  -0.003115  -0.142520  -0.043366  -0.000302
    13  N   -0.000302   0.020513  -0.002870  -0.002384  -0.009719   0.001297
    14  C    0.150416  -2.637989  -0.435306  -0.309465   0.207237  -0.004421
    15  C   -0.035706   0.587204   0.020859  -0.192019   0.039631  -0.002347
    16  N    0.001187  -0.015294  -0.008360   0.010367  -0.003197   0.000016
    17  H   -0.003909  -0.046197   0.282039  -0.096363  -0.027985   0.009608
    18  H   -0.008471  -0.173476  -0.215934   1.223967  -0.316449   0.034782
    19  H    0.001953   0.002554   0.008019   0.029482  -0.043753   0.209876
    20  H   -0.001461   0.001660  -0.067620   0.311491  -0.063183   0.001181
    21  H   -0.000041   0.048016   0.090434  -0.420786   0.059432   0.022025
    22  H    0.028839   0.034553  -0.008352  -0.094163  -0.012182  -0.000964
    23  H    0.000023  -0.001763  -0.000730   0.000701  -0.001016  -0.000017
    24  H    0.000081   0.001257   0.001555  -0.027150  -0.000002  -0.000065
    25  H    0.005210  -0.236576   0.010606   0.013168  -0.007877   0.000086
    26  H    0.001591  -0.033068   0.003135   0.085543  -0.003582  -0.001129
    27  H   -0.005105  -0.111551  -0.000698  -0.005742  -0.003017   0.000698
    28  H   -0.000344   0.057142   0.006289  -0.006734   0.006044  -0.000126
    29  H    0.001545  -0.008848   0.002045   0.001392  -0.000245   0.000006
    30  H    0.000608   0.004921   0.000713  -0.000970   0.000280  -0.000009
    31  H   -0.000238   0.010525  -0.001739  -0.001310   0.000037   0.000012
               7          8          9         10         11         12
     1  O   -0.000286   0.005735  -0.022679   0.012138   0.001422   0.001510
     2  C    0.076046  -0.052897   0.283319  -0.302759   0.031735  -0.015140
     3  N    0.047738   0.330859   0.102863   0.262093  -0.007303  -0.003115
     4  C   -0.202142  -1.178572  -1.326700  -1.047425  -0.010412  -0.142520
     5  C    0.377011  -0.458480   0.293334  -0.107492   0.006413  -0.043366
     6  O   -0.122028  -0.111267   0.004466  -0.023576   0.000246  -0.000302
     7  O    7.987541   0.015685   0.007375   0.001984   0.000011  -0.000502
     8  C    0.015685   6.717050   0.350150   0.072532  -0.028187   0.030398
     9  C    0.007375   0.350150   8.677108  -1.874582   0.083689  -0.331807
    10  C    0.001984   0.072532  -1.874582   9.270541   0.403920  -0.347197
    11  N    0.000011  -0.028187   0.083689   0.403920   6.519149   0.252638
    12  C   -0.000502   0.030398  -0.331807  -0.347197   0.252638   5.699314
    13  N    0.000190  -0.054978   0.121785  -0.123317   0.031098   0.175994
    14  C   -0.000617  -0.105361  -0.121412  -0.034000  -0.006082  -0.009084
    15  C   -0.000517   0.010412  -0.018631   0.004399   0.000505  -0.001598
    16  N    0.000104  -0.001401   0.000430  -0.001187   0.000008  -0.000034
    17  H    0.050792   0.025871   0.046923  -0.010391  -0.000097  -0.003643
    18  H   -0.018955  -0.104039  -0.005986  -0.178860   0.000746   0.017631
    19  H    0.016067   0.030545  -0.000939   0.021834   0.000019  -0.001981
    20  H   -0.007986   0.328663  -0.205471  -0.025056  -0.000177   0.018664
    21  H    0.006221   0.349964   0.067736   0.076364   0.002449   0.000058
    22  H    0.000206   0.003922  -0.230751   0.571591  -0.093021   0.078563
    23  H   -0.000025   0.012139   0.046440  -0.038150  -0.071686   0.460252
    24  H    0.000174  -0.005392  -0.015347  -0.013436   0.009397  -0.000724
    25  H    0.001248  -0.000426  -0.002594   0.000647  -0.001182  -0.003180
    26  H   -0.008491  -0.020085  -0.015319  -0.000413  -0.000027   0.000226
    27  H    0.001102   0.000929   0.002349  -0.002205  -0.000005   0.000066
    28  H   -0.000174  -0.000127   0.001592  -0.000701   0.000218  -0.000060
    29  H   -0.000004  -0.000070   0.000227   0.000170  -0.000008   0.000061
    30  H    0.000002  -0.000085  -0.000007  -0.000222   0.000004  -0.000011
    31  H    0.000111   0.000276   0.000127  -0.000018   0.000000  -0.000009
              13         14         15         16         17         18
     1  O   -0.000302   0.150416  -0.035706   0.001187  -0.003909  -0.008471
     2  C    0.020513  -2.637989   0.587204  -0.015294  -0.046197  -0.173476
     3  N   -0.002870  -0.435306   0.020859  -0.008360   0.282039  -0.215934
     4  C   -0.002384  -0.309465  -0.192019   0.010367  -0.096363   1.223967
     5  C   -0.009719   0.207237   0.039631  -0.003197  -0.027985  -0.316449
     6  O    0.001297  -0.004421  -0.002347   0.000016   0.009608   0.034782
     7  O    0.000190  -0.000617  -0.000517   0.000104   0.050792  -0.018955
     8  C   -0.054978  -0.105361   0.010412  -0.001401   0.025871  -0.104039
     9  C    0.121785  -0.121412  -0.018631   0.000430   0.046923  -0.005986
    10  C   -0.123317  -0.034000   0.004399  -0.001187  -0.010391  -0.178860
    11  N    0.031098  -0.006082   0.000505   0.000008  -0.000097   0.000746
    12  C    0.175994  -0.009084  -0.001598  -0.000034  -0.003643   0.017631
    13  N    6.744850  -0.003759   0.001768  -0.000010  -0.000098   0.004064
    14  C   -0.003759   9.468546  -0.898144  -0.091930   0.076614  -0.039675
    15  C    0.001768  -0.898144   6.511729   0.081679  -0.031271  -0.030902
    16  N   -0.000010  -0.091930   0.081679   6.204326   0.000591   0.000505
    17  H   -0.000098   0.076614  -0.031271   0.000591   0.480512  -0.012463
    18  H    0.004064  -0.039675  -0.030902   0.000505  -0.012463   0.622113
    19  H   -0.000768   0.001862   0.000279   0.000000   0.001696  -0.037768
    20  H    0.010247   0.001875  -0.001602   0.000090  -0.022619   0.036907
    21  H    0.002589   0.002858   0.002505   0.000001   0.008900  -0.069406
    22  H    0.004626  -0.008989   0.008344  -0.000192  -0.004258  -0.023350
    23  H   -0.113430   0.000015  -0.000148  -0.000001  -0.000243   0.001643
    24  H    0.352665  -0.000962   0.000116  -0.000003   0.000824  -0.001448
    25  H    0.000680   0.609111  -0.079594   0.002113   0.010799  -0.000813
    26  H   -0.000048   0.317631  -0.003779   0.008133  -0.021087   0.005502
    27  H    0.000004   0.128628   0.336720  -0.017115   0.005681   0.001123
    28  H   -0.000106  -0.113434   0.398463  -0.017747  -0.000733  -0.000345
    29  H   -0.000017   0.022714  -0.029338   0.349447  -0.000098   0.000292
    30  H    0.000004  -0.006740  -0.013571   0.343303  -0.000268  -0.000179
    31  H    0.000001  -0.001181  -0.011936   0.349414   0.001162  -0.000110
              19         20         21         22         23         24
     1  O    0.001953  -0.001461  -0.000041   0.028839   0.000023   0.000081
     2  C    0.002554   0.001660   0.048016   0.034553  -0.001763   0.001257
     3  N    0.008019  -0.067620   0.090434  -0.008352  -0.000730   0.001555
     4  C    0.029482   0.311491  -0.420786  -0.094163   0.000701  -0.027150
     5  C   -0.043753  -0.063183   0.059432  -0.012182  -0.001016  -0.000002
     6  O    0.209876   0.001181   0.022025  -0.000964  -0.000017  -0.000065
     7  O    0.016067  -0.007986   0.006221   0.000206  -0.000025   0.000174
     8  C    0.030545   0.328663   0.349964   0.003922   0.012139  -0.005392
     9  C   -0.000939  -0.205471   0.067736  -0.230751   0.046440  -0.015347
    10  C    0.021834  -0.025056   0.076364   0.571591  -0.038150  -0.013436
    11  N    0.000019  -0.000177   0.002449  -0.093021  -0.071686   0.009397
    12  C   -0.001981   0.018664   0.000058   0.078563   0.460252  -0.000724
    13  N   -0.000768   0.010247   0.002589   0.004626  -0.113430   0.352665
    14  C    0.001862   0.001875   0.002858  -0.008989   0.000015  -0.000962
    15  C    0.000279  -0.001602   0.002505   0.008344  -0.000148   0.000116
    16  N    0.000000   0.000090   0.000001  -0.000192  -0.000001  -0.000003
    17  H    0.001696  -0.022619   0.008900  -0.004258  -0.000243   0.000824
    18  H   -0.037768   0.036907  -0.069406  -0.023350   0.001643  -0.001448
    19  H    0.479866  -0.004695   0.011379   0.003280  -0.000082   0.000211
    20  H   -0.004695   0.558639  -0.060240  -0.000823   0.001389  -0.004192
    21  H    0.011379  -0.060240   0.617611   0.002388  -0.001717   0.002540
    22  H    0.003280  -0.000823   0.002388   0.578829   0.000027   0.001183
    23  H   -0.000082   0.001389  -0.001717   0.000027   0.506945  -0.000456
    24  H    0.000211  -0.004192   0.002540   0.001183  -0.000456   0.383619
    25  H    0.000004  -0.001578   0.000248  -0.000551  -0.000153   0.000004
    26  H   -0.000363   0.005463  -0.000646  -0.001378   0.000022  -0.000136
    27  H    0.000037  -0.000267  -0.000052  -0.000268   0.000003   0.000005
    28  H   -0.000073  -0.000008   0.000140  -0.003381   0.000005  -0.000003
    29  H   -0.000003   0.000027  -0.000015  -0.000042   0.000003  -0.000001
    30  H   -0.000004  -0.000009   0.000017  -0.000036  -0.000001   0.000000
    31  H    0.000008  -0.000037  -0.000005  -0.000027   0.000000   0.000001
              25         26         27         28         29         30
     1  O    0.005210   0.001591  -0.005105  -0.000344   0.001545   0.000608
     2  C   -0.236576  -0.033068  -0.111551   0.057142  -0.008848   0.004921
     3  N    0.010606   0.003135  -0.000698   0.006289   0.002045   0.000713
     4  C    0.013168   0.085543  -0.005742  -0.006734   0.001392  -0.000970
     5  C   -0.007877  -0.003582  -0.003017   0.006044  -0.000245   0.000280
     6  O    0.000086  -0.001129   0.000698  -0.000126   0.000006  -0.000009
     7  O    0.001248  -0.008491   0.001102  -0.000174  -0.000004   0.000002
     8  C   -0.000426  -0.020085   0.000929  -0.000127  -0.000070  -0.000085
     9  C   -0.002594  -0.015319   0.002349   0.001592   0.000227  -0.000007
    10  C    0.000647  -0.000413  -0.002205  -0.000701   0.000170  -0.000222
    11  N   -0.001182  -0.000027  -0.000005   0.000218  -0.000008   0.000004
    12  C   -0.003180   0.000226   0.000066  -0.000060   0.000061  -0.000011
    13  N    0.000680  -0.000048   0.000004  -0.000106  -0.000017   0.000004
    14  C    0.609111   0.317631   0.128628  -0.113434   0.022714  -0.006740
    15  C   -0.079594  -0.003779   0.336720   0.398463  -0.029338  -0.013571
    16  N    0.002113   0.008133  -0.017115  -0.017747   0.349447   0.343303
    17  H    0.010799  -0.021087   0.005681  -0.000733  -0.000098  -0.000268
    18  H   -0.000813   0.005502   0.001123  -0.000345   0.000292  -0.000179
    19  H    0.000004  -0.000363   0.000037  -0.000073  -0.000003  -0.000004
    20  H   -0.001578   0.005463  -0.000267  -0.000008   0.000027  -0.000009
    21  H    0.000248  -0.000646  -0.000052   0.000140  -0.000015   0.000017
    22  H   -0.000551  -0.001378  -0.000268  -0.003381  -0.000042  -0.000036
    23  H   -0.000153   0.000022   0.000003   0.000005   0.000003  -0.000001
    24  H    0.000004  -0.000136   0.000005  -0.000003  -0.000001   0.000000
    25  H    0.544536  -0.075459   0.011212  -0.019342   0.000530   0.000122
    26  H   -0.075459   0.608700  -0.023930   0.014119   0.001274   0.003206
    27  H    0.011212  -0.023930   0.459602  -0.023057   0.003402  -0.005234
    28  H   -0.019342   0.014119  -0.023057   0.416918  -0.006389   0.001558
    29  H    0.000530   0.001274   0.003402  -0.006389   0.362918  -0.011743
    30  H    0.000122   0.003206  -0.005234   0.001558  -0.011743   0.347181
    31  H    0.001873  -0.003089  -0.007322   0.001701  -0.030293  -0.013594
              31
     1  O   -0.000238
     2  C    0.010525
     3  N   -0.001739
     4  C   -0.001310
     5  C    0.000037
     6  O    0.000012
     7  O    0.000111
     8  C    0.000276
     9  C    0.000127
    10  C   -0.000018
    11  N    0.000000
    12  C   -0.000009
    13  N    0.000001
    14  C   -0.001181
    15  C   -0.011936
    16  N    0.349414
    17  H    0.001162
    18  H   -0.000110
    19  H    0.000008
    20  H   -0.000037
    21  H   -0.000005
    22  H   -0.000027
    23  H    0.000000
    24  H    0.000001
    25  H    0.001873
    26  H   -0.003089
    27  H   -0.007322
    28  H    0.001701
    29  H   -0.030293
    30  H   -0.013594
    31  H    0.365389
 Mulliken charges:
               1
     1  O   -0.256028
     2  C   -0.261473
     3  N    0.122824
     4  C   -0.247569
     5  C   -0.116854
     6  O   -0.081251
     7  O   -0.227882
     8  C   -0.163764
     9  C    0.082311
    10  C   -0.567223
    11  N   -0.125478
    12  C    0.168900
    13  N   -0.160568
    14  C   -0.158958
    15  C   -0.653508
    16  N   -0.195242
    17  H    0.279710
    18  H    0.289355
    19  H    0.271459
    20  H    0.190727
    21  H    0.179030
    22  H    0.166377
    23  H    0.200010
    24  H    0.315684
    25  H    0.217128
    26  H    0.157483
    27  H    0.254008
    28  H    0.288693
    29  H    0.341062
    30  H    0.350764
    31  H    0.340272
 Sum of Mulliken charges =   1.00000
 Mulliken charges with hydrogens summed into heavy atoms:
               1
     1  O   -0.256028
     2  C   -0.261473
     3  N    0.402533
     4  C    0.041786
     5  C   -0.116854
     6  O    0.190208
     7  O   -0.227882
     8  C    0.205993
     9  C    0.082311
    10  C   -0.400846
    11  N   -0.125478
    12  C    0.368910
    13  N    0.155116
    14  C    0.215654
    15  C   -0.110807
    16  N    0.836856
 APT charges:
               1
     1  O   -0.325697
     2  C   -0.137839
     3  N   -0.354396
     4  C   -0.630619
     5  C   -0.964101
     6  O    0.099070
     7  O    0.086549
     8  C   -0.575884
     9  C   -0.214253
    10  C   -0.186572
    11  N   -0.482122
    12  C   -0.210540
    13  N   -0.634471
    14  C   -0.489085
    15  C   -0.410611
    16  N   -1.757448
    17  H    0.535355
    18  H    0.338869
    19  H    0.414511
    20  H    0.378064
    21  H    0.611367
    22  H    0.076845
    23  H    1.122001
    24  H    0.929523
    25  H    0.324728
    26  H    0.374242
    27  H    0.364333
    28  H    0.287309
    29  H    0.555671
    30  H    1.216492
    31  H    0.658711
 Sum of APT charges =   1.00000
 APT charges with hydrogens summed into heavy atoms:
               1
     1  O   -0.325697
     2  C   -0.137839
     3  N    0.180959
     4  C   -0.291750
     5  C   -0.964101
     6  O    0.513580
     7  O    0.086549
     8  C    0.413547
     9  C   -0.214253
    10  C   -0.109727
    11  N   -0.482122
    12  C    0.911461
    13  N    0.295051
    14  C    0.209886
    15  C    0.241031
    16  N    0.673426
 Electronic spatial extent (au):  <R**2>=           4832.7305
 Charge=              1.0000 electrons
 Dipole moment (field-independent basis, Debye):
    X=            -15.5543    Y=              4.4770    Z=              3.7020  Tot=             16.6037
 Quadrupole moment (field-independent basis, Debye-Ang):
   XX=             32.8909   YY=            -90.3287   ZZ=           -108.5832
   XY=            -21.7969   XZ=             -2.5411   YZ=             15.2271
 Traceless Quadrupole moment (field-independent basis, Debye-Ang):
   XX=             88.2313   YY=            -34.9884   ZZ=            -53.2429
   XY=            -21.7969   XZ=             -2.5411   YZ=             15.2271
 Octapole moment (field-independent basis, Debye-Ang**2):
  XXX=           -505.6564  YYY=             72.3489  ZZZ=             30.6384  XYY=            -63.6931
  XXY=            142.5691  XXZ=             42.1358  XZZ=            -79.6953  YZZ=             29.3038
  YYZ=            -20.4736  XYZ=             10.6611
 Hexadecapole moment (field-independent basis, Debye-Ang**3):
 XXXX=           -661.8855 YYYY=          -1468.8525 ZZZZ=          -1125.9476 XXXY=           -309.7427
 XXXZ=            124.2061 YYYX=            -53.9730 YYYZ=            514.6542 ZZZX=            273.4974
 ZZZY=            506.2282 XXYY=           -601.8768 XXZZ=           -760.5836 YYZZ=           -501.7685
 XXYZ=            143.9649 YYXZ=             31.6356 ZZXY=            -27.0086
 N-N= 1.121287997682D+03 E-N=-4.088638540336D+03  KE= 7.937783018734D+02
  Exact polarizability:   0.000   0.000   0.000   0.000   0.000   0.000
 Approx polarizability: 202.063   2.306 178.997   7.108 -11.407 221.629
 Calling FoFJK, ICntrl=    100147 FMM=F ISym2X=0 I1Cent= 0 IOpClX= 0 NMat=1 NMatS=1 NMatT=0.
 -------------------------------------------------------------------
 Center     Atomic                   Forces (Hartrees/Bohr)
 Number     Number              X              Y              Z
 -------------------------------------------------------------------
      1        8          -0.011184540    0.005147314    0.008588532
      2        6           0.018074407   -0.009577869   -0.011219521
      3        7          -0.014397109    0.002678861   -0.000990175
      4        6           0.004107332    0.001731496   -0.002596880
      5        6           0.003823287   -0.012223548    0.001669984
      6        8          -0.003343212    0.005150961    0.003210166
      7        8          -0.003459521    0.003375744    0.000838076
      8        6           0.007921321    0.005912494   -0.005944191
      9        6           0.002719015   -0.002278987    0.006189721
     10        6          -0.005628841    0.002872519   -0.006117572
     11        7          -0.002484002   -0.002572669    0.002366618
     12        6          -0.001805099    0.003231388   -0.006295670
     13        7           0.000546372   -0.004971445    0.008038556
     14        6          -0.008010167    0.009349837    0.008955196
     15        6           0.023648146   -0.016788037   -0.012389333
     16        7          -0.005602256    0.002338831    0.001045821
     17        1           0.001353565    0.000804544    0.002315173
     18        1          -0.001200471   -0.001425938   -0.001251472
     19        1           0.002517155   -0.003280867   -0.003953966
     20        1          -0.000722832   -0.000154325    0.004224342
     21        1           0.000184457   -0.001348801    0.001378565
     22        1           0.000656933    0.001016385   -0.004250626
     23        1           0.001631197    0.001473159   -0.000818745
     24        1           0.002844888    0.000752654    0.000925625
     25        1           0.003163246    0.002210161    0.000818688
     26        1          -0.000084523    0.000302076    0.002632530
     27        1          -0.006748107    0.000447089    0.001036045
     28        1          -0.005023214    0.002102381   -0.000942031
     29        1           0.000456427    0.005010797    0.000288119
     30        1          -0.002992869   -0.001132058   -0.002414165
     31        1          -0.000960986   -0.000154148    0.004662590
 -------------------------------------------------------------------
 Cartesian Forces:  Max     0.023648146 RMS     0.005869505
 FormGI is forming the generalized inverse of G from B-inverse, IUseBI=4.
 GSVD:  received Info=                   1 from GESDD.

 GradGradGradGradGradGradGradGradGradGradGradGradGradGradGradGradGradGrad
 Berny optimization.
 Internal  Forces:  Max     0.014535002 RMS     0.003434614
 Search for a local minimum.
 Step number   1 out of a maximum of  167
 All quantities printed in internal units (Hartrees-Bohrs-Radians)
 Mixed Optimization -- RFO/linear search
 Second derivative matrix not updated -- analytic derivatives used.
 ITU=  0
     Eigenvalues ---    0.00030   0.00085   0.00162   0.00201   0.00292
     Eigenvalues ---    0.00446   0.00485   0.00572   0.00901   0.00909
     Eigenvalues ---    0.01057   0.01762   0.02161   0.02689   0.03350
     Eigenvalues ---    0.03813   0.03892   0.03962   0.04054   0.04308
     Eigenvalues ---    0.04335   0.04482   0.04917   0.04998   0.05117
     Eigenvalues ---    0.05278   0.05580   0.05818   0.06111   0.07478
     Eigenvalues ---    0.08331   0.08390   0.10476   0.10631   0.11108
     Eigenvalues ---    0.11795   0.11845   0.12381   0.13024   0.13387
     Eigenvalues ---    0.13721   0.15679   0.15851   0.16613   0.16683
     Eigenvalues ---    0.17727   0.18415   0.20014   0.20646   0.21828
     Eigenvalues ---    0.22789   0.22992   0.23486   0.23992   0.24363
     Eigenvalues ---    0.26767   0.29309   0.29496   0.31292   0.32471
     Eigenvalues ---    0.32545   0.33112   0.33510   0.33796   0.33943
     Eigenvalues ---    0.34080   0.34214   0.34721   0.35068   0.36231
     Eigenvalues ---    0.37431   0.37570   0.40326   0.41562   0.41875
     Eigenvalues ---    0.43392   0.43564   0.44464   0.44537   0.45955
     Eigenvalues ---    0.46941   0.48031   0.48278   0.53309   0.58144
     Eigenvalues ---    0.78087   0.89975
 RFO step:  Lambda=-9.29895676D-03 EMin= 2.96704719D-04
 Linear search not attempted -- first point.
 Iteration  1 RMS(Cart)=  0.09758922 RMS(Int)=  0.00257487
 Iteration  2 RMS(Cart)=  0.00515118 RMS(Int)=  0.00035824
 Iteration  3 RMS(Cart)=  0.00001251 RMS(Int)=  0.00035817
 Iteration  4 RMS(Cart)=  0.00000001 RMS(Int)=  0.00035817
 Variable       Old X    -DE/DX   Delta X   Delta X   Delta X     New X
                                 (Linear)    (Quad)   (Total)
    R1        2.31778  -0.01025   0.00000  -0.01105  -0.01105   2.30672
    R2        2.58343  -0.00436   0.00000  -0.02808  -0.02808   2.55534
    R3        2.86585   0.00489   0.00000   0.03603   0.03603   2.90188
    R4        2.73361   0.00852   0.00000   0.02197   0.02197   2.75558
    R5        1.91152   0.00204   0.00000   0.00337   0.00337   1.91489
    R6        2.88133   0.00651   0.00000   0.02578   0.02578   2.90711
    R7        2.90090   0.00697   0.00000   0.01961   0.01961   2.92051
    R8        2.05995   0.00179   0.00000   0.00468   0.00468   2.06464
    R9        2.55480  -0.00171   0.00000  -0.01677  -0.01677   2.53803
   R10        2.26626   0.00238   0.00000   0.00390   0.00390   2.27016
   R11        1.81874   0.00410   0.00000   0.00742   0.00742   1.82616
   R12        2.83948  -0.00060   0.00000  -0.00824  -0.00824   2.83124
   R13        2.06179   0.00364   0.00000   0.01099   0.01099   2.07279
   R14        2.07039   0.00103   0.00000   0.00321   0.00321   2.07359
   R15        2.57541   0.01068   0.00000   0.02068   0.02069   2.59610
   R16        2.61457   0.00193   0.00000   0.00112   0.00111   2.61568
   R17        2.61419  -0.00330   0.00000  -0.01087  -0.01085   2.60334
   R18        2.03705   0.00027   0.00000   0.00130   0.00130   2.03835
   R19        2.47698   0.00059   0.00000  -0.00201  -0.00201   2.47497
   R20        2.56593   0.00798   0.00000   0.01910   0.01909   2.58502
   R21        2.03403   0.00233   0.00000   0.00571   0.00571   2.03974
   R22        1.90120   0.00270   0.00000   0.00526   0.00526   1.90646
   R23        2.87487   0.00358   0.00000   0.00252   0.00252   2.87738
   R24        2.06651   0.00271   0.00000   0.00556   0.00556   2.07207
   R25        2.06375   0.00251   0.00000   0.00453   0.00453   2.06828
   R26        2.81112   0.01149   0.00000   0.05976   0.05976   2.87088
   R27        2.05860   0.00093   0.00000   0.00076   0.00076   2.05936
   R28        2.05853   0.00071   0.00000  -0.00079  -0.00079   2.05773
   R29        1.92736   0.00499   0.00000   0.00939   0.00939   1.93675
   R30        1.92930   0.00395   0.00000   0.00720   0.00720   1.93650
   R31        1.92735   0.00468   0.00000   0.00859   0.00859   1.93594
    A1        2.13854   0.01224   0.00000   0.04523   0.04523   2.18378
    A2        2.13957  -0.01270   0.00000  -0.05502  -0.05503   2.08454
    A3        2.00349   0.00047   0.00000   0.01007   0.01007   2.01356
    A4        2.11097   0.00550   0.00000   0.02379   0.02291   2.13388
    A5        2.05456  -0.00167   0.00000   0.01319   0.01234   2.06690
    A6        1.99409  -0.00271   0.00000  -0.00176  -0.00277   1.99132
    A7        1.89334  -0.00258   0.00000  -0.01757  -0.01754   1.87580
    A8        1.97257  -0.00143   0.00000  -0.01545  -0.01535   1.95721
    A9        1.86962   0.00125   0.00000   0.00195   0.00199   1.87161
   A10        1.89673   0.00288   0.00000   0.01561   0.01538   1.91211
   A11        1.92938  -0.00084   0.00000  -0.00273  -0.00299   1.92639
   A12        1.90238   0.00063   0.00000   0.01772   0.01767   1.92004
   A13        2.01483   0.00563   0.00000   0.02302   0.02301   2.03785
   A14        2.16079  -0.00736   0.00000  -0.03093  -0.03094   2.12985
   A15        2.10685   0.00176   0.00000   0.00814   0.00814   2.11499
   A16        1.91811   0.00718   0.00000   0.03851   0.03851   1.95661
   A17        1.98964   0.00086   0.00000  -0.00762  -0.00763   1.98200
   A18        1.90880  -0.00243   0.00000  -0.02408  -0.02410   1.88470
   A19        1.89523  -0.00023   0.00000  -0.00048  -0.00050   1.89472
   A20        1.91576   0.00116   0.00000   0.01305   0.01282   1.92859
   A21        1.89533   0.00075   0.00000   0.02498   0.02492   1.92025
   A22        1.85406  -0.00017   0.00000  -0.00547  -0.00576   1.84831
   A23        2.33349   0.00165   0.00000  -0.00008  -0.00010   2.33339
   A24        2.12611  -0.00187   0.00000  -0.00157  -0.00160   2.12452
   A25        1.82329   0.00022   0.00000   0.00181   0.00183   1.82512
   A26        1.94012  -0.00121   0.00000  -0.00481  -0.00486   1.93525
   A27        2.20269   0.00473   0.00000   0.03156   0.03146   2.23415
   A28        2.13999  -0.00349   0.00000  -0.02611  -0.02622   2.11377
   A29        1.83206   0.00284   0.00000   0.01042   0.01046   1.84252
   A30        1.94928   0.00035   0.00000  -0.00303  -0.00303   1.94626
   A31        2.19919  -0.00043   0.00000   0.00237   0.00237   2.20156
   A32        2.13471   0.00008   0.00000   0.00066   0.00066   2.13537
   A33        1.88002  -0.00220   0.00000  -0.00440  -0.00440   1.87562
   A34        2.19506   0.00249   0.00000   0.01302   0.01301   2.20808
   A35        2.20810  -0.00030   0.00000  -0.00863  -0.00863   2.19947
   A36        1.96228  -0.01454   0.00000  -0.08494  -0.08494   1.87734
   A37        1.88125   0.00190   0.00000  -0.00921  -0.00940   1.87185
   A38        1.91394   0.00555   0.00000   0.03593   0.03646   1.95040
   A39        1.90230   0.00572   0.00000   0.02714   0.02561   1.92791
   A40        1.92746   0.00437   0.00000   0.02677   0.02696   1.95442
   A41        1.87390  -0.00256   0.00000   0.00739   0.00669   1.88058
   A42        1.95276  -0.00258   0.00000  -0.00862  -0.00817   1.94459
   A43        1.91108   0.00456   0.00000   0.04481   0.04415   1.95523
   A44        1.89777   0.00373   0.00000   0.03296   0.03217   1.92994
   A45        1.91200  -0.00309   0.00000  -0.04529  -0.04523   1.86678
   A46        1.91839  -0.00274   0.00000  -0.04291  -0.04290   1.87549
   A47        1.86994   0.00032   0.00000   0.02121   0.01854   1.88848
   A48        1.94014   0.00073   0.00000   0.00103   0.00102   1.94116
   A49        1.95171  -0.00111   0.00000  -0.01068  -0.01068   1.94103
   A50        1.94405   0.00095   0.00000   0.00584   0.00584   1.94990
   A51        1.87276   0.00014   0.00000   0.00323   0.00322   1.87598
   A52        1.87904  -0.00091   0.00000  -0.00358  -0.00359   1.87545
   A53        1.87240   0.00016   0.00000   0.00440   0.00442   1.87682
    D1       -0.23967   0.00170   0.00000   0.07034   0.07069  -0.16899
    D2       -2.83817   0.00034   0.00000  -0.00017  -0.00030  -2.83847
    D3        2.96087   0.00204   0.00000   0.06708   0.06722   3.02809
    D4        0.36238   0.00068   0.00000  -0.00343  -0.00378   0.35860
    D5        0.47871  -0.00072   0.00000  -0.03713  -0.03633   0.44238
    D6       -1.61824  -0.00021   0.00000  -0.01285  -0.01335  -1.63159
    D7        2.63018  -0.00120   0.00000  -0.03581  -0.03590   2.59429
    D8       -2.72188  -0.00012   0.00000  -0.03009  -0.02944  -2.75131
    D9        1.46436   0.00040   0.00000  -0.00581  -0.00646   1.45790
   D10       -0.57040  -0.00060   0.00000  -0.02877  -0.02901  -0.59941
   D11       -1.99828   0.00089   0.00000  -0.01769  -0.01755  -2.01583
   D12        2.18030  -0.00005   0.00000  -0.01535  -0.01538   2.16492
   D13        0.08477  -0.00081   0.00000  -0.02936  -0.02934   0.05542
   D14        0.61766   0.00240   0.00000   0.05455   0.05461   0.67227
   D15       -1.48694   0.00146   0.00000   0.05689   0.05677  -1.43017
   D16        2.70071   0.00070   0.00000   0.04288   0.04281   2.74352
   D17        2.78637   0.00025   0.00000   0.01527   0.01537   2.80174
   D18       -0.39544   0.00106   0.00000   0.02217   0.02222  -0.37322
   D19       -1.34583  -0.00131   0.00000  -0.00491  -0.00490  -1.35073
   D20        1.75555  -0.00051   0.00000   0.00199   0.00196   1.75751
   D21        0.74124   0.00075   0.00000   0.02489   0.02485   0.76609
   D22       -2.44057   0.00156   0.00000   0.03178   0.03170  -2.40886
   D23       -1.23875  -0.00065   0.00000   0.01870   0.01864  -1.22011
   D24        0.91302  -0.00037   0.00000   0.01193   0.01196   0.92498
   D25        2.92917  -0.00201   0.00000  -0.00786  -0.00782   2.92134
   D26        2.94177   0.00153   0.00000   0.04001   0.04006   2.98182
   D27       -1.18965   0.00181   0.00000   0.03324   0.03338  -1.15627
   D28        0.82650   0.00017   0.00000   0.01345   0.01359   0.84009
   D29        0.83793   0.00045   0.00000   0.02342   0.02325   0.86118
   D30        2.98970   0.00073   0.00000   0.01665   0.01657   3.00627
   D31       -1.27734  -0.00091   0.00000  -0.00314  -0.00321  -1.28055
   D32       -0.07410  -0.00020   0.00000  -0.01283  -0.01276  -0.08686
   D33        3.10636  -0.00075   0.00000  -0.01850  -0.01857   3.08779
   D34       -0.08776  -0.00136   0.00000  -0.04326  -0.04335  -0.13111
   D35        3.08421  -0.00132   0.00000  -0.05123  -0.05125   3.03296
   D36       -2.23575   0.00031   0.00000  -0.01623  -0.01613  -2.25188
   D37        0.93623   0.00036   0.00000  -0.02421  -0.02404   0.91219
   D38        2.02745  -0.00054   0.00000  -0.03084  -0.03096   1.99649
   D39       -1.08376  -0.00050   0.00000  -0.03882  -0.03886  -1.12262
   D40       -3.11728  -0.00012   0.00000  -0.00837  -0.00833  -3.12561
   D41        0.05357  -0.00092   0.00000  -0.03234  -0.03259   0.02099
   D42       -0.00235  -0.00019   0.00000  -0.00141  -0.00142  -0.00377
   D43       -3.11468  -0.00099   0.00000  -0.02539  -0.02568  -3.14036
   D44        3.12008   0.00016   0.00000   0.00649   0.00639   3.12647
   D45       -0.02069   0.00018   0.00000   0.01161   0.01162  -0.00908
   D46        0.00117   0.00016   0.00000   0.00055   0.00050   0.00167
   D47       -3.13960   0.00018   0.00000   0.00567   0.00572  -3.13388
   D48        0.00263   0.00015   0.00000   0.00175   0.00182   0.00445
   D49        3.11620   0.00107   0.00000   0.02583   0.02524   3.14144
   D50       -0.00184  -0.00004   0.00000  -0.00138  -0.00148  -0.00332
   D51        3.13945  -0.00016   0.00000  -0.00313  -0.00314   3.13631
   D52        0.00045  -0.00009   0.00000   0.00054   0.00062   0.00107
   D53        3.14121  -0.00010   0.00000  -0.00463  -0.00456   3.13665
   D54       -3.14086   0.00003   0.00000   0.00221   0.00221  -3.13865
   D55       -0.00010   0.00002   0.00000  -0.00295  -0.00297  -0.00307
   D56       -3.11501   0.00140   0.00000   0.05442   0.05445  -3.06057
   D57        1.04494   0.00388   0.00000   0.08653   0.08714   1.13208
   D58       -0.99284  -0.00117   0.00000   0.01738   0.01684  -0.97600
   D59       -1.03028  -0.00153   0.00000   0.00766   0.00735  -1.02293
   D60        3.12967   0.00095   0.00000   0.03977   0.04005  -3.11347
   D61        1.09189  -0.00410   0.00000  -0.02938  -0.03025   1.06163
   D62        1.02428   0.00134   0.00000   0.04863   0.04890   1.07318
   D63       -1.09895   0.00382   0.00000   0.08075   0.08159  -1.01736
   D64       -3.13674  -0.00123   0.00000   0.01160   0.01130  -3.12544
   D65        1.04370  -0.00025   0.00000  -0.00393  -0.00391   1.03979
   D66        3.13642  -0.00033   0.00000  -0.00635  -0.00632   3.13010
   D67       -1.05181  -0.00023   0.00000  -0.00402  -0.00400  -1.05582
   D68       -3.11678   0.00167   0.00000   0.01580   0.01553  -3.10125
   D69       -1.02406   0.00159   0.00000   0.01339   0.01312  -1.01094
   D70        1.07089   0.00169   0.00000   0.01572   0.01544   1.08633
   D71       -1.06655  -0.00139   0.00000  -0.01052  -0.01027  -1.07682
   D72        1.02617  -0.00146   0.00000  -0.01294  -0.01268   1.01349
   D73        3.12112  -0.00136   0.00000  -0.01061  -0.01036   3.11076
         Item               Value     Threshold  Converged?
 Maximum Force            0.014535     0.000450     NO 
 RMS     Force            0.003435     0.000300     NO 
 Maximum Displacement     0.363212     0.001800     NO 
 RMS     Displacement     0.099789     0.001200     NO 
 Predicted change in Energy=-5.138034D-03
 GradGradGradGradGradGradGradGradGradGradGradGradGradGradGradGradGradGrad

                          Input orientation:                          
 ---------------------------------------------------------------------
 Center     Atomic      Atomic             Coordinates (Angstroms)
 Number     Number       Type             X           Y           Z
 ---------------------------------------------------------------------
      1          8           0       -1.153305   -0.588673   -1.199362
      2          6           0       -1.102699   -0.225604   -0.035040
      3          7           0       -0.061038   -0.436452    0.801029
      4          6           0        1.051207   -1.312929    0.453154
      5          6           0        1.034534   -2.493897    1.438870
      6          8           0        1.697795   -3.601097    1.067349
      7          8           0        0.487290   -2.425377    2.506103
      8          6           0        2.413128   -0.587384    0.538116
      9          6           0        2.611581    0.441162   -0.533051
     10          6           0        1.900309    0.792816   -1.654546
     11          7           0        2.529190    1.812100   -2.335299
     12          6           0        3.611356    2.078874   -1.647510
     13          7           0        3.713584    1.278652   -0.542775
     14          6           0       -2.258636    0.599417    0.549123
     15          6           0       -3.509163    0.272364   -0.255654
     16          7           0       -4.687043    1.128717    0.177053
     17          1           0       -0.215383   -0.339720    1.797841
     18          1           0        0.878606   -1.665913   -0.566304
     19          1           0        2.045910   -3.532086    0.168509
     20          1           0        2.490684   -0.127814    1.531046
     21          1           0        3.212227   -1.337906    0.490982
     22          1           0        0.971144    0.375657   -2.009672
     23          1           0        4.352082    2.825475   -1.890374
     24          1           0        4.460619    1.295659    0.135046
     25          1           0       -1.994089    1.657203    0.433386
     26          1           0       -2.396417    0.404883    1.617335
     27          1           0       -3.811567   -0.767778   -0.136307
     28          1           0       -3.341831    0.458485   -1.315406
     29          1           0       -4.485460    2.126066    0.054385
     30          1           0       -5.523961    0.913718   -0.373814
     31          1           0       -4.920665    0.981492    1.163590
 ---------------------------------------------------------------------
                    Distance matrix (angstroms):
                    1          2          3          4          5
     1  O    0.000000
     2  C    1.220665   0.000000
     3  N    2.284247   1.352230   0.000000
     4  C    2.848724   2.461691   1.458190   0.000000
     5  C    3.921325   3.447511   2.416650   1.538376   0.000000
     6  O    4.726675   4.522387   3.630344   2.455815   1.343070
     7  O    4.449214   3.718128   2.676521   2.402112   1.201314
     8  C    3.967149   3.580563   2.492670   1.545465   2.519260
     9  C    3.959659   3.806372   3.113337   2.546410   3.871707
    10  C    3.382346   3.560623   3.374586   3.097989   4.595789
    11  N    4.540356   4.757526   4.647776   4.441364   5.917766
    12  C    5.478927   5.489353   5.080225   4.740409   6.089005
    13  N    5.254010   5.071209   4.358344   3.846611   5.033523
    14  C    2.385479   1.535609   2.442522   3.823785   4.604911
    15  C    2.679932   2.467329   3.675400   4.879809   5.582902
    16  N    4.163082   3.837537   4.923314   6.242226   6.888538
    17  H    3.150381   2.039560   1.013318   2.087958   2.516273
    18  H    2.385345   2.506452   2.064972   1.092559   2.174993
    19  H    4.557382   4.570339   3.797666   2.448492   1.927313
    20  H    4.576699   3.921045   2.671979   2.153705   2.779787
    21  H    4.740937   4.486926   3.409254   2.161496   2.641431
    22  H    2.469781   2.926006   3.102412   2.987180   4.486736
    23  H    6.514844   6.519661   6.112237   5.789153   7.098289
    24  H    6.070214   5.770068   4.887650   4.304650   5.272452
    25  H    2.901162   2.135173   2.873193   4.253928   5.235952
    26  H    3.235159   2.191247   2.613081   4.023966   4.495130
    27  H    2.868540   2.764448   3.880057   4.928613   5.380089
    28  H    2.428920   2.668526   4.005473   5.056135   5.954424
    29  H    4.477158   4.120852   5.167154   6.529960   7.330156
    30  H    4.694821   4.578251   5.748630   6.991042   7.609962
    31  H    4.716138   4.179792   5.075233   6.436796   6.900616
                    6          7          8          9         10
     6  O    0.000000
     7  O    2.217578   0.000000
     8  C    3.142333   3.310596   0.000000
     9  C    4.442538   4.686802   1.498228   0.000000
    10  C    5.172640   5.446503   2.641155   1.373798   0.000000
    11  N    6.447631   6.750166   3.745331   2.265913   1.377627
[...]
 12138,0.00001931,0.00001902,-0.00003251,0.00008380,-0.00001048,0.00003
 613,-0.00000727,0.00001970,-0.00006457,-0.00008384,-0.00009440,0.00970
 028,0.03817106,-0.05391697,-0.00529216,-0.01722642,0.00275898,0.000826
 96,-0.00018255,0.00080923,0.00025070,0.00048299,0.00001537,-0.00004524
 ,0.00001197,-0.00002431,0.00001088,-0.00002013,-0.00001495,-0.00000829
 ,0.00000888,-0.00002060,-0.00000082,0.00000974,-0.00001413,0.00000446,
 -0.00008797,-0.00002758,-0.00000506,0.00000163,0.00000399,-0.00000484,
 0.00001275,0.00002164,-0.01054048,-0.04079277,0.05440848,-0.00248738,0
 .00547972,0.00203456,0.00249091,-0.00921971,0.02199601,-0.00052173,0.0
 0030259,-0.00135543,0.00014170,-0.00008164,-0.00047860,-0.00018070,0.0
 0009262,0.00038424,0.00003866,-0.00003554,-0.00011000,0.00011290,-0.00
 003951,-0.00022361,0.00005173,-0.00002115,0.00000577,0.00005289,0.0000
 0441,0.00005903,0.00001604,0.00004474,0.00004630,-0.00003250,0.0000199
 0,-0.00002236,-0.00000374,-0.00001600,0.00000176,-0.00005654,-0.000046
 54,-0.00005752,-0.05599123,-0.00490157,0.03239719,0.00284344,0.0034336
 2,-0.03261573,0.00108273,-0.00048705,-0.00012710,-0.00153451,0.0010780
 0,0.00012082,0.00028464,-0.00011436,0.00006517,0.00001853,-0.00001340,
 0.00000533,-0.00003364,-0.00000341,-0.00001668,0.00000422,0.00001310,-
 0.00001254,0.00004332,0.00000167,-0.00005557,-0.00000534,-0.00000016,-
 0.00000271,-0.00000514,0.00000014,0.00001695,-0.00132025,-0.00070822,0
 .00935802,0.05936783,0.00315858,-0.00401140,-0.00257051,-0.00033366,0.
 00418088,-0.02054551,-0.00086558,0.00010841,0.00092814,-0.00017052,-0.
 00020152,0.00011555,0.00021805,-0.00011519,-0.00030237,-0.00006417,0.0
 0008501,0.00009206,-0.00021345,-0.00000845,0.00013930,-0.00008074,0.00
 009923,0.00007369,0.00002573,0.00002211,0.00002352,-0.00004910,-0.0000
 0593,-0.00000586,-0.00002539,0.00002025,0.00000335,0.00002392,-0.00000
 312,0.00002288,-0.00001625,-0.00001950,-0.00002655,-0.00471609,-0.0509
 9023,0.03853292,0.00098288,-0.00022563,-0.00609507,-0.00004085,0.00011
 130,0.00041796,0.00082574,0.00042943,0.00006469,-0.00012737,0.00002998
 ,-0.00005272,0.00000901,0.00000593,-0.00000902,0.00001268,0.00001134,-
 0.00000993,-0.00003095,-0.00002381,-0.00000944,-0.00000191,-0.00003910
 ,-0.00000546,-0.00000058,-0.00000075,0.00000266,-0.00000154,0.00001092
 ,0.00001048,-0.00326914,-0.00309786,0.03023146,0.00477742,0.05277193,0
 .00226949,-0.00181423,0.00043380,-0.00147936,0.00194948,-0.01172637,-0
 .00102647,0.00052683,0.00107306,0.00021192,-0.00061722,0.00027594,0.00
 013742,-0.00009315,-0.00013235,-0.00002491,0.00004875,0.00003730,-0.00
 006719,0.00000143,0.00005403,-0.00010204,0.00009384,0.00005773,-0.0000
 3371,0.00001554,-0.00003831,-0.00002620,-0.00002449,-0.00003698,0.0000
 2168,-0.00001017,0.00002810,-0.00000291,-0.00000143,-0.00000603,0.0000
 4428,0.00002697,0.00004610,0.03049842,0.03704492,-0.29956565,0.0021315
 8,0.00089220,-0.01337020,-0.00040201,0.00033619,0.00052267,0.00055090,
 0.00021880,0.00087861,-0.00012962,0.00009951,0.00006635,-0.00000513,-0
 .00000362,-0.00000794,0.00002626,0.00000155,0.00000765,-0.00003132,-0.
 00003326,0.00000270,-0.00002488,-0.00000281,0.00001861,0.00000351,0.00
 000007,0.00000157,0.00000500,0.00000220,-0.00000798,0.00082404,0.00072
 632,-0.00354956,-0.03065847,-0.03930338,0.32453133,0.00009575,0.000960
 53,0.00069857,0.00085531,-0.00181197,-0.00124232,-0.00044489,0.0005674
 9,-0.00000669,0.00008605,-0.00006135,-0.00012203,-0.00009625,-0.000089
 95,0.00013525,0.00000201,0.00007614,-0.00002883,0.00006960,0.00006778,
 -0.00007549,-0.00002610,0.00002658,0.00001854,0.00001599,0.00000253,0.
 00003723,-0.00003481,0.00001680,0.00000118,-0.00001295,0.00002206,0.00
 000555,0.00001356,0.00000419,-0.00000623,-0.00001665,-0.00000189,-0.00
 000856,-0.01215008,-0.02243819,0.00841228,-0.11722051,-0.11500132,0.04
 807129,0.00814853,0.02912284,-0.00921807,-0.00001946,-0.00015192,0.000
 09565,-0.00001942,0.00000225,0.00002071,-0.00001081,-0.00002784,-0.000
 00737,0.00001200,-0.00000293,0.00000117,-0.00002012,-0.00000003,0.0000
 0168,0.00001374,-0.00001975,-0.00001553,0.00000112,-0.00000005,-0.0000
 0333,0.00001323,-0.00000389,0.00000030,-0.00409452,0.00040522,-0.00267
 221,0.00142495,0.00059582,0.00005296,0.12637757,0.00006428,-0.00012448
 ,0.00010477,-0.00062068,0.00044691,-0.00027550,0.00013475,-0.00011431,
 0.00019833,-0.00003375,0.00006773,0.00000106,0.00000532,0.00005687,-0.
 00001112,0.00000430,-0.00003956,-0.00000389,-0.00000742,-0.00003676,0.
 00000494,0.00001607,-0.00001072,-0.00000145,-0.00000514,-0.00000179,-0
 .00001528,0.00000746,-0.00001230,-0.00000430,0.00000546,-0.00000524,0.
 00000021,-0.00000335,-0.00000049,0.00000340,0.00000945,0.00000371,0.00
 000664,-0.00288397,-0.00053595,0.00032036,-0.10361795,-0.22529329,0.07
 027659,-0.00664946,-0.02714373,0.00842406,-0.00003165,-0.00000630,-0.0
 0000439,0.00000530,0.00000164,-0.00000693,0.00000796,0.00001219,0.0000
 0262,-0.00000309,0.00000083,0.00000008,0.00000738,-0.00000021,0.000000
 06,-0.00000918,0.00000941,0.00000725,0.00000060,0.,0.00000092,-0.00000
 378,0.00000130,-0.00000016,0.00007952,0.00093899,-0.00010323,0.0003346
 2,0.00037576,-0.00011749,0.10977088,0.24850260,-0.00007473,-0.00089471
 ,0.00022274,0.00036130,-0.00009048,0.00025841,0.00009850,0.00021075,-0
 .00019249,0.00000903,0.00003984,-0.00001028,-0.00008661,0.00006389,0.0
 0012031,0.00003223,-0.00005196,-0.00004186,0.00006459,-0.00000181,-0.0
 0007412,0.00000649,-0.00001242,-0.00001103,0.00000943,-0.00000478,0.00
 000269,-0.00000876,-0.00000485,-0.00000212,0.00000925,0.00000703,-0.00
 000171,-0.00000172,-0.00000053,-0.00000425,0.00000402,0.00000516,0.000
 00759,-0.00919357,-0.01530812,0.00576465,0.04520396,0.07697005,-0.0823
 3679,-0.00183172,-0.00713408,0.00151418,-0.00008800,-0.00005180,0.0000
 1788,0.00000539,0.00000562,-0.00000301,0.00000183,0.00000555,0.0000082
 4,-0.00000125,-0.00000304,0.00000086,0.00000385,0.00000400,0.00000019,
 -0.00000901,0.00000908,-0.00000169,0.00000074,0.00000033,-0.00000046,-
 0.00000049,-0.00000158,0.00000099,-0.00359882,-0.00048957,-0.00088483,
 0.00087743,-0.00059284,0.00086959,-0.04526909,-0.07774671,0.08109116,-
 0.00075440,0.00034774,0.00363233,-0.00088638,-0.00121789,-0.00580220,0
 .00143881,0.00036499,0.00200791,-0.00024947,0.00016217,0.00027720,0.00
 002954,0.00019908,-0.00025185,0.00004284,-0.00012312,0.00005830,-0.000
 04272,-0.00011330,0.00019003,0.00000490,-0.00003586,-0.00002063,-0.000
 05092,-0.00002315,-0.00004638,-0.00002964,-0.00009564,-0.00005893,0.00
 005997,0.00002233,0.00001311,0.00000908,0.00002479,0.00000162,0.000078
 65,0.00005577,0.00006267,0.00587613,-0.00057210,-0.02821250,-0.0545127
 7,-0.00013921,0.04298959,-0.00917823,0.00638917,0.02260104,0.00051141,
 -0.00030984,-0.00003611,-0.00014744,0.00006398,-0.00003690,-0.00002897
 ,0.00005014,0.00000669,0.00000925,0.00000925,0.00000532,0.00003490,0.0
 0000154,-0.00000625,-0.00008562,0.00003247,0.00005644,0.00000760,0.000
 00155,0.00000392,-0.00001141,-0.00000621,-0.00001525,0.00071667,-0.000
 39487,0.00024174,-0.00546199,-0.00078788,-0.00195515,-0.00168602,0.000
 91201,0.01371354,0.06543955,0.00042112,-0.00189059,-0.00108063,0.00113
 578,0.00148016,0.00249500,-0.00045178,-0.00020666,-0.00128156,0.000111
 34,-0.00006438,0.00000361,-0.00000556,-0.00000147,0.00007912,-0.000004
 80,-0.00000898,-0.00002843,0.00001755,0.00003248,-0.00006123,0.0000133
 2,0.00000952,-0.00002134,-0.00000484,0.00001077,-0.00002291,0.00003633
 ,0.00001565,-0.00000235,0.00002403,-0.00004271,0.00000293,-0.00003437,
 -0.00002687,-0.00001566,0.00001740,-0.00000043,0.00003077,-0.00074427,
 0.00013590,-0.00665431,-0.00254739,-0.05149076,-0.00937279,0.01143925,
 -0.00936809,-0.03036256,-0.00015646,0.00017097,-0.00000662,0.00004866,
 -0.00000470,0.00001790,0.00002203,-0.00000005,0.00000827,-0.00000672,-
 0.00000803,0.00000424,-0.00000659,-0.00000814,0.00000890,-0.00000348,0
 .00003993,-0.00000780,-0.00000312,0.00000042,0.00000051,-0.00000360,0.
 00000623,0.00000271,0.00054014,0.00015079,-0.00011376,-0.00015998,0.00
 034446,-0.00043818,-0.00499125,0.00479829,0.02612581,-0.00705492,0.058
 15115,0.00324524,-0.00059680,0.00081255,0.00061805,-0.00121894,-0.0020
 9063,-0.00019108,-0.00004301,-0.00024526,0.00007673,-0.00007360,0.0000
 2015,0.00001638,-0.00001124,-0.00000580,-0.00000594,0.00001340,0.00000
 199,-0.00001434,0.00001229,0.00000761,-0.00000955,0.00000717,0.0000067
 5,-0.00000421,-0.00000405,0.00000163,0.00002109,0.00001545,-0.00000631
 ,-0.00000551,-0.00001677,-0.00001249,0.00000465,0.00000258,0.00000590,
 -0.00001371,-0.00000233,-0.00001714,-0.00193284,0.00084470,-0.01576913
 ,0.04992721,-0.01920787,-0.31670105,-0.00065451,0.00050523,0.00396966,
 -0.00001435,0.00002031,0.00010479,-0.00000124,0.00002164,0.00003310,0.
 00000013,-0.00000174,0.00000283,0.00000551,0.00000038,-0.00000084,-0.0
 0000290,-0.00000123,0.00000321,0.00001348,-0.00000243,0.00003193,-0.00
 000295,0.00000068,0.00000077,0.00000064,0.00000224,0.00000174,0.000025
 06,-0.00018390,0.00052290,-0.00201100,-0.00144622,0.00005331,0.0008393
 9,-0.00043142,-0.00709674,-0.04969187,0.02165203,0.33494961,-0.0000139
 5,-0.00046379,-0.00045317,-0.00076253,0.00033566,0.00075921,0.00028565
 ,-0.00018902,-0.00004456,-0.00007413,0.00012277,0.00009541,-0.00001772
 ,0.00019071,-0.00010606,0.00004467,-0.00013674,0.00001001,-0.00000063,
 -0.00009189,0.00007378,0.00002170,-0.00002509,-0.00002458,-0.00002754,
 -0.00001758,-0.00004776,0.00004919,-0.00000935,-0.00002825,0.00007727,
 -0.00004324,-0.00000774,-0.00004166,-0.00001575,-0.00002453,0.00005089
 ,0.00001341,0.00004286,0.00239831,0.00160875,-0.00007098,0.01363547,0.
 01901512,-0.00988151,-0.11526530,-0.11442017,0.04658359,-0.00001277,0.
 00005172,-0.00008918,-0.00000142,0.00000270,-0.00001699,-0.00000889,0.
 00004191,0.00001175,-0.00001071,0.00000591,0.00000364,0.00002705,-0.00
 000380,-0.00000154,-0.00002766,0.00003675,0.00003110,-0.00000648,0.000
 00312,0.00000788,-0.00002863,0.00000444,-0.00000154,-0.00101172,-0.001
 24028,-0.00011843,-0.00014790,-0.00040374,0.00005870,-0.00372978,0.003
 73056,0.00068270,0.00067226,-0.00045060,0.00008365,0.11932570,-0.00043
 588,0.00023421,0.00001378,0.00047469,-0.00041008,-0.00050897,-0.000695
 10,0.00030105,0.00001670,0.00015406,-0.00012944,-0.00016203,0.00002983
 ,-0.00015491,0.00005187,-0.00007180,0.00013663,-0.00000292,-0.00005063
 ,0.00007236,-0.00002978,-0.00000182,0.00007706,0.00000458,0.00000455,0
 .00003163,0.00001284,0.00001920,0.00006254,0.00000330,0.00000424,-0.00
 006122,0.00001385,-0.00003556,-0.00003467,-0.00003090,-0.00000692,-0.0
 0002860,0.00001076,-0.00053058,0.00248221,0.00063240,-0.00781206,-0.02
 362013,0.00798622,-0.12360768,-0.30042865,0.10293897,0.00006748,0.0000
 2424,0.00008085,0.00001590,0.00000503,0.00000886,0.00003003,-0.0000256
 2,-0.00001103,0.00000212,-0.00001165,0.00000316,-0.00003424,-0.0000263
 6,0.00001148,0.00002044,-0.00000300,-0.00003512,-0.00001236,0.00000298
 ,0.00000153,0.00000660,0.00001594,0.00000658,0.00079339,0.00028223,0.0
 0046488,-0.00012008,-0.00001608,-0.00008221,0.00405323,-0.00168515,-0.
 00156826,-0.00062489,0.00098551,-0.00083453,0.12621328,0.31778001,0.00
 021228,-0.00015098,-0.00073680,-0.00070197,0.00043833,0.00088392,0.000
 26217,-0.00020696,-0.00013883,-0.00008577,0.00008037,0.00006970,-0.000
 04911,0.00009657,0.00003909,0.00005211,-0.00009246,-0.00001846,0.00004
 608,-0.00004501,-0.00003438,-0.00000757,-0.00004299,0.00001402,0.00002
 089,-0.00001135,0.00001165,0.00000532,-0.00003218,0.00001803,-0.000047
 62,0.00003729,-0.00004552,0.00005214,0.00002713,0.00005355,-0.00004327
 ,-0.00000489,-0.00008498,0.00062292,0.00010318,-0.00071084,-0.00394315
 ,-0.00375240,0.00296781,0.04841340,0.09965003,-0.10478325,-0.00005309,
 0.00003818,-0.00003715,-0.00000256,-0.00001074,-0.00000526,-0.00001500
 ,0.00001433,0.00001288,-0.00000518,0.00000976,-0.00001175,0.00001930,0
 .00001915,-0.00001038,0.00000772,-0.00002351,0.00003366,-0.00000173,-0
 .00000069,0.00000501,-0.00001055,0.00000112,0.00000780,-0.00040803,-0.
 00012429,0.00035336,-0.00006916,0.00017549,-0.00011297,0.00100709,-0.0
 0112886,0.00031125,-0.00009209,-0.00108766,0.00002966,-0.05331754,-0.1
 0828526,0.10319727,0.00075079,-0.00001510,0.00064140,-0.00052232,-0.00
 064281,-0.00226878,-0.00008395,0.00024392,0.00045157,-0.00007880,-0.00
 002305,-0.00003240,-0.00006499,0.00011794,0.00000581,0.00004992,-0.000
 08568,-0.00001051,0.00003763,-0.00005732,0.00000754,-0.00001898,0.0000
 1952,0.00000231,-0.00001112,-0.00000979,-0.00002431,0.00000918,-0.0000
 1991,-0.00002008,0.00003982,-0.00000917,-0.00000027,-0.00001299,-0.000
 00297,-0.00000753,0.00003293,0.00001166,0.00002229,-0.00196891,0.00350
 443,0.00165841,-0.01579687,-0.00188540,-0.00844978,-0.30205230,-0.0572
 2801,-0.14854323,-0.00000851,0.00001633,-0.00000169,-0.00000928,0.0000
 0379,-0.00000284,-0.00001495,0.00002211,0.00000597,-0.00000404,0.00000
 528,0.00000095,0.00000579,-0.00001066,-0.00000319,-0.00002312,0.000017
 72,0.00001897,-0.00000254,0.00000258,0.00000486,-0.00001733,0.00000177
 ,-0.00000073,0.00050305,0.00013639,0.00019830,0.00004957,0.00014082,-0
 .00011378,0.00142169,-0.00043384,-0.00023328,0.00015462,-0.00071662,0.
 00088454,-0.01147858,-0.00155012,-0.00723907,0.31737124,-0.00036384,-0
 .00026871,-0.00050457,0.00076369,0.00131925,0.00210270,0.00058881,-0.0
 0054018,-0.00041193,-0.00007068,0.00002859,0.00019091,0.00004034,0.000
 10304,-0.00010654,0.00001833,-0.00010036,0.00001639,-0.00001425,-0.000
 05094,0.00004833,0.00001834,-0.00002952,-0.00000616,-0.00000362,-0.000
 00905,0.00000172,0.00001012,0.00000048,0.00000247,0.00000878,-0.000004
 74,-0.00000547,-0.00000263,0.00000616,-0.00000641,-0.00000009,-0.00000
 294,-0.00000124,0.00252361,-0.00537519,-0.00244236,0.02195542,0.008276
 49,0.01529421,-0.04943252,-0.06883157,-0.02748287,-0.00002564,0.000046
 45,-0.00008144,0.00000955,-0.00000503,-0.00000966,0.00000169,0.0000278
 9,0.00001092,-0.00000267,0.00000365,-0.00000078,0.00001873,0.00000847,
 -0.00000147,-0.00000345,0.00000340,0.00001017,-0.00000260,0.00000178,0
 .00000081,-0.00000551,0.00000057,0.00000010,-0.00030127,0.00026659,-0.
 00031316,-0.00015523,0.00001414,0.00004379,-0.00020679,-0.00014997,0.0
 0089731,-0.00027119,0.00085700,-0.00040432,-0.02730810,-0.00366144,-0.
 01940512,0.05615080,0.06973805,0.00014682,-0.00007874,-0.00011704,0.00
 015252,0.00000912,0.00044443,0.00022754,-0.00015558,-0.00012213,-0.000
 04862,0.00003871,0.00004798,-0.00005013,0.00008990,0.00004026,0.000045
 31,-0.00008591,-0.00001998,0.00004600,-0.00003407,-0.00003219,-0.00000
 543,-0.00001796,0.00000620,0.00000742,-0.00001558,-0.00000470,0.000018
 84,-0.00001192,0.00000437,-0.00000326,0.00000492,-0.00002743,0.0000180
 4,0.00001023,0.00001837,-0.00001327,0.00000237,-0.00003148,0.00035156,
 -0.00092684,0.00002886,0.00424838,0.00400337,0.00401249,-0.14450830,-0
 .03151866,-0.15116186,-0.00005164,0.00001786,-0.00004174,0.00000348,-0
 .00000519,0.00000110,-0.00001138,0.00001523,0.00001181,-0.00000479,0.0
 0000371,-0.00000449,0.00001436,0.00000859,-0.00000370,-0.00000265,0.00
 000021,0.00002721,-0.00000274,0.00000079,0.00000335,-0.00000992,0.0000
 0020,0.00000425,-0.00013367,-0.00013651,-0.00012212,0.00022182,-0.0001
 8792,0.00012637,-0.00016631,0.00032655,0.00000165,0.00103769,-0.000130
 34,0.00019184,0.01386994,0.00118459,0.00911685,0.15789593,0.03429182,0
 .15395367,-0.00031643,-0.00055350,-0.00125765,-0.00115637,0.00146775,0
 .00148887,0.00048363,-0.00038590,-0.00019207,-0.00015446,0.00012796,0.
 00013824,-0.00005291,0.00021880,-0.00005312,0.00007768,-0.00017927,-0.
 00000643,0.00004778,-0.00010601,0.00002758,0.00001038,-0.00005044,-0.0
 0000464,-0.00000429,-0.00002531,-0.00001793,0.00002126,-0.00002871,-0.
 00000361,0.00002949,0.00000780,-0.00002122,-0.00000145,0.00001277,0.00
 000758,0.00001444,0.00000415,-0.00001224,0.00166883,-0.00134411,0.0007
 2045,-0.00450590,0.00236028,0.02175382,-0.08002048,0.00746033,0.081021
 68,-0.00010612,0.00006755,-0.00009476,-0.00000034,-0.00001484,-0.00002
 268,-0.00002155,0.00004279,0.00001680,-0.00001180,0.00001160,-0.000004
 40,0.00003350,0.00001250,-0.00001041,-0.00001471,0.00000758,0.00003138
 ,-0.00000316,0.00000203,0.00000453,-0.00002462,-0.00000126,0.00000145,
 -0.00047246,-0.00026579,0.00019016,-0.00024145,0.00042828,-0.00075299,
 0.00103127,-0.00079265,-0.00068723,-0.00196019,0.00351938,-0.00120578,
 -0.00392016,0.00370065,0.01537102,0.01174334,-0.00393815,-0.03329356,0
 .07782724,0.00060875,0.00016001,0.00067315,0.00012928,-0.00099816,-0.0
 0112378,-0.00020618,0.00014577,0.00021466,0.00004895,-0.00001850,-0.00
 005573,0.00004111,-0.00002057,-0.00004399,-0.00003519,0.00004167,0.000
 01325,-0.00005709,-0.00000471,0.00003666,0.00000638,0.00002025,0.00000
 614,-0.00000122,0.00001571,0.00000093,-0.00000334,0.00000902,-0.000003
 05,-0.00000631,-0.00001752,0.00000322,0.00000033,-0.00001156,0.0000008
 8,-0.00000025,-0.00000841,-0.00000470,-0.00125120,0.00126869,0.0002055
 0,0.00572417,-0.00200420,-0.02727879,0.00824020,-0.06568714,-0.0494917
 3,0.00006451,0.00003169,0.00003088,-0.00000260,0.00000982,0.00000545,0
 .00001482,-0.00000091,-0.00000436,0.00000171,-0.00000220,-0.00000070,-
 0.00000660,-0.00000888,0.00000292,0.00000166,-0.00000285,-0.00000579,-
 0.00000465,0.00000155,0.00000305,-0.00000020,0.00000966,0.00000412,-0.
 00006738,-0.00007864,0.00030606,0.00054100,0.00013747,0.00051325,-0.00
 088521,-0.00005595,-0.00038687,0.00313308,-0.00406737,0.00138229,-0.00
 655765,0.00780337,0.03371442,0.00229538,-0.00167232,-0.00670296,-0.011
 76627,0.06500522,-0.00046646,0.00008732,-0.00021658,0.00032094,-0.0001
 9796,-0.00017733,-0.00053335,0.00020583,-0.00013954,0.00008985,-0.0000
 5721,-0.00012886,-0.00005022,-0.00008273,0.00019385,-0.00000754,0.0000
 5037,-0.00004939,0.00003067,0.00004596,-0.00013908,-0.00001327,0.00003
 208,0.00001850,0.00002492,0.00001776,0.00001934,0.00000116,0.00001877,
 0.00001721,-0.00003765,0.00000144,-0.00001437,0.00001465,-0.00000888,0
 .00002176,-0.00003335,-0.00001823,-0.00004075,0.00006568,0.00059215,0.
 00239438,0.00310590,-0.00423557,0.00193399,0.07440129,-0.04158075,-0.3
 7728329,-0.00004245,0.00003601,0.00009680,0.00002233,-0.00000628,0.000
 00812,0.00001559,-0.00002153,0.00000010,-0.00000296,-0.00000613,-0.000
 00618,-0.00002022,-0.00000401,0.00000179,0.00001764,-0.00001096,-0.000
 01713,-0.00000100,-0.00000189,-0.00000024,0.00000593,0.00000542,0.0000
 1140,0.00015574,0.00001992,0.00006705,0.00022606,0.00032864,-0.0005304
 7,-0.00055680,0.00017288,0.00046901,-0.00067304,0.00025631,0.00119347,
 0.00192015,-0.00189620,-0.01039495,0.00515263,-0.00172816,-0.01635221,
 -0.08313282,0.04798563,0.39904364\\-0.00000113,0.00000039,0.00000051,-
 0.00000715,0.00000638,-0.00000103,-0.00000111,-0.00001146,0.00000247,0
 .00000324,-0.00000094,0.00000128,0.00000137,0.00000075,-0.00000188,-0.
 00000075,0.00000038,0.00000020,-0.00000098,0.00000014,-0.00000038,0.00
 000211,-0.00000227,-0.00000076,-0.00000122,0.00000062,0.00000201,0.000
 00223,-0.00000183,-0.00000103,0.00000083,0.00000140,-0.00000035,0.0000
 0075,-0.00000057,0.00000142,-0.00000039,0.00000149,-0.00000153,0.00000
 100,-0.00000394,-0.00000474,-0.00000383,0.00000361,0.00000220,0.000000
 21,0.00000023,-0.00000035,0.00000021,0.00000606,0.00000209,0.00000155,
 -0.00000071,0.00000055,-0.00000016,0.00000073,-0.00000001,-0.00000048,
 -0.00000070,-0.00000011,0.00000003,-0.00000015,-0.00000012,-0.00000034
 ,0.00000019,0.00000098,0.00000031,-0.00000029,0.00000032,-0.00000027,0
 .,0.00000065,0.00000005,-0.00000014,-0.00000030,-0.00000006,0.00000077
 ,0.00000005,0.00000225,-0.00000107,-0.00000076,0.00000115,0.00000045,-
 0.00000049,0.00000017,0.00000003,-0.00000022,0.00000028,0.00000043,-0.
 00000010,0.00000014,0.00000002,-0.00000058\\\@


 A warm smile is the universal language of kindness.
                             -- William Arthur Ward
 Job cpu time:       0 days  5 hours  4 minutes 43.7 seconds.
 File lengths (MBytes):  RWF=    608 Int=      0 D2E=      0 Chk=     20 Scr=      1
 Normal termination of Gaussian 09 at Thu Jul 29 01:28:40 2021.
