 Entering Gaussian System, Link 0=g09
 Input=opt_freq-conf-580.com
 Output=opt_freq-conf-580.log
 Initial command:
 /aerosol/software/g09/l1.exe "/scratch/nicole/10637/Gau-83430.inp" -scrdir="/scratch/nicole/10637/"
 Entering Link 1 = /aerosol/software/g09/l1.exe PID=     83434.
  
 Copyright (c) 1988,1990,1992,1993,1995,1998,2003,2009,2013,
            Gaussian, Inc.  All Rights Reserved.
  
 This is part of the Gaussian(R) 09 program.  It is based on
 the Gaussian(R) 03 system (copyright 2003, Gaussian, Inc.),
 the Gaussian(R) 98 system (copyright 1998, Gaussian, Inc.),
 the Gaussian(R) 94 system (copyright 1995, Gaussian, Inc.),
 the Gaussian 92(TM) system (copyright 1992, Gaussian, Inc.),
 the Gaussian 90(TM) system (copyright 1990, Gaussian, Inc.),
 the Gaussian 88(TM) system (copyright 1988, Gaussian, Inc.),
 the Gaussian 86(TM) system (copyright 1986, Carnegie Mellon
 University), and the Gaussian 82(TM) system (copyright 1983,
 Carnegie Mellon University). Gaussian is a federally registered
 trademark of Gaussian, Inc.
  
 This software contains proprietary and confidential information,
 including trade secrets, belonging to Gaussian, Inc.
  
 This software is provided under written license and may be
 used, copied, transmitted, or stored only in accord with that
 written license.
  
 The following legend is applicable only to US Government
 contracts under FAR:
  
                    RESTRICTED RIGHTS LEGEND
  
 Use, reproduction and disclosure by the US Government is
 subject to restrictions as set forth in subparagraphs (a)
 and (c) of the Commercial Computer Software - Restricted
 Rights clause in FAR 52.227-19.
  
 Gaussian, Inc.
 340 Quinnipiac St., Bldg. 40, Wallingford CT 06492
  
  
 ---------------------------------------------------------------
 Warning -- This program may not be used in any manner that
 competes with the business of Gaussian, Inc. or will provide
 assistance to any competitor of Gaussian, Inc.  The licensee
 of this program is prohibited from giving any competitor of
 Gaussian, Inc. access to this program.  By using this program,
 the user acknowledges that Gaussian, Inc. is engaged in the
 business of creating and licensing software in the field of
 computational chemistry and represents and warrants to the
 licensee that it is not a competitor of Gaussian, Inc. and that
 it will not use this program in any manner prohibited above.
 ---------------------------------------------------------------
  

 Cite this work as:
 Gaussian 09, Revision D.01,
 M. J. Frisch, G. W. Trucks, H. B. Schlegel, G. E. Scuseria, 
 M. A. Robb, J. R. Cheeseman, G. Scalmani, V. Barone, B. Mennucci, 
 G. A. Petersson, H. Nakatsuji, M. Caricato, X. Li, H. P. Hratchian, 
 A. F. Izmaylov, J. Bloino, G. Zheng, J. L. Sonnenberg, M. Hada, 
 M. Ehara, K. Toyota, R. Fukuda, J. Hasegawa, M. Ishida, T. Nakajima, 
 Y. Honda, O. Kitao, H. Nakai, T. Vreven, J. A. Montgomery, Jr., 
 J. E. Peralta, F. Ogliaro, M. Bearpark, J. J. Heyd, E. Brothers, 
 K. N. Kudin, V. N. Staroverov, T. Keith, R. Kobayashi, J. Normand, 
 K. Raghavachari, A. Rendell, J. C. Burant, S. S. Iyengar, J. Tomasi, 
 M. Cossi, N. Rega, J. M. Millam, M. Klene, J. E. Knox, J. B. Cross, 
 V. Bakken, C. Adamo, J. Jaramillo, R. Gomperts, R. E. Stratmann, 
 O. Yazyev, A. J. Austin, R. Cammi, C. Pomelli, J. W. Ochterski, 
 R. L. Martin, K. Morokuma, V. G. Zakrzewski, G. A. Voth, 
 P. Salvador, J. J. Dannenberg, S. Dapprich, A. D. Daniels, 
 O. Farkas, J. B. Foresman, J. V. Ortiz, J. Cioslowski, 
 and D. J. Fox, Gaussian, Inc., Wallingford CT, 2013.
 
 ******************************************
 Gaussian 09:  ES64L-G09RevD.01 24-Apr-2013
                28-Jul-2021 
 ******************************************
 %mem=2gb
 %nproc=4
 Will use up to    4 processors via shared memory.
 %chk=conf-580.chk
 ----------------------------------------------------------------------
 # B3LYP/6-311++G(d,p) opt=calcfc freq=noraman nosymm integral(ultrafin
 egrid)
 ----------------------------------------------------------------------
 1/10=4,14=-1,18=20,19=15,26=4,38=1/1,3;
 2/9=110,12=2,15=1,17=6,18=5,40=1/2;
 3/5=4,6=6,7=1111,11=2,16=1,25=1,30=1,71=2,74=-5,75=-5,140=1/1,2,3;
 4//1;
 5/5=2,38=5/2;
 8/6=4,10=90,11=11/1;
 11/6=1,8=1,9=11,15=111,16=1,31=1/1,2,10;
 10/6=1,13=1,31=1/2;
 6/7=2,8=2,9=2,10=2,28=1/1;
 7/10=1,18=20,25=1,30=1/1,2,3,16;
 1/10=4,14=-1,18=20,19=15,26=4/3(2);
 2/9=110,15=1/2;
 99//99;
 2/9=110,15=1/2;
 3/5=4,6=6,7=1111,11=2,16=1,25=1,30=1,71=1,74=-5,75=-5/1,2,3;
 4/5=5,16=3,69=1/1;
 5/5=2,38=5/2;
 7/30=1/1,2,3,16;
 1/14=-1,18=20,19=15,26=4/3(-5);
 2/9=110,15=1/2;
 6/7=2,8=2,9=2,10=2,19=2,28=1/1;
 99/9=1/99;
 ------------------------------------------------------------
 Candidate Structure: Conf:580 OPT and FREQ calc in gas phase
 ------------------------------------------------------------
 Symbolic Z-matrix:
 Charge =  1 Multiplicity = 1
 O                     1.1626    0.47867  -1.24083 
 C                     1.43062   0.39643  -0.04924 
 N                     0.44893   0.32097   0.88846 
 C                    -0.95542   0.32737   0.51041 
 C                    -1.72354   0.76875   1.73533 
 O                    -2.59503   1.76808   1.49955 
 O                    -1.57563   0.26701   2.82237 
 C                    -1.39558  -1.08541   0.07214 
 C                    -2.827    -1.1616   -0.34837 
 C                    -3.94651  -1.63385   0.27999 
 N                    -5.07043  -1.45394  -0.50815 
 C                    -4.63104  -0.88057  -1.60483 
 N                    -3.28184  -0.68161  -1.55821 
 C                     2.85113   0.35726   0.49446 
 C                     3.88925   0.67519  -0.5716 
 N                     5.27509   0.60883  -0.03633 
 H                     0.66614   0.21415   1.86708 
 H                    -1.09215   1.03096  -0.31002 
 H                    -3.03128   1.94422   2.34426 
 H                    -1.24299  -1.76764   0.90622 
 H                    -0.73868  -1.39207  -0.73967 
 H                    -4.00148  -2.07935   1.265 
 H                    -5.22149  -0.59048  -2.45542 
 H                    -2.71356  -0.26592  -2.27903 
 H                     3.04083  -0.64193   0.90267 
 H                     2.93715   1.06208   1.32718 
 H                     3.77607  -0.02889  -1.39457 
 H                     3.69767   1.66864  -0.97572 
 H                     5.96943   0.81982  -0.75442 
 H                     5.41211   1.27593   0.72291 
 H                     5.48682  -0.32092   0.32558 
 

 GradGradGradGradGradGradGradGradGradGradGradGradGradGradGradGradGradGrad
 Berny optimization.
 Initialization pass.
                           ----------------------------
                           !    Initial Parameters    !
                           ! (Angstroms and Degrees)  !
 --------------------------                            --------------------------
 ! Name  Definition              Value          Derivative Info.                !
 --------------------------------------------------------------------------------
 ! R1    R(1,2)                  1.2241         calculate D2E/DX2 analytically  !
 ! R2    R(2,3)                  1.3597         calculate D2E/DX2 analytically  !
 ! R3    R(2,14)                 1.5215         calculate D2E/DX2 analytically  !
 ! R4    R(3,4)                  1.4544         calculate D2E/DX2 analytically  !
 ! R5    R(3,17)                 1.0081         calculate D2E/DX2 analytically  !
 ! R6    R(4,5)                  1.5117         calculate D2E/DX2 analytically  !
 ! R7    R(4,8)                  1.5433         calculate D2E/DX2 analytically  !
 ! R8    R(4,18)                 1.0894         calculate D2E/DX2 analytically  !
 ! R9    R(5,6)                  1.3468         calculate D2E/DX2 analytically  !
 ! R10   R(5,7)                  1.2064         calculate D2E/DX2 analytically  !
 ! R11   R(6,19)                 0.9669         calculate D2E/DX2 analytically  !
 ! R12   R(8,9)                  1.4938         calculate D2E/DX2 analytically  !
 ! R13   R(8,20)                 1.0883         calculate D2E/DX2 analytically  !
 ! R14   R(8,21)                 1.0884         calculate D2E/DX2 analytically  !
 ! R15   R(9,10)                 1.3679         calculate D2E/DX2 analytically  !
 ! R16   R(9,13)                 1.3788         calculate D2E/DX2 analytically  !
 ! R17   R(10,11)                1.3845         calculate D2E/DX2 analytically  !
 ! R18   R(10,22)                1.0825         calculate D2E/DX2 analytically  !
 ! R19   R(11,12)                1.3132         calculate D2E/DX2 analytically  !
 ! R20   R(12,13)                1.3646         calculate D2E/DX2 analytically  !
 ! R21   R(12,23)                1.0753         calculate D2E/DX2 analytically  !
 ! R22   R(13,24)                1.0076         calculate D2E/DX2 analytically  !
 ! R23   R(14,15)                1.5216         calculate D2E/DX2 analytically  !
 ! R24   R(14,25)                1.0959         calculate D2E/DX2 analytically  !
 ! R25   R(14,26)                1.0943         calculate D2E/DX2 analytically  !
 ! R26   R(15,16)                1.4871         calculate D2E/DX2 analytically  !
 ! R27   R(15,27)                1.089          calculate D2E/DX2 analytically  !
 ! R28   R(15,28)                1.0895         calculate D2E/DX2 analytically  !
 ! R29   R(16,29)                1.0209         calculate D2E/DX2 analytically  !
 ! R30   R(16,30)                1.0199         calculate D2E/DX2 analytically  !
 ! R31   R(16,31)                1.0199         calculate D2E/DX2 analytically  !
 ! A1    A(1,2,3)              121.1297         calculate D2E/DX2 analytically  !
 ! A2    A(1,2,14)             123.6408         calculate D2E/DX2 analytically  !
 ! A3    A(3,2,14)             115.227          calculate D2E/DX2 analytically  !
 ! A4    A(2,3,4)              121.176          calculate D2E/DX2 analytically  !
 ! A5    A(2,3,17)             121.3189         calculate D2E/DX2 analytically  !
 ! A6    A(4,3,17)             117.442          calculate D2E/DX2 analytically  !
 ! A7    A(3,4,5)              106.3383         calculate D2E/DX2 analytically  !
 ! A8    A(3,4,8)              110.1931         calculate D2E/DX2 analytically  !
 ! A9    A(3,4,18)             108.6502         calculate D2E/DX2 analytically  !
 ! A10   A(5,4,8)              110.6385         calculate D2E/DX2 analytically  !
 ! A11   A(5,4,18)             110.9702         calculate D2E/DX2 analytically  !
 ! A12   A(8,4,18)             109.9717         calculate D2E/DX2 analytically  !
 ! A13   A(4,5,6)              113.8036         calculate D2E/DX2 analytically  !
 ! A14   A(4,5,7)              123.1211         calculate D2E/DX2 analytically  !
 ! A15   A(6,5,7)              123.0739         calculate D2E/DX2 analytically  !
 ! A16   A(5,6,19)             105.914          calculate D2E/DX2 analytically  !
 ! A17   A(4,8,9)              113.5732         calculate D2E/DX2 analytically  !
 ! A18   A(4,8,20)             108.435          calculate D2E/DX2 analytically  !
 ! A19   A(4,8,21)             107.3141         calculate D2E/DX2 analytically  !
 ! A20   A(9,8,20)             108.5493         calculate D2E/DX2 analytically  !
 ! A21   A(9,8,21)             110.7317         calculate D2E/DX2 analytically  !
 ! A22   A(20,8,21)            108.0823         calculate D2E/DX2 analytically  !
 ! A23   A(8,9,10)             132.2612         calculate D2E/DX2 analytically  !
 ! A24   A(8,9,13)             123.049          calculate D2E/DX2 analytically  !
 ! A25   A(10,9,13)            104.6715         calculate D2E/DX2 analytically  !
 ! A26   A(9,10,11)            110.9795         calculate D2E/DX2 analytically  !
 ! A27   A(9,10,22)            126.988          calculate D2E/DX2 analytically  !
 ! A28   A(11,10,22)           122.0242         calculate D2E/DX2 analytically  !
 ! A29   A(10,11,12)           105.1009         calculate D2E/DX2 analytically  !
 ! A30   A(11,12,13)           111.4658         calculate D2E/DX2 analytically  !
 ! A31   A(11,12,23)           126.488          calculate D2E/DX2 analytically  !
 ! A32   A(13,12,23)           122.046          calculate D2E/DX2 analytically  !
 ! A33   A(9,13,12)            107.782          calculate D2E/DX2 analytically  !
 ! A34   A(9,13,24)            125.8228         calculate D2E/DX2 analytically  !
 ! A35   A(12,13,24)           126.3934         calculate D2E/DX2 analytically  !
 ! A36   A(2,14,15)            112.4095         calculate D2E/DX2 analytically  !
 ! A37   A(2,14,25)            108.5535         calculate D2E/DX2 analytically  !
 ! A38   A(2,14,26)            109.1908         calculate D2E/DX2 analytically  !
 ! A39   A(15,14,25)           109.474          calculate D2E/DX2 analytically  !
 ! A40   A(15,14,26)           110.1769         calculate D2E/DX2 analytically  !
 ! A41   A(25,14,26)           106.8689         calculate D2E/DX2 analytically  !
 ! A42   A(14,15,16)           111.9807         calculate D2E/DX2 analytically  !
 ! A43   A(14,15,27)           108.8738         calculate D2E/DX2 analytically  !
 ! A44   A(14,15,28)           109.2953         calculate D2E/DX2 analytically  !
 ! A45   A(16,15,27)           109.8784         calculate D2E/DX2 analytically  !
 ! A46   A(16,15,28)           109.7596         calculate D2E/DX2 analytically  !
 ! A47   A(27,15,28)           106.9165         calculate D2E/DX2 analytically  !
 ! A48   A(15,16,29)           111.8023         calculate D2E/DX2 analytically  !
 ! A49   A(15,16,30)           111.3432         calculate D2E/DX2 analytically  !
 ! A50   A(15,16,31)           111.2144         calculate D2E/DX2 analytically  !
 ! A51   A(29,16,30)           107.2805         calculate D2E/DX2 analytically  !
 ! A52   A(29,16,31)           107.266          calculate D2E/DX2 analytically  !
 ! A53   A(30,16,31)           107.7099         calculate D2E/DX2 analytically  !
 ! D1    D(1,2,3,4)              0.3576         calculate D2E/DX2 analytically  !
 ! D2    D(1,2,3,17)           177.3943         calculate D2E/DX2 analytically  !
 ! D3    D(14,2,3,4)          -179.0877         calculate D2E/DX2 analytically  !
 ! D4    D(14,2,3,17)           -2.0511         calculate D2E/DX2 analytically  !
 ! D5    D(1,2,14,15)           10.0468         calculate D2E/DX2 analytically  !
 ! D6    D(1,2,14,25)         -111.2039         calculate D2E/DX2 analytically  !
 ! D7    D(1,2,14,26)          132.6334         calculate D2E/DX2 analytically  !
 ! D8    D(3,2,14,15)         -170.5235         calculate D2E/DX2 analytically  !
 ! D9    D(3,2,14,25)           68.2258         calculate D2E/DX2 analytically  !
 ! D10   D(3,2,14,26)          -47.9369         calculate D2E/DX2 analytically  !
 ! D11   D(2,3,4,5)           -158.491          calculate D2E/DX2 analytically  !
 ! D12   D(2,3,4,8)             81.5636         calculate D2E/DX2 analytically  !
 ! D13   D(2,3,4,18)           -38.9825         calculate D2E/DX2 analytically  !
 ! D14   D(17,3,4,5)            24.3615         calculate D2E/DX2 analytically  !
 ! D15   D(17,3,4,8)           -95.584          calculate D2E/DX2 analytically  !
 ! D16   D(17,3,4,18)          143.87           calculate D2E/DX2 analytically  !
 ! D17   D(3,4,5,6)            129.6372         calculate D2E/DX2 analytically  !
 ! D18   D(3,4,5,7)            -50.781          calculate D2E/DX2 analytically  !
 ! D19   D(8,4,5,6)           -110.7067         calculate D2E/DX2 analytically  !
 ! D20   D(8,4,5,7)             68.875          calculate D2E/DX2 analytically  !
 ! D21   D(18,4,5,6)            11.6523         calculate D2E/DX2 analytically  !
 ! D22   D(18,4,5,7)          -168.7659         calculate D2E/DX2 analytically  !
 ! D23   D(3,4,8,9)           -179.3492         calculate D2E/DX2 analytically  !
 ! D24   D(3,4,8,20)            59.9            calculate D2E/DX2 analytically  !
 ! D25   D(3,4,8,21)           -56.6265         calculate D2E/DX2 analytically  !
 ! D26   D(5,4,8,9)             63.3402         calculate D2E/DX2 analytically  !
 ! D27   D(5,4,8,20)           -57.4105         calculate D2E/DX2 analytically  !
 ! D28   D(5,4,8,21)          -173.9371         calculate D2E/DX2 analytically  !
 ! D29   D(18,4,8,9)           -59.6006         calculate D2E/DX2 analytically  !
 ! D30   D(18,4,8,20)          179.6487         calculate D2E/DX2 analytically  !
 ! D31   D(18,4,8,21)           63.1221         calculate D2E/DX2 analytically  !
 ! D32   D(4,5,6,19)           178.8089         calculate D2E/DX2 analytically  !
 ! D33   D(7,5,6,19)            -0.7731         calculate D2E/DX2 analytically  !
 ! D34   D(4,8,9,10)          -102.7806         calculate D2E/DX2 analytically  !
 ! D35   D(4,8,9,13)            75.411          calculate D2E/DX2 analytically  !
 ! D36   D(20,8,9,10)           17.9057         calculate D2E/DX2 analytically  !
 ! D37   D(20,8,9,13)         -163.9026         calculate D2E/DX2 analytically  !
 ! D38   D(21,8,9,10)          136.3996         calculate D2E/DX2 analytically  !
 ! D39   D(21,8,9,13)          -45.4088         calculate D2E/DX2 analytically  !
 ! D40   D(8,9,10,11)          178.3004         calculate D2E/DX2 analytically  !
 ! D41   D(8,9,10,22)           -0.6592         calculate D2E/DX2 analytically  !
 ! D42   D(13,9,10,11)          -0.1328         calculate D2E/DX2 analytically  !
 ! D43   D(13,9,10,22)        -179.0924         calculate D2E/DX2 analytically  !
 ! D44   D(8,9,13,12)         -178.5556         calculate D2E/DX2 analytically  !
 ! D45   D(8,9,13,24)            1.9074         calculate D2E/DX2 analytically  !
 ! D46   D(10,9,13,12)           0.0611         calculate D2E/DX2 analytically  !
 ! D47   D(10,9,13,24)        -179.4759         calculate D2E/DX2 analytically  !
 ! D48   D(9,10,11,12)           0.1538         calculate D2E/DX2 analytically  !
 ! D49   D(22,10,11,12)        179.1736         calculate D2E/DX2 analytically  !
 ! D50   D(10,11,12,13)         -0.1125         calculate D2E/DX2 analytically  !
 ! D51   D(10,11,12,23)        179.7345         calculate D2E/DX2 analytically  !
 ! D52   D(11,12,13,9)           0.034          calculate D2E/DX2 analytically  !
 ! D53   D(11,12,13,24)        179.5676         calculate D2E/DX2 analytically  !
 ! D54   D(23,12,13,9)        -179.821          calculate D2E/DX2 analytically  !
 ! D55   D(23,12,13,24)         -0.2873         calculate D2E/DX2 analytically  !
 ! D56   D(2,14,15,16)        -178.9104         calculate D2E/DX2 analytically  !
 ! D57   D(2,14,15,27)         -57.2083         calculate D2E/DX2 analytically  !
 ! D58   D(2,14,15,28)          59.2471         calculate D2E/DX2 analytically  !
 ! D59   D(25,14,15,16)        -58.188          calculate D2E/DX2 analytically  !
 ! D60   D(25,14,15,27)         63.5141         calculate D2E/DX2 analytically  !
 ! D61   D(25,14,15,28)        179.9695         calculate D2E/DX2 analytically  !
 ! D62   D(26,14,15,16)         59.0607         calculate D2E/DX2 analytically  !
 ! D63   D(26,14,15,27)       -179.2371         calculate D2E/DX2 analytically  !
 ! D64   D(26,14,15,28)        -62.7818         calculate D2E/DX2 analytically  !
 ! D65   D(14,15,16,29)        179.8294         calculate D2E/DX2 analytically  !
 ! D66   D(14,15,16,30)        -60.1839         calculate D2E/DX2 analytically  !
 ! D67   D(14,15,16,31)         59.9494         calculate D2E/DX2 analytically  !
 ! D68   D(27,15,16,29)         58.7058         calculate D2E/DX2 analytically  !
 ! D69   D(27,15,16,30)        178.6925         calculate D2E/DX2 analytically  !
 ! D70   D(27,15,16,31)        -61.1741         calculate D2E/DX2 analytically  !
 ! D71   D(28,15,16,29)        -58.5946         calculate D2E/DX2 analytically  !
 ! D72   D(28,15,16,30)         61.3921         calculate D2E/DX2 analytically  !
 ! D73   D(28,15,16,31)       -178.4746         calculate D2E/DX2 analytically  !
 --------------------------------------------------------------------------------
 Trust Radius=3.00D-01 FncErr=1.00D-07 GrdErr=1.00D-06
 Number of steps in this run=    167 maximum allowed number of steps=    186.
 GradGradGradGradGradGradGradGradGradGradGradGradGradGradGradGradGradGrad

                          Input orientation:                          
 ---------------------------------------------------------------------
 Center     Atomic      Atomic             Coordinates (Angstroms)
 Number     Number       Type             X           Y           Z
 ---------------------------------------------------------------------
      1          8           0        1.162603    0.478671   -1.240831
      2          6           0        1.430616    0.396434   -0.049241
      3          7           0        0.448932    0.320965    0.888456
      4          6           0       -0.955423    0.327373    0.510414
      5          6           0       -1.723545    0.768751    1.735326
      6          8           0       -2.595029    1.768084    1.499553
      7          8           0       -1.575633    0.267005    2.822369
      8          6           0       -1.395584   -1.085407    0.072144
      9          6           0       -2.826998   -1.161603   -0.348369
     10          6           0       -3.946509   -1.633854    0.279987
     11          7           0       -5.070431   -1.453941   -0.508152
     12          6           0       -4.631038   -0.880572   -1.604833
     13          7           0       -3.281841   -0.681612   -1.558207
     14          6           0        2.851131    0.357259    0.494464
     15          6           0        3.889249    0.675187   -0.571600
     16          7           0        5.275090    0.608825   -0.036333
     17          1           0        0.666139    0.214146    1.867082
     18          1           0       -1.092150    1.030957   -0.310017
     19          1           0       -3.031278    1.944219    2.344257
     20          1           0       -1.242985   -1.767641    0.906216
     21          1           0       -0.738682   -1.392072   -0.739669
     22          1           0       -4.001481   -2.079351    1.264996
     23          1           0       -5.221486   -0.590477   -2.455421
     24          1           0       -2.713556   -0.265923   -2.279028
     25          1           0        3.040831   -0.641932    0.902672
     26          1           0        2.937152    1.062081    1.327175
     27          1           0        3.776071   -0.028894   -1.394566
     28          1           0        3.697671    1.668637   -0.975717
     29          1           0        5.969430    0.819825   -0.754425
     30          1           0        5.412113    1.275928    0.722911
     31          1           0        5.486815   -0.320917    0.325582
 ---------------------------------------------------------------------
                    Distance matrix (angstroms):
                    1          2          3          4          5
     1  O    0.000000
     2  C    1.224125   0.000000
     3  N    2.251236   1.359660   0.000000
     4  C    2.752414   2.451768   1.454363   0.000000
     5  C    4.155900   3.643080   2.374312   1.511700   0.000000
     6  O    4.826188   4.526147   3.425389   2.396321   1.346752
     7  O    4.904318   4.159378   2.800320   2.394461   1.206354
     8  C    3.273311   3.193430   2.458961   1.543298   2.512297
     9  C    4.404986   4.543592   3.802560   2.541131   3.047238
    10  C    5.733993   5.757076   4.848861   3.584145   3.582191
    11  N    6.566774   6.774813   5.963571   4.598244   4.601652
    12  C    5.962073   6.387038   5.785004   4.409483   4.725510
    13  N    4.604353   5.064228   4.572744   3.272531   3.921632
    14  C    2.424277   1.521517   2.434566   3.806705   4.757807
    15  C    2.814443   2.528921   3.754067   4.976201   6.069112
    16  N    4.287226   3.850358   4.922388   6.260786   7.221166
    17  H    3.158413   2.071219   1.008116   2.117270   2.456732
    18  H    2.501068   2.614377   2.077344   1.089418   2.156580
    19  H    5.708706   5.294617   4.106844   3.207233   1.860830
    20  H    3.929705   3.569910   2.687969   2.151380   2.711392
    21  H    2.713987   2.895047   2.644942   2.136860   3.429972
    22  H    6.284140   6.112643   5.070452   3.954767   3.677213
    23  H    6.585962   7.142419   6.645742   5.276165   5.625429
    24  H    4.081284   4.752350   4.514280   3.350226   4.262125
    25  H    3.062369   2.139424   2.765016   4.130795   5.038116
    26  H    3.175539   2.146453   2.633052   4.044631   4.687720
    27  H    2.666734   2.737145   4.050240   5.113014   6.377949
    28  H    2.812983   2.759782   3.980662   5.065458   6.127734
    29  H    4.843404   4.612741   5.781334   7.056622   8.085996
    30  H    4.748710   4.149946   5.056929   6.441307   7.224945
    31  H    4.668169   4.136163   5.109708   6.477413   7.427251
                    6          7          8          9         10
     6  O    0.000000
     7  O    2.245495   0.000000
     8  C    3.408604   3.070045   0.000000
     9  C    3.471554   3.695999   1.493848   0.000000
    10  C    3.858370   3.962073   2.617481   1.367902   0.000000
    11  N    4.532101   5.125196   3.738591   2.268035   1.384461
    12  C    4.560474   5.500231   3.649982   2.216357   2.142092
    13  N    3.977766   4.795880   2.525680   1.378761   2.174283
    14  C    5.715006   5.002353   4.504912   5.937883   7.086497
    15  C    6.894198   6.445974   5.607456   6.966463   8.213158
    16  N    8.101951   7.431112   6.883320   8.299133   9.495660
    17  H    3.631118   2.437398   3.026771   4.359233   5.216368
    18  H    2.465065   3.260248   2.171892   2.796156   3.949264
    19  H    0.966882   2.271682   4.125121   4.115591   4.231012
    20  H    3.831635   2.814620   1.088304   2.109588   2.778327
    21  H    4.294965   4.017603   1.088395   2.137123   3.374657
    22  H    4.103156   3.716926   3.033400   2.196501   1.082466
    23  H    5.301218   6.471676   4.612057   3.240282   3.193221
    24  H    4.292891   5.253869   2.817200   2.131328   3.152771
    25  H    6.158520   5.081648   4.535221   6.022174   7.084812
    26  H    5.579712   4.820060   4.995939   6.401378   7.466555
    27  H    7.224678   6.819885   5.478456   6.780713   8.063390
    28  H    6.762760   6.648140   5.884218   7.139687   8.421207
    29  H    8.906715   8.368216   7.652226   9.025967  10.267248
    30  H    8.059760   7.365749   7.234926   8.658646   9.810546
    31  H    8.429611   7.513839   6.929365   8.383344   9.524363
                   11         12         13         14         15
    11  N    0.000000
    12  C    1.313212   0.000000
    13  N    2.213179   1.364585   0.000000
    14  C    8.187603   7.869061   6.550272   0.000000
    15  C    9.209402   8.722571   7.364701   1.521597   0.000000
    16  N   10.559708  10.139520   8.786489   2.494115   1.487101
    17  H    6.429035   6.427494   5.302974   2.584329   4.067944
    18  H    4.694752   4.225425   3.047231   4.080505   5.000933
    19  H    4.882814   5.112141   4.710307   6.367332   7.616190
    20  H    4.092455   4.309426   3.377835   4.631040   5.872919
    21  H    4.338373   4.020021   2.764492   4.179713   5.071445
    22  H    2.162833   3.173221   3.231413   7.313623   8.557113
    23  H    2.135473   1.075307   2.139047   8.646802   9.389152
    24  H    3.178403   2.123457   1.007635   6.248709   6.884623
    25  H    8.272990   8.074782   6.784813   1.095903   2.151300
    26  H    8.591867   8.345542   7.074021   1.094341   2.159056
    27  H    9.004281   8.452753   7.089918   2.138472   1.088950
    28  H    9.319266   8.732791   7.387594   2.144242   1.089475
    29  H   11.274271  10.769608   9.406721   3.390793   2.093203
    30  H   10.901901  10.532510   9.198930   2.730342   2.087047
    31  H   10.650555  10.315555   8.975973   2.726770   2.085516
                   16         17         18         19         20
    16  N    0.000000
    17  H    5.002119   0.000000
    18  H    6.387084   2.915222   0.000000
    19  H    8.743354   4.109956   3.411662   0.000000
    20  H    7.001521   2.914704   3.055180   4.363927   0.000000
    21  H    6.376812   3.368770   2.486083   5.088952   1.761905
    22  H    9.745487   5.235391   4.540803   4.277291   2.799140
    23  H   10.838285   7.348168   4.927801   5.853085   5.339924
    24  H    8.343460   5.370571   2.861444   5.134242   3.816217
    25  H    2.727277   2.702243   4.620682   6.755505   4.429257
    26  H    2.744185   2.483544   4.349326   6.118396   5.065380
    27  H    2.120976   4.513213   5.098931   8.013237   5.788589
    28  H    2.119881   4.403094   4.877722   7.508457   6.305534
    29  H    1.020923   5.946768   7.078699   9.585345   7.840385
    30  H    1.019928   4.996077   6.590325   8.623586   7.320331
    31  H    1.019917   5.089346   6.746431   9.042334   6.907993
                   21         22         23         24         25
    21  H    0.000000
    22  H    3.890616   0.000000
    23  H    4.866404   4.188873   0.000000
    24  H    2.745535   4.184182   2.534988   0.000000
    25  H    4.188641   7.196639   8.918819   6.586165   0.000000
    26  H    4.879187   7.616895   9.143432   6.833652   1.759151
    27  H    4.761317   8.471597   9.077269   6.553908   2.488714
    28  H    5.394895   8.851280   9.319039   6.822388   3.049347
    29  H    7.063390  10.578391  11.406969   8.882427   3.668705
    30  H    6.862190  10.008372  11.254275   8.798605   3.055074
    31  H    6.406165   9.695482  11.066814   8.604250   2.533559
                   26         27         28         29         30
    26  H    0.000000
    27  H    3.049900   0.000000
    28  H    2.499923   1.750198   0.000000
    29  H    3.685981   2.437402   2.435230   0.000000
    30  H    2.556619   2.977063   2.445173   1.643519   0.000000
    31  H    3.068657   2.443529   2.975356   1.643357   1.647229
                   31
    31  H    0.000000
 Symmetry turned off by external request.
 Stoichiometry    C9H15N4O3(1+)
 Framework group  C1[X(C9H15N4O3)]
 Deg. of freedom    87
 Full point group                 C1      NOp   1
 Rotational constants (GHZ):      1.0449480      0.2251058      0.2000292
 Standard basis: 6-311++G(d,p) (5D, 7F)
   457 basis functions,   711 primitive gaussians,   473 cartesian basis functions
    60 alpha electrons       60 beta electrons
       nuclear repulsion energy      1111.5256414978 Hartrees.
 NAtoms=   31 NActive=   31 NUniq=   31 SFac= 1.00D+00 NAtFMM=   60 NAOKFM=F Big=F
 Integral buffers will be    131072 words long.
 Raffenetti 2 integral format.
 Two-electron integral symmetry is turned off.
 One-electron integrals computed using PRISM.
 NBasis=   457 RedAO= T EigKep=  1.76D-06  NBF=   457
 NBsUse=   457 1.00D-06 EigRej= -1.00D+00 NBFU=   457
 ExpMin= 3.60D-02 ExpMax= 8.59D+03 ExpMxC= 1.30D+03 IAcc=3 IRadAn=         5 AccDes= 0.00D+00
 Harris functional with IExCor=  402 and IRadAn=       5 diagonalized for initial guess.
 HarFok:  IExCor=  402 AccDes= 0.00D+00 IRadAn=         5 IDoV= 1 UseB2=F ITyADJ=14
 ICtDFT=  3500011 ScaDFX=  1.000000  1.000000  1.000000  1.000000
 FoFCou: FMM=F IPFlag=           0 FMFlag=      100000 FMFlg1=           0
         NFxFlg=           0 DoJE=T BraDBF=F KetDBF=T FulRan=T
         wScrn=  0.000000 ICntrl=     500 IOpCl=  0 I1Cent=   200000004 NGrid=           0
         NMat0=    1 NMatS0=      1 NMatT0=    0 NMatD0=    1 NMtDS0=    0 NMtDT0=    0
 Symmetry not used in FoFCou.
 Requested convergence on RMS density matrix=1.00D-08 within 128 cycles.
 Requested convergence on MAX density matrix=1.00D-06.
 Requested convergence on             energy=1.00D-06.
 No special actions if energy rises.
 EnCoef did     2 forward-backward iterations
 SCF Done:  E(RB3LYP) =  -796.683860927     A.U. after   18 cycles
            NFock= 18  Conv=0.22D-08     -V/T= 2.0037
 DoSCS=F DFT=T ScalE2(SS,OS)=  1.000000  1.000000
 Range of M.O.s used for correlation:     1   457
 NBasis=   457 NAE=    60 NBE=    60 NFC=     0 NFV=     0
 NROrb=    457 NOA=    60 NOB=    60 NVA=   397 NVB=   397

 **** Warning!!: The largest alpha MO coefficient is  0.18591710D+03


 **** Warning!!: The smallest alpha delta epsilon is  0.98140031D-01

 Symmetrizing basis deriv contribution to polar:
 IMax=3 JMax=2 DiffMx= 0.00D+00
 G2DrvN: will do    32 centers at a time, making    1 passes.
 Calling FoFCou, ICntrl=  3107 FMM=F I1Cent=   0 AccDes= 0.00D+00.
 End of G2Drv F.D. properties file   721 does not exist.
 End of G2Drv F.D. properties file   722 does not exist.
 End of G2Drv F.D. properties file   788 does not exist.
          IDoAtm=1111111111111111111111111111111
          Differentiating once with respect to nuclear coordinates.
          There are    96 degrees of freedom in the 1st order CPHF.  IDoFFX=6 NUNeed=     0.
     90 vectors produced by pass  0 Test12= 2.48D-14 1.04D-09 XBig12= 2.10D-01 1.08D-01.
 AX will form    90 AO Fock derivatives at one time.
     90 vectors produced by pass  1 Test12= 2.48D-14 1.04D-09 XBig12= 2.17D-02 4.36D-02.
     90 vectors produced by pass  2 Test12= 2.48D-14 1.04D-09 XBig12= 2.23D-04 1.72D-03.
     90 vectors produced by pass  3 Test12= 2.48D-14 1.04D-09 XBig12= 9.22D-07 9.75D-05.
     90 vectors produced by pass  4 Test12= 2.48D-14 1.04D-09 XBig12= 1.98D-09 3.81D-06.
     86 vectors produced by pass  5 Test12= 2.48D-14 1.04D-09 XBig12= 2.78D-12 1.35D-07.
     31 vectors produced by pass  6 Test12= 2.48D-14 1.04D-09 XBig12= 5.40D-15 8.35D-09.
     10 vectors produced by pass  7 Test12= 2.48D-14 1.04D-09 XBig12= 6.01D-16 2.31D-09.
      4 vectors produced by pass  8 Test12= 2.48D-14 1.04D-09 XBig12= 2.90D-16 1.92D-09.
      4 vectors produced by pass  9 Test12= 2.48D-14 1.04D-09 XBig12= 2.90D-15 4.48D-09.
      4 vectors produced by pass 10 Test12= 2.48D-14 1.04D-09 XBig12= 1.82D-15 3.74D-09.
      4 vectors produced by pass 11 Test12= 2.48D-14 1.04D-09 XBig12= 1.63D-15 3.61D-09.
      4 vectors produced by pass 12 Test12= 2.48D-14 1.04D-09 XBig12= 2.47D-15 4.61D-09.
      2 vectors produced by pass 13 Test12= 2.48D-14 1.04D-09 XBig12= 5.20D-16 2.07D-09.
 InvSVY:  IOpt=1 It=  1 EMax= 7.77D-16
 Solved reduced A of dimension   599 with    96 vectors.
 End of Minotr F.D. properties file   721 does not exist.
 End of Minotr F.D. properties file   722 does not exist.
 End of Minotr F.D. properties file   788 does not exist.

 **********************************************************************

            Population analysis using the SCF density.

 **********************************************************************

 Alpha  occ. eigenvalues --  -19.27834 -19.23417 -19.22673 -14.65450 -14.47689
 Alpha  occ. eigenvalues --  -14.44416 -14.36347 -10.42564 -10.42412 -10.41818
 Alpha  occ. eigenvalues --  -10.36796 -10.34301 -10.29595 -10.28816 -10.28355
 Alpha  occ. eigenvalues --  -10.25591  -1.22658  -1.22435  -1.18860  -1.13589
 Alpha  occ. eigenvalues --   -1.09348  -1.06731  -0.98077  -0.94785  -0.91293
 Alpha  occ. eigenvalues --   -0.86484  -0.83388  -0.80861  -0.80108  -0.77845
 Alpha  occ. eigenvalues --   -0.73866  -0.71723  -0.71025  -0.69081  -0.67023
 Alpha  occ. eigenvalues --   -0.65800  -0.65730  -0.62363  -0.61175  -0.60665
 Alpha  occ. eigenvalues --   -0.59013  -0.58049  -0.57838  -0.56142  -0.55023
 Alpha  occ. eigenvalues --   -0.53915  -0.52987  -0.51517  -0.51054  -0.49907
 Alpha  occ. eigenvalues --   -0.48858  -0.48242  -0.47494  -0.43490  -0.41236
 Alpha  occ. eigenvalues --   -0.40256  -0.39273  -0.35782  -0.34190  -0.30728
 Alpha virt. eigenvalues --   -0.20914  -0.15492  -0.15159  -0.13877  -0.13170
 Alpha virt. eigenvalues --   -0.11482  -0.11461  -0.09652  -0.09508  -0.08589
 Alpha virt. eigenvalues --   -0.08186  -0.07354  -0.06857  -0.06352  -0.05954
 Alpha virt. eigenvalues --   -0.05616  -0.05134  -0.04749  -0.04001  -0.03345
 Alpha virt. eigenvalues --   -0.03006  -0.02909  -0.02286  -0.01799  -0.01504
 Alpha virt. eigenvalues --   -0.01136  -0.00601  -0.00415   0.00029   0.00288
 Alpha virt. eigenvalues --    0.00360   0.01211   0.01646   0.01787   0.02023
 Alpha virt. eigenvalues --    0.02295   0.02498   0.02678   0.03239   0.03294
 Alpha virt. eigenvalues --    0.03422   0.04142   0.04729   0.04871   0.05192
 Alpha virt. eigenvalues --    0.05788   0.05854   0.06391   0.06695   0.06806
 Alpha virt. eigenvalues --    0.07426   0.07844   0.08052   0.08420   0.08630
 Alpha virt. eigenvalues --    0.08963   0.09631   0.09948   0.10501   0.11232
 Alpha virt. eigenvalues --    0.11388   0.12238   0.12404   0.12609   0.12785
 Alpha virt. eigenvalues --    0.13016   0.13565   0.14263   0.14943   0.15134
 Alpha virt. eigenvalues --    0.15465   0.15872   0.16194   0.16538   0.17099
 Alpha virt. eigenvalues --    0.17598   0.18254   0.18608   0.19061   0.19346
 Alpha virt. eigenvalues --    0.19641   0.20156   0.20463   0.20709   0.21153
 Alpha virt. eigenvalues --    0.21768   0.22551   0.23016   0.23531   0.23955
 Alpha virt. eigenvalues --    0.24114   0.24646   0.24891   0.25390   0.26028
 Alpha virt. eigenvalues --    0.26706   0.26857   0.27874   0.28070   0.28586
 Alpha virt. eigenvalues --    0.28961   0.29344   0.29570   0.30523   0.30857
 Alpha virt. eigenvalues --    0.31115   0.31373   0.32105   0.32806   0.33473
 Alpha virt. eigenvalues --    0.34999   0.36090   0.37334   0.38202   0.38847
 Alpha virt. eigenvalues --    0.39801   0.40359   0.42290   0.42868   0.43979
 Alpha virt. eigenvalues --    0.44724   0.45251   0.46106   0.46700   0.47670
 Alpha virt. eigenvalues --    0.48354   0.49116   0.49441   0.49538   0.51366
 Alpha virt. eigenvalues --    0.52111   0.53193   0.54018   0.54238   0.55013
 Alpha virt. eigenvalues --    0.55196   0.56306   0.57282   0.57824   0.58779
 Alpha virt. eigenvalues --    0.59304   0.60602   0.61128   0.62007   0.62674
 Alpha virt. eigenvalues --    0.63101   0.63486   0.64297   0.64487   0.66720
 Alpha virt. eigenvalues --    0.66929   0.67932   0.69012   0.70131   0.70837
 Alpha virt. eigenvalues --    0.72418   0.74042   0.74826   0.75419   0.75743
 Alpha virt. eigenvalues --    0.78109   0.80756   0.80951   0.81147   0.82169
 Alpha virt. eigenvalues --    0.83095   0.84725   0.85854   0.86369   0.88739
 Alpha virt. eigenvalues --    0.90104   0.91411   0.92947   0.94170   0.96103
 Alpha virt. eigenvalues --    0.96819   0.97981   0.98756   1.01520   1.02819
 Alpha virt. eigenvalues --    1.03212   1.04278   1.05185   1.05759   1.06823
 Alpha virt. eigenvalues --    1.07045   1.08739   1.09946   1.11316   1.11675
 Alpha virt. eigenvalues --    1.12753   1.13347   1.14801   1.15158   1.17122
 Alpha virt. eigenvalues --    1.17394   1.19317   1.20377   1.22111   1.22691
 Alpha virt. eigenvalues --    1.23030   1.25065   1.26549   1.29516   1.30678
 Alpha virt. eigenvalues --    1.31795   1.33451   1.35298   1.36477   1.37518
 Alpha virt. eigenvalues --    1.39143   1.39824   1.41361   1.43439   1.44962
 Alpha virt. eigenvalues --    1.46117   1.47174   1.48412   1.49906   1.51097
 Alpha virt. eigenvalues --    1.52160   1.53087   1.53316   1.54157   1.55427
 Alpha virt. eigenvalues --    1.55944   1.56318   1.58132   1.59264   1.59450
 Alpha virt. eigenvalues --    1.60123   1.60685   1.61261   1.63933   1.64415
 Alpha virt. eigenvalues --    1.65156   1.67983   1.68735   1.69728   1.70503
 Alpha virt. eigenvalues --    1.71559   1.73981   1.74564   1.75520   1.76618
 Alpha virt. eigenvalues --    1.78389   1.78942   1.81011   1.83231   1.84696
 Alpha virt. eigenvalues --    1.84761   1.87594   1.88465   1.90769   1.93991
 Alpha virt. eigenvalues --    1.96219   1.96738   1.97846   1.99989   2.02152
 Alpha virt. eigenvalues --    2.02740   2.04479   2.05935   2.09376   2.10913
 Alpha virt. eigenvalues --    2.13266   2.14506   2.15314   2.16032   2.17331
 Alpha virt. eigenvalues --    2.19319   2.22021   2.22546   2.24143   2.25808
 Alpha virt. eigenvalues --    2.28679   2.29857   2.31852   2.33518   2.36744
 Alpha virt. eigenvalues --    2.37850   2.38866   2.40562   2.43729   2.44562
 Alpha virt. eigenvalues --    2.46200   2.47055   2.48029   2.49246   2.49751
 Alpha virt. eigenvalues --    2.51278   2.52200   2.52776   2.53974   2.55272
 Alpha virt. eigenvalues --    2.56274   2.57136   2.60115   2.60214   2.62150
 Alpha virt. eigenvalues --    2.63199   2.67311   2.67744   2.68429   2.72242
 Alpha virt. eigenvalues --    2.72621   2.74030   2.75526   2.76398   2.77830
 Alpha virt. eigenvalues --    2.79114   2.80240   2.81005   2.81599   2.82414
 Alpha virt. eigenvalues --    2.82900   2.83316   2.83986   2.85010   2.85346
 Alpha virt. eigenvalues --    2.86027   2.89700   2.91178   2.92036   2.93582
 Alpha virt. eigenvalues --    2.95039   2.97383   2.99747   3.05464   3.06811
 Alpha virt. eigenvalues --    3.08760   3.10332   3.16250   3.18320   3.22386
 Alpha virt. eigenvalues --    3.22992   3.29040   3.29777   3.35007   3.38270
 Alpha virt. eigenvalues --    3.44469   3.47908   3.51184   3.54843   3.56405
 Alpha virt. eigenvalues --    3.58491   3.61100   3.61700   3.63818   3.65309
 Alpha virt. eigenvalues --    3.70876   3.76754   3.77643   3.79566   3.81196
 Alpha virt. eigenvalues --    3.82790   3.87697   3.92324   3.99094   4.04632
 Alpha virt. eigenvalues --    4.09310   4.13894   4.23578   4.42877   4.42928
 Alpha virt. eigenvalues --    4.44107   4.57823   4.69968   4.73291   4.84798
 Alpha virt. eigenvalues --    4.86784   4.93083   4.97816   4.99479   5.10034
 Alpha virt. eigenvalues --    5.17221   5.20984   5.33669   5.51754   5.66056
 Alpha virt. eigenvalues --    5.77066  23.65510  23.68371  23.70463  23.71088
 Alpha virt. eigenvalues --   23.73464  23.77373  23.85416  23.89059  24.07401
 Alpha virt. eigenvalues --   35.31073  35.48294  35.49368  35.63002  49.78495
 Alpha virt. eigenvalues --   49.89303  49.92771
          Condensed to atoms (all electrons):
               1          2          3          4          5          6
     1  O    8.030520   0.218947  -0.123458   0.117288   0.063642  -0.000802
     2  C    0.218947   9.811266  -0.678621  -0.737426   0.071871   0.043831
     3  N   -0.123458  -0.678621   8.042728  -1.480185   0.381907   0.008378
     4  C    0.117288  -0.737426  -1.480185  17.272994  -5.728922   0.039955
     5  C    0.063642   0.071871   0.381907  -5.728922  10.278142   0.013287
     6  O   -0.000802   0.043831   0.008378   0.039955   0.013287   7.898275
     7  O    0.000184   0.046449   0.016494  -0.026723   0.409459  -0.147526
     8  C   -0.076929   0.299153   0.309820  -2.452840   0.805293  -0.016507
     9  C    0.005919  -0.964224   0.543981  -2.339831   0.933704  -0.088852
    10  C   -0.002217   0.079045   0.018084   0.770354  -0.728313   0.057656
    11  N   -0.000050  -0.000060   0.000122  -0.014693   0.023038  -0.000560
    12  C    0.000046  -0.013165  -0.001210   0.135925  -0.094409   0.004131
    13  N   -0.000196  -0.003210  -0.002315  -0.046824   0.087584   0.012698
    14  C    0.097931  -2.823828  -0.259983   0.294818  -0.208390  -0.002312
    15  C   -0.040979   0.804933  -0.035216  -0.099407   0.000923  -0.000384
    16  N    0.004918  -0.028988   0.002308   0.003176   0.001019  -0.000009
    17  H    0.000254   0.085468   0.240793   0.037528  -0.037262   0.010703
    18  H   -0.012696   0.096056  -0.087817   0.688982  -0.176237  -0.006167
    19  H   -0.000045   0.002571  -0.001172  -0.151569   0.178188   0.237445
    20  H    0.001576   0.023854   0.000398  -0.007620  -0.095902   0.002490
    21  H   -0.004939   0.027214  -0.034047  -0.083011   0.100854  -0.004525
    22  H    0.000060  -0.001486  -0.002561   0.030430  -0.025563   0.000070
    23  H   -0.000009  -0.000685  -0.000323   0.004621  -0.004116  -0.000531
    24  H   -0.000968   0.001192   0.002283   0.003971  -0.014692   0.001107
    25  H    0.005375  -0.213517   0.030979   0.004091   0.018353  -0.000081
    26  H    0.003120  -0.039447   0.025747   0.043889  -0.026256  -0.000022
    27  H   -0.004237   0.037275  -0.006807   0.002645  -0.003925   0.000028
    28  H   -0.008351  -0.056075  -0.006560   0.002350   0.005226   0.000013
    29  H    0.000549   0.005282   0.001261  -0.000193  -0.000162  -0.000003
    30  H    0.000120   0.003915  -0.001815  -0.002472   0.000771   0.000001
    31  H    0.001277  -0.003612   0.001354   0.000115  -0.000530   0.000002
               7          8          9         10         11         12
     1  O    0.000184  -0.076929   0.005919  -0.002217  -0.000050   0.000046
     2  C    0.046449   0.299153  -0.964224   0.079045  -0.000060  -0.013165
     3  N    0.016494   0.309820   0.543981   0.018084   0.000122  -0.001210
     4  C   -0.026723  -2.452840  -2.339831   0.770354  -0.014693   0.135925
     5  C    0.409459   0.805293   0.933704  -0.728313   0.023038  -0.094409
     6  O   -0.147526  -0.016507  -0.088852   0.057656  -0.000560   0.004131
     7  O    7.956734  -0.013976  -0.004518  -0.018307  -0.000314   0.001645
     8  C   -0.013976  17.824685  -7.376753  -2.549035  -0.030948  -0.494388
     9  C   -0.004518  -7.376753  16.215726  -0.939147  -0.118304   0.164901
    10  C   -0.018307  -2.549035  -0.939147   9.021409   0.474194  -0.206880
    11  N   -0.000314  -0.030948  -0.118304   0.474194   6.520487   0.340014
    12  C    0.001645  -0.494388   0.164901  -0.206880   0.340014   5.363685
    13  N   -0.002974  -0.040349  -0.314333   0.084422   0.037794   0.196684
    14  C   -0.018082  -0.117114   0.204777  -0.004745   0.000200   0.006898
    15  C   -0.002798  -0.025428  -0.002490   0.001606   0.000041  -0.000226
    16  N   -0.000049   0.002212   0.000316   0.000002   0.000000   0.000001
    17  H    0.029460  -0.034087  -0.026818   0.012537  -0.000195   0.000187
    18  H   -0.003661   0.185847  -0.467726   0.005765  -0.001200  -0.004758
    19  H   -0.006977  -0.013237   0.011981   0.001106   0.000125  -0.003969
    20  H    0.004515   0.755747  -0.309158  -0.076920  -0.003293  -0.007848
    21  H   -0.003726   0.275212   0.082566  -0.044621   0.002177   0.000361
    22  H   -0.003172  -0.090110  -0.097072   0.523106  -0.073607   0.036704
    23  H    0.000052   0.011559   0.085705  -0.037154  -0.065575   0.432306
    24  H    0.000398  -0.033608   0.031313  -0.014031   0.009328  -0.015177
    25  H   -0.000296  -0.002234   0.011207   0.000845   0.000005   0.000172
    26  H   -0.002196   0.011436  -0.010338  -0.001650   0.000014  -0.000037
    27  H    0.000064   0.005161  -0.008103  -0.000062  -0.000007  -0.000135
    28  H    0.000044  -0.002537   0.000901  -0.000107   0.000001   0.000010
    29  H   -0.000012   0.000119   0.000161   0.000013   0.000000   0.000001
    30  H    0.000024  -0.000254   0.000073   0.000016   0.000000   0.000000
    31  H    0.000022   0.000341   0.000196   0.000010   0.000000   0.000001
              13         14         15         16         17         18
     1  O   -0.000196   0.097931  -0.040979   0.004918   0.000254  -0.012696
     2  C   -0.003210  -2.823828   0.804933  -0.028988   0.085468   0.096056
     3  N   -0.002315  -0.259983  -0.035216   0.002308   0.240793  -0.087817
     4  C   -0.046824   0.294818  -0.099407   0.003176   0.037528   0.688982
     5  C    0.087584  -0.208390   0.000923   0.001019  -0.037262  -0.176237
     6  O    0.012698  -0.002312  -0.000384  -0.000009   0.010703  -0.006167
     7  O   -0.002974  -0.018082  -0.002798  -0.000049   0.029460  -0.003661
     8  C   -0.040349  -0.117114  -0.025428   0.002212  -0.034087   0.185847
     9  C   -0.314333   0.204777  -0.002490   0.000316  -0.026818  -0.467726
    10  C    0.084422  -0.004745   0.001606   0.000002   0.012537   0.005765
    11  N    0.037794   0.000200   0.000041   0.000000  -0.000195  -0.001200
    12  C    0.196684   0.006898  -0.000226   0.000001   0.000187  -0.004758
    13  N    6.855517  -0.008948  -0.000217   0.000000   0.001374   0.021824
    14  C   -0.008948   9.509084  -1.347440  -0.076276   0.018911  -0.070336
    15  C   -0.000217  -1.347440   6.924701   0.060470  -0.040178   0.002934
    16  N    0.000000  -0.076276   0.060470   6.216237  -0.001078  -0.000588
    17  H    0.001374   0.018911  -0.040178  -0.001078   0.408601   0.011630
    18  H    0.021824  -0.070336   0.002934  -0.000588   0.011630   0.487746
    19  H   -0.001258  -0.003354   0.000118   0.000004  -0.000030   0.005851
    20  H    0.010358  -0.005219  -0.000341  -0.000321   0.000588   0.005625
    21  H    0.020063  -0.050038  -0.000148  -0.000165  -0.003318  -0.002377
    22  H    0.014536   0.000498  -0.000077   0.000000   0.000446  -0.000119
    23  H   -0.115831   0.000239   0.000003   0.000000  -0.000046   0.000300
    24  H    0.346872   0.000838   0.000152   0.000007  -0.000097  -0.008448
    25  H   -0.000058   0.549339  -0.061774   0.005349  -0.002606  -0.002211
    26  H    0.000161   0.371798  -0.043649   0.004385  -0.005377   0.003487
    27  H    0.000026  -0.059997   0.376253  -0.016549   0.002039   0.001749
    28  H   -0.000023   0.061721   0.351006  -0.017559   0.001260  -0.001322
    29  H   -0.000001  -0.008721  -0.010494   0.342180  -0.000465  -0.000032
    30  H   -0.000002  -0.007597  -0.003456   0.350717   0.000090  -0.000153
    31  H   -0.000002   0.032677  -0.041035   0.348796   0.000614   0.000103
              19         20         21         22         23         24
     1  O   -0.000045   0.001576  -0.004939   0.000060  -0.000009  -0.000968
     2  C    0.002571   0.023854   0.027214  -0.001486  -0.000685   0.001192
     3  N   -0.001172   0.000398  -0.034047  -0.002561  -0.000323   0.002283
     4  C   -0.151569  -0.007620  -0.083011   0.030430   0.004621   0.003971
     5  C    0.178188  -0.095902   0.100854  -0.025563  -0.004116  -0.014692
     6  O    0.237445   0.002490  -0.004525   0.000070  -0.000531   0.001107
     7  O   -0.006977   0.004515  -0.003726  -0.003172   0.000052   0.000398
     8  C   -0.013237   0.755747   0.275212  -0.090110   0.011559  -0.033608
     9  C    0.011981  -0.309158   0.082566  -0.097072   0.085705   0.031313
    10  C    0.001106  -0.076920  -0.044621   0.523106  -0.037154  -0.014031
    11  N    0.000125  -0.003293   0.002177  -0.073607  -0.065575   0.009328
    12  C   -0.003969  -0.007848   0.000361   0.036704   0.432306  -0.015177
    13  N   -0.001258   0.010358   0.020063   0.014536  -0.115831   0.346872
    14  C   -0.003354  -0.005219  -0.050038   0.000498   0.000239   0.000838
    15  C    0.000118  -0.000341  -0.000148  -0.000077   0.000003   0.000152
    16  N    0.000004  -0.000321  -0.000165   0.000000   0.000000   0.000007
    17  H   -0.000030   0.000588  -0.003318   0.000446  -0.000046  -0.000097
    18  H    0.005851   0.005625  -0.002377  -0.000119   0.000300  -0.008448
    19  H    0.450604  -0.002455   0.001312   0.000082  -0.000220  -0.000472
    20  H   -0.002455   0.489390  -0.022990  -0.002586   0.000683   0.001574
    21  H    0.001312  -0.022990   0.533277  -0.000432  -0.000443  -0.006523
    22  H    0.000082  -0.002586  -0.000432   0.531850  -0.000773   0.000923
    23  H   -0.000220   0.000683  -0.000443  -0.000773   0.517060  -0.002555
    24  H   -0.000472   0.001574  -0.006523   0.000923  -0.002555   0.390508
    25  H    0.000167  -0.003822   0.000634   0.000030   0.000003  -0.000042
    26  H   -0.000209   0.000879  -0.000969  -0.000054   0.000005   0.000057
    27  H   -0.000022   0.000494  -0.001038  -0.000005  -0.000005  -0.000002
    28  H    0.000023  -0.000208   0.000640   0.000002   0.000000  -0.000026
    29  H    0.000000  -0.000043  -0.000036   0.000000   0.000000   0.000002
    30  H    0.000008   0.000024  -0.000106   0.000000   0.000000   0.000000
    31  H   -0.000002   0.000019   0.000029   0.000001   0.000000   0.000000
              25         26         27         28         29         30
     1  O    0.005375   0.003120  -0.004237  -0.008351   0.000549   0.000120
     2  C   -0.213517  -0.039447   0.037275  -0.056075   0.005282   0.003915
     3  N    0.030979   0.025747  -0.006807  -0.006560   0.001261  -0.001815
     4  C    0.004091   0.043889   0.002645   0.002350  -0.000193  -0.002472
     5  C    0.018353  -0.026256  -0.003925   0.005226  -0.000162   0.000771
     6  O   -0.000081  -0.000022   0.000028   0.000013  -0.000003   0.000001
     7  O   -0.000296  -0.002196   0.000064   0.000044  -0.000012   0.000024
     8  C   -0.002234   0.011436   0.005161  -0.002537   0.000119  -0.000254
     9  C    0.011207  -0.010338  -0.008103   0.000901   0.000161   0.000073
    10  C    0.000845  -0.001650  -0.000062  -0.000107   0.000013   0.000016
    11  N    0.000005   0.000014  -0.000007   0.000001   0.000000   0.000000
    12  C    0.000172  -0.000037  -0.000135   0.000010   0.000001   0.000000
    13  N   -0.000058   0.000161   0.000026  -0.000023  -0.000001  -0.000002
    14  C    0.549339   0.371798  -0.059997   0.061721  -0.008721  -0.007597
    15  C   -0.061774  -0.043649   0.376253   0.351006  -0.010494  -0.003456
    16  N    0.005349   0.004385  -0.016549  -0.017559   0.342180   0.350717
    17  H   -0.002606  -0.005377   0.002039   0.001260  -0.000465   0.000090
    18  H   -0.002211   0.003487   0.001749  -0.001322  -0.000032  -0.000153
    19  H    0.000167  -0.000209  -0.000022   0.000023   0.000000   0.000008
    20  H   -0.003822   0.000879   0.000494  -0.000208  -0.000043   0.000024
    21  H    0.000634  -0.000969  -0.001038   0.000640  -0.000036  -0.000106
    22  H    0.000030  -0.000054  -0.000005   0.000002   0.000000   0.000000
    23  H    0.000003   0.000005  -0.000005   0.000000   0.000000   0.000000
    24  H   -0.000042   0.000057  -0.000002  -0.000026   0.000002   0.000000
    25  H    0.547416  -0.073966  -0.020148   0.011063   0.000831   0.001892
    26  H   -0.073966   0.570978   0.012906  -0.019831   0.002364  -0.000236
    27  H   -0.020148   0.012906   0.428824  -0.023235  -0.001457   0.002405
    28  H    0.011063  -0.019831  -0.023235   0.440873  -0.004901  -0.007930
    29  H    0.000831   0.002364  -0.001457  -0.004901   0.346310  -0.011187
    30  H    0.001892  -0.000236   0.002405  -0.007930  -0.011187   0.364845
    31  H    0.000262   0.001608  -0.007088   0.002635  -0.013131  -0.031525
              31
     1  O    0.001277
     2  C   -0.003612
     3  N    0.001354
     4  C    0.000115
     5  C   -0.000530
     6  O    0.000002
     7  O    0.000022
     8  C    0.000341
     9  C    0.000196
    10  C    0.000010
    11  N    0.000000
    12  C    0.000001
    13  N   -0.000002
    14  C    0.032677
    15  C   -0.041035
    16  N    0.348796
    17  H    0.000614
    18  H    0.000103
    19  H   -0.000002
    20  H    0.000019
    21  H    0.000029
    22  H    0.000001
    23  H    0.000000
    24  H    0.000000
    25  H    0.000262
    26  H    0.001608
    27  H   -0.007088
    28  H    0.002635
    29  H   -0.013131
    30  H   -0.031525
    31  H    0.366994
 Mulliken charges:
               1
     1  O   -0.275852
     2  C   -0.093978
     3  N    0.095453
     4  C   -0.281418
     5  C   -0.228584
     6  O   -0.061787
     7  O   -0.210238
     8  C   -1.116251
     9  C    0.774243
    10  C   -0.426984
    11  N   -0.098732
    12  C    0.158528
    13  N   -0.153371
    14  C   -0.077347
    15  C   -0.767400
    16  N   -0.200513
    17  H    0.289071
    18  H    0.327948
    19  H    0.295409
    20  H    0.240513
    21  H    0.219112
    22  H    0.158879
    23  H    0.175728
    24  H    0.306116
    25  H    0.192742
    26  H    0.171406
    27  H    0.282951
    28  H    0.270896
    29  H    0.351763
    30  H    0.341830
    31  H    0.339869
 Sum of Mulliken charges =   1.00000
 Mulliken charges with hydrogens summed into heavy atoms:
               1
     1  O   -0.275852
     2  C   -0.093978
     3  N    0.384525
     4  C    0.046530
     5  C   -0.228584
     6  O    0.233622
     7  O   -0.210238
     8  C   -0.656626
     9  C    0.774243
    10  C   -0.268105
    11  N   -0.098732
    12  C    0.334255
    13  N    0.152744
    14  C    0.286801
    15  C   -0.213554
    16  N    0.832949
 APT charges:
               1
     1  O   -0.413830
     2  C   -0.064265
     3  N   -0.332094
     4  C   -0.346447
     5  C   -0.667116
     6  O   -0.516654
     7  O    0.003269
     8  C   -1.675621
     9  C    0.901496
    10  C   -0.717485
    11  N    0.171903
    12  C   -0.436314
    13  N   -0.595835
    14  C   -0.655551
    15  C   -0.145279
    16  N   -1.900368
    17  H    0.580483
    18  H    0.414416
    19  H    1.017498
    20  H    0.425030
    21  H    0.272789
    22  H    0.538385
    23  H    1.024927
    24  H    0.246097
    25  H    0.361802
    26  H    0.417007
    27  H    0.225245
    28  H    0.312020
    29  H    1.232460
    30  H    0.712579
    31  H    0.609452
 Sum of APT charges =   1.00000
 APT charges with hydrogens summed into heavy atoms:
               1
     1  O   -0.413830
     2  C   -0.064265
     3  N    0.248389
     4  C    0.067969
     5  C   -0.667116
     6  O    0.500845
     7  O    0.003269
     8  C   -0.977802
     9  C    0.901496
    10  C   -0.179099
    11  N    0.171903
    12  C    0.588612
    13  N   -0.349739
    14  C    0.123259
    15  C    0.391986
    16  N    0.654122
 Electronic spatial extent (au):  <R**2>=           5475.0251
 Charge=              1.0000 electrons
 Dipole moment (field-independent basis, Debye):
    X=             23.7583    Y=              4.2862    Z=              0.3482  Tot=             24.1443
 Quadrupole moment (field-independent basis, Debye-Ang):
   XX=             17.2323   YY=            -89.5862   ZZ=            -86.4313
   XY=              2.8196   XZ=              6.3955   YZ=              3.5495
 Traceless Quadrupole moment (field-independent basis, Debye-Ang):
   XX=             70.1607   YY=            -36.6578   ZZ=            -33.5029
   XY=              2.8196   XZ=              6.3955   YZ=              3.5495
 Octapole moment (field-independent basis, Debye-Ang**2):
  XXX=            989.8012  YYY=             32.9233  ZZZ=            -68.1957  XYY=            103.7228
  XXY=            141.0061  XXZ=            -26.2147  XZZ=             43.9708  YZZ=             17.4493
  YYZ=              3.8955  XYZ=             -6.1438
 Hexadecapole moment (field-independent basis, Debye-Ang**3):
 XXXX=          -2610.6609 YYYY=           -626.5333 ZZZZ=           -925.1462 XXXY=           -393.3325
 XXXZ=            -31.5760 YYYX=           -490.8743 YYYZ=           -120.6414 ZZZX=             50.3608
 ZZZY=            -84.1050 XXYY=           -981.9434 XXZZ=           -813.8489 YYZZ=           -220.1336
 XXYZ=            -28.5656 YYXZ=            -66.6383 ZZXY=           -176.4983
 N-N= 1.111525641498D+03 E-N=-4.069715564146D+03  KE= 7.937442880380D+02
  Exact polarizability:   0.000   0.000   0.000   0.000   0.000   0.000
 Approx polarizability: 221.227   2.570 162.232   0.916 -22.038 222.144
 Calling FoFJK, ICntrl=    100147 FMM=F ISym2X=0 I1Cent= 0 IOpClX= 0 NMat=1 NMatS=1 NMatT=0.
 -------------------------------------------------------------------
 Center     Atomic                   Forces (Hartrees/Bohr)
 Number     Number              X              Y              Z
 -------------------------------------------------------------------
      1        8           0.014380516    0.001197037   -0.000740645
      2        6          -0.023627031   -0.000784981   -0.002489294
      3        7           0.016796211    0.003883427   -0.002990653
      4        6           0.000102467   -0.000534142   -0.003089866
      5        6          -0.011914447    0.006562213    0.004422769
      6        8           0.008541733   -0.006658960   -0.003053045
      7        8           0.004784101   -0.000343386    0.000791380
      8        6          -0.009069273   -0.002264274   -0.001172842
      9        6           0.004169918   -0.000315070    0.000442074
     10        6          -0.007854170   -0.000731673    0.002318464
     11        7           0.005974018   -0.000161573    0.001877429
     12        6          -0.000487130   -0.002197202    0.004512176
     13        7           0.002094687    0.003104825   -0.004652864
     14        6           0.011419683   -0.002099777    0.010444038
     15        6          -0.029862181    0.001694824   -0.012367928
     16        7           0.006160242    0.000171333    0.000707838
     17        1          -0.000416079   -0.001494410    0.003543254
     18        1          -0.000015623    0.001107061    0.001243183
     19        1          -0.005224249    0.002502816    0.002393308
     20        1           0.001031222   -0.001477637    0.002041507
     21        1           0.002443022   -0.001217087   -0.002139630
     22        1          -0.001321014   -0.000165290   -0.002279627
     23        1          -0.002440306    0.000355984   -0.001902524
     24        1          -0.000373580    0.000095549   -0.001766267
     25        1          -0.001665517   -0.001160750    0.001037939
     26        1          -0.000758268    0.000575382    0.001446544
     27        1           0.005877651   -0.000656966   -0.001347656
     28        1           0.006289365    0.001686696   -0.000380171
     29        1           0.002246145    0.000901875   -0.003247806
     30        1           0.001204573    0.002414750    0.003958829
     31        1           0.001513315   -0.003990593    0.002440087
 -------------------------------------------------------------------
 Cartesian Forces:  Max     0.029862181 RMS     0.005953629
 FormGI is forming the generalized inverse of G from B-inverse, IUseBI=4.

 GradGradGradGradGradGradGradGradGradGradGradGradGradGradGradGradGradGrad
 Berny optimization.
 Internal  Forces:  Max     0.017166520 RMS     0.003400822
 Search for a local minimum.
 Step number   1 out of a maximum of  167
 All quantities printed in internal units (Hartrees-Bohrs-Radians)
 Mixed Optimization -- RFO/linear search
 Second derivative matrix not updated -- analytic derivatives used.
 ITU=  0
     Eigenvalues ---   -0.00063   0.00076   0.00166   0.00201   0.00246
     Eigenvalues ---    0.00348   0.00459   0.00506   0.00520   0.00912
     Eigenvalues ---    0.01966   0.02041   0.02174   0.02530   0.03374
     Eigenvalues ---    0.03817   0.03904   0.04023   0.04099   0.04285
     Eigenvalues ---    0.04337   0.04574   0.04738   0.04913   0.05004
     Eigenvalues ---    0.05112   0.05319   0.05652   0.06047   0.07487
     Eigenvalues ---    0.07894   0.08257   0.10208   0.10628   0.10813
     Eigenvalues ---    0.11041   0.11585   0.11961   0.13032   0.13263
     Eigenvalues ---    0.13742   0.14846   0.15647   0.15883   0.15968
     Eigenvalues ---    0.16215   0.16455   0.18607   0.19412   0.20016
     Eigenvalues ---    0.21105   0.22592   0.22749   0.24051   0.24354
     Eigenvalues ---    0.24749   0.26713   0.29506   0.31223   0.32018
     Eigenvalues ---    0.32613   0.33152   0.33353   0.33535   0.34154
     Eigenvalues ---    0.34203   0.34258   0.34648   0.34934   0.35102
     Eigenvalues ---    0.36396   0.36917   0.37726   0.40473   0.40661
     Eigenvalues ---    0.43386   0.43562   0.43919   0.44463   0.45811
     Eigenvalues ---    0.46800   0.47069   0.47637   0.52229   0.57258
     Eigenvalues ---    0.79764   0.87051
 RFO step:  Lambda=-9.73123733D-03 EMin=-6.28916654D-04
 Linear search not attempted -- first point.
 Iteration  1 RMS(Cart)=  0.15157717 RMS(Int)=  0.02065614
 Iteration  2 RMS(Cart)=  0.04169584 RMS(Int)=  0.00094429
 Iteration  3 RMS(Cart)=  0.00157925 RMS(Int)=  0.00037734
 Iteration  4 RMS(Cart)=  0.00000288 RMS(Int)=  0.00037734
 Iteration  5 RMS(Cart)=  0.00000000 RMS(Int)=  0.00037734
 Variable       Old X    -DE/DX   Delta X   Delta X   Delta X     New X
                                 (Linear)    (Quad)   (Total)
    R1        2.31326  -0.00235   0.00000  -0.00207  -0.00207   2.31119
    R2        2.56938  -0.00456   0.00000  -0.02760  -0.02760   2.54178
    R3        2.87525   0.00324   0.00000   0.03280   0.03280   2.90805
    R4        2.74835   0.00922   0.00000   0.01976   0.01976   2.76811
    R5        1.90506   0.00351   0.00000   0.00856   0.00856   1.91363
    R6        2.85670   0.00623   0.00000   0.02319   0.02319   2.87989
    R7        2.91641   0.00699   0.00000   0.02505   0.02505   2.94146
    R8        2.05870  -0.00022   0.00000  -0.00065  -0.00065   2.05806
    R9        2.54499  -0.00511   0.00000  -0.02286  -0.02286   2.52213
   R10        2.27968   0.00144   0.00000   0.00153   0.00153   2.28120
   R11        1.82714   0.00490   0.00000   0.00866   0.00866   1.83580
   R12        2.82296   0.00064   0.00000  -0.00374  -0.00374   2.81922
   R13        2.05660   0.00264   0.00000   0.00798   0.00798   2.06457
   R14        2.05677   0.00341   0.00000   0.01130   0.01130   2.06806
   R15        2.58496   0.00512   0.00000   0.01116   0.01116   2.59612
   R16        2.60548   0.00542   0.00000   0.01240   0.01241   2.61789
   R17        2.61625  -0.00635   0.00000  -0.01948  -0.01949   2.59677
   R18        2.04556  -0.00194   0.00000  -0.00478  -0.00478   2.04079
   R19        2.48161  -0.00156   0.00000  -0.00436  -0.00436   2.47725
   R20        2.57869   0.00250   0.00000   0.00607   0.00608   2.58477
   R21        2.03204   0.00294   0.00000   0.00762   0.00762   2.03966
   R22        1.90415   0.00109   0.00000   0.00188   0.00188   1.90604
   R23        2.87540   0.00315   0.00000   0.00176   0.00176   2.87717
   R24        2.07096   0.00116   0.00000   0.00318   0.00318   2.07414
   R25        2.06800   0.00141   0.00000  -0.00126  -0.00126   2.06675
   R26        2.81021   0.01178   0.00000   0.06090   0.06090   2.87111
   R27        2.05782   0.00083   0.00000   0.00002   0.00002   2.05784
   R28        2.05881   0.00057   0.00000  -0.00032  -0.00032   2.05849
   R29        1.92927   0.00400   0.00000   0.00725   0.00725   1.93652
   R30        1.92739   0.00469   0.00000   0.00851   0.00851   1.93590
   R31        1.92736   0.00482   0.00000   0.00921   0.00921   1.93657
    A1        2.11411   0.01717   0.00000   0.06073   0.06072   2.17483
    A2        2.15794  -0.01572   0.00000  -0.07038  -0.07038   2.08756
    A3        2.01109  -0.00144   0.00000   0.00959   0.00958   2.02067
    A4        2.11492   0.00444   0.00000   0.02397   0.02382   2.13874
    A5        2.11741  -0.00104   0.00000  -0.00012  -0.00029   2.11713
    A6        2.04975  -0.00342   0.00000  -0.02531  -0.02545   2.02430
    A7        1.85595  -0.00015   0.00000  -0.00023  -0.00023   1.85573
    A8        1.92323   0.00270   0.00000   0.01260   0.01258   1.93581
    A9        1.89630  -0.00071   0.00000   0.00192   0.00187   1.89817
   A10        1.93101  -0.00124   0.00000  -0.00307  -0.00310   1.92791
   A11        1.93680  -0.00056   0.00000  -0.01248  -0.01248   1.92431
   A12        1.91937   0.00001   0.00000   0.00151   0.00143   1.92080
   A13        1.98625  -0.00452   0.00000  -0.02055  -0.02055   1.96570
   A14        2.14887  -0.00139   0.00000  -0.00983  -0.00983   2.13904
   A15        2.14804   0.00591   0.00000   0.03039   0.03039   2.17844
   A16        1.84855   0.00660   0.00000   0.04555   0.04555   1.89410
   A17        1.98223   0.00148   0.00000   0.01134   0.01132   1.99355
   A18        1.89255  -0.00091   0.00000  -0.00644  -0.00647   1.88608
   A19        1.87298  -0.00036   0.00000  -0.00616  -0.00624   1.86675
   A20        1.89454   0.00003   0.00000   0.00119   0.00122   1.89576
   A21        1.93263  -0.00026   0.00000   0.00675   0.00675   1.93938
   A22        1.88639  -0.00006   0.00000  -0.00789  -0.00794   1.87845
   A23        2.30839  -0.00148   0.00000  -0.01230  -0.01231   2.29608
   A24        2.14761   0.00222   0.00000   0.01433   0.01432   2.16193
   A25        1.82686  -0.00074   0.00000  -0.00197  -0.00195   1.82491
   A26        1.93696  -0.00005   0.00000   0.00072   0.00068   1.93763
   A27        2.21636   0.00163   0.00000   0.00892   0.00886   2.22521
   A28        2.12972  -0.00157   0.00000  -0.00932  -0.00939   2.12034
   A29        1.83436   0.00277   0.00000   0.00719   0.00720   1.84156
   A30        1.94545   0.00115   0.00000   0.00226   0.00228   1.94772
   A31        2.20763  -0.00161   0.00000  -0.00758  -0.00759   2.20004
   A32        2.13010   0.00046   0.00000   0.00532   0.00531   2.13541
   A33        1.88115  -0.00313   0.00000  -0.00820  -0.00820   1.87295
   A34        2.19602   0.00282   0.00000   0.01464   0.01459   2.21061
   A35        2.20598   0.00031   0.00000  -0.00656  -0.00660   2.19938
   A36        1.96192  -0.01435   0.00000  -0.08613  -0.08642   1.87550
   A37        1.89462   0.00289   0.00000  -0.01548  -0.01641   1.87821
   A38        1.90574   0.00429   0.00000   0.04448   0.04527   1.95101
   A39        1.91068   0.00531   0.00000   0.01858   0.01642   1.92710
   A40        1.92295   0.00463   0.00000   0.02946   0.03004   1.95299
   A41        1.86521  -0.00220   0.00000   0.01339   0.01284   1.87806
   A42        1.95443  -0.00283   0.00000  -0.00982  -0.00937   1.94507
   A43        1.90021   0.00423   0.00000   0.02878   0.02796   1.92817
   A44        1.90756   0.00445   0.00000   0.05048   0.04977   1.95733
   A45        1.91774  -0.00283   0.00000  -0.03770  -0.03772   1.88002
   A46        1.91567  -0.00302   0.00000  -0.05096  -0.05082   1.86484
   A47        1.86604   0.00022   0.00000   0.02172   0.01902   1.88507
   A48        1.95132  -0.00113   0.00000  -0.01059  -0.01059   1.94073
   A49        1.94330   0.00099   0.00000   0.00775   0.00776   1.95106
   A50        1.94106   0.00097   0.00000   0.00050   0.00049   1.94155
   A51        1.87240   0.00011   0.00000   0.00407   0.00409   1.87649
   A52        1.87215   0.00011   0.00000   0.00351   0.00350   1.87565
   A53        1.87989  -0.00110   0.00000  -0.00512  -0.00512   1.87477
    D1        0.00624   0.00086   0.00000   0.04520   0.04515   0.05139
    D2        3.09611   0.00043   0.00000   0.01031   0.01002   3.10614
    D3       -3.12567   0.00060   0.00000   0.05233   0.05261  -3.07306
    D4       -0.03580   0.00017   0.00000   0.01744   0.01749  -0.01831
    D5        0.17535  -0.00021   0.00000   0.23336   0.23427   0.40962
    D6       -1.94087   0.00035   0.00000   0.27596   0.27507  -1.66581
    D7        2.31489  -0.00096   0.00000   0.24433   0.24397   2.55886
    D8       -2.97620   0.00026   0.00000   0.22685   0.22799  -2.74820
    D9        1.19077   0.00082   0.00000   0.26945   0.26879   1.45956
   D10       -0.83666  -0.00048   0.00000   0.23783   0.23769  -0.59896
   D11       -2.76619   0.00078   0.00000   0.01695   0.01704  -2.74915
   D12        1.42355   0.00087   0.00000   0.01383   0.01392   1.43747
   D13       -0.68037  -0.00034   0.00000   0.00311   0.00318  -0.67719
   D14        0.42519   0.00114   0.00000   0.04988   0.04980   0.47499
   D15       -1.66826   0.00123   0.00000   0.04676   0.04668  -1.62158
   D16        2.51100   0.00002   0.00000   0.03604   0.03594   2.54694
   D17        2.26260  -0.00041   0.00000   0.10627   0.10629   2.36889
   D18       -0.88630   0.00034   0.00000   0.10909   0.10909  -0.77721
   D19       -1.93220   0.00207   0.00000   0.11959   0.11958  -1.81262
   D20        1.20210   0.00281   0.00000   0.12241   0.12237   1.32447
   D21        0.20337   0.00083   0.00000   0.11079   0.11082   0.31419
   D22       -2.94552   0.00158   0.00000   0.11361   0.11361  -2.83191
   D23       -3.13023   0.00000   0.00000  -0.00838  -0.00839  -3.13862
   D24        1.04545  -0.00035   0.00000  -0.01268  -0.01267   1.03279
   D25       -0.98832   0.00037   0.00000   0.00314   0.00311  -0.98521
   D26        1.10549  -0.00072   0.00000  -0.01396  -0.01396   1.09153
   D27       -1.00200  -0.00107   0.00000  -0.01827  -0.01824  -1.02024
   D28       -3.03578  -0.00035   0.00000  -0.00244  -0.00247  -3.03824
   D29       -1.04023   0.00082   0.00000   0.00287   0.00288  -1.03734
   D30        3.13546   0.00047   0.00000  -0.00144  -0.00140   3.13407
   D31        1.10169   0.00120   0.00000   0.01439   0.01438   1.11607
   D32        3.12080  -0.00094   0.00000  -0.04469  -0.04466   3.07614
   D33       -0.01349  -0.00165   0.00000  -0.04731  -0.04733  -0.06083
   D34       -1.79386   0.00019   0.00000  -0.00129  -0.00129  -1.79515
   D35        1.31617   0.00033   0.00000   0.00185   0.00188   1.31805
   D36        0.31251   0.00001   0.00000  -0.00126  -0.00127   0.31125
   D37       -2.86064   0.00015   0.00000   0.00188   0.00191  -2.85873
   D38        2.38062  -0.00019   0.00000  -0.00620  -0.00625   2.37437
   D39       -0.79253  -0.00005   0.00000  -0.00306  -0.00307  -0.79561
   D40        3.11193   0.00028   0.00000   0.00567   0.00568   3.11761
   D41       -0.01151  -0.00037   0.00000  -0.01398  -0.01405  -0.02556
   D42       -0.00232   0.00012   0.00000   0.00267   0.00269   0.00037
   D43       -3.12575  -0.00054   0.00000  -0.01697  -0.01705   3.14039
   D44       -3.11638  -0.00015   0.00000  -0.00463  -0.00469  -3.12107
   D45        0.03329   0.00018   0.00000   0.01004   0.01011   0.04340
   D46        0.00107  -0.00007   0.00000  -0.00248  -0.00249  -0.00142
   D47       -3.13245   0.00026   0.00000   0.01218   0.01230  -3.12014
   D48        0.00268  -0.00011   0.00000  -0.00182  -0.00182   0.00087
   D49        3.12717   0.00054   0.00000   0.01691   0.01676  -3.13926
   D50       -0.00196   0.00006   0.00000   0.00017   0.00015  -0.00181
   D51        3.13696  -0.00012   0.00000  -0.00293  -0.00287   3.13409
   D52        0.00059   0.00000   0.00000   0.00148   0.00150   0.00210
   D53        3.13405  -0.00032   0.00000  -0.01316  -0.01304   3.12100
   D54       -3.13847   0.00018   0.00000   0.00443   0.00442  -3.13405
   D55       -0.00501  -0.00014   0.00000  -0.01021  -0.01013  -0.01514
   D56       -3.12258   0.00043   0.00000   0.16940   0.16921  -2.95337
   D57       -0.99847  -0.00206   0.00000   0.13524   0.13451  -0.86396
   D58        1.03406   0.00305   0.00000   0.20545   0.20591   1.23997
   D59       -1.01557  -0.00167   0.00000   0.10611   0.10595  -0.90962
   D60        1.10853  -0.00416   0.00000   0.07194   0.07125   1.17978
   D61        3.14106   0.00095   0.00000   0.14216   0.14265  -2.99947
   D62        1.03080   0.00153   0.00000   0.15075   0.15098   1.18179
   D63       -3.12828  -0.00096   0.00000   0.11659   0.11629  -3.01199
   D64       -1.09575   0.00415   0.00000   0.18680   0.18769  -0.90806
   D65        3.13861  -0.00005   0.00000  -0.00404  -0.00403   3.13458
   D66       -1.05041   0.00000   0.00000  -0.00075  -0.00076  -1.05117
   D67        1.04631  -0.00008   0.00000  -0.00168  -0.00168   1.04463
   D68        1.02461  -0.00158   0.00000  -0.00797  -0.00771   1.01690
   D69        3.11877  -0.00154   0.00000  -0.00468  -0.00444   3.11433
   D70       -1.06769  -0.00161   0.00000  -0.00560  -0.00536  -1.07305
   D71       -1.02267   0.00161   0.00000   0.01807   0.01783  -1.00484
   D72        1.07149   0.00165   0.00000   0.02135   0.02110   1.09259
   D73       -3.11497   0.00158   0.00000   0.02043   0.02018  -3.09479
         Item               Value     Threshold  Converged?
 Maximum Force            0.017167     0.000450     NO 
 RMS     Force            0.003401     0.000300     NO 
 Maximum Displacement     0.879699     0.001800     NO 
 RMS     Displacement     0.178039     0.001200     NO 
 Predicted change in Energy=-5.940177D-03
 GradGradGradGradGradGradGradGradGradGradGradGradGradGradGradGradGradGrad

                          Input orientation:                          
 ---------------------------------------------------------------------
 Center     Atomic      Atomic             Coordinates (Angstroms)
 Number     Number       Type             X           Y           Z
 ---------------------------------------------------------------------
      1          8           0        1.322985    0.445696   -1.233999
      2          6           0        1.473002    0.362760   -0.023040
      3          7           0        0.468545    0.335735    0.871110
      4          6           0       -0.941118    0.341139    0.472965
      5          6           0       -1.722660    0.866481    1.671173
      6          8           0       -2.651467    1.760747    1.326338
      7          8           0       -1.509252    0.494665    2.799645
      8          6           0       -1.418156   -1.092346    0.098245
      9          6           0       -2.846949   -1.171205   -0.323660
     10          6           0       -3.970296   -1.603041    0.338878
     11          7           0       -5.089702   -1.462737   -0.445682
     12          6           0       -4.664060   -0.953039   -1.575952
     13          7           0       -3.311108   -0.752675   -1.559991
     14          6           0        2.892527    0.257565    0.561785
     15          6           0        3.852160    0.855130   -0.458077
     16          7           0        5.298876    0.564278   -0.096444
     17          1           0        0.649186    0.235319    1.862443
     18          1           0       -1.061993    1.009429   -0.378425
     19          1           0       -3.150521    2.009763    2.121751
     20          1           0       -1.275845   -1.735421    0.969918
     21          1           0       -0.753095   -1.453609   -0.692220
     22          1           0       -4.029085   -2.008118    1.338238
     23          1           0       -5.273246   -0.713800   -2.434223
     24          1           0       -2.756652   -0.387484   -2.319301
     25          1           0        3.110664   -0.807201    0.714712
     26          1           0        2.969008    0.753761    1.533416
     27          1           0        3.666997    0.436623   -1.446209
     28          1           0        3.755644    1.937929   -0.527502
     29          1           0        5.941063    0.962389   -0.788713
     30          1           0        5.548628    0.955703    0.816722
     31          1           0        5.476111   -0.444285   -0.056710
 ---------------------------------------------------------------------
                    Distance matrix (angstroms):
                    1          2          3          4          5
     1  O    0.000000
     2  C    1.223031   0.000000
     3  N    2.274565   1.345054   0.000000
     4  C    2.837397   2.464643   1.464821   0.000000
     5  C    4.230017   3.651897   2.392315   1.523973   0.000000
     6  O    4.907235   4.559214   3.460111   2.380929   1.334655
     7  O    4.928920   4.108381   2.766981   2.399955   1.207161
     8  C    3.413840   3.238956   2.489253   1.556554   2.530579
     9  C    4.564147   4.594062   3.832864   2.560076   3.065216
    10  C    5.889830   5.798694   4.872929   3.601907   3.595194
    11  N    6.736922   6.824965   5.988535   4.616127   4.609046
    12  C    6.157767   6.465786   5.830324   4.442212   4.744081
    13  N    4.797622   5.147244   4.623923   3.308503   3.947817
    14  C    2.392425   1.538875   2.444888   3.835584   4.785548
    15  C    2.677017   2.468214   3.672242   4.909841   5.967617
    16  N    4.137125   3.831880   4.931580   6.269891   7.246914
    17  H    3.175881   2.061544   1.012648   2.114454   2.461830
    18  H    2.595751   2.640205   2.087523   1.089076   2.158186
    19  H    5.806860   5.356278   4.179008   3.222462   1.883853
    20  H    4.045793   3.597845   2.709677   2.161274   2.731538
    21  H    2.865483   2.950001   2.671733   2.148053   3.450870
    22  H    6.425127   6.143867   5.093185   3.975330   3.700508
    23  H    6.804060   7.244629   6.707825   5.322779   5.653161
    24  H    4.302965   4.870899   4.593873   3.409370   4.308764
    25  H    2.926264   2.143601   2.882977   4.218302   5.203562
    26  H    3.234638   2.193963   2.620250   4.072333   4.695043
    27  H    2.353616   2.616196   3.950980   4.992702   6.241094
[...]
 598,0.00000229,0.00000231,-0.00000247,0.00001027,-0.00002354,-0.002355
 18,0.02300627,-0.05031077,-0.00524475,0.02291807,-0.00263973,-0.001031
 99,-0.00060523,0.00114123,-0.00001920,-0.00046479,0.00015637,0.0000641
 9,-0.00001550,-0.00003213,-0.00000349,-0.00000391,0.00000744,0.0000007
 2,0.00000373,0.00000547,-0.00000933,0.00002452,-0.00001924,-0.00000066
 ,-0.00000055,0.00000059,-0.00000020,0.00000014,-0.00000063,-0.00000193
 ,0.00000492,-0.00000665,0.00267596,-0.02714459,0.05125325,-0.00707252,
 0.00250171,-0.00425596,0.00684098,-0.01480170,-0.02667294,0.00007992,0
 .00098281,0.00161566,0.00004890,-0.00000437,0.00009819,-0.00015621,0.0
 0002577,-0.00035436,0.00010393,-0.00005058,0.00008888,0.00016151,0.000
 06187,0.00023303,0.00011892,0.00000609,0.00002417,-0.00001104,0.000042
 84,-0.00000620,-0.00000041,0.00001154,-0.00000089,-0.00001888,-0.00000
 785,0.00000623,0.00002280,-0.00000267,0.00000187,-0.00001318,-0.000003
 75,0.00000972,-0.05038985,-0.00769088,-0.00956299,0.00007049,0.0099114
 9,0.02270417,0.00126984,0.00028909,0.00021184,-0.00182330,-0.00037582,
 0.00008039,0.00017364,-0.00002149,0.00001495,-0.00003275,-0.00000574,0
 .00000325,-0.00001321,-0.00000650,0.00001354,0.00001868,0.00006808,0.0
 0000939,-0.00000055,-0.00000522,0.00000010,0.00000042,0.00000006,0.000
 00043,0.00003149,0.00000117,-0.00000064,0.00006718,0.00314072,0.007186
 08,0.05360262,0.00062148,0.00102490,0.00103215,0.00200946,-0.00027671,
 0.00264120,-0.00057158,-0.00008164,0.00032486,-0.00003883,-0.00001808,
 0.00022353,-0.00002237,-0.00000035,-0.00018039,0.00000428,-0.00000278,
 0.00005376,0.00001870,-0.00005637,0.00012547,0.00002171,0.00001364,-0.
 00004162,-0.00001417,-0.00000309,0.00000554,0.00000791,0.00000907,-0.0
 0001040,-0.00002166,-0.00000543,-0.00000294,0.00000522,0.00000327,0.00
 000039,-0.00000549,-0.00001439,0.00001693,-0.00778912,-0.09859947,-0.1
 0408443,0.00109144,0.00678769,0.01665852,0.00070206,0.00013586,-0.0001
 8679,-0.00057267,0.00052389,-0.00000313,0.00007169,0.00000409,0.000026
 43,0.00000440,0.00001184,-0.00000756,-0.00000943,-0.00001424,0.0000008
 1,0.00000269,0.00001582,0.00002383,-0.00000074,0.00000007,0.00000002,0
 .00000010,0.00000049,0.00000053,0.00001116,0.00000184,0.00000519,-0.00
 191829,-0.01235078,-0.02812994,0.00811567,0.10239078,-0.00320898,0.000
 24517,0.00009374,0.00191823,-0.00411518,-0.01171181,0.00157411,0.00059
 334,0.00111328,-0.00050283,0.00055501,0.00004514,-0.00009189,-0.000024
 79,-0.00003808,0.00002940,-0.00000441,0.00000655,0.00004005,0.00002643
 ,0.00002548,0.00019670,-0.00007026,0.00003676,0.00000566,0.00007512,-0
 .00001527,-0.00001658,0.00000432,0.00001410,0.00000791,-0.00001618,0.0
 0002224,0.00003704,0.00000834,-0.00000390,-0.00001977,0.00000333,-0.00
 000747,-0.00935444,-0.10175354,-0.25838918,-0.00202548,-0.00768275,-0.
 01795040,0.00028271,0.00000132,0.00075853,-0.00015804,-0.00046696,0.00
 096703,0.00003654,-0.00005112,0.00005257,-0.00000935,-0.00000742,0.000
 00189,-0.00000945,-0.00000674,0.00000454,0.00000305,0.00002747,0.00000
 315,-0.00000048,-0.00000108,0.00000085,0.00000176,-0.00000057,-0.00000
 011,0.00001877,0.00000010,-0.00000633,0.00008588,0.00128876,0.00427366
 ,0.00818816,0.10974973,0.28130386,-0.00114870,-0.00032099,-0.00367023,
 0.00016631,0.00007664,0.00646837,0.00083689,-0.00010614,-0.00256444,-0
 .00027372,0.00002040,-0.00009455,-0.00012011,0.00013549,0.00022627,0.0
 0007365,-0.00005606,-0.00006151,0.00005739,-0.00008254,-0.00019899,-0.
 00002362,-0.00002138,0.00002034,0.00000301,-0.00000097,0.00001892,-0.0
 0001539,-0.00000983,0.00001433,0.00005712,0.00000932,0.00000800,-0.000
 01684,-0.00000741,0.00000474,0.00002282,0.00002764,-0.00003164,0.00445
 666,0.00818276,0.01891789,-0.05148948,-0.01145655,-0.03598670,-0.01687
 666,-0.00945706,-0.03460362,0.00058264,0.00000478,0.00004879,-0.000069
 82,0.00002199,0.00002288,-0.00000531,0.00001640,0.00001102,0.00001191,
 -0.00000388,-0.00001453,-0.00000369,-0.00005812,-0.00000820,-0.0000030
 1,-0.00000078,-0.00000010,0.00000015,-0.00000027,-0.00000113,-0.000036
 48,-0.00000514,-0.00001379,0.00059838,-0.00025938,-0.00033747,-0.00338
 705,-0.00262509,0.00223921,0.06805835,-0.00014733,-0.00165642,-0.00029
 732,-0.00018511,0.00091784,0.00009326,0.00033207,0.00018703,-0.0002270
 2,-0.00009057,0.00001143,-0.00013014,-0.00004905,0.00005287,0.00007078
 ,0.00004649,-0.00003239,-0.00001862,0.00002346,-0.00002502,-0.00004441
 ,-0.00000632,0.00000066,0.00001796,-0.00000293,-0.00000155,-0.00000733
 ,-0.00001064,-0.00000647,0.00000740,0.00002122,-0.00000239,0.00001233,
 0.00000730,-0.00000072,0.00000082,0.00000643,-0.00000056,-0.00001138,0
 .00260966,0.00576392,0.01471105,-0.01691308,-0.08345557,-0.08709923,0.
 00573879,0.00281851,0.01301154,0.00016188,0.00007902,0.00004101,-0.000
 02372,-0.00000002,0.00001248,-0.00000351,0.00000521,0.00000328,-0.0000
 0249,-0.00000165,0.00000251,-0.00000816,-0.00001105,-0.00000988,-0.000
 00232,0.00000011,0.00000149,0.00000055,0.00000197,0.00000045,-0.000008
 58,0.00001489,-0.00000850,0.00077345,0.00050604,0.00000236,-0.00227297
 ,-0.00060267,0.00168435,0.01483229,0.08289274,-0.00295562,-0.00033080,
 0.00127640,-0.00112954,-0.00030443,-0.00229539,0.00002890,0.00002565,-
 0.00019692,-0.00004234,-0.00000038,0.00004671,-0.00001193,-0.00001882,
 -0.00003251,0.00000586,-0.00000098,0.00000654,0.00001917,0.00000516,0.
 00002390,0.00000360,0.00000698,-0.00000044,0.00000243,-0.00000196,0.00
 001666,0.00000490,0.00000226,-0.00000413,0.00000079,0.00000485,-0.0000
 1176,-0.00001705,-0.00000334,0.00000230,0.00000730,0.00000044,-0.00000
 445,0.00137199,-0.00617010,-0.02014260,-0.04583071,-0.08280348,-0.2880
 0048,-0.00118193,0.00013045,-0.00056923,-0.00001035,-0.00001972,0.0001
 0623,0.00002744,-0.00000377,0.00001660,-0.00000247,0.00000156,0.000000
 84,-0.00000038,-0.00000224,-0.00000175,0.00000867,0.00001244,0.0000088
 8,0.00000048,0.00000002,-0.00000056,-0.00000179,-0.00000016,0.00000019
 ,-0.00000608,-0.00000237,0.00001036,-0.00036772,0.00015176,0.00062327,
 0.00167856,0.00248501,-0.00105304,0.04759744,0.08637717,0.30731569,-0.
 00045302,0.00058377,-0.00070627,0.00203874,-0.00068449,0.00105300,-0.0
 0063017,0.00038658,0.00009814,0.00009060,-0.00005340,0.00009161,0.0000
 4597,-0.00008021,-0.00003135,-0.00005694,0.00005231,0.00000592,-0.0000
 3225,0.00004698,0.00001256,-0.00001773,-0.00000524,-0.00001401,0.00000
 097,0.00000051,0.00001066,0.00001197,0.00000383,-0.00000499,-0.0000147
 0,0.00000599,-0.00001518,-0.00001722,-0.00000235,-0.00000174,-0.000001
 52,0.00000253,0.00000571,0.00271936,-0.02166663,-0.00088519,-0.0494005
 5,0.00170370,-0.00154402,-0.01305021,0.04025754,0.00033775,0.00006787,
 -0.00012475,-0.00005130,-0.00003968,-0.00001788,-0.00002538,-0.0000049
 2,-0.00001235,0.00000160,0.00001224,0.00000507,-0.00001074,0.00000394,
 0.00000048,0.00002109,0.00000268,-0.00000038,-0.00000168,-0.00000097,-
 0.00000200,-0.00000084,0.00000167,-0.00001197,0.00000400,-0.00281452,-
 0.00142679,0.00284223,0.00065407,0.00077441,-0.00031721,0.00211283,-0.
 00623790,0.00105430,0.06274707,-0.00027099,0.00048754,-0.00058288,0.00
 026060,-0.00014102,0.00104399,-0.00023677,-0.00001852,-0.00016920,0.00
 001360,-0.00001617,0.00004353,0.00000449,-0.00001315,-0.00001697,-0.00
 001474,0.00000740,0.00000524,-0.00000415,0.00000982,0.00000749,-0.0000
 1290,0.00001383,-0.00000057,-0.00000142,-0.00000516,0.00000434,0.00000
 510,0.00000152,-0.00000225,-0.00000542,0.00000211,-0.00000623,-0.00000
 640,-0.00000167,-0.00000061,-0.00000046,0.00000022,0.00000253,-0.00087
 982,-0.01056669,-0.00004694,0.01422992,-0.32312732,-0.01181023,0.00194
 858,-0.00397081,-0.00021673,0.00002208,-0.00007200,-0.00002694,-0.0000
 0957,0.00000240,-0.00001198,0.00000072,0.00000056,-0.00000076,0.000004
 38,0.00000038,-0.00000307,0.00000281,-0.00000044,0.00000366,0.00000089
 ,0.00000026,-0.00000059,-0.00000042,-0.00000003,-0.00000001,-0.0000014
 3,-0.00000234,0.00000309,-0.00148234,0.00071558,0.00118269,0.00021596,
 0.00107387,0.00002620,0.00008670,-0.00795462,0.00016148,-0.01482317,0.
 34237772,-0.00035394,0.00068480,0.00004906,-0.00051185,-0.00005984,0.0
 0024386,0.00001527,-0.00033158,-0.00011659,0.00004368,-0.00002572,0.00
 000596,0.00006120,-0.00000175,0.00007643,-0.00003735,0.00001663,-0.000
 01853,-0.00004265,-0.00002503,-0.00005132,-0.00000244,0.00002380,-0.00
 001227,0.00000212,-0.00001459,0.00000836,0.00000583,-0.00000209,-0.000
 00514,-0.00000466,0.00000352,-0.00000846,-0.00000916,-0.00000091,0.000
 00288,0.00000349,0.00000115,-0.00000027,-0.00054207,0.02245890,0.00051
 063,0.00100524,-0.01577959,-0.05183310,-0.00331175,0.00919844,-0.00055
 730,0.00004180,0.00011740,-0.00000143,0.00000110,-0.00000262,0.0000023
 2,0.00001102,0.00000138,0.00000102,-0.00000457,0.00000219,0.00000462,0
 .00000225,0.00000059,-0.00000584,0.00000049,0.00000231,-0.00000014,-0.
 00000113,-0.00000057,-0.00000004,-0.00000080,-0.00000545,0.00000654,0.
 00332186,0.00191005,-0.00190531,-0.00118422,-0.00007391,0.00081874,0.0
 0313954,-0.02914285,0.00178226,-0.00086565,0.01015100,0.05062072,0.000
 60515,0.00028531,-0.00099007,0.00005738,-0.00063938,0.00340037,-0.0006
 3308,0.00001017,-0.00064819,0.00000168,0.00004893,0.00017917,-0.000095
 49,0.00000673,-0.00007719,0.00002520,-0.00000403,0.00002295,0.00004342
 ,-0.00000268,0.00001690,-0.00001936,0.00000362,-0.00000272,0.00000143,
 -0.00001058,0.00000708,-0.00000383,-0.00000217,0.00000095,0.00002046,0
 .00000634,-0.00000037,-0.00001442,-0.00000453,0.00000491,0.00001367,0.
 00000786,-0.00001067,-0.00584400,0.00238089,-0.00367508,-0.01783064,-0
 .01363334,0.02004015,-0.18559179,-0.09575529,0.14298358,0.00000689,-0.
 00002561,-0.00003274,-0.00001619,-0.00000064,-0.00000202,-0.00001623,0
 .00000596,0.00000252,-0.00000100,-0.00000201,0.00000083,0.00000129,-0.
 00001101,-0.00000533,-0.00000236,-0.00000138,0.00000063,-0.00000094,-0
 .00000068,-0.00000024,-0.00001155,-0.00000262,-0.00000235,0.00051459,0
 .00015322,-0.00038938,0.00012250,0.00020757,0.00005288,0.00086504,-0.0
 0097586,-0.00069049,0.00121097,0.00066690,0.00052933,0.19405053,0.0001
 6270,-0.00013153,0.00005284,-0.00011334,0.00067696,-0.00048686,0.00039
 470,-0.00004527,0.00002990,-0.00006196,-0.00005546,-0.00008705,-0.0000
 7257,0.00007344,0.00006713,0.00007804,-0.00005649,-0.00001845,0.000046
 92,-0.00003609,-0.00003130,-0.00001356,-0.00001131,0.00000196,-0.00000
 492,0.00000493,-0.00000348,-0.00000955,-0.00000473,0.00000475,0.000022
 09,-0.00000301,0.00001044,0.00000462,-0.00000137,0.00000206,0.00000667
 ,0.00000199,-0.00001112,0.00186122,-0.00092489,0.00133965,0.00414327,0
 .00575336,-0.00853578,-0.08984668,-0.12670748,0.09621146,-0.00003377,0
 .00004406,0.00005785,0.00002098,0.00000677,0.00000498,-0.00000431,0.00
 001312,0.00000252,-0.00000399,-0.00000119,0.00000376,-0.00000041,-0.00
 000531,-0.00000845,-0.00000260,-0.00000017,0.00000177,0.00000054,0.000
 00217,0.00000073,-0.00000792,0.00000856,-0.00000710,-0.00008371,0.0003
 2004,0.00002791,-0.00020741,0.00002565,0.00008153,-0.00054289,0.000022
 45,-0.00010478,0.00078326,-0.00019621,-0.00055128,0.09833729,0.1283759
 6,-0.00019915,-0.00000462,-0.00014164,-0.00011996,-0.00016391,0.000718
 06,-0.00042416,-0.00000385,-0.00014892,0.00008760,0.00000816,0.0000754
 3,0.00010141,-0.00006839,0.00000027,-0.00010104,0.00005331,0.00000386,
 -0.00007207,0.00001770,-0.00001348,0.00000050,0.00003427,0.00001212,0.
 00000481,-0.00001873,0.00000920,0.00001806,0.00000306,-0.00000794,-0.0
 0002486,0.00000491,-0.00002535,-0.00002129,-0.00000282,-0.00000099,-0.
 00000053,-0.00000827,0.00000688,-0.00150930,0.00084813,-0.00071557,-0.
 00301364,-0.00646762,0.00869665,0.13521310,0.09723095,-0.20954372,0.00
 006884,-0.00001149,-0.00007384,-0.00001806,-0.00000061,-0.00000178,0.0
 0001490,-0.00000282,-0.00000209,0.00000492,0.00000142,-0.00000614,0.00
 000196,0.00000504,0.00000950,0.00000333,0.00000383,-0.00000166,-0.0000
 0236,0.00000087,0.00000069,0.00000247,0.00000223,0.00002063,0.00008647
 ,0.00007281,-0.00018386,-0.00021723,0.00007527,0.00011186,-0.00080077,
 -0.00042773,0.00032891,0.00011512,-0.00010635,0.00022802,-0.14792029,-
 0.10654867,0.21833241,-0.00016913,-0.00030377,0.00157431,-0.00182461,0
 .00039320,-0.00198348,0.00062959,0.00001910,0.00026990,-0.00017426,0.0
 0000119,-0.00012136,-0.00016893,0.00011306,0.00004904,0.00016014,-0.00
 008499,-0.00002066,0.00012024,-0.00003193,-0.00001469,0.00000897,-0.00
 005456,-0.00000954,-0.00000375,0.00002838,0.00000129,-0.00002707,-0.00
 000345,0.00001615,0.00005130,-0.00000157,0.00002356,0.00000943,-0.0000
 0388,0.00000662,0.00001467,0.00002086,-0.00002581,0.00274968,-0.000587
 93,-0.00049884,-0.00700376,-0.01102700,-0.03145950,-0.08006108,-0.0302
 8379,-0.08504826,-0.00013193,-0.00000901,0.00012340,0.00002480,0.00000
 110,0.00001152,-0.00002618,0.00000813,0.00001084,-0.00000699,-0.000001
 69,0.00000582,0.00000204,-0.00001041,-0.00001159,-0.00000525,-0.000005
 24,0.00000162,0.00000097,-0.00000055,-0.00000045,-0.00001317,-0.000004
 26,-0.00002054,-0.00017913,-0.00024684,0.00011334,-0.00056284,0.000220
 65,0.00099013,-0.00569951,0.00279639,0.00085243,0.00145567,0.00031828,
 0.00028494,0.00812239,0.00985630,0.02259308,0.08178828,0.00047652,0.00
 008637,0.00002000,-0.00058132,-0.00019638,0.00016814,0.00029703,-0.000
 08119,-0.00014316,-0.00008928,0.00002951,-0.00005706,-0.00008182,0.000
 08992,0.00007872,0.00006898,-0.00005344,-0.00001907,0.00004172,-0.0000
 5833,-0.00005162,0.00001364,-0.00001029,-0.00000261,-0.00000307,0.0000
 0527,-0.00000221,-0.00001179,-0.00000460,0.00000494,0.00002530,-0.0000
 0440,0.00001183,0.00000544,-0.00000026,0.00000327,0.00000825,0.0000039
 9,-0.00001083,-0.00013025,-0.00000996,0.00014213,0.00042548,0.00454365
 ,0.00987166,-0.02668902,-0.09316566,-0.09201052,-0.00002324,0.00006480
 ,0.00004768,0.00000704,0.00000841,0.00001011,-0.00000207,0.00001699,0.
 00000442,-0.00000618,-0.00000110,0.00000480,-0.00000060,-0.00001353,-0
 .00001161,-0.00000335,0.00000085,0.00000202,0.00000044,0.00000162,0.00
 000056,-0.00000981,0.00000604,-0.00000760,-0.00017524,-0.00041175,-0.0
 0021481,0.00004954,0.00029310,-0.00023838,0.00218667,-0.00030812,0.000
 01765,0.00029080,-0.00016987,0.00090055,0.00675516,0.00650896,0.017100
 07,0.02792120,0.09140550,0.00029990,0.00007231,-0.00027846,-0.00027240
 ,0.00009842,-0.00023150,0.00049775,-0.00001370,-0.00016566,-0.00008111
 ,-0.00002260,-0.00009305,-0.00000670,0.00005419,0.00020241,0.00002004,
 -0.00001816,-0.00005579,-0.00000030,-0.00003207,-0.00014110,0.00000254
 ,-0.00001458,0.00000997,0.00000057,0.00000169,0.00000877,-0.00000567,-
 0.00000621,0.00000912,0.00002486,0.00000409,-0.00000275,-0.00001034,-0
 .00000329,0.00000447,0.00001176,0.00001207,-0.00002013,0.00043918,0.00
 018392,0.00262880,-0.00546335,0.00083051,-0.00230714,-0.07582033,-0.09
 498842,-0.34936055,0.00005860,0.00002083,0.00010271,0.00000037,0.00000
 365,0.00000196,0.00000261,0.00000267,0.00000969,0.00000197,0.00000353,
 -0.00000204,-0.00000288,-0.00001723,-0.00000855,-0.00000095,0.00000125
 ,0.00000017,-0.00000078,0.00000018,-0.00000018,-0.00001293,-0.00000122
 ,-0.00000050,-0.00007301,0.00002805,0.00010651,-0.00007762,-0.00063397
 ,-0.00035940,-0.00002031,0.00066709,0.00115855,0.00052083,0.00036469,0
 .00016938,-0.00716571,-0.00830628,-0.02090238,0.08639520,0.10177724,0.
 36844408,0.00046599,-0.00020077,0.00045896,-0.00108008,-0.00031890,-0.
 00087244,0.00073514,-0.00000635,-0.00002035,-0.00020039,0.00009893,-0.
 00014774,-0.00018702,0.00015180,0.00011990,0.00016767,-0.00009927,-0.0
 0003383,0.00011677,-0.00005956,-0.00007308,0.00002249,-0.00005673,0.00
 000267,-0.00000095,0.00002106,-0.00000342,-0.00003402,-0.00000775,0.00
 002165,0.00006597,-0.00000254,0.00003019,0.00001253,-0.00000079,0.0000
 0820,0.00001945,0.00002278,-0.00003339,0.00200903,0.00128116,0.0001682
 5,-0.00283210,0.03484951,0.00241479,-0.06261960,0.04834215,0.00443108,
 -0.00006546,0.00003282,0.00013766,0.00001654,0.00000658,0.00001602,-0.
 00002270,0.00001450,0.00001128,-0.00001017,-0.00000390,0.00000619,-0.0
 0000478,-0.00002254,-0.00002278,-0.00000635,-0.00000441,0.00000217,0.0
 0000115,-0.00000051,-0.00000063,-0.00002032,0.00000072,-0.00002195,-0.
 00045792,-0.00153561,0.00072233,0.00009390,-0.00030115,0.00000629,0.00
 126623,-0.00040945,-0.00041585,-0.00664221,-0.00003101,-0.00159690,0.0
 0441826,-0.02470902,-0.00387182,0.00091943,-0.01076616,0.00073824,0.06
 385351,-0.00030470,-0.00020526,0.00006202,0.00025026,-0.00016969,0.000
 33366,-0.00047706,-0.00004156,-0.00001789,0.00011918,0.00004470,0.0000
 9135,0.00004730,-0.00004530,-0.00003818,-0.00006682,0.00002529,0.00001
 808,-0.00005323,-0.00000202,0.00001716,-0.00000163,0.00004210,0.000009
 96,0.00000285,-0.00002343,-0.00001058,0.00000757,-0.00000248,-0.000010
 06,-0.00001909,-0.00000674,-0.00000548,-0.00000028,0.00000311,-0.00000
 206,-0.00000334,-0.00002051,0.00001061,-0.00090205,0.00245231,-0.00137
 508,0.00598879,-0.00493785,0.00136153,0.03841810,-0.39432068,-0.021111
 35,0.00004205,0.00005089,-0.00005860,-0.00000781,-0.00000454,0.0000005
 1,0.00001256,0.00000893,-0.00000574,-0.00000817,0.00000147,0.00000993,
 0.00000011,0.00001737,-0.00000860,-0.00000035,0.00000598,0.00000232,-0
 .00000079,0.00000340,0.00000147,0.00000604,0.00001838,0.00001063,0.000
 37949,-0.00033955,-0.00019210,0.00003255,-0.00028987,0.00006886,-0.000
 58660,0.00078455,0.00038446,0.00025176,0.00156281,0.00054507,0.0021958
 7,-0.01365791,-0.00162615,0.00096305,-0.00857611,-0.00006870,-0.046285
 60,0.41762221,-0.00015918,-0.00015229,-0.00074324,0.00077355,0.0002788
 3,0.00075763,-0.00016517,0.00001645,-0.00014089,0.00006668,-0.00003277
 ,0.00002371,0.00007918,-0.00004406,0.00004478,-0.00007037,0.00003459,-
 0.00000961,-0.00005324,0.00001725,-0.00003912,-0.00001435,0.00002839,0
 .00002124,0.00000300,-0.00001563,0.00001079,0.00001427,-0.00000184,-0.
 00000537,-0.00001418,0.00000592,-0.00002147,-0.00002126,-0.00000418,-0
 .00000053,0.00000307,-0.00000711,-0.00000211,-0.00018104,-0.00127528,-
 0.00016238,-0.00060171,0.00825031,0.00094702,0.00393720,-0.01916509,-0
 .06378095,0.00005669,-0.00002433,-0.00002614,-0.00000960,0.00000112,-0
 .00000388,0.00001130,-0.00000335,-0.00000036,0.00000553,0.00000117,-0.
 00000500,-0.00000009,0.00000411,0.00000609,0.00000234,0.00000355,-0.00
 000102,-0.00000209,0.00000163,0.00000063,-0.00000234,0.00000725,0.0000
 1690,0.00012563,0.00045398,0.00036116,0.00016446,-0.00009409,-0.000118
 96,-0.00032973,0.00070709,-0.00041101,-0.00169896,0.00000239,-0.000015
 08,-0.00562941,0.02679934,0.00321488,0.00589153,-0.03739630,0.00107257
 ,-0.00218170,0.02160294,0.05900971\\-0.00000016,-0.00000035,0.00000007
 ,0.00000030,0.00000086,-0.00000034,-0.00000027,0.00000051,0.00000060,-
 0.00000006,-0.00000002,-0.00000014,-0.00000041,0.00000001,-0.00000064,
 0.00000019,-0.00000010,0.00000008,0.00000089,0.00000010,-0.00000038,-0
 .00000015,0.00000012,0.00000023,0.00000004,-0.00000031,0.00000019,0.00
 000033,-0.00000013,0.00000011,-0.00000009,-0.00000036,0.00000020,0.000
 00001,-0.00000037,0.00000016,-0.00000001,-0.00000045,0.00000034,0.0000
 0064,0.00000081,-0.00000078,0.00000078,-0.00000039,0.00000039,-0.00000
 028,0.00000067,0.00000015,-0.00000012,-0.00000032,0.00000015,-0.000000
 04,-0.00000020,-0.00000013,-0.00000013,-0.00000032,-0.00000011,0.00000
 016,0.00000003,0.00000016,0.00000002,0.,0.00000018,0.00000017,-0.00000
 027,0.00000028,0.00000001,-0.00000053,0.00000022,-0.00000003,-0.000000
 35,0.00000010,-0.00000002,-0.00000022,0.,-0.00000023,0.00000017,-0.000
 00029,-0.00000116,0.00000007,-0.00000014,-0.00000020,0.00000029,-0.000
 00005,-0.00000021,0.00000028,-0.00000022,0.00000005,0.00000033,-0.0000
 0033,-0.00000002,0.00000043,-0.00000008\\\@


 EVERYBODY NEEDS BEAUTY AS WELL AS BREAD, PLACES TO PLAY IN AND PRAY IN,
 WHERE NATURE MAY HEAL AND CHEER AND GIVE STRENGTH TO BODY AND SOUL ALIKE.

                                    -- JOHN MUIR
 Job cpu time:       0 days  4 hours 52 minutes 20.2 seconds.
 File lengths (MBytes):  RWF=    608 Int=      0 D2E=      0 Chk=     18 Scr=      1
 Normal termination of Gaussian 09 at Thu Jul 29 02:08:28 2021.
