 Entering Gaussian System, Link 0=g09
 Input=opt_freq-conf-301.com
 Output=opt_freq-conf-301.log
 Initial command:
 /aerosol/software/g09/l1.exe "/scratch/nicole/10634/Gau-83432.inp" -scrdir="/scratch/nicole/10634/"
 Entering Link 1 = /aerosol/software/g09/l1.exe PID=     83433.
  
 Copyright (c) 1988,1990,1992,1993,1995,1998,2003,2009,2013,
            Gaussian, Inc.  All Rights Reserved.
  
 This is part of the Gaussian(R) 09 program.  It is based on
 the Gaussian(R) 03 system (copyright 2003, Gaussian, Inc.),
 the Gaussian(R) 98 system (copyright 1998, Gaussian, Inc.),
 the Gaussian(R) 94 system (copyright 1995, Gaussian, Inc.),
 the Gaussian 92(TM) system (copyright 1992, Gaussian, Inc.),
 the Gaussian 90(TM) system (copyright 1990, Gaussian, Inc.),
 the Gaussian 88(TM) system (copyright 1988, Gaussian, Inc.),
 the Gaussian 86(TM) system (copyright 1986, Carnegie Mellon
 University), and the Gaussian 82(TM) system (copyright 1983,
 Carnegie Mellon University). Gaussian is a federally registered
 trademark of Gaussian, Inc.
  
 This software contains proprietary and confidential information,
 including trade secrets, belonging to Gaussian, Inc.
  
 This software is provided under written license and may be
 used, copied, transmitted, or stored only in accord with that
 written license.
  
 The following legend is applicable only to US Government
 contracts under FAR:
  
                    RESTRICTED RIGHTS LEGEND
  
 Use, reproduction and disclosure by the US Government is
 subject to restrictions as set forth in subparagraphs (a)
 and (c) of the Commercial Computer Software - Restricted
 Rights clause in FAR 52.227-19.
  
 Gaussian, Inc.
 340 Quinnipiac St., Bldg. 40, Wallingford CT 06492
  
  
 ---------------------------------------------------------------
 Warning -- This program may not be used in any manner that
 competes with the business of Gaussian, Inc. or will provide
 assistance to any competitor of Gaussian, Inc.  The licensee
 of this program is prohibited from giving any competitor of
 Gaussian, Inc. access to this program.  By using this program,
 the user acknowledges that Gaussian, Inc. is engaged in the
 business of creating and licensing software in the field of
 computational chemistry and represents and warrants to the
 licensee that it is not a competitor of Gaussian, Inc. and that
 it will not use this program in any manner prohibited above.
 ---------------------------------------------------------------
  

 Cite this work as:
 Gaussian 09, Revision D.01,
 M. J. Frisch, G. W. Trucks, H. B. Schlegel, G. E. Scuseria, 
 M. A. Robb, J. R. Cheeseman, G. Scalmani, V. Barone, B. Mennucci, 
 G. A. Petersson, H. Nakatsuji, M. Caricato, X. Li, H. P. Hratchian, 
 A. F. Izmaylov, J. Bloino, G. Zheng, J. L. Sonnenberg, M. Hada, 
 M. Ehara, K. Toyota, R. Fukuda, J. Hasegawa, M. Ishida, T. Nakajima, 
 Y. Honda, O. Kitao, H. Nakai, T. Vreven, J. A. Montgomery, Jr., 
 J. E. Peralta, F. Ogliaro, M. Bearpark, J. J. Heyd, E. Brothers, 
 K. N. Kudin, V. N. Staroverov, T. Keith, R. Kobayashi, J. Normand, 
 K. Raghavachari, A. Rendell, J. C. Burant, S. S. Iyengar, J. Tomasi, 
 M. Cossi, N. Rega, J. M. Millam, M. Klene, J. E. Knox, J. B. Cross, 
 V. Bakken, C. Adamo, J. Jaramillo, R. Gomperts, R. E. Stratmann, 
 O. Yazyev, A. J. Austin, R. Cammi, C. Pomelli, J. W. Ochterski, 
 R. L. Martin, K. Morokuma, V. G. Zakrzewski, G. A. Voth, 
 P. Salvador, J. J. Dannenberg, S. Dapprich, A. D. Daniels, 
 O. Farkas, J. B. Foresman, J. V. Ortiz, J. Cioslowski, 
 and D. J. Fox, Gaussian, Inc., Wallingford CT, 2013.
 
 ******************************************
 Gaussian 09:  ES64L-G09RevD.01 24-Apr-2013
                28-Jul-2021 
 ******************************************
 %mem=2gb
 %nproc=4
 Will use up to    4 processors via shared memory.
 %chk=conf-301.chk
 ----------------------------------------------------------------------
 # B3LYP/6-311++G(d,p) opt=calcfc freq=noraman nosymm integral(ultrafin
 egrid)
 ----------------------------------------------------------------------
 1/10=4,14=-1,18=20,19=15,26=4,38=1/1,3;
 2/9=110,12=2,15=1,17=6,18=5,40=1/2;
 3/5=4,6=6,7=1111,11=2,16=1,25=1,30=1,71=2,74=-5,75=-5,140=1/1,2,3;
 4//1;
 5/5=2,38=5/2;
 8/6=4,10=90,11=11/1;
 11/6=1,8=1,9=11,15=111,16=1,31=1/1,2,10;
 10/6=1,13=1,31=1/2;
 6/7=2,8=2,9=2,10=2,28=1/1;
 7/10=1,18=20,25=1,30=1/1,2,3,16;
 1/10=4,14=-1,18=20,19=15,26=4/3(2);
 2/9=110,15=1/2;
 99//99;
 2/9=110,15=1/2;
 3/5=4,6=6,7=1111,11=2,16=1,25=1,30=1,71=1,74=-5,75=-5/1,2,3;
 4/5=5,16=3,69=1/1;
 5/5=2,38=5/2;
 7/30=1/1,2,3,16;
 1/14=-1,18=20,19=15,26=4/3(-5);
 2/9=110,15=1/2;
 6/7=2,8=2,9=2,10=2,19=2,28=1/1;
 99/9=1/99;
 ------------------------------------------------------------
 Candidate Structure: Conf:301 OPT and FREQ calc in gas phase
 ------------------------------------------------------------
 Symbolic Z-matrix:
 Charge =  1 Multiplicity = 1
 O                    -0.13881  -0.14864  -1.76768 
 C                     0.37704   0.73199  -1.08592 
 N                    -0.36807   1.54339  -0.28954 
 C                    -1.69978   1.15699   0.11336 
 C                    -2.48703   2.41612   0.39823 
 O                    -3.81375   2.17874   0.4095 
 O                    -2.00478   3.49354   0.62806 
 C                    -1.71407   0.28347   1.39749 
 C                    -0.86229  -0.9459    1.29263 
 C                     0.37799  -1.24597   1.78407 
 N                     0.81292  -2.47088   1.32067 
 C                    -0.17136  -2.92931   0.59162 
 N                    -1.20497  -2.04884   0.5375 
 C                     1.87632   0.99424  -1.03538 
 C                     2.70492   0.02335  -1.85939 
 N                     2.44095  -1.38529  -1.47797 
 H                     0.06396   2.28836   0.23028 
 H                    -2.15378   0.60536  -0.70847 
 H                    -4.23228   3.02183   0.6253 
 H                    -1.3464    0.87479   2.23745 
 H                    -2.74758   0.01572   1.61236 
 H                     0.99944  -0.61957   2.41458 
 H                    -0.1819   -3.87674   0.07388 
 H                    -2.04603  -2.15826  -0.00986 
 H                     2.19196   0.9501    0.01525 
 H                     2.05996   2.0183   -1.37188 
 H                     2.46431   0.1559   -2.91485 
 H                     3.76406   0.2522   -1.73145 
 H                     3.06624  -2.03948  -1.94956 
 H                     1.47923  -1.59914  -1.75807 
 H                     2.49377  -1.5368   -0.46652 
 

 GradGradGradGradGradGradGradGradGradGradGradGradGradGradGradGradGradGrad
 Berny optimization.
 Initialization pass.
                           ----------------------------
                           !    Initial Parameters    !
                           ! (Angstroms and Degrees)  !
 --------------------------                            --------------------------
 ! Name  Definition              Value          Derivative Info.                !
 --------------------------------------------------------------------------------
 ! R1    R(1,2)                  1.2274         calculate D2E/DX2 analytically  !
 ! R2    R(2,3)                  1.3593         calculate D2E/DX2 analytically  !
 ! R3    R(2,14)                 1.5229         calculate D2E/DX2 analytically  !
 ! R4    R(3,4)                  1.444          calculate D2E/DX2 analytically  !
 ! R5    R(3,17)                 1.0059         calculate D2E/DX2 analytically  !
 ! R6    R(4,5)                  1.5121         calculate D2E/DX2 analytically  !
 ! R7    R(4,8)                  1.5531         calculate D2E/DX2 analytically  !
 ! R8    R(4,18)                 1.089          calculate D2E/DX2 analytically  !
 ! R9    R(5,6)                  1.3478         calculate D2E/DX2 analytically  !
 ! R10   R(5,7)                  1.2026         calculate D2E/DX2 analytically  !
 ! R11   R(6,19)                 0.9657         calculate D2E/DX2 analytically  !
 ! R12   R(8,9)                  1.4993         calculate D2E/DX2 analytically  !
 ! R13   R(8,20)                 1.091          calculate D2E/DX2 analytically  !
 ! R14   R(8,21)                 1.089          calculate D2E/DX2 analytically  !
 ! R15   R(9,10)                 1.3674         calculate D2E/DX2 analytically  !
 ! R16   R(9,13)                 1.3799         calculate D2E/DX2 analytically  !
 ! R17   R(10,11)                1.38           calculate D2E/DX2 analytically  !
 ! R18   R(10,22)                1.0845         calculate D2E/DX2 analytically  !
 ! R19   R(11,12)                1.3079         calculate D2E/DX2 analytically  !
 ! R20   R(12,13)                1.3589         calculate D2E/DX2 analytically  !
 ! R21   R(12,23)                1.0797         calculate D2E/DX2 analytically  !
 ! R22   R(13,24)                1.0094         calculate D2E/DX2 analytically  !
 ! R23   R(14,15)                1.5193         calculate D2E/DX2 analytically  !
 ! R24   R(14,25)                1.0979         calculate D2E/DX2 analytically  !
 ! R25   R(14,26)                1.0935         calculate D2E/DX2 analytically  !
 ! R26   R(15,16)                1.483          calculate D2E/DX2 analytically  !
 ! R27   R(15,27)                1.0906         calculate D2E/DX2 analytically  !
 ! R28   R(15,28)                1.0911         calculate D2E/DX2 analytically  !
 ! R29   R(16,29)                1.0205         calculate D2E/DX2 analytically  !
 ! R30   R(16,30)                1.0243         calculate D2E/DX2 analytically  !
 ! R31   R(16,31)                1.0241         calculate D2E/DX2 analytically  !
 ! A1    A(1,2,3)              121.5556         calculate D2E/DX2 analytically  !
 ! A2    A(1,2,14)             123.764          calculate D2E/DX2 analytically  !
 ! A3    A(3,2,14)             114.6718         calculate D2E/DX2 analytically  !
 ! A4    A(2,3,4)              120.6148         calculate D2E/DX2 analytically  !
 ! A5    A(2,3,17)             120.6239         calculate D2E/DX2 analytically  !
 ! A6    A(4,3,17)             116.7494         calculate D2E/DX2 analytically  !
 ! A7    A(3,4,5)              108.0534         calculate D2E/DX2 analytically  !
 ! A8    A(3,4,8)              112.9349         calculate D2E/DX2 analytically  !
 ! A9    A(3,4,18)             108.0278         calculate D2E/DX2 analytically  !
 ! A10   A(5,4,8)              107.9259         calculate D2E/DX2 analytically  !
 ! A11   A(5,4,18)             110.3004         calculate D2E/DX2 analytically  !
 ! A12   A(8,4,18)             109.5873         calculate D2E/DX2 analytically  !
 ! A13   A(4,5,6)              111.5559         calculate D2E/DX2 analytically  !
 ! A14   A(4,5,7)              124.9785         calculate D2E/DX2 analytically  !
 ! A15   A(6,5,7)              123.4302         calculate D2E/DX2 analytically  !
 ! A16   A(5,6,19)             105.9456         calculate D2E/DX2 analytically  !
 ! A17   A(4,8,9)              113.4602         calculate D2E/DX2 analytically  !
 ! A18   A(4,8,20)             109.1842         calculate D2E/DX2 analytically  !
 ! A19   A(4,8,21)             108.0677         calculate D2E/DX2 analytically  !
 ! A20   A(9,8,20)             107.8662         calculate D2E/DX2 analytically  !
 ! A21   A(9,8,21)             110.5699         calculate D2E/DX2 analytically  !
 ! A22   A(20,8,21)            107.5279         calculate D2E/DX2 analytically  !
 ! A23   A(8,9,10)             132.0744         calculate D2E/DX2 analytically  !
 ! A24   A(8,9,13)             123.5444         calculate D2E/DX2 analytically  !
 ! A25   A(10,9,13)            104.2715         calculate D2E/DX2 analytically  !
 ! A26   A(9,10,11)            111.0983         calculate D2E/DX2 analytically  !
 ! A27   A(9,10,22)            127.0102         calculate D2E/DX2 analytically  !
 ! A28   A(11,10,22)           121.8242         calculate D2E/DX2 analytically  !
 ! A29   A(10,11,12)           105.1373         calculate D2E/DX2 analytically  !
 ! A30   A(11,12,13)           111.5634         calculate D2E/DX2 analytically  !
 ! A31   A(11,12,23)           125.6073         calculate D2E/DX2 analytically  !
 ! A32   A(13,12,23)           122.8225         calculate D2E/DX2 analytically  !
 ! A33   A(9,13,12)            107.8912         calculate D2E/DX2 analytically  !
 ! A34   A(9,13,24)            126.1768         calculate D2E/DX2 analytically  !
 ! A35   A(12,13,24)           125.8125         calculate D2E/DX2 analytically  !
 ! A36   A(2,14,15)            114.1355         calculate D2E/DX2 analytically  !
 ! A37   A(2,14,25)            107.9306         calculate D2E/DX2 analytically  !
 ! A38   A(2,14,26)            108.4455         calculate D2E/DX2 analytically  !
 ! A39   A(15,14,25)           109.6656         calculate D2E/DX2 analytically  !
 ! A40   A(15,14,26)           109.8762         calculate D2E/DX2 analytically  !
 ! A41   A(25,14,26)           106.4904         calculate D2E/DX2 analytically  !
 ! A42   A(14,15,16)           111.7413         calculate D2E/DX2 analytically  !
 ! A43   A(14,15,27)           109.08           calculate D2E/DX2 analytically  !
 ! A44   A(14,15,28)           109.3767         calculate D2E/DX2 analytically  !
 ! A45   A(16,15,27)           108.97           calculate D2E/DX2 analytically  !
 ! A46   A(16,15,28)           109.9886         calculate D2E/DX2 analytically  !
 ! A47   A(27,15,28)           107.5867         calculate D2E/DX2 analytically  !
 ! A48   A(15,16,29)           112.3948         calculate D2E/DX2 analytically  !
 ! A49   A(15,16,30)           107.1637         calculate D2E/DX2 analytically  !
 ! A50   A(15,16,31)           112.6662         calculate D2E/DX2 analytically  !
 ! A51   A(29,16,30)           108.3673         calculate D2E/DX2 analytically  !
 ! A52   A(29,16,31)           109.2679         calculate D2E/DX2 analytically  !
 ! A53   A(30,16,31)           106.7156         calculate D2E/DX2 analytically  !
 ! D1    D(1,2,3,4)             19.5353         calculate D2E/DX2 analytically  !
 ! D2    D(1,2,3,17)          -177.1208         calculate D2E/DX2 analytically  !
 ! D3    D(14,2,3,4)          -159.4324         calculate D2E/DX2 analytically  !
 ! D4    D(14,2,3,17)            3.9116         calculate D2E/DX2 analytically  !
 ! D5    D(1,2,14,15)           -2.7105         calculate D2E/DX2 analytically  !
 ! D6    D(1,2,14,25)         -124.8903         calculate D2E/DX2 analytically  !
 ! D7    D(1,2,14,26)          120.1217         calculate D2E/DX2 analytically  !
 ! D8    D(3,2,14,15)          176.2313         calculate D2E/DX2 analytically  !
 ! D9    D(3,2,14,25)           54.0516         calculate D2E/DX2 analytically  !
 ! D10   D(3,2,14,26)          -60.9365         calculate D2E/DX2 analytically  !
 ! D11   D(2,3,4,5)           -153.9324         calculate D2E/DX2 analytically  !
 ! D12   D(2,3,4,8)             86.7643         calculate D2E/DX2 analytically  !
 ! D13   D(2,3,4,18)           -34.6031         calculate D2E/DX2 analytically  !
 ! D14   D(17,3,4,5)            42.1016         calculate D2E/DX2 analytically  !
 ! D15   D(17,3,4,8)           -77.2016         calculate D2E/DX2 analytically  !
 ! D16   D(17,3,4,18)          161.431          calculate D2E/DX2 analytically  !
 ! D17   D(3,4,5,6)            162.512          calculate D2E/DX2 analytically  !
 ! D18   D(3,4,5,7)            -19.5962         calculate D2E/DX2 analytically  !
 ! D19   D(8,4,5,6)            -75.0616         calculate D2E/DX2 analytically  !
 ! D20   D(8,4,5,7)            102.8302         calculate D2E/DX2 analytically  !
 ! D21   D(18,4,5,6)            44.631          calculate D2E/DX2 analytically  !
 ! D22   D(18,4,5,7)          -137.4772         calculate D2E/DX2 analytically  !
 ! D23   D(3,4,8,9)            -55.4448         calculate D2E/DX2 analytically  !
 ! D24   D(3,4,8,20)            64.8933         calculate D2E/DX2 analytically  !
 ! D25   D(3,4,8,21)          -178.4322         calculate D2E/DX2 analytically  !
 ! D26   D(5,4,8,9)           -174.8217         calculate D2E/DX2 analytically  !
 ! D27   D(5,4,8,20)           -54.4836         calculate D2E/DX2 analytically  !
 ! D28   D(5,4,8,21)            62.1909         calculate D2E/DX2 analytically  !
 ! D29   D(18,4,8,9)            65.036          calculate D2E/DX2 analytically  !
 ! D30   D(18,4,8,20)         -174.6259         calculate D2E/DX2 analytically  !
 ! D31   D(18,4,8,21)          -57.9514         calculate D2E/DX2 analytically  !
 ! D32   D(4,5,6,19)           178.1955         calculate D2E/DX2 analytically  !
 ! D33   D(7,5,6,19)             0.2653         calculate D2E/DX2 analytically  !
 ! D34   D(4,8,9,10)           102.3333         calculate D2E/DX2 analytically  !
 ! D35   D(4,8,9,13)           -73.2285         calculate D2E/DX2 analytically  !
 ! D36   D(20,8,9,10)          -18.7483         calculate D2E/DX2 analytically  !
 ! D37   D(20,8,9,13)          165.6898         calculate D2E/DX2 analytically  !
 ! D38   D(21,8,9,10)         -136.0673         calculate D2E/DX2 analytically  !
 ! D39   D(21,8,9,13)           48.3708         calculate D2E/DX2 analytically  !
 ! D40   D(8,9,10,11)         -174.3606         calculate D2E/DX2 analytically  !
 ! D41   D(8,9,10,22)            2.6761         calculate D2E/DX2 analytically  !
 ! D42   D(13,9,10,11)           1.8236         calculate D2E/DX2 analytically  !
 ! D43   D(13,9,10,22)         178.8603         calculate D2E/DX2 analytically  !
 ! D44   D(8,9,13,12)          175.669          calculate D2E/DX2 analytically  !
 ! D45   D(8,9,13,24)           -0.5304         calculate D2E/DX2 analytically  !
 ! D46   D(10,9,13,12)          -0.9332         calculate D2E/DX2 analytically  !
 ! D47   D(10,9,13,24)        -177.1326         calculate D2E/DX2 analytically  !
 ! D48   D(9,10,11,12)          -2.0211         calculate D2E/DX2 analytically  !
 ! D49   D(22,10,11,12)       -179.2363         calculate D2E/DX2 analytically  !
 ! D50   D(10,11,12,13)          1.3885         calculate D2E/DX2 analytically  !
 ! D51   D(10,11,12,23)       -179.5397         calculate D2E/DX2 analytically  !
 ! D52   D(11,12,13,9)          -0.3003         calculate D2E/DX2 analytically  !
 ! D53   D(11,12,13,24)        175.9167         calculate D2E/DX2 analytically  !
 ! D54   D(23,12,13,9)        -179.4022         calculate D2E/DX2 analytically  !
 ! D55   D(23,12,13,24)         -3.1853         calculate D2E/DX2 analytically  !
 ! D56   D(2,14,15,16)         -55.3687         calculate D2E/DX2 analytically  !
 ! D57   D(2,14,15,27)          65.1784         calculate D2E/DX2 analytically  !
 ! D58   D(2,14,15,28)        -177.3984         calculate D2E/DX2 analytically  !
 ! D59   D(25,14,15,16)         65.8549         calculate D2E/DX2 analytically  !
 ! D60   D(25,14,15,27)       -173.598          calculate D2E/DX2 analytically  !
 ! D61   D(25,14,15,28)        -56.1748         calculate D2E/DX2 analytically  !
 ! D62   D(26,14,15,16)       -177.4187         calculate D2E/DX2 analytically  !
 ! D63   D(26,14,15,27)        -56.8716         calculate D2E/DX2 analytically  !
 ! D64   D(26,14,15,28)         60.5516         calculate D2E/DX2 analytically  !
 ! D65   D(14,15,16,29)       -173.5573         calculate D2E/DX2 analytically  !
 ! D66   D(14,15,16,30)         67.498          calculate D2E/DX2 analytically  !
 ! D67   D(14,15,16,31)        -49.5803         calculate D2E/DX2 analytically  !
 ! D68   D(27,15,16,29)         65.8315         calculate D2E/DX2 analytically  !
 ! D69   D(27,15,16,30)        -53.1132         calculate D2E/DX2 analytically  !
 ! D70   D(27,15,16,31)       -170.1915         calculate D2E/DX2 analytically  !
 ! D71   D(28,15,16,29)        -51.8798         calculate D2E/DX2 analytically  !
 ! D72   D(28,15,16,30)       -170.8245         calculate D2E/DX2 analytically  !
 ! D73   D(28,15,16,31)         72.0972         calculate D2E/DX2 analytically  !
 --------------------------------------------------------------------------------
 Trust Radius=3.00D-01 FncErr=1.00D-07 GrdErr=1.00D-06
 Number of steps in this run=    167 maximum allowed number of steps=    186.
 GradGradGradGradGradGradGradGradGradGradGradGradGradGradGradGradGradGrad

                          Input orientation:                          
 ---------------------------------------------------------------------
 Center     Atomic      Atomic             Coordinates (Angstroms)
 Number     Number       Type             X           Y           Z
 ---------------------------------------------------------------------
      1          8           0       -0.138812   -0.148640   -1.767677
      2          6           0        0.377043    0.731988   -1.085918
      3          7           0       -0.368072    1.543392   -0.289539
      4          6           0       -1.699776    1.156991    0.113364
      5          6           0       -2.487034    2.416121    0.398227
      6          8           0       -3.813746    2.178739    0.409500
      7          8           0       -2.004782    3.493543    0.628056
      8          6           0       -1.714069    0.283474    1.397493
      9          6           0       -0.862288   -0.945898    1.292630
     10          6           0        0.377987   -1.245966    1.784068
     11          7           0        0.812918   -2.470876    1.320671
     12          6           0       -0.171359   -2.929311    0.591616
     13          7           0       -1.204965   -2.048844    0.537500
     14          6           0        1.876321    0.994236   -1.035383
     15          6           0        2.704922    0.023349   -1.859393
     16          7           0        2.440955   -1.385286   -1.477965
     17          1           0        0.063956    2.288359    0.230280
     18          1           0       -2.153784    0.605359   -0.708473
     19          1           0       -4.232284    3.021834    0.625295
     20          1           0       -1.346396    0.874791    2.237450
     21          1           0       -2.747575    0.015717    1.612359
     22          1           0        0.999445   -0.619573    2.414576
     23          1           0       -0.181899   -3.876737    0.073880
     24          1           0       -2.046031   -2.158257   -0.009859
     25          1           0        2.191957    0.950096    0.015249
     26          1           0        2.059958    2.018302   -1.371880
     27          1           0        2.464305    0.155904   -2.914855
     28          1           0        3.764060    0.252198   -1.731446
     29          1           0        3.066242   -2.039480   -1.949563
     30          1           0        1.479227   -1.599140   -1.758067
     31          1           0        2.493767   -1.536799   -0.466521
 ---------------------------------------------------------------------
                    Distance matrix (angstroms):
                    1          2          3          4          5
     1  O    0.000000
     2  C    1.227358   0.000000
     3  N    2.258412   1.359335   0.000000
     4  C    2.771208   2.435586   1.443978   0.000000
     5  C    4.096741   3.638946   2.392630   1.512062   0.000000
     6  O    4.864353   4.678897   3.572813   2.366545   1.347828
     7  O    4.742033   4.029514   2.706268   2.411931   1.202591
     8  C    3.561805   3.277384   2.499035   1.553133   2.478748
     9  C    3.244152   3.163659   2.990665   2.552292   3.839652
    10  C    3.753145   3.485559   3.554851   3.589227   4.851781
    11  N    3.979506   4.029888   4.483510   4.575220   5.968528
    12  C    3.646841   4.064477   4.562916   4.388923   5.828670
    13  N    3.171955   3.587654   3.780019   3.271407   4.647474
    14  C    2.429646   1.522879   2.427994   3.759598   4.807896
    15  C    2.850406   2.553322   3.770711   4.957648   6.146431
    16  N    2.875487   2.982664   4.228492   5.112841   6.500451
    17  H    3.157833   2.062205   1.005900   2.098669   2.559703
    18  H    2.398028   2.561949   2.060141   1.088961   2.148186
    19  H    5.703922   5.423794   4.237316   3.186426   1.861275
    20  H    4.306589   3.746386   2.791024   2.171694   2.656971
    21  H    4.272856   4.190105   3.407791   2.155777   2.702580
    22  H    4.359891   3.803625   3.723004   3.967058   5.043475
    23  H    4.158353   4.785175   5.435489   5.257749   6.709614
    24  H    3.281153   3.922079   4.073815   3.335557   4.613670
    25  H    3.133454   2.134023   2.645495   3.898464   4.918217
    26  H    3.112376   2.137424   2.700432   4.133208   4.895577
    27  H    2.860941   2.834351   4.103628   5.245174   6.371880
    28  H    3.923569   3.481205   4.562980   5.837420   6.949406
    29  H    3.725685   3.957109   5.233274   6.098197   7.496891
    30  H    2.173038   2.664723   3.929961   4.604841   6.041784
    31  H    3.248148   3.164106   4.208209   5.017825   6.417301
                    6          7          8          9         10
     6  O    0.000000
     7  O    2.246959   0.000000
     8  C    2.996131   3.313772   0.000000
     9  C    4.387981   4.632017   1.499294   0.000000
    10  C    5.584681   5.429263   2.620177   1.367419   0.000000
    11  N    6.622324   6.632755   3.738718   2.265538   1.379967
    12  C    6.276330   6.679507   3.653954   2.214212   2.134801
    13  N    4.969364   5.600532   2.537417   1.379906   2.168936
    14  C    5.988956   4.906783   4.394880   4.084574   3.900361
    15  C    7.230948   6.356962   5.495676   4.857950   4.505618
    16  N    7.442182   6.928410   5.321395   4.333668   3.862138
    17  H    3.883389   2.427009   2.922896   3.528021   3.873542
    18  H    2.545754   3.185925   2.175328   2.842318   4.006248
    19  H    0.965687   2.276902   3.799514   5.248343   6.388385
    20  H    3.336090   3.143482   1.091039   2.107594   2.770678
    21  H    2.694857   3.689968   1.089034   2.140382   3.374976
    22  H    5.917574   5.397662   3.035311   2.198022   1.084490
    23  H    7.069069   7.612558   4.626755   3.246244   3.187346
    24  H    4.702149   5.687836   2.837761   2.137180   3.150605
    25  H    6.142757   4.945430   4.196668   3.815090   3.352894
    26  H    6.139988   4.764262   4.992228   4.942229   4.841951
    27  H    7.386279   6.607934   6.005949   5.475685   5.328962
    28  H    8.106685   7.025176   6.308814   5.655402   5.105764
    29  H    8.407900   7.935600   6.280945   5.209711   4.668659
    30  H    6.854653   6.615687   4.868155   3.900791   3.726149
    31  H    7.372744   6.836620   4.949124   3.834956   3.102622
                   11         12         13         14         15
    11  N    0.000000
    12  C    1.307856   0.000000
    13  N    2.205294   1.358857   0.000000
    14  C    4.323056   4.715330   4.607453   0.000000
    15  C    4.462470   4.795689   5.032524   1.519274   0.000000
    16  N    3.414876   3.673059   4.218429   2.485320   1.483043
    17  H    4.939657   5.235457   4.529445   2.561507   4.058534
    18  H    4.730958   4.256070   3.081801   4.061999   5.026965
    19  H    7.490492   7.204746   5.906280   6.647109   7.955464
    20  H    4.086148   4.308210   3.384889   4.594737   5.824281
    21  H    4.352624   4.043760   2.792379   5.417421   6.463965
    22  H    2.158412   3.166837   3.228878   3.908390   4.646377
    23  H    2.126169   1.079712   2.145414   5.403065   5.223213
    24  H    3.168854   2.114401   1.009438   5.135635   5.545424
    25  H    3.912662   4.579002   4.561301   1.097909   2.153202
    26  H    5.381232   5.771739   5.554020   1.093464   2.152553
    27  H    5.250403   5.362892   5.499383   2.140313   1.090626
    28  H    5.043787   5.568316   5.927404   2.144454   1.091108
    29  H    3.994746   4.210872   4.942548   3.384534   2.096174
    30  H    3.268412   3.164617   3.560442   2.721314   2.035943
    31  H    2.625226   3.187733   3.866636   2.666642   2.102080
                   16         17         18         19         20
    16  N    0.000000
    17  H    4.697221   0.000000
    18  H    5.066202   2.938046   0.000000
    19  H    8.269131   4.376266   3.455206   0.000000
    20  H    5.766826   2.831254   3.066419   3.941723   0.000000
    21  H    6.199496   3.870368   2.467088   3.495052   1.758422
    22  H    4.220918   3.755311   4.603992   6.620601   2.787017
    23  H    3.936359   6.171978   4.958789   8.018725   5.349215
    24  H    4.783917   4.927687   2.852585   5.658309   3.839175
    25  H    2.783109   2.523009   4.419059   6.777546   4.178970
    26  H    3.426488   2.573688   4.493566   6.677432   5.092949
    27  H    2.107240   4.494542   5.137789   8.098798   6.448603
    28  H    2.120427   4.656725   6.015985   8.784454   6.500501
    29  H    1.020469   5.700493   5.981985   9.247447   6.745029
    30  H    1.024261   4.590115   4.377240   7.723676   5.483487
    31  H    1.024093   4.584903   5.123193   8.198351   5.279590
                   21         22         23         24         25
    21  H    0.000000
    22  H    3.884238   0.000000
    23  H    4.909258   4.181334   0.000000
    24  H    2.801770   4.185732   2.536765   0.000000
    25  H    5.274732   3.105273   5.379308   5.255762   0.000000
    26  H    6.002367   4.735011   6.470521   6.013143   1.755738
    27  H    6.904999   5.581220   5.674251   5.842728   3.048020
    28  H    7.323820   5.058911   5.989817   6.521603   2.451431
    29  H    7.121207   5.033239   4.245027   5.469177   3.682720
    30  H    5.642108   4.312852   3.361967   3.974454   3.186101
    31  H    5.848394   3.372688   3.595350   4.604837   2.551046
                   26         27         28         29         30
    26  H    0.000000
    27  H    2.452100   0.000000
    28  H    2.480398   1.760423   0.000000
    29  H    4.220417   2.472615   2.405476   0.000000
    30  H    3.684057   2.321360   2.940854   1.658067   0.000000
    31  H    3.694131   2.976650   2.532625   1.667282   1.643554
                   31
    31  H    0.000000
 Symmetry turned off by external request.
 Stoichiometry    C9H15N4O3(1+)
 Framework group  C1[X(C9H15N4O3)]
 Deg. of freedom    87
 Full point group                 C1      NOp   1
 Rotational constants (GHZ):      0.7464841      0.3985491      0.2973763
 Standard basis: 6-311++G(d,p) (5D, 7F)
   457 basis functions,   711 primitive gaussians,   473 cartesian basis functions
    60 alpha electrons       60 beta electrons
       nuclear repulsion energy      1185.4331447700 Hartrees.
 NAtoms=   31 NActive=   31 NUniq=   31 SFac= 1.00D+00 NAtFMM=   60 NAOKFM=F Big=F
 Integral buffers will be    131072 words long.
 Raffenetti 2 integral format.
 Two-electron integral symmetry is turned off.
 One-electron integrals computed using PRISM.
 NBasis=   457 RedAO= T EigKep=  1.61D-06  NBF=   457
 NBsUse=   457 1.00D-06 EigRej= -1.00D+00 NBFU=   457
 ExpMin= 3.60D-02 ExpMax= 8.59D+03 ExpMxC= 1.30D+03 IAcc=3 IRadAn=         5 AccDes= 0.00D+00
 Harris functional with IExCor=  402 and IRadAn=       5 diagonalized for initial guess.
 HarFok:  IExCor=  402 AccDes= 0.00D+00 IRadAn=         5 IDoV= 1 UseB2=F ITyADJ=14
 ICtDFT=  3500011 ScaDFX=  1.000000  1.000000  1.000000  1.000000
 FoFCou: FMM=F IPFlag=           0 FMFlag=      100000 FMFlg1=           0
         NFxFlg=           0 DoJE=T BraDBF=F KetDBF=T FulRan=T
         wScrn=  0.000000 ICntrl=     500 IOpCl=  0 I1Cent=   200000004 NGrid=           0
         NMat0=    1 NMatS0=      1 NMatT0=    0 NMatD0=    1 NMtDS0=    0 NMtDT0=    0
 Symmetry not used in FoFCou.
 Requested convergence on RMS density matrix=1.00D-08 within 128 cycles.
 Requested convergence on MAX density matrix=1.00D-06.
 Requested convergence on             energy=1.00D-06.
 No special actions if energy rises.
 SCF Done:  E(RB3LYP) =  -796.716123572     A.U. after   15 cycles
            NFock= 15  Conv=0.55D-08     -V/T= 2.0037
 DoSCS=F DFT=T ScalE2(SS,OS)=  1.000000  1.000000
 Range of M.O.s used for correlation:     1   457
 NBasis=   457 NAE=    60 NBE=    60 NFC=     0 NFV=     0
 NROrb=    457 NOA=    60 NOB=    60 NVA=   397 NVB=   397

 **** Warning!!: The largest alpha MO coefficient is  0.18103115D+03

 Symmetrizing basis deriv contribution to polar:
 IMax=3 JMax=2 DiffMx= 0.00D+00
 G2DrvN: will do    32 centers at a time, making    1 passes.
 Calling FoFCou, ICntrl=  3107 FMM=F I1Cent=   0 AccDes= 0.00D+00.
 End of G2Drv F.D. properties file   721 does not exist.
 End of G2Drv F.D. properties file   722 does not exist.
 End of G2Drv F.D. properties file   788 does not exist.
          IDoAtm=1111111111111111111111111111111
          Differentiating once with respect to nuclear coordinates.
          There are    96 degrees of freedom in the 1st order CPHF.  IDoFFX=6 NUNeed=     0.
     90 vectors produced by pass  0 Test12= 2.48D-14 1.04D-09 XBig12= 2.63D-01 9.60D-02.
 AX will form    90 AO Fock derivatives at one time.
     90 vectors produced by pass  1 Test12= 2.48D-14 1.04D-09 XBig12= 2.24D-02 4.10D-02.
     90 vectors produced by pass  2 Test12= 2.48D-14 1.04D-09 XBig12= 3.01D-04 1.51D-03.
     90 vectors produced by pass  3 Test12= 2.48D-14 1.04D-09 XBig12= 9.80D-07 8.70D-05.
     90 vectors produced by pass  4 Test12= 2.48D-14 1.04D-09 XBig12= 1.93D-09 3.54D-06.
     85 vectors produced by pass  5 Test12= 2.48D-14 1.04D-09 XBig12= 2.82D-12 1.24D-07.
     29 vectors produced by pass  6 Test12= 2.48D-14 1.04D-09 XBig12= 4.91D-15 5.67D-09.
     12 vectors produced by pass  7 Test12= 2.48D-14 1.04D-09 XBig12= 5.61D-16 2.06D-09.
      1 vectors produced by pass  8 Test12= 2.48D-14 1.04D-09 XBig12= 2.91D-16 1.50D-09.
 InvSVY:  IOpt=1 It=  1 EMax= 6.66D-16
 Solved reduced A of dimension   577 with    96 vectors.
 End of Minotr F.D. properties file   721 does not exist.
 End of Minotr F.D. properties file   722 does not exist.
 End of Minotr F.D. properties file   788 does not exist.

 **********************************************************************

            Population analysis using the SCF density.

 **********************************************************************

 Alpha  occ. eigenvalues --  -19.29215 -19.24894 -19.24141 -14.60697 -14.49545
 Alpha  occ. eigenvalues --  -14.48272 -14.42552 -10.43264 -10.43196 -10.40537
 Alpha  occ. eigenvalues --  -10.36240 -10.35491 -10.35312 -10.33598 -10.32146
 Alpha  occ. eigenvalues --  -10.31067  -1.23954  -1.20364  -1.18144  -1.15154
 Alpha  occ. eigenvalues --   -1.15063  -1.07986  -1.00528  -0.96515  -0.93314
 Alpha  occ. eigenvalues --   -0.88426  -0.84228  -0.80713  -0.76861  -0.76356
 Alpha  occ. eigenvalues --   -0.74782  -0.74388  -0.73298  -0.72194  -0.68956
 Alpha  occ. eigenvalues --   -0.67179  -0.65797  -0.63296  -0.62340  -0.61673
 Alpha  occ. eigenvalues --   -0.60610  -0.59613  -0.58442  -0.57555  -0.56926
 Alpha  occ. eigenvalues --   -0.56329  -0.55112  -0.54234  -0.53924  -0.53842
 Alpha  occ. eigenvalues --   -0.52939  -0.51371  -0.50391  -0.45075  -0.42813
 Alpha  occ. eigenvalues --   -0.42329  -0.41227  -0.40511  -0.40470  -0.36256
 Alpha virt. eigenvalues --   -0.16642  -0.14909  -0.13434  -0.12587  -0.11897
 Alpha virt. eigenvalues --   -0.11184  -0.10616  -0.10099  -0.09824  -0.09121
 Alpha virt. eigenvalues --   -0.08113  -0.08073  -0.07409  -0.06884  -0.06238
 Alpha virt. eigenvalues --   -0.05430  -0.05238  -0.04616  -0.04520  -0.04127
 Alpha virt. eigenvalues --   -0.04000  -0.03065  -0.02902  -0.02304  -0.01690
 Alpha virt. eigenvalues --   -0.01384  -0.00909  -0.00648  -0.00340   0.00199
 Alpha virt. eigenvalues --    0.00678   0.00953   0.01105   0.01359   0.01870
 Alpha virt. eigenvalues --    0.02083   0.02461   0.02509   0.03052   0.03288
 Alpha virt. eigenvalues --    0.03561   0.03690   0.03998   0.04406   0.05046
 Alpha virt. eigenvalues --    0.05267   0.05340   0.05747   0.05832   0.06256
 Alpha virt. eigenvalues --    0.06368   0.06640   0.07359   0.07544   0.07962
 Alpha virt. eigenvalues --    0.08292   0.08788   0.09212   0.09930   0.10109
 Alpha virt. eigenvalues --    0.10453   0.10837   0.11640   0.11774   0.12308
 Alpha virt. eigenvalues --    0.12761   0.13043   0.13094   0.13458   0.13665
 Alpha virt. eigenvalues --    0.14445   0.14656   0.14898   0.15329   0.15765
 Alpha virt. eigenvalues --    0.16138   0.17059   0.17607   0.17939   0.18102
 Alpha virt. eigenvalues --    0.18889   0.19197   0.19401   0.20000   0.20161
 Alpha virt. eigenvalues --    0.20655   0.21121   0.21621   0.21753   0.21932
 Alpha virt. eigenvalues --    0.22150   0.22957   0.23378   0.23814   0.23919
 Alpha virt. eigenvalues --    0.24400   0.25145   0.25305   0.25627   0.26356
 Alpha virt. eigenvalues --    0.26825   0.27603   0.28182   0.29604   0.30375
 Alpha virt. eigenvalues --    0.30602   0.31608   0.32376   0.33939   0.34811
 Alpha virt. eigenvalues --    0.35530   0.35916   0.36425   0.37770   0.38267
 Alpha virt. eigenvalues --    0.39454   0.40370   0.41634   0.42733   0.43827
 Alpha virt. eigenvalues --    0.44276   0.45373   0.45634   0.46079   0.46623
 Alpha virt. eigenvalues --    0.47441   0.48703   0.50400   0.50995   0.51550
 Alpha virt. eigenvalues --    0.52468   0.53223   0.54089   0.54537   0.55196
 Alpha virt. eigenvalues --    0.55991   0.56308   0.56584   0.58647   0.58950
 Alpha virt. eigenvalues --    0.59869   0.60416   0.60542   0.61440   0.62094
 Alpha virt. eigenvalues --    0.62748   0.62892   0.64059   0.64593   0.65460
 Alpha virt. eigenvalues --    0.65702   0.66995   0.67206   0.68143   0.69326
 Alpha virt. eigenvalues --    0.70183   0.71713   0.74136   0.76502   0.77057
 Alpha virt. eigenvalues --    0.77733   0.77822   0.80088   0.80357   0.81393
 Alpha virt. eigenvalues --    0.83409   0.85023   0.85849   0.87365   0.88685
 Alpha virt. eigenvalues --    0.89866   0.90173   0.91393   0.92396   0.93278
 Alpha virt. eigenvalues --    0.95980   0.96290   0.97390   0.98451   0.99972
 Alpha virt. eigenvalues --    1.02397   1.03254   1.04422   1.05275   1.06263
 Alpha virt. eigenvalues --    1.06831   1.07564   1.08384   1.09117   1.11137
 Alpha virt. eigenvalues --    1.11975   1.13353   1.13873   1.15271   1.16135
 Alpha virt. eigenvalues --    1.17023   1.18095   1.18922   1.20506   1.22418
 Alpha virt. eigenvalues --    1.24178   1.27096   1.27437   1.30534   1.32037
 Alpha virt. eigenvalues --    1.32704   1.34052   1.36346   1.37464   1.38218
 Alpha virt. eigenvalues --    1.40804   1.41067   1.42755   1.43870   1.44250
 Alpha virt. eigenvalues --    1.45148   1.46344   1.47582   1.48608   1.49998
 Alpha virt. eigenvalues --    1.50921   1.52245   1.53594   1.54580   1.55238
 Alpha virt. eigenvalues --    1.56684   1.57113   1.57611   1.57897   1.59588
 Alpha virt. eigenvalues --    1.60640   1.60898   1.62429   1.62714   1.64074
 Alpha virt. eigenvalues --    1.65411   1.66549   1.67331   1.68448   1.70179
 Alpha virt. eigenvalues --    1.70602   1.71306   1.73268   1.74201   1.76545
 Alpha virt. eigenvalues --    1.77710   1.79882   1.80974   1.83575   1.85293
 Alpha virt. eigenvalues --    1.86109   1.86526   1.88894   1.89791   1.91362
 Alpha virt. eigenvalues --    1.94664   1.96594   1.97196   1.98960   2.00312
 Alpha virt. eigenvalues --    2.02973   2.05073   2.05991   2.07813   2.09020
 Alpha virt. eigenvalues --    2.10557   2.12489   2.13526   2.15076   2.16600
 Alpha virt. eigenvalues --    2.17380   2.18491   2.21790   2.22973   2.26567
 Alpha virt. eigenvalues --    2.30215   2.31223   2.33488   2.34141   2.36666
 Alpha virt. eigenvalues --    2.39038   2.40443   2.41722   2.42265   2.44866
 Alpha virt. eigenvalues --    2.45151   2.47010   2.48567   2.49106   2.49863
 Alpha virt. eigenvalues --    2.51819   2.52284   2.54179   2.55886   2.56497
 Alpha virt. eigenvalues --    2.57048   2.58695   2.60338   2.61725   2.62487
 Alpha virt. eigenvalues --    2.65519   2.66199   2.68496   2.70320   2.70921
 Alpha virt. eigenvalues --    2.73237   2.74491   2.74993   2.75970   2.76760
 Alpha virt. eigenvalues --    2.78127   2.79476   2.80207   2.81310   2.82541
 Alpha virt. eigenvalues --    2.83153   2.83927   2.84139   2.85931   2.88264
 Alpha virt. eigenvalues --    2.88619   2.90726   2.91262   2.92542   2.93836
 Alpha virt. eigenvalues --    2.95751   2.96266   2.97504   3.01216   3.06310
 Alpha virt. eigenvalues --    3.07884   3.11660   3.14349   3.20207   3.21508
 Alpha virt. eigenvalues --    3.23270   3.26251   3.30175   3.34365   3.36019
 Alpha virt. eigenvalues --    3.40214   3.45100   3.49164   3.50480   3.54684
 Alpha virt. eigenvalues --    3.56318   3.60160   3.61379   3.62798   3.66895
 Alpha virt. eigenvalues --    3.69052   3.73298   3.75537   3.78917   3.83120
 Alpha virt. eigenvalues --    3.84729   3.86468   3.91722   3.96620   4.00215
 Alpha virt. eigenvalues --    4.09466   4.12759   4.17845   4.40107   4.48214
 Alpha virt. eigenvalues --    4.49968   4.61149   4.65191   4.73827   4.81313
 Alpha virt. eigenvalues --    4.83325   4.88054   4.96054   5.03312   5.08891
 Alpha virt. eigenvalues --    5.14857   5.15902   5.32925   5.51199   5.68270
 Alpha virt. eigenvalues --    5.74724  23.65703  23.68404  23.69469  23.71692
 Alpha virt. eigenvalues --   23.73724  23.77777  23.80348  23.84667  24.02658
 Alpha virt. eigenvalues --   35.35566  35.43727  35.49704  35.58771  49.77392
 Alpha virt. eigenvalues --   49.89337  49.90115
          Condensed to atoms (all electrons):
               1          2          3          4          5          6
     1  O    8.031072   0.471663  -0.159062  -0.066398   0.008113  -0.000062
     2  C    0.471663   8.304863  -0.262015  -1.969863   0.786402   0.021500
     3  N   -0.159062  -0.262015   7.821696  -1.267259   0.175443   0.026100
     4  C   -0.066398  -1.969863  -1.267259  21.768071  -7.653967   0.042290
     5  C    0.008113   0.786402   0.175443  -7.653967  10.495090   0.023545
     6  O   -0.000062   0.021500   0.026100   0.042290   0.023545   7.947843
     7  O   -0.000160   0.038485   0.052556   0.031788   0.393739  -0.125430
     8  C   -0.019543   0.367270   0.363154  -7.122988   3.610179  -0.151552
     9  C    0.129194  -0.487014  -0.255443   2.528909  -2.090264   0.071680
    10  C   -0.020884  -0.385195   0.318558  -0.310957   0.213894   0.011524
    11  N   -0.004827   0.207207  -0.009602  -0.064054   0.010163   0.000008
    12  C   -0.037906   0.344239  -0.007790  -0.096612   0.064396   0.002427
    13  N   -0.064449   0.136384   0.085622  -0.372293   0.202675   0.000969
    14  C   -0.036643  -0.863222  -0.227780   0.112288  -0.262903  -0.004612
    15  C    0.052908  -0.395227   0.071256  -0.004885  -0.010381  -0.000639
    16  N   -0.034236  -0.054715   0.000362   0.053713  -0.014087  -0.000029
    17  H   -0.003304   0.017873   0.296805  -0.047152   0.048436   0.004191
    18  H    0.005406  -0.089231  -0.108821   0.866536  -0.152580  -0.002137
    19  H   -0.000062   0.000210   0.004028  -0.260536   0.237056   0.230698
    20  H    0.001388  -0.032321  -0.054246   0.278934  -0.077347  -0.004058
    21  H    0.000999   0.011653   0.053626  -0.264772   0.029547   0.015580
    22  H   -0.000068  -0.051806   0.020680  -0.016132   0.006277   0.000226
    23  H   -0.000133   0.007625  -0.001880   0.003075  -0.000117   0.000079
    24  H   -0.001263  -0.004554  -0.006188   0.014432  -0.003615  -0.000281
    25  H   -0.003523   0.074419  -0.061458  -0.003429   0.002397   0.000263
    26  H    0.006297  -0.049558   0.024731   0.044510  -0.021159  -0.000150
    27  H   -0.018895   0.037018  -0.022209  -0.018405   0.009031   0.000055
    28  H    0.007970  -0.011255   0.008761  -0.003146  -0.001787  -0.000025
    29  H    0.001299   0.001710   0.001192   0.002452  -0.001198  -0.000002
    30  H    0.064950  -0.036814   0.019012   0.026296  -0.004957  -0.000030
    31  H   -0.001287   0.030308  -0.003209   0.004387   0.001265   0.000023
               7          8          9         10         11         12
     1  O   -0.000160  -0.019543   0.129194  -0.020884  -0.004827  -0.037906
     2  C    0.038485   0.367270  -0.487014  -0.385195   0.207207   0.344239
     3  N    0.052556   0.363154  -0.255443   0.318558  -0.009602  -0.007790
     4  C    0.031788  -7.122988   2.528909  -0.310957  -0.064054  -0.096612
     5  C    0.393739   3.610179  -2.090264   0.213894   0.010163   0.064396
     6  O   -0.125430  -0.151552   0.071680   0.011524   0.000008   0.002427
     7  O    7.927660  -0.095378  -0.002678   0.000397  -0.000172   0.000591
     8  C   -0.095378  20.410527  -8.882810  -1.535401  -0.374479  -0.255561
     9  C   -0.002678  -8.882810  18.513918  -3.528151   0.010566  -0.262385
    10  C    0.000397  -1.535401  -3.528151  12.078195   0.090825  -0.841937
    11  N   -0.000172  -0.374479   0.010566   0.090825   6.935804   0.476961
    12  C    0.000591  -0.255561  -0.262385  -0.841937   0.476961   6.004096
    13  N    0.000325   0.383653  -1.039019   0.302165   0.039612   0.317274
    14  C   -0.010354  -0.175490   0.475817  -0.301867  -0.023232  -0.077194
    15  C   -0.000930   0.058585  -0.164384   0.167209  -0.035071  -0.005254
    16  N   -0.000101  -0.027240   0.118662  -0.042402  -0.036724  -0.003660
    17  H    0.014851  -0.010464  -0.013105   0.026259   0.000406   0.003412
    18  H   -0.007114  -0.214238  -0.011408  -0.035951  -0.001512   0.001128
    19  H   -0.010620   0.041343  -0.008198   0.002771   0.000084   0.000377
    20  H   -0.000485   0.358341  -0.035576  -0.152454   0.000962   0.004653
    21  H    0.003017   0.447895  -0.033631   0.054714   0.000321  -0.018201
    22  H   -0.000144   0.019733  -0.304811   0.788372  -0.124321  -0.049773
    23  H    0.000026  -0.010255   0.083032  -0.087447  -0.070300   0.515241
    24  H   -0.000138   0.011309   0.075437  -0.056570   0.004234  -0.035422
    25  H    0.001098   0.003510   0.039139  -0.064738   0.004258   0.005236
    26  H   -0.001210  -0.004959   0.023728  -0.020041   0.000029  -0.001088
    27  H    0.000150   0.008752  -0.022498   0.000326   0.002391   0.005822
    28  H   -0.000030   0.001333  -0.000068   0.011348  -0.003599  -0.005197
    29  H   -0.000007   0.002153   0.016446  -0.012255  -0.001717  -0.001797
    30  H   -0.000043   0.005729   0.008108   0.032434  -0.022796  -0.028337
    31  H    0.000017  -0.043599  -0.032140   0.017112   0.072239   0.012081
              13         14         15         16         17         18
     1  O   -0.064449  -0.036643   0.052908  -0.034236  -0.003304   0.005406
     2  C    0.136384  -0.863222  -0.395227  -0.054715   0.017873  -0.089231
     3  N    0.085622  -0.227780   0.071256   0.000362   0.296805  -0.108821
     4  C   -0.372293   0.112288  -0.004885   0.053713  -0.047152   0.866536
     5  C    0.202675  -0.262903  -0.010381  -0.014087   0.048436  -0.152580
     6  O    0.000969  -0.004612  -0.000639  -0.000029   0.004191  -0.002137
     7  O    0.000325  -0.010354  -0.000930  -0.000101   0.014851  -0.007114
     8  C    0.383653  -0.175490   0.058585  -0.027240  -0.010464  -0.214238
     9  C   -1.039019   0.475817  -0.164384   0.118662  -0.013105  -0.011408
    10  C    0.302165  -0.301867   0.167209  -0.042402   0.026259  -0.035951
    11  N    0.039612  -0.023232  -0.035071  -0.036724   0.000406  -0.001512
    12  C    0.317274  -0.077194  -0.005254  -0.003660   0.003412   0.001128
    13  N    6.932799  -0.042297  -0.008289  -0.026738   0.006361  -0.003768
    14  C   -0.042297   7.225013  -0.338289  -0.010490  -0.011911  -0.023039
    15  C   -0.008289  -0.338289   6.864563  -0.103505  -0.010571  -0.005811
    16  N   -0.026738  -0.010490  -0.103505   6.504395  -0.002733   0.004598
    17  H    0.006361  -0.011911  -0.010571  -0.002733   0.379884  -0.000185
    18  H   -0.003768  -0.023039  -0.005811   0.004598  -0.000185   0.478252
    19  H    0.000139  -0.002681  -0.000296   0.000002   0.001482   0.002618
    20  H   -0.001967   0.005626  -0.001398   0.002245  -0.004898   0.018892
    21  H    0.024075   0.008699   0.001140  -0.001250   0.000362  -0.025554
    22  H    0.016114   0.000996   0.012101   0.002071   0.000479  -0.002685
    23  H   -0.119521  -0.001403   0.004620  -0.001600  -0.000053   0.000742
    24  H    0.317670   0.002947  -0.000153   0.000494   0.000068  -0.002140
    25  H   -0.000599   0.431094  -0.094071  -0.010288   0.000217   0.001239
    26  H   -0.002140   0.370131  -0.036613   0.019571  -0.007274   0.002322
    27  H    0.003243  -0.021850   0.406897  -0.027516   0.001559  -0.001119
    28  H   -0.000202  -0.076399   0.431089  -0.025822   0.000205  -0.000547
    29  H   -0.002261  -0.002629  -0.015754   0.317478  -0.000562   0.000564
    30  H    0.006741  -0.018701  -0.059158   0.319400  -0.000561   0.002996
    31  H    0.010880   0.038205  -0.061177   0.318732   0.001298   0.000265
              19         20         21         22         23         24
     1  O   -0.000062   0.001388   0.000999  -0.000068  -0.000133  -0.001263
     2  C    0.000210  -0.032321   0.011653  -0.051806   0.007625  -0.004554
     3  N    0.004028  -0.054246   0.053626   0.020680  -0.001880  -0.006188
     4  C   -0.260536   0.278934  -0.264772  -0.016132   0.003075   0.014432
     5  C    0.237056  -0.077347   0.029547   0.006277  -0.000117  -0.003615
     6  O    0.230698  -0.004058   0.015580   0.000226   0.000079  -0.000281
     7  O   -0.010620  -0.000485   0.003017  -0.000144   0.000026  -0.000138
     8  C    0.041343   0.358341   0.447895   0.019733  -0.010255   0.011309
     9  C   -0.008198  -0.035576  -0.033631  -0.304811   0.083032   0.075437
    10  C    0.002771  -0.152454   0.054714   0.788372  -0.087447  -0.056570
    11  N    0.000084   0.000962   0.000321  -0.124321  -0.070300   0.004234
    12  C    0.000377   0.004653  -0.018201  -0.049773   0.515241  -0.035422
    13  N    0.000139  -0.001967   0.024075   0.016114  -0.119521   0.317670
    14  C   -0.002681   0.005626   0.008699   0.000996  -0.001403   0.002947
    15  C   -0.000296  -0.001398   0.001140   0.012101   0.004620  -0.000153
    16  N    0.000002   0.002245  -0.001250   0.002071  -0.001600   0.000494
    17  H    0.001482  -0.004898   0.000362   0.000479  -0.000053   0.000068
    18  H    0.002618   0.018892  -0.025554  -0.002685   0.000742  -0.002140
    19  H    0.453802  -0.001250  -0.003062   0.000058   0.000002  -0.000059
    20  H   -0.001250   0.491988  -0.021853  -0.006052   0.001049   0.000917
    21  H   -0.003062  -0.021853   0.492714   0.003647  -0.001676  -0.004506
    22  H    0.000058  -0.006052   0.003647   0.549162  -0.006112   0.000161
    23  H    0.000002   0.001049  -0.001676  -0.006112   0.519897  -0.000805
    24  H   -0.000059   0.000917  -0.004506   0.000161  -0.000805   0.364538
    25  H    0.000023   0.002211  -0.000255  -0.008216   0.000370   0.000118
    26  H   -0.000058   0.001365  -0.000479  -0.000175  -0.000083   0.000016
    27  H    0.000018  -0.000360   0.000141  -0.000795   0.000373   0.000051
    28  H   -0.000007  -0.000231   0.000078   0.002228  -0.000414   0.000067
    29  H   -0.000004   0.000171  -0.000057  -0.000377   0.000566  -0.000035
    30  H   -0.000006  -0.000033   0.000007   0.001759  -0.004667  -0.000091
    31  H    0.000025  -0.000030  -0.000236  -0.005755  -0.000704  -0.000071
              25         26         27         28         29         30
     1  O   -0.003523   0.006297  -0.018895   0.007970   0.001299   0.064950
     2  C    0.074419  -0.049558   0.037018  -0.011255   0.001710  -0.036814
     3  N   -0.061458   0.024731  -0.022209   0.008761   0.001192   0.019012
     4  C   -0.003429   0.044510  -0.018405  -0.003146   0.002452   0.026296
     5  C    0.002397  -0.021159   0.009031  -0.001787  -0.001198  -0.004957
     6  O    0.000263  -0.000150   0.000055  -0.000025  -0.000002  -0.000030
     7  O    0.001098  -0.001210   0.000150  -0.000030  -0.000007  -0.000043
     8  C    0.003510  -0.004959   0.008752   0.001333   0.002153   0.005729
     9  C    0.039139   0.023728  -0.022498  -0.000068   0.016446   0.008108
    10  C   -0.064738  -0.020041   0.000326   0.011348  -0.012255   0.032434
    11  N    0.004258   0.000029   0.002391  -0.003599  -0.001717  -0.022796
    12  C    0.005236  -0.001088   0.005822  -0.005197  -0.001797  -0.028337
    13  N   -0.000599  -0.002140   0.003243  -0.000202  -0.002261   0.006741
    14  C    0.431094   0.370131  -0.021850  -0.076399  -0.002629  -0.018701
    15  C   -0.094071  -0.036613   0.406897   0.431089  -0.015754  -0.059158
    16  N   -0.010288   0.019571  -0.027516  -0.025822   0.317478   0.319400
    17  H    0.000217  -0.007274   0.001559   0.000205  -0.000562  -0.000561
    18  H    0.001239   0.002322  -0.001119  -0.000547   0.000564   0.002996
    19  H    0.000023  -0.000058   0.000018  -0.000007  -0.000004  -0.000006
    20  H    0.002211   0.001365  -0.000360  -0.000231   0.000171  -0.000033
    21  H   -0.000255  -0.000479   0.000141   0.000078  -0.000057   0.000007
    22  H   -0.008216  -0.000175  -0.000795   0.002228  -0.000377   0.001759
    23  H    0.000370  -0.000083   0.000373  -0.000414   0.000566  -0.004667
    24  H    0.000118   0.000016   0.000051   0.000067  -0.000035  -0.000091
    25  H    0.441319  -0.002490   0.008151  -0.011205  -0.000003  -0.003853
    26  H   -0.002490   0.419698  -0.008934  -0.007393   0.001953   0.001567
    27  H    0.008151  -0.008934   0.422763  -0.016792  -0.002288  -0.019056
    28  H   -0.011205  -0.007393  -0.016792   0.454576  -0.002556   0.009313
    29  H   -0.000003   0.001953  -0.002288  -0.002556   0.358431  -0.008349
    30  H   -0.003853   0.001567  -0.019056   0.009313  -0.008349   0.383053
    31  H   -0.000357  -0.000226   0.001039  -0.006260  -0.014516  -0.017752
              31
     1  O   -0.001287
     2  C    0.030308
     3  N   -0.003209
     4  C    0.004387
     5  C    0.001265
     6  O    0.000023
     7  O    0.000017
     8  C   -0.043599
     9  C   -0.032140
    10  C    0.017112
    11  N    0.072239
    12  C    0.012081
    13  N    0.010880
    14  C    0.038205
    15  C   -0.061177
    16  N    0.318732
    17  H    0.001298
    18  H    0.000265
    19  H    0.000025
    20  H   -0.000030
    21  H   -0.000236
    22  H   -0.005755
    23  H   -0.000704
    24  H   -0.000071
    25  H   -0.000357
    26  H   -0.000226
    27  H    0.001039
    28  H   -0.006260
    29  H   -0.014516
    30  H   -0.017752
    31  H    0.353865
 Mulliken charges:
               1
     1  O   -0.308554
     2  C   -0.166040
     3  N    0.103382
     4  C   -0.234832
     5  C   -0.023284
     6  O   -0.109992
     7  O   -0.209707
     8  C   -1.169511
     9  C    1.078945
    10  C   -0.719854
    11  N   -0.083662
    12  C   -0.029819
    13  N   -0.103159
    14  C   -0.137830
    15  C   -0.718512
    16  N   -0.238589
    17  H    0.308624
    18  H    0.302283
    19  H    0.312103
    20  H    0.225817
    21  H    0.227315
    22  H    0.153158
    23  H    0.170474
    24  H    0.323433
    25  H    0.249424
    26  H    0.248114
    27  H    0.272937
    28  H    0.245967
    29  H    0.361953
    30  H    0.343837
    31  H    0.325577
 Sum of Mulliken charges =   1.00000
 Mulliken charges with hydrogens summed into heavy atoms:
               1
     1  O   -0.308554
     2  C   -0.166040
     3  N    0.412006
     4  C    0.067451
     5  C   -0.023284
     6  O    0.202112
     7  O   -0.209707
     8  C   -0.716379
     9  C    1.078945
    10  C   -0.566696
    11  N   -0.083662
    12  C    0.140655
    13  N    0.220274
    14  C    0.359708
    15  C   -0.199607
    16  N    0.792778
 APT charges:
               1
     1  O   -0.447347
     2  C   -0.274765
     3  N   -0.105778
     4  C   -0.766962
     5  C   -0.609014
     6  O   -0.662203
     7  O    0.098512
     8  C   -1.521642
     9  C    1.294291
    10  C   -1.123531
    11  N   -0.130206
    12  C   -0.482843
    13  N   -0.458557
    14  C   -0.433313
    15  C   -1.406231
    16  N   -0.668863
    17  H    0.583138
    18  H    0.413980
    19  H    1.189133
    20  H    0.406623
    21  H    0.607884
    22  H    0.406611
    23  H    0.754511
    24  H    0.642444
    25  H    0.253020
    26  H    0.615149
    27  H    0.540369
    28  H    0.752064
    29  H    1.062035
    30  H    0.242010
    31  H    0.229481
 Sum of APT charges =   1.00000
 APT charges with hydrogens summed into heavy atoms:
               1
     1  O   -0.447347
     2  C   -0.274765
     3  N    0.477360
     4  C   -0.352982
     5  C   -0.609014
     6  O    0.526930
     7  O    0.098512
     8  C   -0.507134
     9  C    1.294291
    10  C   -0.716919
    11  N   -0.130206
    12  C    0.271668
    13  N    0.183887
    14  C    0.434856
    15  C   -0.113799
    16  N    0.864663
 Electronic spatial extent (au):  <R**2>=           3775.7433
 Charge=              1.0000 electrons
 Dipole moment (field-independent basis, Debye):
    X=              5.2502    Y=             -2.1720    Z=             -4.6457  Tot=              7.3392
 Quadrupole moment (field-independent basis, Debye-Ang):
   XX=            -47.8005   YY=            -80.2572   ZZ=            -84.4281
   XY=             -6.9957   XZ=            -21.9182   YZ=             11.5375
 Traceless Quadrupole moment (field-independent basis, Debye-Ang):
   XX=             23.0281   YY=             -9.4286   ZZ=            -13.5995
   XY=             -6.9957   XZ=            -21.9182   YZ=             11.5375
 Octapole moment (field-independent basis, Debye-Ang**2):
  XXX=            105.8583  YYY=            -69.4729  ZZZ=            -28.5965  XYY=             15.5649
  XXY=              4.8960  XXZ=            -43.6670  XZZ=             59.5848  YZZ=             -5.5635
  YYZ=            -42.6368  XYZ=             16.4976
 Hexadecapole moment (field-independent basis, Debye-Ang**3):
 XXXX=          -1459.0855 YYYY=          -1899.3692 ZZZZ=           -837.2092 XXXY=            134.8787
 XXXZ=            119.9744 YYYX=            392.9381 YYYZ=            134.3955 ZZZX=            240.0212
 ZZZY=            112.9706 XXYY=           -412.5303 XXZZ=           -372.0865 YYZZ=           -462.3730
 XXYZ=            121.0136 YYXZ=             28.9738 ZZXY=            106.6325
 N-N= 1.185433144770D+03 E-N=-4.215350104146D+03  KE= 7.937821219028D+02
  Exact polarizability:   0.000   0.000   0.000   0.000   0.000   0.000
 Approx polarizability: 212.609  -5.609 218.314   8.912  27.213 175.097
 Calling FoFJK, ICntrl=    100147 FMM=F ISym2X=0 I1Cent= 0 IOpClX= 0 NMat=1 NMatS=1 NMatT=0.
 -------------------------------------------------------------------
 Center     Atomic                   Forces (Hartrees/Bohr)
 Number     Number              X              Y              Z
 -------------------------------------------------------------------
      1        8           0.011978209   -0.010414204   -0.003549351
      2        6          -0.011612313    0.009591431    0.006961188
      3        7           0.008315386   -0.010913323   -0.003658031
      4        6          -0.003658074    0.003120594   -0.001438418
      5        6          -0.011265514    0.002938137   -0.002309904
      6        8           0.007337839   -0.001995811   -0.000894591
      7        8           0.004652435    0.000103262    0.000308287
      8        6           0.006043785   -0.008915965    0.002827917
      9        6          -0.007819489    0.002436993   -0.001953052
     10        6           0.010561480    0.007103957    0.000797373
     11        7           0.009074364    0.004614797    0.003871255
     12        6          -0.003482556   -0.005081147   -0.008259972
     13        7          -0.004753718   -0.000101809   -0.000839419
     14        6          -0.000597411   -0.000253515    0.007473947
     15        6           0.004628993    0.024246268   -0.008915231
     16        7          -0.002412483   -0.006161223   -0.002460049
     17        1           0.002079571    0.004562802    0.002649936
     18        1          -0.001358411    0.001492754   -0.000681205
     19        1          -0.006366997    0.003287481    0.001481941
     20        1          -0.000445038    0.001083184    0.001194949
     21        1          -0.002804416    0.000320519    0.001239481
     22        1          -0.002070525   -0.003476851    0.000369577
     23        1          -0.001426925   -0.000788063    0.000695239
     24        1          -0.000767261   -0.000946693    0.000935120
     25        1          -0.000341215    0.001631436   -0.001273548
     26        1           0.003224896   -0.000836383   -0.001578552
     27        1           0.000051742   -0.006506885   -0.000760400
     28        1           0.000078895   -0.004382087    0.001160432
     29        1           0.002238337   -0.001343411    0.000781972
     30        1          -0.008611212   -0.000303973    0.000751923
     31        1          -0.000472372   -0.004112270    0.005071184
 -------------------------------------------------------------------
 Cartesian Forces:  Max     0.024246268 RMS     0.005407683
 FormGI is forming the generalized inverse of G from B-inverse, IUseBI=4.
 GSVD:  received Info=                   1 from GESDD.

 GradGradGradGradGradGradGradGradGradGradGradGradGradGradGradGradGradGrad
 Berny optimization.
 Internal  Forces:  Max     0.023117009 RMS     0.005364156
 Search for a local minimum.
 Step number   1 out of a maximum of  167
 All quantities printed in internal units (Hartrees-Bohrs-Radians)
 Mixed Optimization -- RFO/linear search
 Second derivative matrix not updated -- analytic derivatives used.
 ITU=  0
     Eigenvalues ---   -0.00295   0.00237   0.00254   0.00334   0.00398
     Eigenvalues ---    0.00579   0.00695   0.00781   0.01104   0.01417
     Eigenvalues ---    0.01918   0.02109   0.02130   0.02582   0.03127
     Eigenvalues ---    0.03804   0.03944   0.04001   0.04128   0.04166
     Eigenvalues ---    0.04324   0.04666   0.04843   0.05128   0.05276
     Eigenvalues ---    0.05518   0.05797   0.05985   0.06308   0.07808
     Eigenvalues ---    0.08157   0.08399   0.10420   0.10955   0.11039
     Eigenvalues ---    0.11631   0.11724   0.12094   0.12350   0.13432
     Eigenvalues ---    0.14700   0.14927   0.15380   0.15974   0.17612
     Eigenvalues ---    0.18578   0.20210   0.20336   0.21929   0.23028
     Eigenvalues ---    0.23237   0.23874   0.24268   0.25016   0.25672
     Eigenvalues ---    0.27674   0.29261   0.32280   0.32391   0.32785
     Eigenvalues ---    0.33389   0.33725   0.33779   0.33824   0.34059
     Eigenvalues ---    0.34445   0.34725   0.35042   0.35855   0.36312
     Eigenvalues ---    0.36884   0.37361   0.41162   0.41242   0.41724
     Eigenvalues ---    0.42367   0.43923   0.44554   0.44638   0.46990
     Eigenvalues ---    0.47336   0.47844   0.48919   0.52679   0.58856
     Eigenvalues ---    0.78778   0.88594
 RFO step:  Lambda=-2.30301021D-02 EMin=-2.94880856D-03
 Linear search not attempted -- first point.
 Maximum step size (   0.300) exceeded in Quadratic search.
    -- Step size scaled by   0.903
 Iteration  1 RMS(Cart)=  0.36929002 RMS(Int)=  0.03761550
 Iteration  2 RMS(Cart)=  0.17393127 RMS(Int)=  0.00767910
 Iteration  3 RMS(Cart)=  0.01166518 RMS(Int)=  0.00139401
 Iteration  4 RMS(Cart)=  0.00007135 RMS(Int)=  0.00139343
 Iteration  5 RMS(Cart)=  0.00000021 RMS(Int)=  0.00139343
 Variable       Old X    -DE/DX   Delta X   Delta X   Delta X     New X
                                 (Linear)    (Quad)   (Total)
    R1        2.31937   0.00441   0.00000   0.00193   0.00193   2.32130
    R2        2.56877  -0.00385   0.00000   0.00677   0.00677   2.57554
    R3        2.87782  -0.00183   0.00000   0.00975   0.00975   2.88757
    R4        2.72872   0.00575   0.00000   0.02029   0.02029   2.74901
    R5        1.90088   0.00564   0.00000   0.00993   0.00993   1.91080
    R6        2.85738   0.00628   0.00000   0.01258   0.01258   2.86997
    R7        2.93500   0.00282   0.00000   0.04370   0.04370   2.97870
    R8        2.05784   0.00032   0.00000  -0.00027  -0.00027   2.05757
    R9        2.54703  -0.00118   0.00000  -0.00856  -0.00856   2.53847
   R10        2.27257   0.00202   0.00000  -0.00166  -0.00166   2.27091
   R11        1.82488   0.00596   0.00000   0.00910   0.00910   1.83398
   R12        2.83326  -0.00316   0.00000  -0.01024  -0.01024   2.82301
   R13        2.06176   0.00136   0.00000   0.00214   0.00214   2.06390
   R14        2.05798   0.00283   0.00000   0.00368   0.00368   2.06165
   R15        2.58405   0.00729   0.00000   0.00784   0.00840   2.59245
   R16        2.60764   0.00291   0.00000  -0.00653  -0.00597   2.60168
   R17        2.60776   0.00124   0.00000   0.01050   0.01015   2.61790
   R18        2.04939  -0.00298   0.00000  -0.00831  -0.00831   2.04108
   R19        2.47149   0.01135   0.00000   0.03690   0.03626   2.50775
   R20        2.56787   0.00316   0.00000  -0.01228  -0.01242   2.55544
   R21        2.04036   0.00037   0.00000   0.00001   0.00001   2.04037
   R22        1.90756   0.00023   0.00000   0.00295   0.00295   1.91052
   R23        2.87101  -0.00100   0.00000   0.01176   0.01176   2.88277
   R24        2.07475  -0.00138   0.00000  -0.00973  -0.00973   2.06502
   R25        2.06635   0.00024   0.00000   0.00145   0.00145   2.06780
   R26        2.80254   0.01403   0.00000   0.04094   0.04094   2.84348
   R27        2.06099  -0.00007   0.00000  -0.00043  -0.00043   2.06056
   R28        2.06189  -0.00071   0.00000  -0.00265  -0.00265   2.05924
   R29        1.92841   0.00187   0.00000  -0.00066  -0.00066   1.92774
   R30        1.93557   0.00794   0.00000   0.00522   0.00522   1.94079
   R31        1.93525   0.00559   0.00000   0.05645   0.05645   1.99170
    A1        2.12155   0.01341   0.00000   0.02104   0.01961   2.14115
    A2        2.16009  -0.02087   0.00000  -0.03502  -0.03618   2.12391
    A3        2.00140   0.00737   0.00000   0.01245   0.01116   2.01256
    A4        2.10513  -0.00165   0.00000  -0.01153  -0.01731   2.08782
    A5        2.10528  -0.00012   0.00000  -0.02360  -0.02966   2.07563
    A6        2.03766   0.00073   0.00000  -0.01459  -0.02085   2.01682
    A7        1.88589   0.00580   0.00000   0.03111   0.03178   1.91767
    A8        1.97109  -0.01794   0.00000  -0.09464  -0.09468   1.87641
    A9        1.88544   0.00466   0.00000   0.01960   0.01881   1.90425
   A10        1.88366   0.01096   0.00000   0.03547   0.03593   1.91959
   A11        1.92510  -0.00487   0.00000  -0.00272  -0.00354   1.92156
   A12        1.91266   0.00130   0.00000   0.01172   0.01112   1.92378
   A13        1.94702   0.00005   0.00000  -0.01052  -0.01054   1.93648
   A14        2.18129  -0.00480   0.00000  -0.01455  -0.01456   2.16672
   A15        2.15426   0.00473   0.00000   0.02468   0.02466   2.17892
   A16        1.84910   0.00771   0.00000   0.03836   0.03836   1.88746
   A17        1.98025  -0.02219   0.00000  -0.10353  -0.10426   1.87599
   A18        1.90562   0.00352   0.00000  -0.03023  -0.03229   1.87333
   A19        1.88614   0.00848   0.00000   0.06945   0.07116   1.95729
   A20        1.88262   0.00700   0.00000   0.01640   0.01169   1.89431
   A21        1.92981   0.00725   0.00000   0.04597   0.04769   1.97750
   A22        1.87672  -0.00336   0.00000   0.00536   0.00525   1.88196
   A23        2.30513  -0.00277   0.00000  -0.04830  -0.05123   2.25391
   A24        2.15626   0.00027   0.00000   0.03360   0.02826   2.18452
   A25        1.81988   0.00239   0.00000   0.00588   0.00380   1.82368
   A26        1.93903  -0.00141   0.00000  -0.00782  -0.00716   1.93187
   A27        2.21675   0.00172   0.00000   0.00945   0.00875   2.22550
   A28        2.12623  -0.00032   0.00000  -0.00340  -0.00391   2.12233
   A29        1.83499   0.00021   0.00000  -0.00222  -0.00295   1.83204
   A30        1.94715  -0.00060   0.00000  -0.00868  -0.00895   1.93820
   A31        2.19226   0.00123   0.00000   0.00715   0.00727   2.19953
   A32        2.14366  -0.00061   0.00000   0.00159   0.00172   2.14538
   A33        1.88306  -0.00062   0.00000   0.01079   0.01158   1.89463
   A34        2.20220   0.00068   0.00000  -0.00170  -0.00205   2.20015
   A35        2.19584  -0.00008   0.00000  -0.01007  -0.01068   2.18516
   A36        1.99204  -0.02312   0.00000  -0.02124  -0.02161   1.97043
   A37        1.88374   0.00528   0.00000  -0.02117  -0.02175   1.86199
   A38        1.89273   0.01156   0.00000   0.05377   0.05392   1.94665
   A39        1.91403   0.00652   0.00000  -0.01124  -0.01193   1.90210
   A40        1.91770   0.00407   0.00000  -0.00188  -0.00182   1.91588
   A41        1.85861  -0.00307   0.00000   0.00361   0.00378   1.86239
   A42        1.95025  -0.01327   0.00000   0.00332   0.00346   1.95372
   A43        1.90380   0.00749   0.00000   0.03594   0.03587   1.93968
   A44        1.90898   0.00603   0.00000   0.00408   0.00397   1.91295
   A45        1.90189  -0.00208   0.00000  -0.04697  -0.04696   1.85492
   A46        1.91966   0.00337   0.00000  -0.00526  -0.00534   1.91432
   A47        1.87774  -0.00109   0.00000   0.00935   0.00865   1.88639
   A48        1.96166   0.00002   0.00000  -0.01901  -0.02047   1.94119
   A49        1.87036  -0.00104   0.00000  -0.02578  -0.02498   1.84538
   A50        1.96640   0.00410   0.00000   0.12362   0.12315   2.08954
   A51        1.89137   0.00151   0.00000   0.01305   0.01271   1.90407
   A52        1.90708  -0.00248   0.00000  -0.01442  -0.01633   1.89075
   A53        1.86254  -0.00225   0.00000  -0.08497  -0.08332   1.77922
    D1        0.34095  -0.00060   0.00000   0.18460   0.18281   0.52376
    D2       -3.09134  -0.00463   0.00000  -0.01882  -0.01894  -3.11028
    D3       -2.78262   0.00510   0.00000   0.27623   0.27636  -2.50626
    D4        0.06827   0.00107   0.00000   0.07282   0.07461   0.14287
    D5       -0.04731   0.00120   0.00000  -0.05477  -0.05525  -0.10256
    D6       -2.17975   0.00432   0.00000  -0.01073  -0.01167  -2.19142
    D7        2.09652  -0.00075   0.00000  -0.03153  -0.03216   2.06436
    D8        3.07582  -0.00423   0.00000  -0.14803  -0.14714   2.92868
    D9        0.94338  -0.00111   0.00000  -0.10399  -0.10356   0.83982
   D10       -1.06354  -0.00618   0.00000  -0.12479  -0.12404  -1.18759
   D11       -2.68663  -0.00333   0.00000  -0.14828  -0.14833  -2.83496
   D12        1.51432  -0.00989   0.00000  -0.15541  -0.15487   1.35946
   D13       -0.60394  -0.00330   0.00000  -0.12330  -0.12284  -0.72678
   D14        0.73481   0.00067   0.00000   0.04902   0.04833   0.78314
   D15       -1.34742  -0.00589   0.00000   0.04189   0.04180  -1.30562
   D16        2.81750   0.00070   0.00000   0.07400   0.07383   2.89133
   D17        2.83637   0.00625   0.00000   0.03047   0.03028   2.86665
   D18       -0.34202   0.00575   0.00000   0.01978   0.01966  -0.32236
   D19       -1.31007  -0.00548   0.00000  -0.04432  -0.04424  -1.35431
   D20        1.79473  -0.00597   0.00000  -0.05501  -0.05485   1.73988
   D21        0.77896  -0.00005   0.00000  -0.01002  -0.01003   0.76893
   D22       -2.39943  -0.00055   0.00000  -0.02071  -0.02064  -2.42007
   D23       -0.96769   0.00419   0.00000   0.05669   0.05466  -0.91304
   D24        1.13260   0.00101   0.00000  -0.01182  -0.01089   1.12171
   D25       -3.11423   0.00361   0.00000   0.01666   0.01659  -3.09764
   D26       -3.05121   0.00059   0.00000   0.05195   0.05064  -3.00058
   D27       -0.95092  -0.00260   0.00000  -0.01656  -0.01491  -0.96583
   D28        1.08544   0.00000   0.00000   0.01192   0.01257   1.09800
   D29        1.13509  -0.00084   0.00000   0.02718   0.02560   1.16069
   D30       -3.04780  -0.00402   0.00000  -0.04133  -0.03995  -3.08774
   D31       -1.01144  -0.00143   0.00000  -0.01285  -0.01247  -1.02392
   D32        3.11010  -0.00071   0.00000  -0.00670  -0.00681   3.10328
   D33        0.00463   0.00001   0.00000   0.00475   0.00487   0.00950
   D34        1.78605  -0.00508   0.00000  -0.35884  -0.35792   1.42814
   D35       -1.27808  -0.00306   0.00000  -0.18129  -0.18134  -1.45942
   D36       -0.32722  -0.00027   0.00000  -0.26610  -0.26559  -0.59281
   D37        2.89183   0.00175   0.00000  -0.08855  -0.08901   2.80282
   D38       -2.37482  -0.00439   0.00000  -0.30781  -0.30778  -2.68260
   D39        0.84423  -0.00237   0.00000  -0.13026  -0.13121   0.71302
   D40       -3.04317   0.00280   0.00000   0.20371   0.19962  -2.84355
   D41        0.04671   0.00267   0.00000   0.16457   0.16185   0.20855
   D42        0.03183   0.00104   0.00000   0.05252   0.05239   0.08422
   D43        3.12170   0.00090   0.00000   0.01339   0.01462   3.13632
   D44        3.06600  -0.00257   0.00000  -0.17069  -0.17528   2.89072
   D45       -0.00926  -0.00229   0.00000  -0.15491  -0.15847  -0.16773
   D46       -0.01629  -0.00084   0.00000  -0.03220  -0.03188  -0.04817
   D47       -3.09155  -0.00056   0.00000  -0.01642  -0.01507  -3.10661
   D48       -0.03527  -0.00074   0.00000  -0.05263  -0.05269  -0.08796
   D49       -3.12826  -0.00069   0.00000  -0.01631  -0.01796   3.13696
   D50        0.02423   0.00025   0.00000   0.03114   0.03172   0.05595
   D51       -3.13356   0.00120   0.00000   0.03504   0.03469  -3.09887
   D52       -0.00524   0.00041   0.00000   0.00056  -0.00007  -0.00531
   D53        3.07033   0.00018   0.00000  -0.01474  -0.01630   3.05403
   D54       -3.13116  -0.00053   0.00000  -0.00328  -0.00300  -3.13416
   D55       -0.05559  -0.00076   0.00000  -0.01859  -0.01923  -0.07482
   D56       -0.96637   0.00532   0.00000   0.12408   0.12398  -0.84239
   D57        1.13758  -0.00074   0.00000   0.09142   0.09116   1.22874
   D58       -3.09619   0.00571   0.00000   0.12570   0.12568  -2.97050
   D59        1.14939   0.00105   0.00000   0.07369   0.07383   1.22321
   D60       -3.02986  -0.00501   0.00000   0.04103   0.04101  -2.98885
   D61       -0.98044   0.00144   0.00000   0.07532   0.07553  -0.90490
   D62       -3.09654   0.00352   0.00000   0.07040   0.07044  -3.02610
   D63       -0.99260  -0.00255   0.00000   0.03774   0.03762  -0.95497
   D64        1.05682   0.00391   0.00000   0.07202   0.07215   1.12897
   D65       -3.02915  -0.00038   0.00000   0.07088   0.07055  -2.95859
   D66        1.17806  -0.00158   0.00000   0.08244   0.08192   1.25998
   D67       -0.86534  -0.00048   0.00000   0.13300   0.13387  -0.73147
   D68        1.14898   0.00008   0.00000   0.05516   0.05494   1.20391
   D69       -0.92700  -0.00112   0.00000   0.06672   0.06630  -0.86070
   D70       -2.97040  -0.00002   0.00000   0.11728   0.11825  -2.85215
   D71       -0.90547   0.00067   0.00000   0.07466   0.07421  -0.83126
   D72       -2.98145  -0.00052   0.00000   0.08622   0.08558  -2.89587
   D73        1.25833   0.00057   0.00000   0.13678   0.13752   1.39586
         Item               Value     Threshold  Converged?
 Maximum Force            0.023117     0.000450     NO 
 RMS     Force            0.005364     0.000300     NO 
 Maximum Displacement     2.063516     0.001800     NO 
 RMS     Displacement     0.524706     0.001200     NO 
 Predicted change in Energy=-2.056736D-02
 GradGradGradGradGradGradGradGradGradGradGradGradGradGradGradGradGradGrad

                          Input orientation:                          
 ---------------------------------------------------------------------
 Center     Atomic      Atomic             Coordinates (Angstroms)
 Number     Number       Type             X           Y           Z
 ---------------------------------------------------------------------
      1          8           0       -0.164776   -0.123867   -1.786844
      2          6           0        0.304483    0.753376   -1.066320
      3          7           0       -0.474569    1.620129   -0.359661
      4          6           0       -1.786167    1.194274    0.103539
      5          6           0       -2.624647    2.407508    0.466203
      6          8           0       -3.923841    2.081059    0.566093
      7          8           0       -2.172258    3.499151    0.684766
      8          6           0       -1.569083    0.289594    1.375945
      9          6           0       -0.582555   -0.770762    1.009794
     10          6           0        0.786973   -0.702266    0.968425
     11          7           0        1.307358   -1.751631    0.228705
     12          6           0        0.260465   -2.507526   -0.077366
     13          7           0       -0.887901   -1.951000    0.370075
     14          6           0        1.803779    0.845170   -0.786001
     15          6           0        2.589185   -0.326042   -1.367840
     16          7           0        1.957722   -1.649464   -1.030274
     17          1           0       -0.028204    2.338362    0.194711
     18          1           0       -2.274703    0.623974   -0.684888
     19          1           0       -4.415218    2.874514    0.832271
     20          1           0       -1.129429    0.919769    2.152101
     21          1           0       -2.508253   -0.109447    1.761905
     22          1           0        1.418551    0.080302    1.362506
     23          1           0        0.287766   -3.440052   -0.620914
     24          1           0       -1.816718   -2.308437    0.192138
     25          1           0        1.920297    0.846499    0.300530
     26          1           0        2.223148    1.788604   -1.148498
     27          1           0        2.625089   -0.273296   -2.456371
     28          1           0        3.612507   -0.301686   -0.994105
     29          1           0        2.574547   -2.425235   -1.271827
     30          1           0        1.106799   -1.706043   -1.602555
     31          1           0        1.579843   -1.815945   -0.060567
 ---------------------------------------------------------------------
                    Distance matrix (angstroms):
                    1          2          3          4          5
     1  O    0.000000
     2  C    1.228379   0.000000
     3  N    2.274719   1.362919   0.000000
     4  C    2.817792   2.435935   1.454715   0.000000
     5  C    4.187487   3.696563   2.434102   1.518720   0.000000
     6  O    4.952634   4.722948   3.600966   2.360083   1.343299
     7  O    4.823391   4.091434   2.739288   2.408184   1.201711
     8  C    3.485149   3.112877   2.445529   1.576258   2.535233
     9  C    2.900723   2.723982   2.757431   2.476155   3.816678
    10  C    2.971848   2.547916   2.957840   3.311486   4.643498
    11  N    2.979805   2.992977   3.858783   4.273631   5.728482
    12  C    2.963946   3.407851   4.202083   4.233763   5.725111
    13  N    2.917812   3.286131   3.668286   3.281870   4.692773
    14  C    2.411624   1.528036   2.444012   3.714952   4.860028
    15  C    2.792981   2.544784   3.767041   4.860044   6.166041
    16  N    2.721184   2.916871   4.129891   4.836226   6.300522
    17  H    3.163509   2.052574   1.011152   2.099449   2.611514
    18  H    2.495068   2.610447   2.082926   1.088819   2.151387
    19  H    5.823771   5.511755   4.303823   3.204085   1.886331
    20  H    4.187484   3.527325   2.688548   2.168700   2.700240
    21  H    4.252730   4.081029   3.410036   2.229635   2.833276
    22  H    3.530866   2.755607   2.986775   3.618860   4.750442
    23  H    3.544188   4.217048   5.123947   5.128645   6.622531
    24  H    3.378997   3.931654   4.188015   3.503964   4.792494
    25  H    3.105845   2.118445   2.601872   3.727953   4.808401
    26  H    3.125254   2.181680   2.815728   4.242102   5.146981
    27  H    2.872968   2.893357   4.193940   5.307173   6.579353
    28  H    3.863667   3.472952   4.560710   5.708625   6.955165
    29  H    3.614614   3.911393   5.147244   5.831664   7.308062
    30  H    2.038172   2.641968   3.887020   4.437549   5.926613
    31  H    2.981084   3.039654   4.014557   4.518670   5.982707
                    6          7          8          9         10
     6  O    0.000000
     7  O    2.256792   0.000000
     8  C    3.067587   3.338084   0.000000
[...]
 00023555,-0.01476266,-0.00006064,-0.00029968,0.00073914,-0.00023392,0.
 00052764,-0.00008191,0.00015249,0.00003071,-0.00000759,-0.00001009,0.0
 0000460,-0.00000775,0.00000811,0.00000642,-0.00003455,0.00001986,0.000
 01041,-0.00003810,0.00022132,0.00031139,-0.00001869,-0.00000014,0.0000
 0608,-0.00000392,-0.00001784,-0.00001125,0.00001029,0.07673548,0.01558
 315,0.31095752,-0.00446985,0.00113332,-0.00320218,-0.00165516,-0.03175
 567,0.01460444,-0.00037023,0.00233376,-0.00112443,-0.00034542,0.000413
 91,-0.00026989,-0.00017933,-0.00034734,-0.00009113,-0.00005312,0.00011
 825,0.00004238,0.00004110,0.00017144,-0.00003161,0.00004747,0.00021581
 ,-0.00016039,0.00016767,0.00000485,0.00000223,-0.00015831,0.00002686,0
 .00003989,0.00017779,0.00009247,-0.00011697,-0.00011196,-0.00005338,-0
 .00008748,0.00012012,0.00001005,0.00001143,-0.05470086,-0.04317678,0.0
 2268019,0.00402087,0.01507138,-0.00789941,-0.00204336,0.00358699,0.002
 21597,-0.00038862,-0.00016824,0.00076946,0.00003479,0.00003367,0.00001
 661,-0.00002702,-0.00000572,0.00002326,0.00000107,-0.00001340,0.000024
 78,-0.00000368,-0.00000264,0.00001147,-0.00000654,0.00002515,0.0000285
 9,-0.00000506,-0.00000253,0.00000983,0.00000341,0.00000319,-0.00000281
 ,0.00176784,0.00935661,-0.00400827,0.05781655,-0.00086508,0.00083595,0
 .00026461,-0.00357027,-0.00527289,0.00082379,0.00130500,-0.00007584,-0
 .00060158,-0.00075768,0.00020457,-0.00024809,-0.00007739,0.00012624,0.
 00003344,0.00004859,-0.00003966,-0.00001610,0.00002349,-0.00009041,-0.
 00001461,0.00027827,0.00001621,-0.00000988,0.00003626,-0.00003088,0.00
 004997,-0.00002363,-0.00007554,-0.00003094,-0.00010346,-0.00000527,0.0
 0009773,0.00006207,0.00004104,0.00005045,-0.00004604,0.00000241,-0.000
 04493,-0.03817592,-0.25525672,0.09685847,-0.00407244,-0.01978542,0.008
 69526,0.00320534,-0.00206658,-0.00249348,0.00011981,0.00005703,0.00041
 100,0.00001573,0.00002120,0.00001568,-0.00000092,0.00000597,0.00000223
 ,-0.00001043,0.00000068,0.00000530,0.00000128,0.00005355,-0.00007095,0
 .00001603,0.00001116,0.00001545,0.00000351,0.00000522,-0.00000279,0.00
 000281,-0.00000557,-0.00000074,0.00063572,0.00234358,-0.00033638,0.042
 48426,0.27813581,-0.00144901,-0.00006784,-0.00135508,-0.00089021,-0.00
 338365,0.00058814,0.00088909,-0.00023732,0.00051769,0.00008067,-0.0000
 2662,-0.00037461,0.00011320,0.00026558,0.00011423,-0.00006388,-0.00006
 806,-0.00002238,-0.00011484,-0.00016108,-0.00005496,0.00012418,-0.0001
 0763,0.00009629,-0.00036748,0.00005996,-0.00011854,0.00025039,0.000073
 53,-0.00034519,-0.00007336,-0.00019768,0.00003329,0.00024696,0.0000480
 3,0.00009323,0.00004577,0.00022353,0.00015036,0.02029338,0.09904663,-0
 .08805011,-0.00385910,-0.01517442,0.00606027,0.00235022,-0.00456512,-0
 .00144391,0.00063955,0.00017025,-0.00031638,-0.00004048,-0.00003407,0.
 00002518,0.00001236,0.00000296,0.00000161,0.00000788,0.00000671,-0.000
 02241,0.00001096,0.00000143,-0.00003363,0.00002826,0.00003146,0.000279
 50,0.00001635,0.00001080,-0.00000817,-0.00002422,0.00001041,0.00000431
 ,0.00558262,0.02840925,-0.01247125,-0.02317371,-0.10358979,0.09570431,
 -0.00024069,-0.00038305,-0.00102009,0.00073015,0.00045997,0.00162630,-
 0.00007148,-0.00020501,-0.00043892,-0.00015981,0.00002422,-0.00009173,
 -0.00006462,0.00004390,0.00000250,0.00004488,-0.00001112,-0.00001376,0
 .00003039,-0.00002869,-0.00001821,0.00006908,-0.00002833,0.00001553,-0
 .00001576,0.00002338,0.00000727,0.00002148,-0.00014864,-0.00003005,-0.
 00028926,-0.00004651,0.00032774,0.00016980,0.00003947,0.00010406,-0.00
 011566,0.00004823,-0.00008159,0.00202789,-0.00169152,0.01922472,-0.054
 90828,0.00415312,-0.02585741,-0.00022848,-0.00621192,0.01479385,0.0001
 4229,-0.00008671,0.00007137,-0.00004211,-0.00000093,0.00002264,-0.0000
 0842,0.00000376,0.00000801,-0.00000279,0.00000462,-0.00000372,-0.00000
 203,0.00002141,-0.00001934,-0.00000394,0.00002615,-0.00001601,-0.00000
 063,-0.00000789,0.00000586,-0.00000527,-0.00000472,0.00001509,-0.00170
 032,0.00228621,0.00153632,0.00127204,-0.00068631,-0.00063693,0.0526051
 5,0.00034557,0.00099928,0.00017557,-0.00136765,-0.00066803,-0.00060062
 ,0.00057407,-0.00005464,0.00011625,-0.00014137,-0.00005565,0.00014512,
 -0.00005551,0.00001730,-0.00003907,0.00007738,-0.00001743,-0.00000582,
 0.00006247,0.00000828,0.00002027,0.00004765,-0.00008372,-0.00000918,-0
 .00021150,0.00002168,-0.00005853,0.00005206,-0.00042806,-0.00022321,-0
 .00079582,-0.00032433,0.00094630,0.00056537,0.00023859,0.00032315,-0.0
 0032159,0.00024042,-0.00003920,-0.00173006,0.00120610,-0.02353927,0.00
 130060,-0.05128831,0.02652219,-0.00197650,-0.01699716,0.04014201,-0.00
 017288,0.00020657,-0.00004729,0.00005140,0.00001057,-0.00000979,-0.000
 00207,0.00000224,-0.00000162,-0.00001148,0.00001794,0.00000453,-0.0000
 0182,0.00002705,-0.00001529,0.00001236,0.00000028,0.00012850,-0.000001
 38,-0.00000564,0.00001684,0.00000308,0.00003406,0.00000064,0.00356526,
 -0.00232920,-0.00210151,-0.00024500,0.00089617,-0.00034446,-0.00107943
 ,0.07002896,0.00004557,0.00059912,0.00102796,-0.00083412,-0.00100966,-
 0.00086411,0.00013820,0.00021032,0.00018589,0.00000241,-0.00004292,0.0
 0006653,-0.00001413,0.00000174,-0.00000482,0.00001927,-0.00000383,0.00
 000048,0.00001125,0.00000396,0.00000865,-0.00001653,0.00000883,-0.0000
 0755,-0.00000712,0.00000558,-0.00001912,-0.00003979,-0.00002345,-0.000
 02853,0.00001920,-0.00003840,0.00001330,0.00000898,0.00000859,0.000025
 61,0.00002516,0.00002980,0.00001730,-0.00098107,-0.00103618,-0.0138041
 7,-0.02043561,0.03666962,-0.31578004,0.00021036,0.00253448,-0.00259984
 ,-0.00010364,0.00012949,-0.00004424,0.00002335,0.00001655,0.00000191,-
 0.00000172,0.00000039,-0.00000167,-0.00000310,0.00000030,0.00000466,0.
 00000170,-0.00000209,0.00000369,-0.00000277,-0.00000811,0.00004819,0.0
 0000391,0.00000329,-0.00000416,-0.00000410,0.00000136,-0.00000765,0.00
 181952,-0.00181014,0.00031272,-0.00005704,-0.00004803,0.00082961,0.021
 00108,-0.03754858,0.33581104,0.00044919,0.00006652,0.00002955,0.000552
 74,0.00252255,0.00109565,-0.00100249,-0.00034753,0.00015960,0.00014815
 ,0.00016327,0.00010536,0.00003804,-0.00013959,0.00000798,-0.00007212,0
 .00004711,0.00001161,-0.00002763,0.00005557,0.00001676,-0.00008392,0.0
 0002345,-0.00001896,0.00000704,0.00003321,-0.00000089,-0.00006739,-0.0
 0000962,-0.00002039,0.00003989,-0.00001661,0.00004549,-0.00001514,-0.0
 0001594,0.00000412,0.00007360,-0.00000267,0.00003542,-0.01463863,0.000
 04577,-0.00395439,-0.30061834,-0.01706946,-0.07349324,-0.00647803,-0.0
 0279929,-0.00146647,-0.00001551,-0.00004767,-0.00009903,0.00000434,-0.
 00000061,0.00000057,0.00000183,-0.00000503,-0.00000468,0.00000188,-0.0
 0000234,0.00000306,0.00000392,-0.00002068,0.00002407,-0.00002812,0.000
 01398,0.00002200,0.00000388,0.00001020,-0.00000746,0.00000533,0.000009
 57,-0.00000407,0.00093576,-0.00058976,0.00018512,-0.00012692,0.0003117
 3,0.00000227,-0.00003777,0.00073365,-0.00067874,0.32039966,-0.00017109
 ,0.00147405,0.00040605,-0.00034010,-0.00459897,-0.00269176,0.00190132,
 0.00081741,-0.00013633,-0.00022748,-0.00038822,-0.00013477,-0.00003573
 ,0.00022088,-0.00002522,0.00014400,-0.00008516,-0.00002240,0.00005628,
 -0.00007005,-0.00001929,0.00010013,-0.00002334,-0.00000135,0.00003151,
 0.00001048,0.00000996,-0.00000973,-0.00006633,-0.00005756,-0.00021140,
 -0.00013939,0.00021786,0.00017626,0.00007415,0.00018649,-0.00005312,-0
 .00000774,-0.00005705,0.02185926,0.00353512,0.00568594,-0.00704427,-0.
 05083034,-0.00057651,-0.03860607,-0.01028946,-0.00995335,-0.00001683,0
 .00011435,0.00012916,0.00000168,0.00000537,-0.00000078,-0.00000018,0.0
 0000606,0.00000857,-0.00000987,0.00001266,-0.00000050,-0.00000441,0.00
 003955,-0.00003543,0.00000825,0.00001089,0.00003798,0.00000643,0.00004
 023,-0.00003299,0.00000945,-0.00000818,-0.00000259,-0.00037729,0.00091
 428,0.00001563,-0.00045620,0.00018880,0.00050098,0.00487911,0.00136367
 ,0.00040265,0.01835439,0.06207953,-0.00046604,0.00059646,0.00085887,0.
 00057829,-0.00434310,-0.00192339,0.00125666,0.00056348,-0.00020591,-0.
 00007331,-0.00017490,-0.00020902,0.00000509,0.00011517,-0.00001320,0.0
 0004859,-0.00004239,-0.00000634,0.00001147,-0.00003553,-0.00001336,0.0
 0009147,-0.00002872,0.00002393,0.00002327,-0.00004160,0.00001892,0.000
 04662,0.00000459,0.00003339,-0.00006598,-0.00001066,-0.00002097,0.0000
 0531,0.00004364,-0.00000967,-0.00010359,-0.00001056,-0.00004561,0.0189
 4160,0.00042647,0.00384251,-0.07769436,-0.00428194,-0.07403020,0.00979
 549,0.00246738,0.00259205,0.00002770,0.00003665,0.00008370,0.00000077,
 0.00000782,0.00000691,0.00000607,0.00000072,0.00000475,0.00000077,0.00
 000112,-0.00000281,-0.00000528,0.00002468,-0.00002643,0.00003797,-0.00
 000740,-0.00003470,-0.00000808,-0.00001230,0.00001043,0.00000089,-0.00
 000235,-0.00000098,0.00027503,0.00074810,0.00081299,-0.00046467,0.0001
 3034,0.00029476,-0.03059521,-0.00244913,-0.00657321,0.07779795,0.00544
 471,0.07415146,-0.00234573,0.00338967,-0.00006169,-0.00164285,-0.00173
 594,-0.00152535,0.00005344,0.00034251,0.00052505,0.00011433,-0.0000200
 9,-0.00002038,-0.00003187,0.00007497,0.00005505,0.00003510,-0.00002152
 ,-0.00000685,0.00000385,-0.00004271,-0.00002497,-0.00004927,0.00002366
 ,0.00001924,-0.00007970,-0.00011385,-0.00011055,0.00018643,-0.00004845
 ,-0.00004581,0.00007294,0.00002244,-0.00007521,-0.00003858,0.00005271,
 -0.00001811,0.00001117,0.00010035,0.00000015,-0.00106910,-0.00340198,0
 .00123281,0.01041588,-0.00839559,-0.00954323,-0.17111873,0.13214598,0.
 09987621,-0.00004767,0.00003066,0.00009632,0.00002770,0.00000384,-0.00
 001658,-0.00001105,0.00000838,0.00000125,0.00000185,-0.00001457,0.0000
 0212,0.00000703,-0.00001520,0.00000819,0.00000068,-0.00002171,0.000028
 48,-0.00006511,-0.00011457,0.00010580,-0.00003787,0.00000200,0.0000408
 5,0.00002842,0.00011186,-0.00003932,0.00057055,-0.00077162,-0.00047836
 ,0.00036458,0.00047272,0.00000330,0.00008055,-0.00049771,-0.00065528,0
 .17466102,-0.00053799,0.00160139,0.00025392,-0.00070931,-0.00064560,-0
 .00050552,-0.00019107,0.00028348,0.00032417,0.00010131,0.00007575,-0.0
 0001817,0.00011498,-0.00010002,-0.00001679,-0.00009487,0.00003393,0.00
 001173,-0.00005106,0.00005720,0.00001783,-0.00001823,-0.00001902,-0.00
 000503,0.00011719,-0.00008013,-0.00004877,0.00013311,-0.00028169,-0.00
 001851,-0.00057889,-0.00081854,0.00068135,0.00020034,0.00030001,0.0002
 2155,-0.00032725,0.00000829,-0.00015178,-0.00320647,-0.00430404,0.0030
 0623,0.01796903,-0.01933724,-0.01579332,0.13352985,-0.21152521,-0.1163
 7768,-0.00006542,-0.00004087,0.00004203,0.00001833,-0.00000615,-0.0000
 0823,0.00001604,-0.00000709,-0.00000298,0.00000576,0.00000199,-0.00000
 100,-0.00000888,-0.00000534,0.00000738,0.00001001,-0.00000383,-0.00005
 223,-0.00011941,-0.00003441,0.00009157,0.00002755,0.00006428,-0.000012
 74,-0.00017028,0.00000585,0.00002121,0.00098338,-0.00080271,-0.0010115
 3,0.00068571,0.00098534,0.00065009,-0.00035447,0.00125005,-0.00072726,
 -0.14134994,0.22276016,-0.00187639,0.00175323,0.00000446,0.00001817,-0
 .00058279,-0.00079227,-0.00027781,0.00017411,0.00036715,0.00013777,0.0
 0007625,0.00000979,0.00015353,-0.00009896,-0.00001344,-0.00012031,0.00
 003665,0.00000426,-0.00007101,0.00005591,0.00001058,-0.00004451,-0.000
 01237,-0.00003605,-0.00013150,0.00016027,0.00007734,-0.00024152,0.0001
 2320,-0.00001231,0.00046417,0.00097480,-0.00056749,0.00000341,0.000031
 65,-0.00019436,0.00016274,-0.00005878,0.00009286,0.00042001,0.00118093
 ,-0.00015984,-0.00576488,0.00382646,0.00439719,0.10030334,-0.11613282,
 -0.14843412,0.00002957,-0.00004258,0.00000245,0.00001326,-0.00001091,-
 0.00000374,0.00001758,-0.00000910,0.00000411,0.00000720,-0.00000240,-0
 .00000550,-0.00000907,-0.00001269,0.00001856,0.00001619,-0.00001639,0.
 00002262,0.00007675,0.00004158,-0.00003112,-0.00000664,-0.00000120,0.0
 0004342,-0.00002260,0.00019542,0.00007232,-0.00011703,0.00030084,0.000
 29305,-0.00042885,0.00083416,0.00003673,-0.00010180,-0.00031706,0.0000
 6237,-0.10990481,0.12356515,0.14818665,-0.00986810,-0.01727256,-0.0074
 1902,0.01129659,0.01586772,0.01359491,0.00057034,-0.00623703,-0.006361
 69,-0.00190652,-0.00025443,0.00034396,-0.00103732,0.00076223,-0.000019
 55,0.00076590,-0.00026327,-0.00010890,0.00054165,-0.00050929,-0.000120
 11,0.00055261,-0.00026314,0.00019906,-0.00049590,0.00005050,0.00016673
 ,0.00059150,-0.00113176,-0.00045091,-0.00232489,-0.00056734,0.00209576
 ,0.00182206,0.00009298,0.00076302,-0.00169700,0.00075766,-0.00059878,-
 0.00049598,-0.00088014,-0.00140351,-0.01181418,-0.01389995,-0.00233827
 ,-0.30419372,-0.00967137,-0.08786163,0.00081010,0.00037590,-0.00052371
 ,-0.00020076,0.00012098,0.00013859,-0.00010355,0.00006021,0.00003230,-
 0.00005278,0.00003202,0.00000460,0.00000683,0.00024635,-0.00017481,0.0
 0012280,-0.00002479,0.00002696,0.00006028,-0.00016055,0.00012899,-0.00
 015254,-0.00009700,0.00021317,-0.00070655,0.00003129,0.00002854,-0.001
 09464,0.00036781,0.00030364,0.00068896,0.00152616,0.00005199,0.0008681
 5,0.00041092,0.00044032,-0.00994242,0.00004217,-0.00333820,0.32107671,
 -0.00312358,0.00961102,0.00574904,-0.00281975,-0.01481860,-0.01161443,
 -0.00139308,0.00399178,0.00451754,0.00166008,0.00028571,-0.00024445,0.
 00082389,-0.00039472,0.00014650,-0.00063664,0.00015963,0.00007210,-0.0
 0048569,0.00024087,0.00005425,-0.00053615,0.00026269,-0.00011074,-0.00
 007167,-0.00037056,-0.00023462,0.00011921,0.00005198,0.00035342,0.0009
 9456,0.00054625,-0.00058963,-0.00102637,-0.00024017,-0.00089104,0.0002
 2315,0.00023725,0.00035449,0.00049231,0.00120901,-0.00042429,-0.035655
 47,-0.00385026,-0.01129155,-0.01579367,-0.05352898,-0.00939003,-0.0004
 4375,-0.00013159,0.00011177,0.00021009,-0.00006191,-0.00009954,0.00007
 274,-0.00003218,-0.00003432,0.00006229,-0.00007858,-0.00000129,0.00000
 777,-0.00020908,0.00015599,-0.00005456,-0.00002112,-0.00020316,-0.0001
 1748,-0.00036363,0.00032624,-0.00006193,0.00011908,-0.00000769,0.00034
 478,0.00012325,0.00015795,0.00046842,0.00019171,0.00024339,0.00017237,
 0.00090082,0.00031015,-0.00088498,-0.00694666,0.00185817,0.02178257,0.
 00136371,0.01046996,0.02822993,0.06162889,-0.00142043,-0.00014267,-0.0
 0675774,0.00298953,-0.00111019,0.00014660,-0.00054423,-0.00097851,-0.0
 0023082,-0.00023414,0.00010676,0.00019877,0.00013683,-0.00022999,-0.00
 014640,-0.00008915,0.00006700,-0.00001044,0.00002269,0.00013798,0.0000
 3738,0.00010678,-0.00018089,-0.00006919,0.00017389,0.00023928,0.000038
 51,0.00002562,-0.00083915,-0.00038206,-0.00072628,-0.00042317,0.001118
 37,0.00143951,0.00068415,0.00069620,-0.00026349,-0.00005845,-0.0003824
 1,-0.00108374,-0.00055871,-0.00063616,0.00634104,0.00012627,0.00356680
 ,-0.09203654,-0.00701888,-0.09581818,0.00020600,-0.00022462,0.00000175
 ,-0.00002166,-0.00001432,0.00000710,0.00002058,-0.00001719,0.00002427,
 -0.00001744,0.00005168,-0.00001065,-0.00003692,0.00004620,-0.00000697,
 -0.00001801,0.00006476,0.00003915,-0.00000517,0.00010801,-0.00004186,0
 .00011403,0.00002976,0.00013102,-0.00009923,-0.00021295,-0.00009458,0.
 00004313,0.00013119,0.00008168,0.00116829,0.00066998,-0.00004671,0.000
 32221,0.00172904,-0.00000204,0.02138294,0.00372927,0.00841020,0.097336
 70,0.00574145,0.10288306,-0.00169986,0.00050156,0.00192775,0.00094197,
 0.00051985,-0.00102300,-0.00067282,0.00016424,0.00075469,0.00062082,-0
 .00012808,-0.00024263,-0.00022346,0.00054937,0.00033218,0.00010055,-0.
 00013219,-0.00000435,-0.00006297,-0.00041108,-0.00012177,-0.00034108,0
 .00036185,0.00017047,0.00096562,0.00026139,0.00049480,-0.00180687,0.00
 322770,0.00180246,0.00140695,0.00263362,-0.00472688,-0.00570362,-0.001
 47099,-0.00136556,0.00244928,-0.00183994,0.00053744,0.00050242,0.00085
 900,-0.00096155,-0.00124799,-0.00299137,0.01043151,-0.05825273,0.00215
 423,0.00562541,0.00003041,0.00005544,-0.00005467,-0.00001893,0.0000261
 9,-0.00005472,-0.00005102,0.00004138,-0.00002685,0.00003575,-0.0001201
 5,-0.00000326,0.00005078,-0.00010849,0.00007091,0.00019197,-0.00016426
 ,-0.00043341,0.00021839,0.00007963,-0.00034674,-0.00025618,-0.00025741
 ,-0.00000463,0.00021777,-0.00004541,-0.00009180,-0.00030117,0.00024348
 ,0.00017383,-0.00026939,-0.00127573,-0.00020577,-0.00040193,0.00012250
 ,0.00074045,-0.00015559,-0.00617122,0.02063323,0.00631238,0.00744060,-
 0.03523336,0.05742055,-0.00098768,0.00087355,0.00055336,0.00208984,-0.
 00143968,-0.00114723,-0.00087077,0.00036983,0.00079865,0.00073363,-0.0
 0001073,-0.00017347,0.00013110,0.00014184,0.00017547,-0.00015789,-0.00
 001335,0.00002215,-0.00017301,-0.00014818,-0.00003797,-0.00017325,0.00
 020934,0.00021047,0.00213907,-0.00046488,0.00048513,0.00116645,0.00186
 138,0.00074078,0.00180399,-0.00129269,-0.00463299,-0.00378228,-0.00127
 529,-0.00055806,0.00139273,-0.00175395,-0.00022941,0.00064350,0.001199
 04,0.00010526,0.00106263,-0.00506691,0.02948978,0.00135510,-0.08260026
 ,0.06780079,0.00003168,-0.00009182,-0.00007446,-0.00001192,-0.00000531
 ,-0.00003246,0.00000147,0.00000915,-0.00002334,0.00002128,-0.00006294,
 -0.00000646,0.00002885,-0.00011550,0.00008193,0.00006338,-0.00009294,-
 0.00086652,-0.00001236,0.00005529,-0.00018525,0.00008615,-0.00015783,-
 0.00009449,-0.00007257,-0.00043875,-0.00059429,-0.00030686,0.00037019,
 -0.00013563,-0.00225083,-0.00495315,-0.00001492,-0.00008471,0.00129633
 ,-0.00030166,-0.00199883,0.00922046,-0.02650254,0.00225780,0.00012440,
 -0.00165311,-0.00412571,0.08425336,0.00233800,-0.00318436,-0.00170629,
 -0.00214477,0.00242038,0.00340039,0.00179054,-0.00074625,-0.00215564,-
 0.00124797,-0.00001234,0.00034676,0.00003566,-0.00051823,-0.00038635,0
 .00011233,0.00009837,-0.00004718,0.00023578,0.00044122,0.00009052,0.00
 039429,-0.00064662,-0.00005990,-0.00176807,-0.00054959,-0.00064830,0.0
 0277212,-0.00417861,-0.00313760,-0.00551133,-0.00730604,0.00286437,0.0
 0448147,0.00386342,0.00350347,-0.00575043,0.00217172,-0.00116668,-0.00
 021540,0.00042338,0.00195868,0.00220573,0.00748311,0.00641571,0.007948
 46,0.06072844,-0.32134338,0.00000595,0.00002740,0.00022215,0.00001271,
 -0.00001667,0.00009047,0.00004333,-0.00004241,0.00005904,-0.00002108,0
 .00014512,-0.00000506,-0.00008050,0.00025886,-0.00016318,0.00011221,-0
 .00000460,0.00050489,-0.00044700,-0.00059702,0.00068245,0.00003979,0.0
 0061785,-0.00004433,-0.00013210,-0.00021902,-0.00047951,0.00028336,-0.
 00037746,-0.00055090,-0.00067882,-0.00301292,0.00139157,-0.00001870,-0
 .00071007,0.00032082,-0.00085126,0.00212807,-0.01186584,-0.00515014,0.
 00451438,-0.01274466,0.00120583,-0.06319951,0.33465351\\-0.00000631,0.
 00000213,0.00000292,-0.00000497,-0.00000146,-0.00000163,0.00000117,0.0
 0000691,-0.00000035,0.00000571,-0.00000274,-0.00000840,0.00000365,-0.0
 0000137,0.00000037,-0.00000232,0.00000072,0.00000043,-0.00000097,0.000
 00051,0.00000047,0.00000086,0.00000398,0.00000444,0.00000146,0.0000000
 6,0.00000611,-0.00000264,-0.00000215,-0.00000317,-0.00000089,-0.000000
 57,0.00000096,0.00000232,0.00000234,-0.00000107,0.00000106,-0.00000094
 ,-0.00000220,0.00000062,-0.00000120,0.00000300,-0.00000206,0.00000291,
 -0.00000103,-0.00000603,-0.00000225,-0.00000422,-0.00000259,-0.0000043
 2,-0.00000064,0.00000165,-0.00000089,-0.00000084,0.00000170,-0.0000010
 8,-0.00000029,0.00000026,-0.00000087,0.00000011,0.00000081,0.00000079,
 -0.00000200,0.00000051,0.00000049,0.00000226,0.00000046,0.00000032,0.0
 0000007,-0.00000020,-0.00000046,0.00000068,0.00000107,-0.00000058,-0.0
 0000115,0.,0.00000011,-0.00000078,0.00000088,0.00000063,-0.00000041,-0
 .00000002,-0.00000037,0.00000076,-0.00000080,0.00000089,-0.00000122,0.
 00000843,-0.00000135,0.00000435,-0.00000282,-0.00000020,0.00000249\\\@


 WE SHOULD BE CAREFUL TO GET OUT OF AN EXPERIENCE ONLY THE WISDOM
 THAT IS IN IT -- AND STOP THERE;
 LEST WE BE LIKE THE CAT THAT SITS DOWN ON A HOT STOVE-LID.
 SHE WILL NEVER SIT DOWN ON A HOT STOVE LID AGAIN;
 BUT ALSO SHE WILL NEVER SIT DOWN ON A COLD ONE ANY MORE.

                                                     -- MARK TWAIN
 Job cpu time:       0 days  5 hours 29 minutes 55.2 seconds.
 File lengths (MBytes):  RWF=    608 Int=      0 D2E=      0 Chk=     18 Scr=      1
 Normal termination of Gaussian 09 at Thu Jul 29 03:18:25 2021.
