 Entering Gaussian System, Link 0=g09
 Input=opt_freq-conf-628.com
 Output=opt_freq-conf-628.log
 Initial command:
 /aerosol/software/g09/l1.exe "/scratch/nicole/10639/Gau-82742.inp" -scrdir="/scratch/nicole/10639/"
 Entering Link 1 = /aerosol/software/g09/l1.exe PID=     82747.
  
 Copyright (c) 1988,1990,1992,1993,1995,1998,2003,2009,2013,
            Gaussian, Inc.  All Rights Reserved.
  
 This is part of the Gaussian(R) 09 program.  It is based on
 the Gaussian(R) 03 system (copyright 2003, Gaussian, Inc.),
 the Gaussian(R) 98 system (copyright 1998, Gaussian, Inc.),
 the Gaussian(R) 94 system (copyright 1995, Gaussian, Inc.),
 the Gaussian 92(TM) system (copyright 1992, Gaussian, Inc.),
 the Gaussian 90(TM) system (copyright 1990, Gaussian, Inc.),
 the Gaussian 88(TM) system (copyright 1988, Gaussian, Inc.),
 the Gaussian 86(TM) system (copyright 1986, Carnegie Mellon
 University), and the Gaussian 82(TM) system (copyright 1983,
 Carnegie Mellon University). Gaussian is a federally registered
 trademark of Gaussian, Inc.
  
 This software contains proprietary and confidential information,
 including trade secrets, belonging to Gaussian, Inc.
  
 This software is provided under written license and may be
 used, copied, transmitted, or stored only in accord with that
 written license.
  
 The following legend is applicable only to US Government
 contracts under FAR:
  
                    RESTRICTED RIGHTS LEGEND
  
 Use, reproduction and disclosure by the US Government is
 subject to restrictions as set forth in subparagraphs (a)
 and (c) of the Commercial Computer Software - Restricted
 Rights clause in FAR 52.227-19.
  
 Gaussian, Inc.
 340 Quinnipiac St., Bldg. 40, Wallingford CT 06492
  
  
 ---------------------------------------------------------------
 Warning -- This program may not be used in any manner that
 competes with the business of Gaussian, Inc. or will provide
 assistance to any competitor of Gaussian, Inc.  The licensee
 of this program is prohibited from giving any competitor of
 Gaussian, Inc. access to this program.  By using this program,
 the user acknowledges that Gaussian, Inc. is engaged in the
 business of creating and licensing software in the field of
 computational chemistry and represents and warrants to the
 licensee that it is not a competitor of Gaussian, Inc. and that
 it will not use this program in any manner prohibited above.
 ---------------------------------------------------------------
  

 Cite this work as:
 Gaussian 09, Revision D.01,
 M. J. Frisch, G. W. Trucks, H. B. Schlegel, G. E. Scuseria, 
 M. A. Robb, J. R. Cheeseman, G. Scalmani, V. Barone, B. Mennucci, 
 G. A. Petersson, H. Nakatsuji, M. Caricato, X. Li, H. P. Hratchian, 
 A. F. Izmaylov, J. Bloino, G. Zheng, J. L. Sonnenberg, M. Hada, 
 M. Ehara, K. Toyota, R. Fukuda, J. Hasegawa, M. Ishida, T. Nakajima, 
 Y. Honda, O. Kitao, H. Nakai, T. Vreven, J. A. Montgomery, Jr., 
 J. E. Peralta, F. Ogliaro, M. Bearpark, J. J. Heyd, E. Brothers, 
 K. N. Kudin, V. N. Staroverov, T. Keith, R. Kobayashi, J. Normand, 
 K. Raghavachari, A. Rendell, J. C. Burant, S. S. Iyengar, J. Tomasi, 
 M. Cossi, N. Rega, J. M. Millam, M. Klene, J. E. Knox, J. B. Cross, 
 V. Bakken, C. Adamo, J. Jaramillo, R. Gomperts, R. E. Stratmann, 
 O. Yazyev, A. J. Austin, R. Cammi, C. Pomelli, J. W. Ochterski, 
 R. L. Martin, K. Morokuma, V. G. Zakrzewski, G. A. Voth, 
 P. Salvador, J. J. Dannenberg, S. Dapprich, A. D. Daniels, 
 O. Farkas, J. B. Foresman, J. V. Ortiz, J. Cioslowski, 
 and D. J. Fox, Gaussian, Inc., Wallingford CT, 2013.
 
 ******************************************
 Gaussian 09:  ES64L-G09RevD.01 24-Apr-2013
                28-Jul-2021 
 ******************************************
 %mem=2gb
 %nproc=4
 Will use up to    4 processors via shared memory.
 %chk=conf-628.chk
 ----------------------------------------------------------------------
 # B3LYP/6-311++G(d,p) opt=calcfc freq=noraman nosymm integral(ultrafin
 egrid)
 ----------------------------------------------------------------------
 1/10=4,14=-1,18=20,19=15,26=4,38=1/1,3;
 2/9=110,12=2,15=1,17=6,18=5,40=1/2;
 3/5=4,6=6,7=1111,11=2,16=1,25=1,30=1,71=2,74=-5,75=-5,140=1/1,2,3;
 4//1;
 5/5=2,38=5/2;
 8/6=4,10=90,11=11/1;
 11/6=1,8=1,9=11,15=111,16=1,31=1/1,2,10;
 10/6=1,13=1,31=1/2;
 6/7=2,8=2,9=2,10=2,28=1/1;
 7/10=1,18=20,25=1,30=1/1,2,3,16;
 1/10=4,14=-1,18=20,19=15,26=4/3(2);
 2/9=110,15=1/2;
 99//99;
 2/9=110,15=1/2;
 3/5=4,6=6,7=1111,11=2,16=1,25=1,30=1,71=1,74=-5,75=-5/1,2,3;
 4/5=5,16=3,69=1/1;
 5/5=2,38=5/2;
 7/30=1/1,2,3,16;
 1/14=-1,18=20,19=15,26=4/3(-5);
 2/9=110,15=1/2;
 6/7=2,8=2,9=2,10=2,19=2,28=1/1;
 99/9=1/99;
 ------------------------------------------------------------
 Candidate Structure: Conf:628 OPT and FREQ calc in gas phase
 ------------------------------------------------------------
 Symbolic Z-matrix:
 Charge =  1 Multiplicity = 1
 O                    -1.23346   0.12207  -0.84287 
 C                    -1.46356  -0.06705   0.34931 
 N                    -0.46101  -0.24379   1.22995 
 C                     0.90694  -0.33709   0.75078 
 C                     1.71594  -0.95986   1.86883 
 O                     3.00756  -1.162     1.5238 
 O                     1.28005  -1.2415    2.95329 
 C                     1.44827   1.05177   0.32468 
 C                     2.3268    0.99156  -0.87917 
 C                     2.2344    1.60899  -2.09359 
 N                     3.28424   1.23058  -2.91301 
 C                     3.98976   0.38949  -2.19678 
 N                     3.44646   0.20531  -0.96361 
 C                    -2.87106  -0.07869   0.92827 
 C                    -3.8502   -0.83512   0.0418 
 N                    -3.94724  -0.19776  -1.29196 
 H                    -0.63042  -0.51316   2.1862 
 H                     0.91497  -1.01819  -0.10778 
 H                     3.43321  -1.56793   2.29421 
 H                     0.60119   1.68663   0.07355 
 H                     1.95518   1.52679   1.16546 
 H                     1.47839   2.30342  -2.43091 
 H                     4.89002  -0.11398  -2.50001 
 H                     3.77118  -0.40044  -0.22689 
 H                    -2.85146  -0.51082   1.9302 
 H                    -3.19337   0.96164   1.02586 
 H                    -3.51778  -1.86885  -0.07297 
 H                    -4.83409  -0.86052   0.51303 
 H                    -4.44019   0.69304  -1.23969 
 H                    -2.9845    0.00017  -1.59919 
 H                    -4.40624  -0.79443  -1.97939 
 

 GradGradGradGradGradGradGradGradGradGradGradGradGradGradGradGradGradGrad
 Berny optimization.
 Initialization pass.
                           ----------------------------
                           !    Initial Parameters    !
                           ! (Angstroms and Degrees)  !
 --------------------------                            --------------------------
 ! Name  Definition              Value          Derivative Info.                !
 --------------------------------------------------------------------------------
 ! R1    R(1,2)                  1.2288         calculate D2E/DX2 analytically  !
 ! R2    R(2,3)                  1.3461         calculate D2E/DX2 analytically  !
 ! R3    R(2,14)                 1.522          calculate D2E/DX2 analytically  !
 ! R4    R(3,4)                  1.4524         calculate D2E/DX2 analytically  !
 ! R5    R(3,17)                 1.0078         calculate D2E/DX2 analytically  !
 ! R6    R(4,5)                  1.514          calculate D2E/DX2 analytically  !
 ! R7    R(4,8)                  1.5503         calculate D2E/DX2 analytically  !
 ! R8    R(4,18)                 1.0959         calculate D2E/DX2 analytically  !
 ! R9    R(5,6)                  1.3521         calculate D2E/DX2 analytically  !
 ! R10   R(5,7)                  1.2022         calculate D2E/DX2 analytically  !
 ! R11   R(6,19)                 0.9693         calculate D2E/DX2 analytically  !
 ! R12   R(8,9)                  1.4915         calculate D2E/DX2 analytically  !
 ! R13   R(8,20)                 1.088          calculate D2E/DX2 analytically  !
 ! R14   R(8,21)                 1.0906         calculate D2E/DX2 analytically  !
 ! R15   R(9,10)                 1.3655         calculate D2E/DX2 analytically  !
 ! R16   R(9,13)                 1.3708         calculate D2E/DX2 analytically  !
 ! R17   R(10,11)                1.3845         calculate D2E/DX2 analytically  !
 ! R18   R(10,22)                1.0805         calculate D2E/DX2 analytically  !
 ! R19   R(11,12)                1.3108         calculate D2E/DX2 analytically  !
 ! R20   R(12,13)                1.3601         calculate D2E/DX2 analytically  !
 ! R21   R(12,23)                1.0751         calculate D2E/DX2 analytically  !
 ! R22   R(13,24)                1.0075         calculate D2E/DX2 analytically  !
 ! R23   R(14,15)                1.5221         calculate D2E/DX2 analytically  !
 ! R24   R(14,25)                1.0913         calculate D2E/DX2 analytically  !
 ! R25   R(14,26)                1.0935         calculate D2E/DX2 analytically  !
 ! R26   R(15,16)                1.4814         calculate D2E/DX2 analytically  !
 ! R27   R(15,27)                1.0919         calculate D2E/DX2 analytically  !
 ! R28   R(15,28)                1.0912         calculate D2E/DX2 analytically  !
 ! R29   R(16,29)                1.0194         calculate D2E/DX2 analytically  !
 ! R30   R(16,30)                1.0298         calculate D2E/DX2 analytically  !
 ! R31   R(16,31)                1.0194         calculate D2E/DX2 analytically  !
 ! A1    A(1,2,3)              121.0287         calculate D2E/DX2 analytically  !
 ! A2    A(1,2,14)             122.9159         calculate D2E/DX2 analytically  !
 ! A3    A(3,2,14)             116.0343         calculate D2E/DX2 analytically  !
 ! A4    A(2,3,4)              119.6091         calculate D2E/DX2 analytically  !
 ! A5    A(2,3,17)             122.0502         calculate D2E/DX2 analytically  !
 ! A6    A(4,3,17)             117.0118         calculate D2E/DX2 analytically  !
 ! A7    A(3,4,5)              106.6215         calculate D2E/DX2 analytically  !
 ! A8    A(3,4,8)              111.2221         calculate D2E/DX2 analytically  !
 ! A9    A(3,4,18)             107.7743         calculate D2E/DX2 analytically  !
 ! A10   A(5,4,8)              112.6361         calculate D2E/DX2 analytically  !
 ! A11   A(5,4,18)             108.6            calculate D2E/DX2 analytically  !
 ! A12   A(8,4,18)             109.8079         calculate D2E/DX2 analytically  !
 ! A13   A(4,5,6)              112.5496         calculate D2E/DX2 analytically  !
 ! A14   A(4,5,7)              124.6622         calculate D2E/DX2 analytically  !
 ! A15   A(6,5,7)              122.786          calculate D2E/DX2 analytically  !
 ! A16   A(5,6,19)             106.2178         calculate D2E/DX2 analytically  !
 ! A17   A(4,8,9)              113.0376         calculate D2E/DX2 analytically  !
 ! A18   A(4,8,20)             108.3203         calculate D2E/DX2 analytically  !
 ! A19   A(4,8,21)             109.9119         calculate D2E/DX2 analytically  !
 ! A20   A(9,8,20)             107.2092         calculate D2E/DX2 analytically  !
 ! A21   A(9,8,21)             111.4708         calculate D2E/DX2 analytically  !
 ! A22   A(20,8,21)            106.5992         calculate D2E/DX2 analytically  !
 ! A23   A(8,9,10)             131.2776         calculate D2E/DX2 analytically  !
 ! A24   A(8,9,13)             123.6415         calculate D2E/DX2 analytically  !
 ! A25   A(10,9,13)            105.0607         calculate D2E/DX2 analytically  !
 ! A26   A(9,10,11)            110.5777         calculate D2E/DX2 analytically  !
 ! A27   A(9,10,22)            127.9938         calculate D2E/DX2 analytically  !
 ! A28   A(11,10,22)           121.4286         calculate D2E/DX2 analytically  !
 ! A29   A(10,11,12)           105.0775         calculate D2E/DX2 analytically  !
 ! A30   A(11,12,13)           111.5502         calculate D2E/DX2 analytically  !
 ! A31   A(11,12,23)           126.6602         calculate D2E/DX2 analytically  !
 ! A32   A(13,12,23)           121.7894         calculate D2E/DX2 analytically  !
 ! A33   A(9,13,12)            107.7261         calculate D2E/DX2 analytically  !
 ! A34   A(9,13,24)            124.2674         calculate D2E/DX2 analytically  !
 ! A35   A(12,13,24)           128.0001         calculate D2E/DX2 analytically  !
 ! A36   A(2,14,15)            112.158          calculate D2E/DX2 analytically  !
 ! A37   A(2,14,25)            109.6131         calculate D2E/DX2 analytically  !
 ! A38   A(2,14,26)            107.4131         calculate D2E/DX2 analytically  !
 ! A39   A(15,14,25)           110.4549         calculate D2E/DX2 analytically  !
 ! A40   A(15,14,26)           109.5831         calculate D2E/DX2 analytically  !
 ! A41   A(25,14,26)           107.4625         calculate D2E/DX2 analytically  !
 ! A42   A(14,15,16)           110.6517         calculate D2E/DX2 analytically  !
 ! A43   A(14,15,27)           109.625          calculate D2E/DX2 analytically  !
 ! A44   A(14,15,28)           109.8824         calculate D2E/DX2 analytically  !
 ! A45   A(16,15,27)           109.4274         calculate D2E/DX2 analytically  !
 ! A46   A(16,15,28)           109.862          calculate D2E/DX2 analytically  !
 ! A47   A(27,15,28)           107.3284         calculate D2E/DX2 analytically  !
 ! A48   A(15,16,29)           111.1897         calculate D2E/DX2 analytically  !
 ! A49   A(15,16,30)           106.8621         calculate D2E/DX2 analytically  !
 ! A50   A(15,16,31)           112.6314         calculate D2E/DX2 analytically  !
 ! A51   A(29,16,30)           107.4223         calculate D2E/DX2 analytically  !
 ! A52   A(29,16,31)           109.1651         calculate D2E/DX2 analytically  !
 ! A53   A(30,16,31)           109.4057         calculate D2E/DX2 analytically  !
 ! D1    D(1,2,3,4)             -5.7833         calculate D2E/DX2 analytically  !
 ! D2    D(1,2,3,17)          -172.2233         calculate D2E/DX2 analytically  !
 ! D3    D(14,2,3,4)           175.8395         calculate D2E/DX2 analytically  !
 ! D4    D(14,2,3,17)            9.3995         calculate D2E/DX2 analytically  !
 ! D5    D(1,2,14,15)           42.5179         calculate D2E/DX2 analytically  !
 ! D6    D(1,2,14,25)          165.59           calculate D2E/DX2 analytically  !
 ! D7    D(1,2,14,26)          -77.9467         calculate D2E/DX2 analytically  !
 ! D8    D(3,2,14,15)         -139.1387         calculate D2E/DX2 analytically  !
 ! D9    D(3,2,14,25)          -16.0665         calculate D2E/DX2 analytically  !
 ! D10   D(3,2,14,26)          100.3967         calculate D2E/DX2 analytically  !
 ! D11   D(2,3,4,5)           -162.3258         calculate D2E/DX2 analytically  !
 ! D12   D(2,3,4,8)             74.5263         calculate D2E/DX2 analytically  !
 ! D13   D(2,3,4,18)           -45.8863         calculate D2E/DX2 analytically  !
 ! D14   D(17,3,4,5)             4.7854         calculate D2E/DX2 analytically  !
 ! D15   D(17,3,4,8)          -118.3625         calculate D2E/DX2 analytically  !
 ! D16   D(17,3,4,18)          121.2248         calculate D2E/DX2 analytically  !
 ! D17   D(3,4,5,6)            177.0537         calculate D2E/DX2 analytically  !
 ! D18   D(3,4,5,7)             -3.4817         calculate D2E/DX2 analytically  !
 ! D19   D(8,4,5,6)            -60.685          calculate D2E/DX2 analytically  !
 ! D20   D(8,4,5,7)            118.7796         calculate D2E/DX2 analytically  !
 ! D21   D(18,4,5,6)            61.1665         calculate D2E/DX2 analytically  !
 ! D22   D(18,4,5,7)          -119.3689         calculate D2E/DX2 analytically  !
 ! D23   D(3,4,8,9)           -142.6518         calculate D2E/DX2 analytically  !
 ! D24   D(3,4,8,20)           -24.0009         calculate D2E/DX2 analytically  !
 ! D25   D(3,4,8,21)            92.103          calculate D2E/DX2 analytically  !
 ! D26   D(5,4,8,9)             97.7181         calculate D2E/DX2 analytically  !
 ! D27   D(5,4,8,20)          -143.631          calculate D2E/DX2 analytically  !
 ! D28   D(5,4,8,21)           -27.5271         calculate D2E/DX2 analytically  !
 ! D29   D(18,4,8,9)           -23.4471         calculate D2E/DX2 analytically  !
 ! D30   D(18,4,8,20)           95.2039         calculate D2E/DX2 analytically  !
 ! D31   D(18,4,8,21)         -148.6922         calculate D2E/DX2 analytically  !
 ! D32   D(4,5,6,19)          -179.4098         calculate D2E/DX2 analytically  !
 ! D33   D(7,5,6,19)             1.114          calculate D2E/DX2 analytically  !
 ! D34   D(4,8,9,10)           122.1202         calculate D2E/DX2 analytically  !
 ! D35   D(4,8,9,13)           -55.9913         calculate D2E/DX2 analytically  !
 ! D36   D(20,8,9,10)            2.8264         calculate D2E/DX2 analytically  !
 ! D37   D(20,8,9,13)         -175.2851         calculate D2E/DX2 analytically  !
 ! D38   D(21,8,9,10)         -113.4811         calculate D2E/DX2 analytically  !
 ! D39   D(21,8,9,13)           68.4074         calculate D2E/DX2 analytically  !
 ! D40   D(8,9,10,11)         -179.1727         calculate D2E/DX2 analytically  !
 ! D41   D(8,9,10,22)            0.8717         calculate D2E/DX2 analytically  !
 ! D42   D(13,9,10,11)          -0.8008         calculate D2E/DX2 analytically  !
 ! D43   D(13,9,10,22)         179.2437         calculate D2E/DX2 analytically  !
 ! D44   D(8,9,13,12)          179.4127         calculate D2E/DX2 analytically  !
 ! D45   D(8,9,13,24)            0.2674         calculate D2E/DX2 analytically  !
 ! D46   D(10,9,13,12)           0.8823         calculate D2E/DX2 analytically  !
 ! D47   D(10,9,13,24)        -178.263          calculate D2E/DX2 analytically  !
 ! D48   D(9,10,11,12)           0.4004         calculate D2E/DX2 analytically  !
 ! D49   D(22,10,11,12)       -179.6406         calculate D2E/DX2 analytically  !
 ! D50   D(10,11,12,13)          0.1804         calculate D2E/DX2 analytically  !
 ! D51   D(10,11,12,23)       -179.6957         calculate D2E/DX2 analytically  !
 ! D52   D(11,12,13,9)          -0.6868         calculate D2E/DX2 analytically  !
 ! D53   D(11,12,13,24)        178.4169         calculate D2E/DX2 analytically  !
 ! D54   D(23,12,13,9)         179.1963         calculate D2E/DX2 analytically  !
 ! D55   D(23,12,13,24)         -1.7            calculate D2E/DX2 analytically  !
 ! D56   D(2,14,15,16)         -61.1453         calculate D2E/DX2 analytically  !
 ! D57   D(2,14,15,27)          59.6366         calculate D2E/DX2 analytically  !
 ! D58   D(2,14,15,28)         177.3607         calculate D2E/DX2 analytically  !
 ! D59   D(25,14,15,16)        176.2583         calculate D2E/DX2 analytically  !
 ! D60   D(25,14,15,27)        -62.9598         calculate D2E/DX2 analytically  !
 ! D61   D(25,14,15,28)         54.7643         calculate D2E/DX2 analytically  !
 ! D62   D(26,14,15,16)         58.0532         calculate D2E/DX2 analytically  !
 ! D63   D(26,14,15,27)        178.835          calculate D2E/DX2 analytically  !
 ! D64   D(26,14,15,28)        -63.4408         calculate D2E/DX2 analytically  !
 ! D65   D(14,15,16,29)        -71.244          calculate D2E/DX2 analytically  !
 ! D66   D(14,15,16,30)         45.6958         calculate D2E/DX2 analytically  !
 ! D67   D(14,15,16,31)        165.8619         calculate D2E/DX2 analytically  !
 ! D68   D(27,15,16,29)        167.8569         calculate D2E/DX2 analytically  !
 ! D69   D(27,15,16,30)        -75.2034         calculate D2E/DX2 analytically  !
 ! D70   D(27,15,16,31)         44.9627         calculate D2E/DX2 analytically  !
 ! D71   D(28,15,16,29)         50.2621         calculate D2E/DX2 analytically  !
 ! D72   D(28,15,16,30)        167.2018         calculate D2E/DX2 analytically  !
 ! D73   D(28,15,16,31)        -72.632          calculate D2E/DX2 analytically  !
 --------------------------------------------------------------------------------
 Trust Radius=3.00D-01 FncErr=1.00D-07 GrdErr=1.00D-06
 Number of steps in this run=    167 maximum allowed number of steps=    186.
 GradGradGradGradGradGradGradGradGradGradGradGradGradGradGradGradGradGrad

                          Input orientation:                          
 ---------------------------------------------------------------------
 Center     Atomic      Atomic             Coordinates (Angstroms)
 Number     Number       Type             X           Y           Z
 ---------------------------------------------------------------------
      1          8           0       -1.233463    0.122074   -0.842866
      2          6           0       -1.463560   -0.067049    0.349309
      3          7           0       -0.461006   -0.243787    1.229948
      4          6           0        0.906943   -0.337087    0.750784
      5          6           0        1.715938   -0.959856    1.868830
      6          8           0        3.007560   -1.161999    1.523802
      7          8           0        1.280047   -1.241497    2.953289
      8          6           0        1.448272    1.051775    0.324677
      9          6           0        2.326805    0.991563   -0.879167
     10          6           0        2.234402    1.608991   -2.093590
     11          7           0        3.284242    1.230580   -2.913009
     12          6           0        3.989758    0.389487   -2.196781
     13          7           0        3.446464    0.205306   -0.963613
     14          6           0       -2.871056   -0.078694    0.928273
     15          6           0       -3.850202   -0.835119    0.041802
     16          7           0       -3.947238   -0.197765   -1.291964
     17          1           0       -0.630415   -0.513162    2.186204
     18          1           0        0.914972   -1.018186   -0.107783
     19          1           0        3.433214   -1.567928    2.294215
     20          1           0        0.601188    1.686628    0.073553
     21          1           0        1.955185    1.526786    1.165459
     22          1           0        1.478392    2.303420   -2.430909
     23          1           0        4.890020   -0.113984   -2.500014
     24          1           0        3.771180   -0.400440   -0.226888
     25          1           0       -2.851456   -0.510823    1.930199
     26          1           0       -3.193370    0.961642    1.025863
     27          1           0       -3.517783   -1.868848   -0.072974
     28          1           0       -4.834088   -0.860524    0.513026
     29          1           0       -4.440189    0.693039   -1.239695
     30          1           0       -2.984500    0.000168   -1.599192
     31          1           0       -4.406235   -0.794427   -1.979392
 ---------------------------------------------------------------------
                    Distance matrix (angstroms):
                    1          2          3          4          5
     1  O    0.000000
     2  C    1.228818   0.000000
     3  N    2.242121   1.346060   0.000000
     4  C    2.707746   2.419378   1.452442   0.000000
     5  C    4.150040   3.635280   2.379077   1.514048   0.000000
     6  O    5.023568   4.750712   3.600057   2.385504   1.352107
     7  O    4.752668   3.960736   2.645108   2.410020   1.202238
     8  C    3.069071   3.119477   2.478576   1.550336   2.550041
     9  C    3.665083   4.122703   3.707606   2.537333   3.425300
    10  C    3.975087   4.738332   4.663038   3.693214   4.750637
    11  N    5.091555   5.904929   5.776221   4.640313   5.488494
    12  C    5.402465   6.035700   5.652681   4.326638   4.849760
    13  N    4.682224   5.089821   4.503523   3.111674   3.517819
    14  C    2.420527   1.521965   2.434462   3.790982   4.764620
    15  C    2.923385   2.525975   3.639782   4.835403   5.859651
    16  N    2.769217   2.979852   4.303019   5.268330   6.530158
    17  H    3.153167   2.065752   1.007813   2.110665   2.409489
    18  H    2.540927   2.602117   2.069428   1.095946   2.133529
    19  H    5.871563   5.478476   4.248642   3.206118   1.870759
    20  H    2.579457   2.722978   2.488375   2.155818   3.386674
    21  H    4.021699   3.859304   2.996175   2.178253   2.595256
    22  H    3.825481   4.690822   4.863271   4.173967   5.403068
    23  H    6.348141   6.963392   6.524028   5.146102   5.465994
    24  H    5.069408   5.276898   4.478650   3.027161   2.988143
    25  H    3.272362   2.149978   2.505177   3.942939   4.589824
    26  H    2.835183   2.123245   2.993413   4.309864   5.338918
    27  H    3.126439   2.764893   3.698961   4.754268   5.655855
    28  H    3.970950   3.466535   4.474169   5.769745   6.689612
    29  H    3.281245   3.458754   4.776053   5.797843   7.091748
    30  H    1.911288   2.472737   3.798891   4.558449   5.919708
    31  H    3.492585   3.822468   5.115457   5.991067   7.233062
                    6          7          8          9         10
     6  O    0.000000
     7  O    2.243669   0.000000
     8  C    2.961431   3.492421   0.000000
     9  C    3.297805   4.557410   1.491538   0.000000
    10  C    4.621871   5.874272   2.603172   1.365496   0.000000
    11  N    5.048394   6.673936   3.726307   2.260603   1.384487
    12  C    4.149044   6.043663   3.640814   2.205451   2.139886
    13  N    2.872176   4.704118   2.523682   1.370754   2.171699
    14  C    6.007190   4.762821   4.505428   5.606250   6.168115
    15  C    7.023680   5.912813   5.631537   6.506947   6.896085
    16  N    7.564886   6.814401   5.769437   6.399102   6.489965
    17  H    3.754281   2.183749   3.199258   4.517283   5.570220
    18  H    2.657382   3.090843   2.180863   2.574372   3.547730
    19  H    0.969276   2.275316   3.831699   4.224392   5.548225
    20  H    4.001065   4.162649   1.087958   2.090106   2.714761
    21  H    2.909548   3.363858   1.090647   2.145941   3.272021
    22  H    5.476059   6.449447   3.026677   2.201971   1.080540
    23  H    4.564328   6.636392   4.602554   3.227917   3.191572
    24  H    2.056211   4.126336   2.794468   2.109350   3.143895
    25  H    5.909082   4.318555   4.848409   6.079809   6.822789
    26  H    6.573380   5.346051   4.695170   5.839723   6.293708
    27  H    6.754955   5.707102   5.774934   6.556760   7.018966
    28  H    7.912269   6.594140   6.569658   7.526407   7.928209
    29  H    8.157637   7.351507   6.103271   6.783163   6.791044
    30  H    6.856275   6.360282   4.945362   5.450803   5.483582
    31  H    8.208035   7.540890   6.556862   7.052239   7.063110
                   11         12         13         14         15
    11  N    0.000000
    12  C    1.310791   0.000000
    13  N    2.208539   1.360071   0.000000
    14  C    7.372743   7.553537   6.600829   0.000000
    15  C    7.993642   8.244749   7.438728   1.522083   0.000000
    16  N    7.547334   8.009960   7.411957   2.470182   1.481407
    17  H    6.660867   6.432055   5.201778   2.606074   3.881899
    18  H    4.305773   3.974891   2.939018   4.036095   4.771035
    19  H    5.913461   4.930543   3.709175   6.620229   7.658885
    20  H    4.040583   4.280117   3.371294   3.987905   5.116160
    21  H    4.299771   4.091160   2.916020   5.091800   6.367395
    22  H    2.155110   3.166214   3.229295   5.989680   6.660228
    23  H    2.134699   1.075130   2.132212   8.484615   9.130846
    24  H    3.180028   2.133598   1.007538   6.749608   7.638495
    25  H    8.008491   8.040194   6.967839   1.091319   2.160719
    26  H    7.585940   7.893676   6.972622   1.093485   2.151315
    27  H    7.996236   8.122425   7.320934   2.150675   1.091912
    28  H    9.056363   9.314818   8.478443   2.153412   1.091205
    29  H    7.921853   8.489532   7.906541   2.785289   2.079804
    30  H    6.522051   7.010631   6.465550   2.531239   2.034701
    31  H    8.007230   8.481840   7.980987   3.365050   2.096677
                   16         17         18         19         20
    16  N    0.000000
    17  H    4.816476   0.000000
    18  H    5.071140   2.811699   0.000000
    19  H    8.319200   4.199676   3.523259   0.000000
    20  H    5.109184   3.289258   2.728985   4.852200   0.000000
    21  H    6.622054   3.447990   3.029863   3.610528   1.746744
    22  H    6.081988   5.804992   4.092361   6.413693   2.724381
    23  H    8.919839   7.252254   4.726664   5.217362   5.315969
    24  H    7.794192   5.020932   2.924674   2.798787   3.807225
    25  H    3.417760   2.235747   4.312397   6.383341   4.494071
    26  H    2.699049   3.176503   4.699292   7.205488   3.978840
    27  H    2.112555   3.908793   4.513774   7.349183   5.443235
    28  H    2.117485   4.537736   5.784631   8.486539   6.018584
    29  H    1.019443   5.263656   5.734742   8.921377   5.303520
    30  H    1.029773   4.487142   4.297351   7.668415   4.301091
    31  H    1.019432   5.629220   5.645196   8.962086   5.953529
                   21         22         23         24         25
    21  H    0.000000
    22  H    3.710034   0.000000
    23  H    4.974040   4.181844   0.000000
    24  H    2.991767   4.174379   2.549698   0.000000
    25  H    5.276407   6.759202   8.928309   6.965953   0.000000
    26  H    5.181360   5.964478   8.884254   7.206220   1.761501
    27  H    6.558767   6.923109   8.925313   7.436994   2.510164
    28  H    7.226282   7.650144  10.207546   8.649265   2.462012
    29  H    6.883364   6.248353   9.449470   8.345540   3.744541
    30  H    5.862964   5.090592   7.926700   6.905281   3.568672
    31  H    7.466310   6.665535   9.335652   8.372372   4.216951
                   26         27         28         29         30
    26  H    0.000000
    27  H    3.053582   0.000000
    28  H    2.505045   1.758628   0.000000
    29  H    2.599896   2.962319   2.375024   0.000000
    30  H    2.803386   2.471225   2.936534   1.651768   0.000000
    31  H    3.685971   2.361813   2.529738   1.661583   1.672503
                   31
    31  H    0.000000
 Symmetry turned off by external request.
 Stoichiometry    C9H15N4O3(1+)
 Framework group  C1[X(C9H15N4O3)]
 Deg. of freedom    87
 Full point group                 C1      NOp   1
 Rotational constants (GHZ):      0.7088180      0.3127596      0.2291588
 Standard basis: 6-311++G(d,p) (5D, 7F)
   457 basis functions,   711 primitive gaussians,   473 cartesian basis functions
    60 alpha electrons       60 beta electrons
       nuclear repulsion energy      1138.6918025008 Hartrees.
 NAtoms=   31 NActive=   31 NUniq=   31 SFac= 1.00D+00 NAtFMM=   60 NAOKFM=F Big=F
 Integral buffers will be    131072 words long.
 Raffenetti 2 integral format.
 Two-electron integral symmetry is turned off.
 One-electron integrals computed using PRISM.
 NBasis=   457 RedAO= T EigKep=  2.91D-06  NBF=   457
 NBsUse=   457 1.00D-06 EigRej= -1.00D+00 NBFU=   457
 ExpMin= 3.60D-02 ExpMax= 8.59D+03 ExpMxC= 1.30D+03 IAcc=3 IRadAn=         5 AccDes= 0.00D+00
 Harris functional with IExCor=  402 and IRadAn=       5 diagonalized for initial guess.
 HarFok:  IExCor=  402 AccDes= 0.00D+00 IRadAn=         5 IDoV= 1 UseB2=F ITyADJ=14
 ICtDFT=  3500011 ScaDFX=  1.000000  1.000000  1.000000  1.000000
 FoFCou: FMM=F IPFlag=           0 FMFlag=      100000 FMFlg1=           0
         NFxFlg=           0 DoJE=T BraDBF=F KetDBF=T FulRan=T
         wScrn=  0.000000 ICntrl=     500 IOpCl=  0 I1Cent=   200000004 NGrid=           0
         NMat0=    1 NMatS0=      1 NMatT0=    0 NMatD0=    1 NMtDS0=    0 NMtDT0=    0
 Symmetry not used in FoFCou.
 Requested convergence on RMS density matrix=1.00D-08 within 128 cycles.
 Requested convergence on MAX density matrix=1.00D-06.
 Requested convergence on             energy=1.00D-06.
 No special actions if energy rises.
 SCF Done:  E(RB3LYP) =  -796.704366976     A.U. after   14 cycles
            NFock= 14  Conv=0.97D-08     -V/T= 2.0036
 DoSCS=F DFT=T ScalE2(SS,OS)=  1.000000  1.000000
 Range of M.O.s used for correlation:     1   457
 NBasis=   457 NAE=    60 NBE=    60 NFC=     0 NFV=     0
 NROrb=    457 NOA=    60 NOB=    60 NVA=   397 NVB=   397

 **** Warning!!: The largest alpha MO coefficient is  0.11839628D+03

 Symmetrizing basis deriv contribution to polar:
 IMax=3 JMax=2 DiffMx= 0.00D+00
 G2DrvN: will do    32 centers at a time, making    1 passes.
 Calling FoFCou, ICntrl=  3107 FMM=F I1Cent=   0 AccDes= 0.00D+00.
 End of G2Drv F.D. properties file   721 does not exist.
 End of G2Drv F.D. properties file   722 does not exist.
 End of G2Drv F.D. properties file   788 does not exist.
          IDoAtm=1111111111111111111111111111111
          Differentiating once with respect to nuclear coordinates.
          There are    96 degrees of freedom in the 1st order CPHF.  IDoFFX=6 NUNeed=     0.
     90 vectors produced by pass  0 Test12= 2.48D-14 1.04D-09 XBig12= 2.07D-01 8.85D-02.
 AX will form    90 AO Fock derivatives at one time.
     90 vectors produced by pass  1 Test12= 2.48D-14 1.04D-09 XBig12= 2.53D-02 6.88D-02.
     90 vectors produced by pass  2 Test12= 2.48D-14 1.04D-09 XBig12= 2.64D-04 2.00D-03.
     90 vectors produced by pass  3 Test12= 2.48D-14 1.04D-09 XBig12= 1.35D-06 1.29D-04.
     90 vectors produced by pass  4 Test12= 2.48D-14 1.04D-09 XBig12= 3.31D-09 5.28D-06.
     85 vectors produced by pass  5 Test12= 2.48D-14 1.04D-09 XBig12= 5.34D-12 1.91D-07.
     30 vectors produced by pass  6 Test12= 2.48D-14 1.04D-09 XBig12= 7.27D-15 5.60D-09.
      6 vectors produced by pass  7 Test12= 2.48D-14 1.04D-09 XBig12= 5.10D-16 3.20D-09.
      1 vectors produced by pass  8 Test12= 2.48D-14 1.04D-09 XBig12= 1.53D-16 1.21D-09.
 InvSVY:  IOpt=1 It=  1 EMax= 5.00D-16
 Solved reduced A of dimension   572 with    96 vectors.
 End of Minotr F.D. properties file   721 does not exist.
 End of Minotr F.D. properties file   722 does not exist.
 End of Minotr F.D. properties file   788 does not exist.

 **********************************************************************

            Population analysis using the SCF density.

 **********************************************************************

 Alpha  occ. eigenvalues --  -19.31013 -19.25923 -19.25653 -14.61817 -14.49401
 Alpha  occ. eigenvalues --  -14.44413 -14.36755 -10.44693 -10.43978 -10.41981
 Alpha  occ. eigenvalues --  -10.36607 -10.36414 -10.30244 -10.29888 -10.28816
 Alpha  occ. eigenvalues --  -10.26066  -1.25524  -1.21770  -1.19424  -1.16789
 Alpha  occ. eigenvalues --   -1.10029  -1.08771  -0.97699  -0.95379  -0.92417
 Alpha  occ. eigenvalues --   -0.86356  -0.84296  -0.78869  -0.78439  -0.77860
 Alpha  occ. eigenvalues --   -0.75907  -0.73536  -0.70159  -0.69812  -0.67907
 Alpha  occ. eigenvalues --   -0.67266  -0.65065  -0.63123  -0.62595  -0.62388
 Alpha  occ. eigenvalues --   -0.60931  -0.59720  -0.58993  -0.57597  -0.56601
 Alpha  occ. eigenvalues --   -0.55829  -0.55144  -0.53015  -0.51943  -0.50829
 Alpha  occ. eigenvalues --   -0.49843  -0.49640  -0.48729  -0.46795  -0.43576
 Alpha  occ. eigenvalues --   -0.42412  -0.42194  -0.36256  -0.34694  -0.31230
 Alpha virt. eigenvalues --   -0.18312  -0.15409  -0.13892  -0.13596  -0.13146
 Alpha virt. eigenvalues --   -0.11629  -0.10387  -0.10239  -0.08913  -0.08068
 Alpha virt. eigenvalues --   -0.07771  -0.07483  -0.07015  -0.06598  -0.05850
 Alpha virt. eigenvalues --   -0.05792  -0.04656  -0.04386  -0.04233  -0.03678
 Alpha virt. eigenvalues --   -0.03164  -0.02830  -0.02432  -0.01958  -0.01785
 Alpha virt. eigenvalues --   -0.01460  -0.00908  -0.00663  -0.00220  -0.00038
 Alpha virt. eigenvalues --    0.00442   0.00602   0.01042   0.01314   0.01985
 Alpha virt. eigenvalues --    0.02222   0.02384   0.02756   0.03034   0.03357
 Alpha virt. eigenvalues --    0.03729   0.03899   0.04254   0.04487   0.04780
 Alpha virt. eigenvalues --    0.05794   0.05958   0.06402   0.06573   0.06782
 Alpha virt. eigenvalues --    0.06972   0.07367   0.07721   0.07907   0.08423
 Alpha virt. eigenvalues --    0.08926   0.09359   0.09628   0.10133   0.10353
 Alpha virt. eigenvalues --    0.10787   0.10983   0.11700   0.12187   0.12507
 Alpha virt. eigenvalues --    0.12817   0.13151   0.13621   0.13660   0.14459
 Alpha virt. eigenvalues --    0.15012   0.15240   0.15831   0.16053   0.16366
 Alpha virt. eigenvalues --    0.17088   0.17114   0.17756   0.18221   0.18510
 Alpha virt. eigenvalues --    0.18894   0.19147   0.20274   0.20361   0.20635
 Alpha virt. eigenvalues --    0.20880   0.21167   0.21461   0.21704   0.22765
 Alpha virt. eigenvalues --    0.22884   0.23308   0.23820   0.24438   0.25118
 Alpha virt. eigenvalues --    0.25727   0.26153   0.26499   0.27328   0.27552
 Alpha virt. eigenvalues --    0.28123   0.28742   0.28924   0.29572   0.30331
 Alpha virt. eigenvalues --    0.31230   0.31943   0.32261   0.33402   0.34252
 Alpha virt. eigenvalues --    0.34987   0.36407   0.37061   0.38318   0.38926
 Alpha virt. eigenvalues --    0.39305   0.40181   0.40520   0.41548   0.42557
 Alpha virt. eigenvalues --    0.43171   0.45413   0.45703   0.47448   0.48430
 Alpha virt. eigenvalues --    0.48917   0.49546   0.50228   0.51668   0.52479
 Alpha virt. eigenvalues --    0.52728   0.53378   0.53928   0.54413   0.55382
 Alpha virt. eigenvalues --    0.55726   0.56209   0.57136   0.57684   0.58530
 Alpha virt. eigenvalues --    0.59197   0.59358   0.59881   0.61307   0.62436
 Alpha virt. eigenvalues --    0.63325   0.63712   0.64251   0.65007   0.65895
 Alpha virt. eigenvalues --    0.66412   0.66938   0.67866   0.68667   0.70074
 Alpha virt. eigenvalues --    0.71382   0.73714   0.74515   0.74980   0.76659
 Alpha virt. eigenvalues --    0.77346   0.79139   0.80516   0.80544   0.81921
 Alpha virt. eigenvalues --    0.84016   0.85073   0.85380   0.86497   0.87527
 Alpha virt. eigenvalues --    0.88921   0.92068   0.92808   0.93713   0.94669
 Alpha virt. eigenvalues --    0.95416   0.97160   0.97394   0.98952   1.00197
 Alpha virt. eigenvalues --    1.01765   1.03091   1.03428   1.04812   1.05503
 Alpha virt. eigenvalues --    1.06910   1.07714   1.09298   1.10630   1.11278
 Alpha virt. eigenvalues --    1.11787   1.12888   1.13760   1.15367   1.16135
 Alpha virt. eigenvalues --    1.16621   1.17963   1.19518   1.21042   1.23777
 Alpha virt. eigenvalues --    1.24930   1.25794   1.27718   1.29640   1.30912
 Alpha virt. eigenvalues --    1.31616   1.33088   1.36225   1.37297   1.37992
 Alpha virt. eigenvalues --    1.38850   1.40799   1.41094   1.42439   1.43798
 Alpha virt. eigenvalues --    1.45283   1.46188   1.47777   1.48801   1.49613
 Alpha virt. eigenvalues --    1.51116   1.53031   1.53290   1.54024   1.55984
 Alpha virt. eigenvalues --    1.56476   1.57541   1.57797   1.59258   1.60137
 Alpha virt. eigenvalues --    1.60673   1.61369   1.62408   1.63111   1.64343
 Alpha virt. eigenvalues --    1.66528   1.67583   1.67871   1.69610   1.70550
 Alpha virt. eigenvalues --    1.71280   1.72710   1.73745   1.75992   1.76360
 Alpha virt. eigenvalues --    1.77731   1.81013   1.81119   1.83710   1.84318
 Alpha virt. eigenvalues --    1.85520   1.88469   1.90998   1.92793   1.93206
 Alpha virt. eigenvalues --    1.94386   1.96373   1.98695   2.00282   2.01791
 Alpha virt. eigenvalues --    2.03081   2.04266   2.04818   2.05866   2.08640
 Alpha virt. eigenvalues --    2.09318   2.11769   2.13700   2.16384   2.18320
 Alpha virt. eigenvalues --    2.18726   2.22382   2.22771   2.26905   2.27683
 Alpha virt. eigenvalues --    2.30350   2.30958   2.33254   2.34523   2.36389
 Alpha virt. eigenvalues --    2.39104   2.41735   2.42865   2.44089   2.45009
 Alpha virt. eigenvalues --    2.47613   2.48823   2.49489   2.50234   2.51772
 Alpha virt. eigenvalues --    2.52437   2.53112   2.54072   2.55268   2.56205
 Alpha virt. eigenvalues --    2.57314   2.58876   2.59864   2.62186   2.63964
 Alpha virt. eigenvalues --    2.65407   2.66274   2.66920   2.67690   2.70255
 Alpha virt. eigenvalues --    2.70660   2.71431   2.72918   2.74058   2.75131
 Alpha virt. eigenvalues --    2.76535   2.78507   2.79683   2.80988   2.82736
 Alpha virt. eigenvalues --    2.84220   2.84563   2.85327   2.86799   2.89357
 Alpha virt. eigenvalues --    2.89812   2.90338   2.91327   2.92357   2.93661
 Alpha virt. eigenvalues --    2.96080   2.98661   2.99160   3.03755   3.03882
 Alpha virt. eigenvalues --    3.05233   3.11788   3.14511   3.15685   3.20397
 Alpha virt. eigenvalues --    3.23337   3.24607   3.27645   3.33398   3.38075
 Alpha virt. eigenvalues --    3.44194   3.47559   3.48742   3.51926   3.55356
 Alpha virt. eigenvalues --    3.59354   3.61450   3.62665   3.65287   3.67340
 Alpha virt. eigenvalues --    3.72718   3.74630   3.77367   3.78321   3.82051
 Alpha virt. eigenvalues --    3.82872   3.87498   3.94122   3.96087   3.96637
 Alpha virt. eigenvalues --    4.08181   4.14814   4.25652   4.43897   4.47285
 Alpha virt. eigenvalues --    4.49043   4.59699   4.70721   4.72767   4.83613
 Alpha virt. eigenvalues --    4.86902   4.87718   4.93889   4.96059   5.09482
 Alpha virt. eigenvalues --    5.20072   5.23233   5.34766   5.49441   5.66073
 Alpha virt. eigenvalues --    5.73143  23.64929  23.66933  23.69764  23.70441
 Alpha virt. eigenvalues --   23.72620  23.77464  23.84641  23.89401  24.08084
 Alpha virt. eigenvalues --   35.34075  35.47559  35.48490  35.63428  49.75228
 Alpha virt. eigenvalues --   49.87311  49.89216
          Condensed to atoms (all electrons):
               1          2          3          4          5          6
     1  O    8.096853   0.334698  -0.159301   0.007889   0.004116  -0.000343
     2  C    0.334698   8.324381  -0.134416  -0.537694  -0.148111   0.024061
     3  N   -0.159301  -0.134416   7.586575  -0.568873   0.184991   0.052571
     4  C    0.007889  -0.537694  -0.568873  15.554050  -5.797868  -0.330251
     5  C    0.004116  -0.148111   0.184991  -5.797868  10.741296   0.229592
     6  O   -0.000343   0.024061   0.052571  -0.330251   0.229592   8.082829
     7  O   -0.000106   0.062530   0.024847  -0.030648   0.355961  -0.115970
     8  C   -0.094472  -0.491024   0.201491  -0.841838   0.025459  -0.022912
     9  C    0.097920   0.265129   0.157847  -1.394849   0.364101   0.099549
    10  C   -0.001680  -0.111447   0.021493   0.268033   0.068675  -0.009720
    11  N   -0.000213   0.001099  -0.000989  -0.003120  -0.000382   0.000901
    12  C    0.001009   0.002016   0.000686  -0.043466   0.087552  -0.006838
    13  N   -0.000783   0.002017  -0.010378  -0.156674   0.101293   0.025883
    14  C    0.013045  -1.278072  -0.722510  -0.266679  -0.310019  -0.001280
    15  C    0.015496  -0.072243   0.094259   0.011383  -0.010021   0.000267
    16  N   -0.051509   0.056196  -0.008110  -0.000407   0.000200  -0.000026
    17  H   -0.000821   0.004607   0.296000   0.023409   0.033861   0.004928
    18  H   -0.016900   0.036728  -0.047929   0.522168  -0.123261   0.000617
    19  H   -0.000227  -0.005025   0.004782  -0.219438   0.228001   0.223484
    20  H   -0.024125  -0.007644   0.008574  -0.059816  -0.045522  -0.002129
    21  H    0.005398   0.033060  -0.017477  -0.020590  -0.114766   0.001067
    22  H   -0.000069   0.012255  -0.001209  -0.009694  -0.005417   0.000048
    23  H   -0.000051  -0.001655   0.000593  -0.006980   0.006199   0.000139
    24  H    0.000225   0.006689  -0.006810   0.136322  -0.102974  -0.030495
    25  H    0.001029  -0.045267  -0.005816   0.021012  -0.023155  -0.000366
    26  H    0.009548  -0.113689   0.003696   0.003995   0.012129  -0.000074
    27  H    0.000319  -0.013173   0.009528   0.007163   0.003340  -0.000111
    28  H    0.000899   0.002357  -0.005011  -0.004426  -0.001296   0.000018
    29  H   -0.000303  -0.049274  -0.001439  -0.004911  -0.000271   0.000001
    30  H    0.085075   0.071359   0.015345  -0.006027   0.000079  -0.000023
    31  H    0.001502   0.025707   0.004297   0.001976  -0.000351  -0.000003
               7          8          9         10         11         12
     1  O   -0.000106  -0.094472   0.097920  -0.001680  -0.000213   0.001009
     2  C    0.062530  -0.491024   0.265129  -0.111447   0.001099   0.002016
     3  N    0.024847   0.201491   0.157847   0.021493  -0.000989   0.000686
     4  C   -0.030648  -0.841838  -1.394849   0.268033  -0.003120  -0.043466
     5  C    0.355961   0.025459   0.364101   0.068675  -0.000382   0.087552
     6  O   -0.115970  -0.022912   0.099549  -0.009720   0.000901  -0.006838
     7  O    7.956966  -0.034665   0.003014   0.002812   0.000071   0.000196
     8  C   -0.034665  11.483961  -3.019792  -1.185785  -0.035076  -0.087257
     9  C    0.003014  -3.019792  10.257237  -0.598486  -0.168642   0.042614
    10  C    0.002812  -1.185785  -0.598486   7.185527   0.535398  -0.327704
    11  N    0.000071  -0.035076  -0.168642   0.535398   6.532071   0.350383
    12  C    0.000196  -0.087257   0.042614  -0.327704   0.350383   5.378670
    13  N    0.000465  -0.323746   0.035450   0.090389   0.048915   0.145251
    14  C   -0.005844  -0.117993   0.121413  -0.033769   0.000763  -0.003291
    15  C    0.001174   0.032065   0.000493  -0.001173   0.000074   0.000415
    16  N    0.000025  -0.007508  -0.001089  -0.000115   0.000019   0.000010
    17  H    0.038192   0.000286  -0.033245   0.000531  -0.000092   0.000519
    18  H   -0.007801  -0.086812  -0.068551   0.051399  -0.000191  -0.025133
    19  H   -0.014328  -0.005458   0.002192   0.000525  -0.000294   0.002249
    20  H   -0.001484   0.444037   0.025533  -0.049267   0.000473   0.007322
    21  H    0.000670   0.537282  -0.171109  -0.023760   0.001805  -0.011044
    22  H    0.000047  -0.072679  -0.084360   0.480243  -0.076231   0.036356
    23  H   -0.000020   0.010631   0.081851  -0.026104  -0.066526   0.446906
    24  H    0.003958  -0.019464  -0.072165   0.010399   0.012599  -0.051590
    25  H   -0.002577  -0.008511   0.004836  -0.000741   0.000018  -0.000079
    26  H   -0.000116  -0.004080   0.000619   0.001821  -0.000021   0.000033
    27  H   -0.000242  -0.003820   0.001062   0.000738   0.000003   0.000097
    28  H    0.000092   0.000912  -0.000253  -0.000211   0.000004  -0.000009
    29  H    0.000009   0.000109   0.000840  -0.000409  -0.000002  -0.000010
    30  H    0.000128   0.013488  -0.006441  -0.001518  -0.000077   0.000174
    31  H   -0.000002   0.000446  -0.000699   0.000685  -0.000010  -0.000039
              13         14         15         16         17         18
     1  O   -0.000783   0.013045   0.015496  -0.051509  -0.000821  -0.016900
     2  C    0.002017  -1.278072  -0.072243   0.056196   0.004607   0.036728
     3  N   -0.010378  -0.722510   0.094259  -0.008110   0.296000  -0.047929
     4  C   -0.156674  -0.266679   0.011383  -0.000407   0.023409   0.522168
     5  C    0.101293  -0.310019  -0.010021   0.000200   0.033861  -0.123261
     6  O    0.025883  -0.001280   0.000267  -0.000026   0.004928   0.000617
     7  O    0.000465  -0.005844   0.001174   0.000025   0.038192  -0.007801
     8  C   -0.323746  -0.117993   0.032065  -0.007508   0.000286  -0.086812
     9  C    0.035450   0.121413   0.000493  -0.001089  -0.033245  -0.068551
    10  C    0.090389  -0.033769  -0.001173  -0.000115   0.000531   0.051399
    11  N    0.048915   0.000763   0.000074   0.000019  -0.000092  -0.000191
    12  C    0.145251  -0.003291   0.000415   0.000010   0.000519  -0.025133
    13  N    6.934561   0.000491   0.000497  -0.000023  -0.000877   0.012248
    14  C    0.000491   8.729519  -0.232469  -0.110687  -0.075475  -0.009090
    15  C    0.000497  -0.232469   5.983357   0.021858  -0.009899  -0.000865
    16  N   -0.000023  -0.110687   0.021858   6.424323   0.001912   0.000378
    17  H   -0.000877  -0.075475  -0.009899   0.001912   0.403372   0.006847
    18  H    0.012248  -0.009090  -0.000865   0.000378   0.006847   0.447516
    19  H   -0.002300  -0.002277  -0.000058   0.000015   0.003881   0.001755
    20  H    0.007730  -0.009972   0.002787  -0.000923   0.002315  -0.012914
    21  H    0.018669   0.016284  -0.001333   0.000227  -0.006411   0.011875
    22  H    0.019245   0.003083  -0.000097   0.000477  -0.000449   0.000546
    23  H   -0.121218  -0.000351   0.000015  -0.000005   0.000120  -0.002157
    24  H    0.363263   0.003177  -0.000022   0.000001  -0.001587   0.006160
    25  H    0.000036   0.424035   0.003979   0.007569  -0.007545   0.000109
    26  H   -0.000093   0.430824  -0.074205   0.017296   0.001741  -0.000832
    27  H   -0.000118  -0.063304   0.412071  -0.021792   0.000710  -0.000659
    28  H    0.000034  -0.033256   0.397200  -0.025630   0.000834   0.000173
    29  H   -0.000007   0.050426  -0.001331   0.352750  -0.000644  -0.000262
    30  H   -0.000025  -0.074730  -0.017618   0.257372   0.002469  -0.000372
    31  H   -0.000016  -0.024742  -0.014963   0.327189   0.000445   0.000431
              19         20         21         22         23         24
     1  O   -0.000227  -0.024125   0.005398  -0.000069  -0.000051   0.000225
     2  C   -0.005025  -0.007644   0.033060   0.012255  -0.001655   0.006689
     3  N    0.004782   0.008574  -0.017477  -0.001209   0.000593  -0.006810
     4  C   -0.219438  -0.059816  -0.020590  -0.009694  -0.006980   0.136322
     5  C    0.228001  -0.045522  -0.114766  -0.005417   0.006199  -0.102974
     6  O    0.223484  -0.002129   0.001067   0.000048   0.000139  -0.030495
     7  O   -0.014328  -0.001484   0.000670   0.000047  -0.000020   0.003958
     8  C   -0.005458   0.444037   0.537282  -0.072679   0.010631  -0.019464
     9  C    0.002192   0.025533  -0.171109  -0.084360   0.081851  -0.072165
    10  C    0.000525  -0.049267  -0.023760   0.480243  -0.026104   0.010399
    11  N   -0.000294   0.000473   0.001805  -0.076231  -0.066526   0.012599
    12  C    0.002249   0.007322  -0.011044   0.036356   0.446906  -0.051590
    13  N   -0.002300   0.007730   0.018669   0.019245  -0.121218   0.363263
    14  C   -0.002277  -0.009972   0.016284   0.003083  -0.000351   0.003177
    15  C   -0.000058   0.002787  -0.001333  -0.000097   0.000015  -0.000022
    16  N    0.000015  -0.000923   0.000227   0.000477  -0.000005   0.000001
    17  H    0.003881   0.002315  -0.006411  -0.000449   0.000120  -0.001587
    18  H    0.001755  -0.012914   0.011875   0.000546  -0.002157   0.006160
    19  H    0.439969  -0.001147  -0.002567  -0.000037   0.000337  -0.002224
    20  H   -0.001147   0.522716  -0.041178  -0.001554   0.001211  -0.000993
    21  H   -0.002567  -0.041178   0.548344   0.002407  -0.001688   0.008313
    22  H   -0.000037  -0.001554   0.002407   0.566019  -0.001394   0.002152
    23  H    0.000337   0.001211  -0.001688  -0.001394   0.519218  -0.009540
    24  H   -0.002224  -0.000993   0.008313   0.002152  -0.009540   0.380084
    25  H   -0.000393  -0.000114   0.000669   0.000070  -0.000013   0.000263
    26  H    0.000051   0.001826  -0.001043   0.000190   0.000000  -0.000081
    27  H   -0.000033   0.000057  -0.000100   0.000035   0.000004  -0.000019
    28  H    0.000006   0.000074  -0.000017  -0.000015   0.000000   0.000002
    29  H    0.000001  -0.000071   0.000046  -0.000068  -0.000001   0.000007
    30  H    0.000033   0.000263  -0.000242  -0.000971   0.000025  -0.000110
    31  H    0.000000   0.000211  -0.000029   0.000035   0.000000  -0.000005
              25         26         27         28         29         30
     1  O    0.001029   0.009548   0.000319   0.000899  -0.000303   0.085075
     2  C   -0.045267  -0.113689  -0.013173   0.002357  -0.049274   0.071359
     3  N   -0.005816   0.003696   0.009528  -0.005011  -0.001439   0.015345
     4  C    0.021012   0.003995   0.007163  -0.004426  -0.004911  -0.006027
     5  C   -0.023155   0.012129   0.003340  -0.001296  -0.000271   0.000079
     6  O   -0.000366  -0.000074  -0.000111   0.000018   0.000001  -0.000023
     7  O   -0.002577  -0.000116  -0.000242   0.000092   0.000009   0.000128
     8  C   -0.008511  -0.004080  -0.003820   0.000912   0.000109   0.013488
     9  C    0.004836   0.000619   0.001062  -0.000253   0.000840  -0.006441
    10  C   -0.000741   0.001821   0.000738  -0.000211  -0.000409  -0.001518
    11  N    0.000018  -0.000021   0.000003   0.000004  -0.000002  -0.000077
    12  C   -0.000079   0.000033   0.000097  -0.000009  -0.000010   0.000174
    13  N    0.000036  -0.000093  -0.000118   0.000034  -0.000007  -0.000025
    14  C    0.424035   0.430824  -0.063304  -0.033256   0.050426  -0.074730
    15  C    0.003979  -0.074205   0.412071   0.397200  -0.001331  -0.017618
    16  N    0.007569   0.017296  -0.021792  -0.025630   0.352750   0.257372
    17  H   -0.007545   0.001741   0.000710   0.000834  -0.000644   0.002469
    18  H    0.000109  -0.000832  -0.000659   0.000173  -0.000262  -0.000372
    19  H   -0.000393   0.000051  -0.000033   0.000006   0.000001   0.000033
    20  H   -0.000114   0.001826   0.000057   0.000074  -0.000071   0.000263
    21  H    0.000669  -0.001043  -0.000100  -0.000017   0.000046  -0.000242
    22  H    0.000070   0.000190   0.000035  -0.000015  -0.000068  -0.000971
    23  H   -0.000013   0.000000   0.000004   0.000000  -0.000001   0.000025
    24  H    0.000263  -0.000081  -0.000019   0.000002   0.000007  -0.000110
    25  H    0.468005  -0.006943  -0.006052  -0.011080   0.003198  -0.004383
    26  H   -0.006943   0.474141   0.008993  -0.004060  -0.003497  -0.006610
    27  H   -0.006052   0.008993   0.434560  -0.008405  -0.002722  -0.010153
    28  H   -0.011080  -0.004060  -0.008405   0.423164  -0.001266   0.003105
    29  H    0.003198  -0.003497  -0.002722  -0.001266   0.358934  -0.018486
    30  H   -0.004383  -0.006610  -0.010153   0.003105  -0.018486   0.351070
    31  H   -0.001155   0.001115   0.002074  -0.001403  -0.016828  -0.008301
              31
     1  O    0.001502
     2  C    0.025707
     3  N    0.004297
     4  C    0.001976
     5  C   -0.000351
     6  O   -0.000003
     7  O   -0.000002
     8  C    0.000446
     9  C   -0.000699
    10  C    0.000685
    11  N   -0.000010
    12  C   -0.000039
    13  N   -0.000016
    14  C   -0.024742
    15  C   -0.014963
    16  N    0.327189
    17  H    0.000445
    18  H    0.000431
    19  H    0.000000
    20  H    0.000211
    21  H   -0.000029
    22  H    0.000035
    23  H    0.000000
    24  H   -0.000005
    25  H   -0.001155
    26  H    0.001115
    27  H    0.002074
    28  H   -0.001403
    29  H   -0.016828
    30  H   -0.008301
    31  H    0.358141
 Mulliken charges:
               1
     1  O   -0.324120
     2  C   -0.256153
     3  N    0.022691
     4  C   -0.253149
     5  C    0.236568
     6  O   -0.225414
     7  O   -0.237354
     8  C   -0.287275
     9  C    0.057980
    10  C   -0.346780
    11  N   -0.132730
    12  C    0.054003
    13  N   -0.190180
    14  C   -0.417250
    15  C   -0.541092
    16  N   -0.239992
    17  H    0.310066
    18  H    0.304779
    19  H    0.348525
    20  H    0.233723
    21  H    0.227238
    22  H    0.131036
    23  H    0.170453
    24  H    0.364463
    25  H    0.189362
    26  H    0.247327
    27  H    0.249946
    28  H    0.267462
    29  H    0.335479
    30  H    0.356102
    31  H    0.344289
 Sum of Mulliken charges =   1.00000
 Mulliken charges with hydrogens summed into heavy atoms:
               1
     1  O   -0.324120
     2  C   -0.256153
     3  N    0.332757
     4  C    0.051630
     5  C    0.236568
     6  O    0.123110
     7  O   -0.237354
     8  C    0.173686
     9  C    0.057980
    10  C   -0.215744
    11  N   -0.132730
    12  C    0.224456
    13  N    0.174283
    14  C    0.019439
    15  C   -0.023684
    16  N    0.795877
 APT charges:
               1
     1  O   -0.594609
     2  C   -0.148012
     3  N   -0.452558
     4  C   -0.483786
     5  C   -0.016815
     6  O   -0.647989
     7  O    0.004263
     8  C   -1.109823
     9  C    0.298893
    10  C   -0.624519
    11  N   -0.132136
    12  C   -0.391547
    13  N   -0.582395
    14  C   -0.518067
    15  C   -1.178011
    16  N   -1.026530
    17  H    0.652922
    18  H    0.322316
    19  H    1.073389
    20  H    0.245575
    21  H    0.547845
    22  H    0.354740
    23  H    1.038211
    24  H    0.500339
    25  H    0.446732
    26  H    0.446313
    27  H    0.256947
    28  H    0.929421
    29  H    0.789767
    30  H   -0.006111
    31  H    1.005235
 Sum of APT charges =   1.00000
 APT charges with hydrogens summed into heavy atoms:
               1
     1  O   -0.594609
     2  C   -0.148012
     3  N    0.200363
     4  C   -0.161471
     5  C   -0.016815
     6  O    0.425400
     7  O    0.004263
     8  C   -0.316403
     9  C    0.298893
    10  C   -0.269780
    11  N   -0.132136
    12  C    0.646664
    13  N   -0.082055
    14  C    0.374978
    15  C    0.008358
    16  N    0.762361
 Electronic spatial extent (au):  <R**2>=           4698.3391
 Charge=              1.0000 electrons
 Dipole moment (field-independent basis, Debye):
    X=            -14.3932    Y=             -3.5865    Z=              1.9746  Tot=             14.9641
 Quadrupole moment (field-independent basis, Debye-Ang):
   XX=             -6.5003   YY=            -88.4971   ZZ=            -96.7049
   XY=             -6.9277   XZ=             27.8990   YZ=              5.3257
 Traceless Quadrupole moment (field-independent basis, Debye-Ang):
   XX=             57.4005   YY=            -24.5963   ZZ=            -32.8042
   XY=             -6.9277   XZ=             27.8990   YZ=              5.3257
 Octapole moment (field-independent basis, Debye-Ang**2):
  XXX=           -376.5953  YYY=            -17.3826  ZZZ=             47.6336  XYY=            -68.8636
  XXY=            -73.2931  XXZ=            -13.0028  XZZ=           -117.7575  YZZ=            -22.9646
  YYZ=             13.5018  XYZ=              9.6879
 Hexadecapole moment (field-independent basis, Debye-Ang**3):
 XXXX=          -2351.8130 YYYY=           -519.9076 ZZZZ=          -1727.1452 XXXY=           -331.6732
 XXXZ=            670.3159 YYYX=           -218.5514 YYYZ=            281.8843 ZZZX=            458.6523
 ZZZY=            373.6831 XXYY=           -710.0282 XXZZ=           -777.8313 YYZZ=           -356.7522
 XXYZ=            144.7626 YYXZ=            146.6365 ZZXY=           -143.1379
 N-N= 1.138691802501D+03 E-N=-4.122946110735D+03  KE= 7.938856008562D+02
  Exact polarizability:   0.000   0.000   0.000   0.000   0.000   0.000
 Approx polarizability: 205.032 -17.927 164.476  -9.650 -22.378 229.122
 Calling FoFJK, ICntrl=    100147 FMM=F ISym2X=0 I1Cent= 0 IOpClX= 0 NMat=1 NMatS=1 NMatT=0.
 -------------------------------------------------------------------
 Center     Atomic                   Forces (Hartrees/Bohr)
 Number     Number              X              Y              Z
 -------------------------------------------------------------------
      1        8          -0.015264223   -0.000544410   -0.015978365
      2        6           0.010648881   -0.001587450    0.017624094
      3        7          -0.008167590   -0.002685947   -0.005944385
      4        6          -0.002012731   -0.000077070    0.001589225
      5        6           0.005584140   -0.001577147   -0.001001609
      6        8          -0.006339670   -0.000897486    0.003024998
      7        8          -0.003059836   -0.000628265    0.002481841
      8        6           0.005594634    0.001950161   -0.006840188
      9        6          -0.006224991    0.002226526    0.003422886
     10        6           0.003733932    0.002400622   -0.010287040
     11        7          -0.004731155    0.002850336    0.002231640
     12        6          -0.000448419    0.000838336   -0.003126015
     13        7           0.005953336   -0.003907464    0.005502294
     14        6           0.004270226    0.005426356   -0.000593330
     15        6          -0.001017235   -0.012768741    0.022853319
     16        7          -0.003704677    0.001638575   -0.006695300
     17        1          -0.000407370   -0.000554209    0.005407523
     18        1           0.002436249    0.002350649   -0.000392669
     19        1           0.004293784   -0.000605770    0.000766808
     20        1          -0.000769569   -0.000256338    0.000021308
     21        1           0.001251534    0.000763337    0.003466499
     22        1           0.000897329   -0.000268244    0.000250260
     23        1           0.002370248   -0.001057811   -0.002421595
     24        1           0.003291668   -0.000388013   -0.000495771
     25        1          -0.004957317   -0.000615613   -0.000844817
     26        1          -0.000487614    0.002071306    0.002769529
     27        1          -0.000806365    0.000967631   -0.005784882
     28        1          -0.001227746    0.000786331   -0.003822476
     29        1          -0.003088820    0.002464627   -0.001874994
     30        1           0.015144238    0.002064294   -0.003182047
     31        1          -0.002754871   -0.000379111   -0.002126741
 -------------------------------------------------------------------
 Cartesian Forces:  Max     0.022853319 RMS     0.005469774
 FormGI is forming the generalized inverse of G from B-inverse, IUseBI=4.

 GradGradGradGradGradGradGradGradGradGradGradGradGradGradGradGradGradGrad
 Berny optimization.
 Internal  Forces:  Max     0.025262237 RMS     0.005185942
 Search for a local minimum.
 Step number   1 out of a maximum of  167
 All quantities printed in internal units (Hartrees-Bohrs-Radians)
 Mixed Optimization -- RFO/linear search
 Second derivative matrix not updated -- analytic derivatives used.
 ITU=  0
     Eigenvalues ---    0.00170   0.00245   0.00304   0.00364   0.00388
     Eigenvalues ---    0.00706   0.00838   0.00860   0.01034   0.01163
     Eigenvalues ---    0.02006   0.02033   0.02170   0.02573   0.03547
     Eigenvalues ---    0.03897   0.03994   0.04173   0.04253   0.04422
     Eigenvalues ---    0.04607   0.04722   0.04959   0.05117   0.05258
     Eigenvalues ---    0.05747   0.05979   0.06090   0.06313   0.07707
     Eigenvalues ---    0.07937   0.08207   0.10452   0.10902   0.10993
     Eigenvalues ---    0.11592   0.11721   0.12372   0.12990   0.13286
     Eigenvalues ---    0.15131   0.15702   0.15979   0.16633   0.18648
     Eigenvalues ---    0.18819   0.20992   0.21570   0.22018   0.22914
     Eigenvalues ---    0.23151   0.23728   0.24658   0.24872   0.25885
     Eigenvalues ---    0.26748   0.30542   0.31615   0.32118   0.32597
     Eigenvalues ---    0.33516   0.33596   0.33646   0.34105   0.34180
     Eigenvalues ---    0.34714   0.34878   0.35507   0.36787   0.37259
     Eigenvalues ---    0.37779   0.39409   0.40108   0.41325   0.43831
     Eigenvalues ---    0.44196   0.44289   0.45726   0.46770   0.47071
     Eigenvalues ---    0.47748   0.51173   0.52769   0.56707   0.58860
     Eigenvalues ---    0.79552   0.89093
 RFO step:  Lambda=-1.50030046D-02 EMin= 1.69966803D-03
 Linear search not attempted -- first point.
 Iteration  1 RMS(Cart)=  0.08747773 RMS(Int)=  0.00295668
 Iteration  2 RMS(Cart)=  0.00602560 RMS(Int)=  0.00028718
 Iteration  3 RMS(Cart)=  0.00003037 RMS(Int)=  0.00028664
 Iteration  4 RMS(Cart)=  0.00000002 RMS(Int)=  0.00028664
 Variable       Old X    -DE/DX   Delta X   Delta X   Delta X     New X
                                 (Linear)    (Quad)   (Total)
    R1        2.32213   0.01256   0.00000   0.03312   0.03312   2.35525
    R2        2.54369   0.00083   0.00000  -0.03010  -0.03010   2.51358
    R3        2.87610  -0.00102   0.00000   0.00793   0.00793   2.88403
    R4        2.74472   0.01149   0.00000   0.02447   0.02447   2.76919
    R5        1.90449   0.00535   0.00000   0.01385   0.01385   1.91834
    R6        2.86114   0.00567   0.00000   0.01870   0.01870   2.87984
    R7        2.92971   0.01070   0.00000   0.02618   0.02618   2.95589
    R8        2.07104  -0.00114   0.00000  -0.00404  -0.00404   2.06700
    R9        2.55511  -0.00270   0.00000  -0.01685  -0.01685   2.53827
   R10        2.27190   0.00350   0.00000   0.00502   0.00502   2.27692
   R11        1.83167   0.00275   0.00000   0.00450   0.00450   1.83616
   R12        2.81860   0.00672   0.00000   0.00376   0.00376   2.82236
   R13        2.05594   0.00044   0.00000   0.00346   0.00346   2.05940
   R14        2.06102   0.00359   0.00000   0.00965   0.00965   2.07067
   R15        2.58041   0.00812   0.00000   0.01547   0.01548   2.59589
   R16        2.59035   0.01104   0.00000   0.02318   0.02321   2.61356
   R17        2.61630  -0.00566   0.00000  -0.02084  -0.02086   2.59544
   R18        2.04192  -0.00088   0.00000  -0.00150  -0.00150   2.04042
   R19        2.47704   0.00114   0.00000   0.00150   0.00148   2.47851
   R20        2.57016   0.00644   0.00000   0.01291   0.01291   2.58307
   R21        2.03170   0.00316   0.00000   0.00780   0.00780   2.03950
   R22        1.90397   0.00093   0.00000   0.00211   0.00211   1.90608
   R23        2.87632   0.00133   0.00000   0.01840   0.01840   2.89472
   R24        2.06229  -0.00062   0.00000  -0.00053  -0.00053   2.06176
   R25        2.06639   0.00236   0.00000   0.00499   0.00499   2.07137
   R26        2.79945   0.01462   0.00000   0.05199   0.05199   2.85144
   R27        2.06342  -0.00055   0.00000  -0.00242  -0.00242   2.06100
   R28        2.06208  -0.00056   0.00000  -0.00375  -0.00375   2.05833
   R29        1.92647   0.00355   0.00000   0.00478   0.00478   1.93124
   R30        1.94599   0.01550   0.00000   0.06556   0.06556   2.01155
   R31        1.92645   0.00290   0.00000   0.00315   0.00315   1.92960
    A1        2.11235   0.01596   0.00000   0.03320   0.03319   2.14554
    A2        2.14529  -0.02526   0.00000  -0.07634  -0.07636   2.06893
    A3        2.02518   0.00933   0.00000   0.04340   0.04339   2.06857
    A4        2.08757   0.01141   0.00000   0.05417   0.05382   2.14139
    A5        2.13018  -0.00542   0.00000  -0.01951  -0.01987   2.11031
    A6        2.04224  -0.00564   0.00000  -0.02511  -0.02547   2.01677
    A7        1.86090  -0.00756   0.00000  -0.02291  -0.02292   1.83797
    A8        1.94119   0.00508   0.00000   0.02321   0.02324   1.96443
    A9        1.88102   0.00140   0.00000   0.01377   0.01385   1.89486
   A10        1.96587   0.00319   0.00000   0.00481   0.00490   1.97077
   A11        1.89543   0.00133   0.00000   0.00185   0.00188   1.89730
   A12        1.91651  -0.00358   0.00000  -0.02037  -0.02049   1.89602
   A13        1.96436   0.00351   0.00000  -0.00189  -0.00189   1.96247
   A14        2.17577  -0.00387   0.00000  -0.01366  -0.01366   2.16211
   A15        2.14302   0.00037   0.00000   0.01553   0.01553   2.15855
   A16        1.85385   0.00616   0.00000   0.03384   0.03384   1.88769
   A17        1.97288   0.01351   0.00000   0.03074   0.03075   2.00363
   A18        1.89055  -0.00493   0.00000  -0.02167  -0.02167   1.86887
   A19        1.91832  -0.00402   0.00000  -0.01046  -0.01072   1.90760
   A20        1.87115  -0.00441   0.00000  -0.00622  -0.00599   1.86516
   A21        1.94553  -0.00293   0.00000   0.00311   0.00307   1.94860
   A22        1.86051   0.00204   0.00000   0.00215   0.00196   1.86247
   A23        2.29123  -0.00570   0.00000  -0.01570  -0.01580   2.27543
   A24        2.15795   0.00876   0.00000   0.02297   0.02287   2.18082
   A25        1.83366  -0.00304   0.00000  -0.00668  -0.00672   1.82693
   A26        1.92994   0.00252   0.00000   0.00680   0.00680   1.93674
   A27        2.23391  -0.00108   0.00000  -0.00717  -0.00717   2.22674
   A28        2.11933  -0.00144   0.00000   0.00036   0.00036   2.11969
   A29        1.83395   0.00248   0.00000   0.00641   0.00636   1.84030
   A30        1.94692   0.00106   0.00000   0.00182   0.00181   1.94873
   A31        2.21064  -0.00212   0.00000  -0.01091  -0.01090   2.19973
   A32        2.12563   0.00106   0.00000   0.00909   0.00909   2.13472
   A33        1.88018  -0.00301   0.00000  -0.00815  -0.00811   1.87206
   A34        2.16888   0.00427   0.00000   0.02214   0.02212   2.19100
   A35        2.23402  -0.00127   0.00000  -0.01398  -0.01400   2.22003
   A36        1.95753  -0.02040   0.00000  -0.05084  -0.05073   1.90680
   A37        1.91311   0.01215   0.00000   0.05520   0.05501   1.96812
   A38        1.87471   0.00378   0.00000   0.00339   0.00297   1.87768
   A39        1.92780   0.00266   0.00000  -0.00762  -0.00695   1.92085
   A40        1.91259   0.00586   0.00000   0.00900   0.00879   1.92138
   A41        1.87557  -0.00336   0.00000  -0.00713  -0.00748   1.86809
   A42        1.93124  -0.01190   0.00000  -0.03812  -0.03823   1.89301
   A43        1.91332   0.00655   0.00000   0.02257   0.02048   1.93379
   A44        1.91781   0.00555   0.00000   0.04221   0.04179   1.95960
   A45        1.90987  -0.00240   0.00000  -0.04692  -0.04692   1.86295
   A46        1.91745   0.00363   0.00000   0.00129   0.00199   1.91944
   A47        1.87323  -0.00107   0.00000   0.02053   0.01945   1.89268
   A48        1.94063   0.00244   0.00000   0.01582   0.01586   1.95649
   A49        1.86510  -0.00268   0.00000  -0.05916  -0.05912   1.80597
   A50        1.96579   0.00090   0.00000   0.00435   0.00431   1.97010
   A51        1.87487   0.00067   0.00000   0.01929   0.01944   1.89431
   A52        1.90529  -0.00229   0.00000  -0.01390  -0.01392   1.89137
   A53        1.90949   0.00098   0.00000   0.03460   0.03453   1.94402
    D1       -0.10094   0.00181   0.00000   0.03753   0.03777  -0.06317
    D2       -3.00586   0.00071   0.00000  -0.00737  -0.00717  -3.01304
    D3        3.06898   0.00138   0.00000   0.02883   0.02864   3.09762
    D4        0.16405   0.00028   0.00000  -0.01606  -0.01630   0.14775
    D5        0.74208  -0.00195   0.00000  -0.05355  -0.05297   0.68910
    D6        2.89009  -0.00390   0.00000  -0.05879  -0.05915   2.83094
    D7       -1.36043   0.00063   0.00000  -0.03623  -0.03599  -1.39641
    D8       -2.42843  -0.00076   0.00000  -0.04267  -0.04240  -2.47083
    D9       -0.28041  -0.00271   0.00000  -0.04791  -0.04858  -0.32899
   D10        1.75225   0.00181   0.00000  -0.02535  -0.02541   1.72684
   D11       -2.83312   0.00157   0.00000   0.00060   0.00058  -2.83254
   D12        1.30073  -0.00049   0.00000  -0.00440  -0.00424   1.29649
   D13       -0.80087  -0.00003   0.00000  -0.00207  -0.00222  -0.80309
   D14        0.08352   0.00249   0.00000   0.04333   0.04331   0.12683
   D15       -2.06582   0.00044   0.00000   0.03832   0.03849  -2.02732
   D16        2.11577   0.00089   0.00000   0.04065   0.04051   2.15628
   D17        3.09017  -0.00181   0.00000  -0.00262  -0.00259   3.08758
   D18       -0.06077  -0.00154   0.00000  -0.00438  -0.00433  -0.06510
   D19       -1.05915   0.00133   0.00000   0.01366   0.01366  -1.04549
   D20        2.07309   0.00160   0.00000   0.01190   0.01191   2.08501
   D21        1.06756  -0.00018   0.00000  -0.00770  -0.00775   1.05980
   D22       -2.08338   0.00009   0.00000  -0.00945  -0.00950  -2.09288
   D23       -2.48974  -0.00036   0.00000  -0.01626  -0.01612  -2.50586
   D24       -0.41889  -0.00089   0.00000  -0.01969  -0.01972  -0.43861
   D25        1.60750  -0.00343   0.00000  -0.03510  -0.03492   1.57258
   D26        1.70550   0.00359   0.00000  -0.00645  -0.00642   1.69908
   D27       -2.50683   0.00306   0.00000  -0.00989  -0.01002  -2.51686
   D28       -0.48044   0.00052   0.00000  -0.02529  -0.02522  -0.50566
   D29       -0.40923   0.00227   0.00000   0.00232   0.00228  -0.40695
   D30        1.66162   0.00174   0.00000  -0.00111  -0.00132   1.66030
   D31       -2.59517  -0.00080   0.00000  -0.01652  -0.01652  -2.61169
   D32       -3.13129  -0.00052   0.00000  -0.01594  -0.01596   3.13594
   D33        0.01944  -0.00076   0.00000  -0.01405  -0.01403   0.00541
   D34        2.13140  -0.00168   0.00000  -0.03302  -0.03307   2.09833
   D35       -0.97723  -0.00272   0.00000  -0.06057  -0.06066  -1.03789
   D36        0.04933  -0.00069   0.00000  -0.02032  -0.02033   0.02900
   D37       -3.05930  -0.00173   0.00000  -0.04787  -0.04792  -3.10722
   D38       -1.98062   0.00105   0.00000  -0.02090  -0.02078  -2.00140
   D39        1.19393   0.00001   0.00000  -0.04845  -0.04838   1.14556
   D40       -3.12715  -0.00029   0.00000  -0.01475  -0.01437  -3.14152
   D41        0.01521  -0.00036   0.00000  -0.01034  -0.01011   0.00511
   D42       -0.01398   0.00080   0.00000   0.00948   0.00950  -0.00447
   D43        3.12839   0.00073   0.00000   0.01389   0.01376  -3.14103
   D44        3.13134  -0.00030   0.00000   0.00937   0.00971   3.14105
   D45        0.00467  -0.00016   0.00000   0.00894   0.00918   0.01385
   D46        0.01540  -0.00100   0.00000  -0.01176  -0.01171   0.00369
   D47       -3.11128  -0.00086   0.00000  -0.01219  -0.01224  -3.12352
   D48        0.00699  -0.00031   0.00000  -0.00350  -0.00350   0.00349
   D49       -3.13532  -0.00024   0.00000  -0.00758  -0.00746   3.14040
   D50        0.00315  -0.00029   0.00000  -0.00409  -0.00417  -0.00102
   D51       -3.13628   0.00012   0.00000  -0.00349  -0.00349  -3.13977
   D52       -0.01199   0.00082   0.00000   0.01021   0.01026  -0.00173
   D53        3.11396   0.00073   0.00000   0.01107   0.01120   3.12516
   D54        3.12757   0.00043   0.00000   0.00961   0.00957   3.13714
   D55       -0.02967   0.00034   0.00000   0.01047   0.01052  -0.01915
   D56       -1.06719   0.00637   0.00000   0.07756   0.07768  -0.98951
   D57        1.04085   0.00004   0.00000   0.00943   0.00900   1.04985
   D58        3.09553   0.00593   0.00000   0.07290   0.07350  -3.11416
   D59        3.07629   0.00314   0.00000   0.04768   0.04757   3.12386
   D60       -1.09886  -0.00319   0.00000  -0.02044  -0.02111  -1.11997
   D61        0.95582   0.00270   0.00000   0.04303   0.04339   0.99921
   D62        1.01322   0.00205   0.00000   0.05550   0.05557   1.06879
   D63        3.12126  -0.00428   0.00000  -0.01263  -0.01310   3.10816
   D64       -1.10725   0.00162   0.00000   0.05085   0.05139  -1.05586
   D65       -1.24344  -0.00117   0.00000  -0.03229  -0.03178  -1.27522
   D66        0.79754  -0.00064   0.00000  -0.03549  -0.03508   0.76246
   D67        2.89484  -0.00066   0.00000  -0.02913  -0.02865   2.86619
   D68        2.92966  -0.00019   0.00000  -0.00559  -0.00608   2.92357
   D69       -1.31255   0.00035   0.00000  -0.00879  -0.00939  -1.32193
   D70        0.78475   0.00033   0.00000  -0.00242  -0.00295   0.78180
   D71        0.87724   0.00040   0.00000  -0.00350  -0.00339   0.87385
   D72        2.91822   0.00094   0.00000  -0.00670  -0.00669   2.91153
   D73       -1.26767   0.00091   0.00000  -0.00034  -0.00026  -1.26792
         Item               Value     Threshold  Converged?
 Maximum Force            0.025262     0.000450     NO 
 RMS     Force            0.005186     0.000300     NO 
 Maximum Displacement     0.348510     0.001800     NO 
 RMS     Displacement     0.090426     0.001200     NO 
 Predicted change in Energy=-8.335949D-03
 GradGradGradGradGradGradGradGradGradGradGradGradGradGradGradGradGradGrad

                          Input orientation:                          
 ---------------------------------------------------------------------
 Center     Atomic      Atomic             Coordinates (Angstroms)
 Number     Number       Type             X           Y           Z
 ---------------------------------------------------------------------
      1          8           0       -1.417886    0.044464   -0.821927
      2          6           0       -1.535459   -0.110792    0.409108
      3          7           0       -0.493837   -0.273618    1.220130
      4          6           0        0.884396   -0.362504    0.730291
      5          6           0        1.679119   -0.979771    1.874757
      6          8           0        2.965806   -1.189165    1.551095
      7          8           0        1.210720   -1.240304    2.953875
      8          6           0        1.449462    1.022857    0.274049
      9          6           0        2.349612    0.970897   -0.916606
     10          6           0        2.235397    1.574182   -2.145433
     11          7           0        3.299742    1.252497   -2.951693
     12          6           0        4.056151    0.459152   -2.231507
     13          7           0        3.528692    0.251520   -0.987682
     14          6           0       -2.935410   -0.088791    1.016422
     15          6           0       -3.902490   -0.823572    0.082976
     16          7           0       -3.844544   -0.169872   -1.275757
     17          1           0       -0.626613   -0.507717    2.198945
     18          1           0        0.907535   -1.047331   -0.122288
     19          1           0        3.412709   -1.576748    2.321920
     20          1           0        0.595795    1.641596   -0.001723
     21          1           0        1.933226    1.514751    1.125335
     22          1           0        1.445434    2.225443   -2.488455
     23          1           0        4.985737    0.010123   -2.546215
     24          1           0        3.908296   -0.325943   -0.252954
     25          1           0       -2.969981   -0.530076    2.013633
     26          1           0       -3.235388    0.960480    1.119038
     27          1           0       -3.595249   -1.861003   -0.054206
     28          1           0       -4.925314   -0.813734    0.457323
     29          1           0       -4.307259    0.741308   -1.284073
     30          1           0       -2.802609   -0.021755   -1.435513
     31          1           0       -4.255771   -0.746293   -2.011470
 ---------------------------------------------------------------------
                    Distance matrix (angstroms):
                    1          2          3          4          5
     1  O    0.000000
     2  C    1.246345   0.000000
     3  N    2.263855   1.330130   0.000000
     4  C    2.806334   2.454020   1.465390   0.000000
     5  C    4.232329   3.638236   2.376747   1.523944   0.000000
     6  O    5.135156   4.767432   3.594007   2.385236   1.343192
     7  O    4.776702   3.910644   2.616461   2.412746   1.204895
     8  C    3.221817   3.195802   2.520382   1.564187   2.574010
     9  C    3.880887   4.245155   3.768243   2.576255   3.470789
    10  C    4.175905   4.856354   4.710637   3.720988   4.795212
    11  N    5.315192   6.044230   5.841607   4.690324   5.559142
    12  C    5.667800   6.209975   5.757876   4.416718   4.958042
    13  N    4.953683   5.265730   4.618543   3.212594   3.623611
    14  C    2.387501   1.526164   2.457018   3.840274   4.777495
    15  C    2.783090   2.493442   3.635173   4.852409   5.864234
    16  N    2.478017   2.859044   4.179408   5.140448   6.410345
    17  H    3.171228   2.046232   1.015141   2.112150   2.375781
    18  H    2.662535   2.669777   2.089153   1.093807   2.141984
    19  H    5.987216   5.503839   4.263002   3.224909   1.887239
    20  H    2.697865   2.789603   2.519577   2.153034   3.400931
    21  H    4.145302   3.897069   3.016270   2.186365   2.617029
    22  H    3.966433   4.768605   4.874391   4.168041   5.419006
    23  H    6.631798   7.160626   6.655193   5.262637   5.608797
    24  H    5.369278   5.488086   4.642358   3.179950   3.150218
    25  H    3.283215   2.192750   2.612797   4.065866   4.672862
    26  H    2.812427   2.131052   3.008209   4.344425   5.337421
    27  H    2.993511   2.742378   3.709782   4.788335   5.684755
    28  H    3.830801   3.462307   4.528972   5.833597   6.756865
    29  H    3.007931   3.357948   4.673681   5.677090   6.984056
    30  H    1.516025   2.239694   3.527932   4.289619   5.653457
    31  H    3.177089   3.696371   4.981848   5.838310   7.097901
                    6          7          8          9         10
     6  O    0.000000
     7  O    2.247384   0.000000
     8  C    2.970384   3.515731   0.000000
     9  C    3.336931   4.600773   1.493529   0.000000
    10  C    4.672676   5.913903   2.602988   1.373687   0.000000
    11  N    5.133062   6.741944   3.725813   2.263543   1.373450
[...]
 -0.25609240,0.00024968,0.00856839,-0.01608735,-0.00252218,-0.00229232,
 -0.00103098,0.00033278,0.00037931,0.00111136,-0.00000616,0.00005247,0.
 00002966,0.00000770,0.00000431,0.00000694,-0.00000109,-0.00000986,-0.0
 0000669,-0.00000434,-0.00001825,0.00000711,-0.00000027,-0.00001123,0.0
 0000176,0.00000091,0.00000015,0.00000140,0.00000831,0.00000385,-0.0000
 0493,-0.00069078,-0.11889732,0.27717357,-0.00025671,-0.00353609,0.0006
 2886,-0.00711682,0.03197531,0.00321262,-0.00189358,-0.00191069,0.00052
 819,-0.00023328,-0.00172181,-0.00022016,0.00024517,-0.00021200,0.00022
 653,-0.00017106,0.00008253,-0.00004587,-0.00012400,0.00003393,-0.00015
 549,-0.00038254,0.00040386,-0.00010052,-0.00003706,-0.00015222,0.00001
 911,-0.00002055,0.00000437,-0.00006374,-0.00005983,0.00002405,0.000044
 83,-0.00000475,-0.00000815,0.00005169,0.00004710,-0.00003928,0.0000024
 8,-0.05917658,0.05739916,0.00989955,0.00465380,-0.02710302,-0.00421080
 ,0.00116066,0.00083318,0.00128818,-0.00010789,0.00095594,0.00042425,0.
 00012048,0.00001298,-0.00001710,0.00001436,0.00000392,0.00001780,-0.00
 002082,0.00008222,0.00006741,-0.00008768,-0.00008435,0.00000302,0.0000
 0287,0.00000801,-0.00000006,0.00000185,0.00000385,0.00000138,0.0000211
 7,0.00000867,-0.00000480,-0.00012315,-0.00027162,-0.00011796,0.0660004
 4,-0.00010823,0.00022233,0.00064418,0.00285937,-0.00035807,-0.00014982
 ,-0.00025595,0.00048073,-0.00071385,0.00019089,0.00006673,0.00003150,0
 .00005710,-0.00004192,0.00001373,-0.00002589,0.00001058,-0.00000045,-0
 .00002225,0.00004012,-0.00001423,0.00000267,-0.00000030,-0.00004448,0.
 00001695,-0.00001223,0.00001369,0.00000205,-0.00000353,-0.00000177,-0.
 00000494,-0.00000240,0.00000424,-0.00000269,0.00000142,-0.00000060,0.0
 0000398,0.00001066,-0.00000259,0.05126025,-0.28373207,-0.03966826,0.00
 106767,-0.01313299,-0.00165390,0.00021725,0.00138714,0.00014784,-0.000
 06026,-0.00031253,-0.00009737,-0.00005968,-0.00001484,0.00000947,0.000
 00475,-0.00000729,0.00000101,0.00002662,-0.00001581,0.00001249,0.00001
 100,-0.00000300,0.00000311,0.00000220,0.00000803,-0.00000202,-0.000000
 97,-0.00000119,-0.00000101,0.00000324,0.00000011,-0.00000011,0.0031540
 7,-0.01406538,-0.00238840,-0.05596461,0.30835839,0.00071101,0.00272002
 ,-0.00075183,0.00402794,-0.01465549,-0.00326248,-0.00077054,0.00025291
 ,-0.00024782,0.00021339,0.00012571,0.00000153,0.00005991,0.00002671,0.
 00009365,-0.00004655,0.00001254,-0.00002645,-0.00003763,-0.00002445,-0
 .00005810,0.00003698,0.00002213,0.00004179,-0.00000975,-0.00001612,-0.
 00000123,0.00001156,-0.00000667,-0.00000315,-0.00001732,0.00000973,0.0
 0000494,-0.00000694,0.00000022,0.00000730,-0.00000661,0.00000104,-0.00
 000046,0.00934511,-0.04085557,-0.05268522,0.00262945,-0.02064913,-0.00
 521707,0.00073612,-0.00038563,0.00147828,-0.00000562,0.00036062,0.0002
 1862,-0.00007144,0.00002509,-0.00001885,0.00000413,-0.00000303,0.00000
 759,0.00002722,-0.00000721,-0.00000763,-0.00000964,-0.00000077,-0.0000
 0483,0.00000108,-0.00000290,-0.00000361,-0.00000061,0.00000033,0.00000
 040,0.00000646,0.00000161,0.00000337,-0.00636064,0.02775787,0.00591421
 ,-0.00842389,0.04590192,0.05582356,-0.00017577,0.00053293,0.00062507,0
 .00155742,-0.00135133,-0.00061367,0.00004451,0.00040298,-0.00002667,-0
 .00005176,-0.00001755,0.00001289,-0.00010529,0.00003289,-0.00006518,0.
 00007621,-0.00001699,0.00001873,0.00005214,0.00000195,0.00004373,-0.00
 000607,-0.00004395,0.00001836,0.00000722,0.00002865,0.00000094,0.00000
 082,0.00000464,0.00001970,0.00001748,0.00000173,-0.00001462,0.00000255
 ,-0.00000532,-0.00000306,-0.00000665,0.00001318,-0.00000723,0.00341862
 ,-0.02447151,-0.00365304,-0.06142650,0.04872731,0.00816130,-0.00002132
 ,-0.00132593,-0.00058993,0.00001905,-0.00010210,-0.00008232,-0.0000313
 6,-0.00001636,0.00001621,-0.00001535,-0.00000118,-0.00001010,0.0000007
 8,-0.00001845,-0.00001196,0.00001767,0.00000766,0.00000013,-0.00000206
 ,-0.00001088,0.00000244,-0.00000104,-0.00000180,-0.00000005,-0.0000125
 4,-0.00000760,0.00000115,0.00096793,0.00065098,0.00052475,-0.00324293,
 -0.00191125,-0.00277290,0.06088469,-0.00028649,0.00050718,0.00074698,0
 .00048394,0.00017512,-0.00101191,-0.00011431,0.00001882,0.00015563,-0.
 00002360,-0.00004916,-0.00000176,-0.00003190,0.00001634,-0.00002518,0.
 00002094,-0.00000750,0.00000642,0.00001598,-0.00000403,0.00001840,-0.0
 0001448,-0.00000683,0.00000970,-0.00000152,0.00000702,-0.00000230,0.00
 000270,0.00000326,0.00000571,0.00000371,0.00000227,-0.00000187,0.00000
 110,-0.00000124,-0.00000090,-0.00000102,0.00000217,-0.00000090,0.00040
 195,-0.01034117,-0.00338742,0.04687518,-0.30570308,-0.03335922,0.00265
 165,-0.01325555,0.00220456,0.00002760,-0.00004750,-0.00001680,-0.00000
 838,-0.00000063,0.00000981,-0.00000332,0.00000149,-0.00000263,-0.00000
 176,-0.00000586,-0.00000475,0.00000455,-0.00000008,0.00000066,-0.00000
 091,-0.00000589,0.00000035,-0.00000037,-0.00000068,-0.00000006,-0.0000
 0336,-0.00000188,-0.00000034,-0.00005543,0.00046956,-0.00018668,-0.001
 42456,0.00084336,-0.00120293,-0.04940489,0.32829285,0.00040989,-0.0002
 4655,0.00099997,0.00151296,0.00042749,-0.00067015,-0.00036400,0.000220
 04,0.00006665,0.00006325,-0.00005642,-0.00005328,0.00003338,-0.0000596
 8,0.00008924,-0.00003907,0.00002206,-0.00002535,-0.00001642,0.00006160
 ,-0.00004869,-0.00001459,0.00001120,-0.00000378,0.00000273,-0.00000773
 ,-0.00000658,-0.00000654,0.00000534,-0.00001589,-0.00001404,0.00000075
 ,0.00001314,-0.00000516,0.00000211,0.00000860,0.00000923,-0.00000495,0
 .00001007,0.00254085,-0.01988065,-0.00295897,0.01057115,-0.04520509,-0
 .05523942,-0.00756659,0.03998445,-0.00490853,0.00004191,-0.00013627,0.
 00006119,-0.00001629,-0.00000176,0.00001496,0.00000008,-0.00000972,0.0
 0000428,0.00000276,0.00001248,-0.00001901,0.00000209,-0.00000627,0.000
 00488,-0.00000151,0.00000245,-0.00000419,-0.00000002,-0.00000047,0.000
 00085,0.00000576,-0.00000189,0.00000029,0.00033013,0.00006186,0.000431
 53,-0.00369973,-0.00113609,-0.00152717,-0.00430751,0.03528678,0.067673
 58,0.00087778,0.00005841,0.00064778,-0.00014173,-0.00168118,-0.0044239
 4,-0.00136516,0.00002308,0.00076265,0.00011794,0.00018361,-0.00029842,
 0.00004936,-0.00008256,0.00021218,-0.00012952,0.00005512,-0.00006788,-
 0.00005528,0.00004800,-0.00008399,0.00002406,0.00005649,-0.00001759,-0
 .00000291,-0.00002376,-0.00000851,-0.00000633,0.00000148,-0.00002299,-
 0.00002387,0.00000435,0.00002498,-0.00000786,0.00000234,0.00000784,0.0
 0001551,-0.00001350,0.00001499,-0.01844204,0.00274521,0.00724863,-0.28
 175757,0.03416581,0.09755321,0.00615606,-0.00019680,-0.00220000,0.0000
 4618,-0.00008051,0.00015060,-0.00005317,0.00000489,-0.00000356,0.00000
 069,-0.00000861,0.00001048,0.00000790,0.00001252,-0.00000412,-0.000009
 66,-0.00001048,0.00000450,0.00000081,0.00000410,-0.00000401,0.00000005
 ,0.00000003,0.00000092,0.00001404,0.00000509,-0.00000408,0.00020851,0.
 00026235,-0.00019648,0.00105796,-0.00017939,0.00050242,-0.00318712,0.0
 0070215,0.00108917,0.29660217,0.00025828,0.00020712,0.00002412,-0.0015
 6934,-0.00054773,-0.00332300,-0.00107860,0.00017266,0.00041193,0.00000
 600,0.00008664,-0.00020902,-0.00002848,-0.00002757,0.00008246,-0.00004
 297,0.00002129,-0.00003087,-0.00001039,0.00001458,-0.00002267,0.000003
 32,0.00001360,0.00000660,0.00000225,-0.00000660,-0.00000229,-0.0000033
 2,-0.00000327,-0.00000195,-0.00000357,0.00000076,0.00000422,-0.0000013
 5,-0.00000008,0.00000232,0.00000295,-0.00000182,0.00000077,-0.01436924
 ,0.00145383,0.00543945,0.03942769,-0.05781833,-0.01757339,-0.01707394,
 -0.00028246,0.01218831,0.00001762,-0.00004123,0.00003225,-0.00002986,-
 0.00000706,0.00000904,-0.00000698,0.00000051,0.00000099,-0.00000065,0.
 00000409,0.00000080,-0.00000477,0.00000074,-0.00000113,0.00000172,0.00
 000220,0.00000092,-0.00000032,-0.00000008,0.00000053,0.00000178,0.0000
 0188,-0.00000178,0.00059198,0.00046104,0.00011744,0.00016488,0.0005241
 0,0.00093609,0.02865025,-0.00167311,-0.01241017,-0.03573707,0.05736904
 ,0.00095839,-0.00010339,0.00232285,-0.00096215,-0.00234491,-0.00517981
 ,-0.00148087,0.00015960,0.00111501,0.00002650,0.00024141,-0.00034308,0
 .00004911,-0.00008591,0.00022404,-0.00015224,0.00006059,-0.00007431,-0
 .00006229,0.00004565,-0.00007736,0.00003245,0.00007066,-0.00002915,-0.
 00000683,-0.00002032,-0.00001487,-0.00001360,0.00000876,-0.00002913,-0
 .00002305,0.00000535,0.00003342,-0.00000885,0.00000170,0.00000773,0.00
 002524,-0.00001967,0.00002374,-0.01939998,0.00253062,0.01028153,0.0888
 2943,-0.01283005,-0.08768242,0.03118383,-0.00007941,-0.02031563,0.0000
 5739,-0.00010500,0.00016213,-0.00005940,0.00000760,-0.00000641,-0.0000
 0179,-0.00000707,0.00000954,0.00000721,0.00000939,-0.00001066,-0.00000
 810,-0.00001331,0.00000752,-0.00000096,-0.00000149,-0.00000424,0.00000
 022,-0.00000067,0.00000142,0.00001537,0.00000648,-0.00000710,0.0004388
 4,0.00044072,0.00044314,0.00069939,0.00016384,0.00071810,0.00323010,-0
 .00113999,-0.00019784,-0.10065491,0.01200246,0.10231290,-0.00252199,-0
 .00252171,-0.00115887,-0.00090979,0.00014904,0.00000693,0.00025621,0.0
 0015719,-0.00001939,-0.00009109,0.00002487,0.00007079,-0.00012452,0.00
 006826,-0.00010021,0.00009922,-0.00003970,0.00002901,0.00005587,-0.000
 03834,0.00006011,-0.00001536,-0.00000331,-0.00002113,-0.00001323,0.000
 01742,-0.00000246,-0.00005309,0.00003220,0.00000031,0.00005080,-0.0000
 1341,-0.00000998,0.00001777,-0.00000831,-0.00000570,0.00002856,-0.0000
 0986,0.00000384,-0.00051164,0.00065474,-0.00002207,0.00169850,-0.00597
 286,-0.00074297,-0.11502520,0.13635559,-0.00323973,-0.00004781,0.00011
 700,-0.00007191,0.00000574,-0.00000438,-0.00001868,-0.00001811,0.00001
 188,-0.00001153,-0.00001166,-0.00001809,-0.00000271,0.00000992,0.00000
 241,0.00000238,-0.00001024,-0.00001764,0.00001765,0.00000209,-0.000001
 52,0.00000189,-0.00001489,0.00000166,-0.00000635,0.00007132,-0.0002128
 9,-0.00004599,0.00021755,-0.00016564,-0.00040798,0.00038398,-0.0007157
 8,0.00165082,0.00040007,-0.00088129,0.00035933,0.11133459,-0.00203239,
 -0.00049430,-0.00155176,0.00039346,-0.00017499,0.00107380,-0.00055290,
 0.00006949,-0.00053095,0.00020693,0.00002110,-0.00007350,0.00014699,-0
 .00006002,0.00004049,-0.00013652,0.00002854,-0.00001666,-0.00010636,0.
 00002377,-0.00002263,0.00000287,0.00008192,-0.00002947,-0.00001311,-0.
 00004050,-0.00000607,-0.00004071,0.00000549,-0.00004358,-0.00001675,-0
 .00001583,0.00003039,-0.00000264,0.00000557,0.00000649,0.00003305,-0.0
 0002912,0.00002552,0.00024559,0.00156454,0.00010262,0.00364994,-0.0110
 6582,0.00237905,0.12604439,-0.35201292,-0.00485476,-0.00001202,0.00004
 527,0.00010152,-0.00001150,-0.00000102,0.00000176,0.00001531,0.0000004
 5,0.00000982,0.00000781,0.00003773,0.00000065,-0.00001659,-0.00000938,
 0.00000235,0.00000236,0.00002206,0.00000400,0.00000271,0.00000257,0.00
 000209,0.00001771,0.00001555,-0.00000783,-0.00013473,-0.00019291,-0.00
 023459,0.00026753,-0.00016421,0.00008699,-0.00040468,0.00098001,0.0022
 4890,-0.00062213,0.00105504,-0.00087675,-0.14012406,0.37185496,0.00061
 060,0.00041758,0.00015634,-0.00064270,0.00015946,0.00008462,0.00037338
 ,-0.00007727,0.00009734,-0.00012443,0.00005316,0.00006681,-0.00013730,
 0.00005651,-0.00000773,0.00012167,-0.00003159,0.00000516,0.00008573,-0
 .00003304,-0.00000466,-0.00001200,-0.00004283,0.00002068,0.00000877,0.
 00001372,0.00002430,0.00002934,-0.00002116,0.00004172,0.00001528,0.000
 00188,-0.00004790,0.00001528,-0.00000633,0.00000002,-0.00003914,0.0000
 2825,-0.00004758,0.00021984,0.00059616,0.00084252,-0.01354723,0.031531
 15,0.00316792,-0.00514219,-0.00139879,-0.05925698,-0.00003161,0.000004
 03,-0.00007441,0.00000944,-0.00000150,-0.00000335,-0.00001354,0.000008
 18,-0.00000364,-0.00000405,-0.00001901,0.00002542,0.00000427,0.0000106
 1,-0.00001353,0.00000441,0.00000041,0.00001287,-0.00000114,0.00000126,
 -0.00000148,-0.00001449,-0.00000430,0.00001189,0.00025266,-0.00043100,
 -0.00000098,-0.00033178,-0.00088746,-0.00052325,0.00014700,0.00176533,
 -0.00617938,0.00052731,-0.00025686,0.00148708,0.00284861,0.00079223,0.
 05925418,0.00608007,-0.00263388,0.03957600,0.01005553,0.00192519,-0.04
 456591,0.00570463,-0.00096542,0.01690788,-0.00330345,0.00038347,0.0007
 2683,-0.00227199,0.00138158,-0.00125313,0.00170974,-0.00059380,0.00035
 931,0.00137779,-0.00087701,0.00111277,-0.00023102,-0.00062629,0.000105
 83,-0.00008500,0.00046487,0.00008533,-0.00000184,0.00007249,0.00041433
 ,0.00045932,-0.00002985,-0.00039039,0.00021761,-0.00010733,-0.00011510
 ,-0.00013453,0.00016466,-0.00024124,-0.00079855,0.00201428,0.00205358,
 0.00311324,-0.00715703,0.01834744,-0.21602542,-0.00999489,0.04082443,0
 .00174094,-0.00005698,-0.00092576,-0.00018360,0.00020818,-0.00020423,-
 0.00022129,0.00014661,-0.00013831,-0.00014427,-0.00065651,-0.00001111,
 0.00026695,0.00006136,-0.00000402,-0.00003333,-0.00022934,0.00014145,0
 .00000260,-0.00001027,-0.00000497,-0.00022611,-0.00004272,0.00002647,-
 0.00294257,-0.00071827,0.00012730,-0.00054969,-0.00013733,0.00076021,0
 .00023157,0.00059528,-0.00175707,-0.00041704,0.00137686,-0.00410186,-0
 .00438456,0.00326595,0.00089352,0.20509843,-0.00078294,-0.01375409,-0.
 00062128,0.00052490,-0.00050213,0.00095792,0.00019619,0.00124608,0.000
 12665,-0.00006689,-0.00003353,0.00015094,0.00001514,0.00004738,-0.0000
 5181,-0.00002710,-0.00001827,0.00001213,-0.00005709,-0.00006334,0.0000
 2807,0.00001910,0.00005000,-0.00007109,-0.00002055,-0.00002307,0.00000
 447,-0.00010390,0.00005088,-0.00005948,0.00003823,-0.00003451,0.000015
 75,0.00002071,-0.00000633,0.00000293,0.00005684,-0.00004662,0.00002408
 ,0.00036475,0.00025725,-0.00086461,-0.01361624,0.00009460,0.00653409,-
 0.01491507,-0.06802411,-0.00172746,0.00004983,0.00090758,0.00013892,-0
 .00007205,0.00000968,-0.00009864,0.00000707,0.00001093,0.00000481,-0.0
 0000303,0.00001401,-0.00002443,0.00000020,-0.00000510,0.00000871,-0.00
 002285,-0.00000637,0.00002875,0.00000618,0.00000239,0.00000447,0.00000
 876,0.00002166,-0.00000904,-0.00021383,-0.00034813,-0.00010023,0.00021
 339,-0.00021685,-0.00044593,-0.00054537,-0.00052799,0.00008423,0.00049
 113,-0.00086028,0.00181727,0.03242672,0.00564511,-0.00826935,0.0147854
 7,0.07709726,0.01467666,-0.00094924,-0.00237961,-0.00873991,0.00101909
 ,-0.01605125,0.00242468,-0.00004623,0.00223791,-0.00076128,0.00005027,
 0.00027374,-0.00073332,0.00045005,-0.00028757,0.00058599,-0.00018425,0
 .00008651,0.00040135,-0.00022744,0.00023563,-0.00011334,-0.00021466,0.
 00008852,-0.00000364,0.00009451,0.00010197,0.00007435,-0.00007844,0.00
 017076,0.00010874,-0.00002327,-0.00019829,0.00008101,-0.00002410,-0.00
 002962,-0.00014242,0.00011234,-0.00016399,-0.00010003,-0.00036090,-0.0
 0027223,0.03147297,0.00393212,-0.01308203,0.05338710,-0.00204755,-0.06
 768042,-0.00001211,0.00004185,-0.00026954,-0.00008846,0.00010251,-0.00
 000457,-0.00006220,0.00003372,-0.00003417,-0.00003706,-0.00021558,0.00
 003687,0.00008649,0.00002798,-0.00003263,0.00001971,0.00001762,0.00005
 498,-0.00000147,0.00000442,-0.00000658,-0.00007129,-0.00001418,0.00004
 258,-0.00011246,0.00002056,0.00055051,-0.00010067,-0.00025157,-0.00016
 347,-0.00023036,-0.00000504,0.00047004,-0.00118783,0.00311180,-0.00508
 717,-0.00058041,0.00027387,-0.00088363,-0.06639307,-0.00496781,0.09484
 037,-0.00443004,0.00164796,-0.00068683,-0.00035675,0.00001271,0.001401
 24,0.00008511,-0.00005570,-0.00008071,-0.00002812,-0.00000066,0.000006
 94,-0.00003812,0.00001114,-0.00006317,0.00003570,-0.00001036,0.0000191
 0,0.00001865,-0.00000261,0.00003376,0.00000461,-0.00000859,-0.00000318
 ,-0.00000430,0.00002231,-0.00002114,-0.00001626,0.00002499,0.00000366,
 0.00002324,0.00000745,0.00001278,-0.00000465,-0.00000256,-0.00000507,0
 .00002497,-0.00000799,0.00001943,0.00048371,-0.00032354,0.00073725,0.0
 0133824,0.00402369,0.00213027,-0.13592313,-0.09753214,-0.11852655,0.00
 002388,-0.00003680,-0.00011844,0.00000386,-0.00001874,-0.00001111,-0.0
 0001270,0.00000370,-0.00000920,-0.00000330,0.00000094,-0.00000590,-0.0
 0000034,0.00000346,0.00000455,-0.00000560,-0.00002510,-0.00000286,-0.0
 0000057,-0.00000356,0.00000119,-0.00000988,-0.00000503,-0.00000937,0.0
 0012934,-0.00004441,0.00024338,0.00006552,0.00001901,-0.00012495,0.000
 60312,0.00030537,-0.00045761,0.00002016,0.00033657,0.00102409,0.009120
 98,0.00992449,0.01387449,-0.00410414,-0.01877770,-0.02384775,0.1329568
 0,0.00109059,-0.00003662,0.00001679,-0.00083035,0.00008086,0.00016380,
 0.00030244,-0.00008782,0.00005296,-0.00010927,0.00000541,0.00006002,-0
 .00010681,0.00006241,-0.00003334,0.00009953,-0.00004462,0.00000826,0.0
 0007074,-0.00004108,0.00001271,-0.00000554,-0.00001881,-0.00000407,-0.
 00000237,0.00001508,0.00000380,-0.00002392,0.00000774,0.00000666,0.000
 02705,-0.00001754,-0.00001515,0.00001154,-0.00000159,-0.00000692,0.000
 00348,-0.00000712,-0.00000246,-0.00047866,-0.00203611,0.00348393,0.010
 13029,0.01212092,0.00965498,-0.09047967,-0.17429122,-0.13538439,-0.000
 08153,0.00003912,-0.00006124,0.00003675,0.00001499,-0.00000303,-0.0000
 0772,0.00001678,-0.00000171,-0.00000017,-0.00001675,0.00000553,0.00000
 339,0.00000225,-0.00000358,-0.00000167,-0.00000209,0.00000410,0.000002
 94,0.00000250,0.00000107,-0.00000721,0.00000624,0.00000322,0.00076153,
 0.00063067,0.00075129,-0.00004936,0.00013090,0.00001431,0.00060202,0.0
 0031273,0.00073197,-0.00019020,-0.00011951,0.00005582,-0.01927019,-0.0
 1719816,-0.02395939,-0.00200933,-0.00098411,0.00031757,0.10051170,0.18
 145455,0.00304854,-0.00083572,0.00193737,-0.00000571,0.00022397,-0.001
 91459,0.00047332,-0.00000785,0.00066458,-0.00019495,0.00001078,0.00009
 084,-0.00018807,0.00008120,-0.00004305,0.00015464,-0.00004648,0.000012
 86,0.00011078,-0.00004119,0.00002943,-0.00003881,-0.00004135,0.0000246
 6,-0.00000019,0.00001527,0.00002240,-0.00000090,-0.00000998,0.00003736
 ,0.00003106,-0.00001188,-0.00005795,0.00002731,-0.00001354,0.00000445,
 -0.00002935,0.00002588,-0.00004909,0.00169960,0.00399081,-0.00467421,-
 0.01474364,-0.01682475,-0.01794596,-0.11294335,-0.13797531,-0.21801463
 ,0.00009074,0.00001675,-0.00005735,-0.00000994,0.00000212,-0.00000123,
 -0.00001869,0.00000998,-0.00000618,-0.00000747,-0.00003524,0.00001005,
 0.00001526,0.00000744,-0.00001027,0.00000029,0.00000249,0.00002274,0.0
 0000076,0.00000216,0.00000013,-0.00001776,-0.00000283,0.00001230,-0.00
 133909,-0.00077014,-0.00046343,0.00037729,0.00006699,0.00018930,-0.000
 43390,0.00014035,0.00200893,0.00042065,-0.00053935,-0.00009096,0.00141
 639,0.00106600,0.00174961,-0.00235651,0.00736697,0.00743638,0.12446171
 ,0.14412647,0.22907551\\-0.00000874,-0.00000390,-0.00000127,0.00001479
 ,0.00000669,0.00000115,-0.00001308,0.00000484,-0.00000236,-0.00000229,
 0.00000098,0.00000024,0.00000199,-0.00000155,-0.00000200,-0.00000807,-
 0.00000369,0.00000868,-0.00000365,0.00000002,0.00000078,0.00000144,-0.
 00000245,-0.00000548,0.00000078,0.00000811,0.00000533,0.00000279,0.000
 00199,-0.00000682,-0.00000285,0.00000102,0.00000105,-0.00000388,-0.000
 00054,-0.00000161,0.00000361,-0.00000745,-0.00000055,0.00000194,-0.000
 00215,0.00000332,-0.00000491,0.00000093,-0.00000073,-0.00001355,-0.000
 00201,0.00000702,0.00000304,-0.00000220,0.00000307,0.00000099,-0.00000
 095,0.00000027,0.00000332,-0.00000048,0.00000029,0.00000153,-0.0000010
 4,0.00000028,0.00000203,0.00000017,0.00000130,0.00000085,-0.00000059,-
 0.00000010,0.00000143,-0.00000081,-0.00000088,0.00000329,0.00000462,-0
 .00000123,0.00000097,-0.00000057,-0.00000063,0.00000014,0.00000044,-0.
 00000017,-0.00000019,0.00000122,-0.00000144,-0.00000062,-0.00000046,-0
 .00000149,-0.00000028,0.00000161,-0.00000057,0.00001835,-0.00000206,-0
 .00000416,-0.00000117,0.00000029,-0.00000132\\\@


 MAN IS A SINGULAR CREATURE.  HE HAS A SET OF GIFTS
 WHICH MAKE HIM UNIQUE AMONG THE ANIMALS: SO THAT, 
 UNLIKE THEM, HE IS NOT A FIGURE IN THE LANDSCAPE --
 HE IS A SHAPER OF THE LANDSCAPE.

                       -- JACOB BRONOWSKI
 Job cpu time:       0 days  5 hours  6 minutes 57.5 seconds.
 File lengths (MBytes):  RWF=    608 Int=      0 D2E=      0 Chk=     18 Scr=      1
 Normal termination of Gaussian 09 at Thu Jul 29 01:33:01 2021.
