 Entering Gaussian System, Link 0=g09
 Input=opt_freq-conf-342.com
 Output=opt_freq-conf-342.log
 Initial command:
 /aerosol/software/g09/l1.exe "/scratch/nicole/10641/Gau-82745.inp" -scrdir="/scratch/nicole/10641/"
 Entering Link 1 = /aerosol/software/g09/l1.exe PID=     82749.
  
 Copyright (c) 1988,1990,1992,1993,1995,1998,2003,2009,2013,
            Gaussian, Inc.  All Rights Reserved.
  
 This is part of the Gaussian(R) 09 program.  It is based on
 the Gaussian(R) 03 system (copyright 2003, Gaussian, Inc.),
 the Gaussian(R) 98 system (copyright 1998, Gaussian, Inc.),
 the Gaussian(R) 94 system (copyright 1995, Gaussian, Inc.),
 the Gaussian 92(TM) system (copyright 1992, Gaussian, Inc.),
 the Gaussian 90(TM) system (copyright 1990, Gaussian, Inc.),
 the Gaussian 88(TM) system (copyright 1988, Gaussian, Inc.),
 the Gaussian 86(TM) system (copyright 1986, Carnegie Mellon
 University), and the Gaussian 82(TM) system (copyright 1983,
 Carnegie Mellon University). Gaussian is a federally registered
 trademark of Gaussian, Inc.
  
 This software contains proprietary and confidential information,
 including trade secrets, belonging to Gaussian, Inc.
  
 This software is provided under written license and may be
 used, copied, transmitted, or stored only in accord with that
 written license.
  
 The following legend is applicable only to US Government
 contracts under FAR:
  
                    RESTRICTED RIGHTS LEGEND
  
 Use, reproduction and disclosure by the US Government is
 subject to restrictions as set forth in subparagraphs (a)
 and (c) of the Commercial Computer Software - Restricted
 Rights clause in FAR 52.227-19.
  
 Gaussian, Inc.
 340 Quinnipiac St., Bldg. 40, Wallingford CT 06492
  
  
 ---------------------------------------------------------------
 Warning -- This program may not be used in any manner that
 competes with the business of Gaussian, Inc. or will provide
 assistance to any competitor of Gaussian, Inc.  The licensee
 of this program is prohibited from giving any competitor of
 Gaussian, Inc. access to this program.  By using this program,
 the user acknowledges that Gaussian, Inc. is engaged in the
 business of creating and licensing software in the field of
 computational chemistry and represents and warrants to the
 licensee that it is not a competitor of Gaussian, Inc. and that
 it will not use this program in any manner prohibited above.
 ---------------------------------------------------------------
  

 Cite this work as:
 Gaussian 09, Revision D.01,
 M. J. Frisch, G. W. Trucks, H. B. Schlegel, G. E. Scuseria, 
 M. A. Robb, J. R. Cheeseman, G. Scalmani, V. Barone, B. Mennucci, 
 G. A. Petersson, H. Nakatsuji, M. Caricato, X. Li, H. P. Hratchian, 
 A. F. Izmaylov, J. Bloino, G. Zheng, J. L. Sonnenberg, M. Hada, 
 M. Ehara, K. Toyota, R. Fukuda, J. Hasegawa, M. Ishida, T. Nakajima, 
 Y. Honda, O. Kitao, H. Nakai, T. Vreven, J. A. Montgomery, Jr., 
 J. E. Peralta, F. Ogliaro, M. Bearpark, J. J. Heyd, E. Brothers, 
 K. N. Kudin, V. N. Staroverov, T. Keith, R. Kobayashi, J. Normand, 
 K. Raghavachari, A. Rendell, J. C. Burant, S. S. Iyengar, J. Tomasi, 
 M. Cossi, N. Rega, J. M. Millam, M. Klene, J. E. Knox, J. B. Cross, 
 V. Bakken, C. Adamo, J. Jaramillo, R. Gomperts, R. E. Stratmann, 
 O. Yazyev, A. J. Austin, R. Cammi, C. Pomelli, J. W. Ochterski, 
 R. L. Martin, K. Morokuma, V. G. Zakrzewski, G. A. Voth, 
 P. Salvador, J. J. Dannenberg, S. Dapprich, A. D. Daniels, 
 O. Farkas, J. B. Foresman, J. V. Ortiz, J. Cioslowski, 
 and D. J. Fox, Gaussian, Inc., Wallingford CT, 2013.
 
 ******************************************
 Gaussian 09:  ES64L-G09RevD.01 24-Apr-2013
                28-Jul-2021 
 ******************************************
 %mem=2gb
 %nproc=4
 Will use up to    4 processors via shared memory.
 %chk=conf-342.chk
 ----------------------------------------------------------------------
 # B3LYP/6-311++G(d,p) opt=calcfc freq=noraman nosymm integral(ultrafin
 egrid)
 ----------------------------------------------------------------------
 1/10=4,14=-1,18=20,19=15,26=4,38=1/1,3;
 2/9=110,12=2,15=1,17=6,18=5,40=1/2;
 3/5=4,6=6,7=1111,11=2,16=1,25=1,30=1,71=2,74=-5,75=-5,140=1/1,2,3;
 4//1;
 5/5=2,38=5/2;
 8/6=4,10=90,11=11/1;
 11/6=1,8=1,9=11,15=111,16=1,31=1/1,2,10;
 10/6=1,13=1,31=1/2;
 6/7=2,8=2,9=2,10=2,28=1/1;
 7/10=1,18=20,25=1,30=1/1,2,3,16;
 1/10=4,14=-1,18=20,19=15,26=4/3(2);
 2/9=110,15=1/2;
 99//99;
 2/9=110,15=1/2;
 3/5=4,6=6,7=1111,11=2,16=1,25=1,30=1,71=1,74=-5,75=-5/1,2,3;
 4/5=5,16=3,69=1/1;
 5/5=2,38=5/2;
 7/30=1/1,2,3,16;
 1/14=-1,18=20,19=15,26=4/3(-5);
 2/9=110,15=1/2;
 6/7=2,8=2,9=2,10=2,19=2,28=1/1;
 99/9=1/99;
 ------------------------------------------------------------
 Candidate Structure: Conf:342 OPT and FREQ calc in gas phase
 ------------------------------------------------------------
 Symbolic Z-matrix:
 Charge =  1 Multiplicity = 1
 O                     0.48802  -1.04421  -0.1281 
 C                     1.12385  -0.01749  -0.37361 
 N                     0.49047   1.13594  -0.6784 
 C                    -0.95233   1.1798   -0.7779 
 C                    -1.31346   2.46054  -1.51699 
 O                    -2.62801   2.61896  -1.77297 
 O                    -0.51      3.28466  -1.8519 
 C                    -1.63884   1.09438   0.62074 
 C                    -2.6427   -0.01018   0.70235 
 C                    -3.98987  -0.02168   0.90501 
 N                    -4.47679  -1.31734   0.86655 
 C                    -3.42519  -2.06674   0.63906 
 N                    -2.29364  -1.32744   0.53059 
 C                     2.63954   0.02136  -0.38261 
 C                     3.23439  -0.9979    0.57318 
 N                     4.72017  -1.02743   0.50222 
 H                     0.98137   1.94095  -1.03734 
 H                    -1.27896   0.34084  -1.40351 
 H                    -3.11555   1.84612  -1.4643 
 H                    -2.13152   2.03418   0.87054 
 H                    -0.86367   0.94257   1.36936 
 H                    -4.64492   0.82058   1.07669 
 H                    -3.41306  -3.13835   0.54534 
 H                    -1.35254  -1.64532   0.35214 
 H                     2.98248   1.02797  -0.1359 
 H                     2.97543  -0.20079  -1.39969 
 H                     2.83034  -1.97896   0.32785 
 H                     2.92493  -0.76764   1.59206 
 H                     5.03857  -1.26512  -0.43712 
 H                     5.12401  -0.12292   0.74615 
 H                     5.11721  -1.71841   1.14051 
 

 GradGradGradGradGradGradGradGradGradGradGradGradGradGradGradGradGradGrad
 Berny optimization.
 Initialization pass.
                           ----------------------------
                           !    Initial Parameters    !
                           ! (Angstroms and Degrees)  !
 --------------------------                            --------------------------
 ! Name  Definition              Value          Derivative Info.                !
 --------------------------------------------------------------------------------
 ! R1    R(1,2)                  1.2324         calculate D2E/DX2 analytically  !
 ! R2    R(2,3)                  1.3507         calculate D2E/DX2 analytically  !
 ! R3    R(2,14)                 1.5162         calculate D2E/DX2 analytically  !
 ! R4    R(3,4)                  1.4469         calculate D2E/DX2 analytically  !
 ! R5    R(3,17)                 1.0089         calculate D2E/DX2 analytically  !
 ! R6    R(4,5)                  1.5222         calculate D2E/DX2 analytically  !
 ! R7    R(4,8)                  1.5604         calculate D2E/DX2 analytically  !
 ! R8    R(4,18)                 1.0963         calculate D2E/DX2 analytically  !
 ! R9    R(5,6)                  1.3486         calculate D2E/DX2 analytically  !
 ! R10   R(5,7)                  1.1987         calculate D2E/DX2 analytically  !
 ! R11   R(6,19)                 0.9645         calculate D2E/DX2 analytically  !
 ! R12   R(8,9)                  1.4948         calculate D2E/DX2 analytically  !
 ! R13   R(8,20)                 1.0901         calculate D2E/DX2 analytically  !
 ! R14   R(8,21)                 1.0883         calculate D2E/DX2 analytically  !
 ! R15   R(9,10)                 1.3624         calculate D2E/DX2 analytically  !
 ! R16   R(9,13)                 1.3735         calculate D2E/DX2 analytically  !
 ! R17   R(10,11)                1.3847         calculate D2E/DX2 analytically  !
 ! R18   R(10,22)                1.0807         calculate D2E/DX2 analytically  !
 ! R19   R(11,12)                1.3112         calculate D2E/DX2 analytically  !
 ! R20   R(12,13)                1.356          calculate D2E/DX2 analytically  !
 ! R21   R(12,23)                1.0758         calculate D2E/DX2 analytically  !
 ! R22   R(13,24)                1.0092         calculate D2E/DX2 analytically  !
 ! R23   R(14,15)                1.5186         calculate D2E/DX2 analytically  !
 ! R24   R(14,25)                1.0917         calculate D2E/DX2 analytically  !
 ! R25   R(14,26)                1.0939         calculate D2E/DX2 analytically  !
 ! R26   R(15,16)                1.4878         calculate D2E/DX2 analytically  !
 ! R27   R(15,27)                1.089          calculate D2E/DX2 analytically  !
 ! R28   R(15,28)                1.0895         calculate D2E/DX2 analytically  !
 ! R29   R(16,29)                1.0199         calculate D2E/DX2 analytically  !
 ! R30   R(16,30)                1.0202         calculate D2E/DX2 analytically  !
 ! R31   R(16,31)                1.021          calculate D2E/DX2 analytically  !
 ! A1    A(1,2,3)              120.9619         calculate D2E/DX2 analytically  !
 ! A2    A(1,2,14)             122.5677         calculate D2E/DX2 analytically  !
 ! A3    A(3,2,14)             116.457          calculate D2E/DX2 analytically  !
 ! A4    A(2,3,4)              120.5963         calculate D2E/DX2 analytically  !
 ! A5    A(2,3,17)             122.2413         calculate D2E/DX2 analytically  !
 ! A6    A(4,3,17)             115.884          calculate D2E/DX2 analytically  !
 ! A7    A(3,4,5)              107.1857         calculate D2E/DX2 analytically  !
 ! A8    A(3,4,8)              112.0505         calculate D2E/DX2 analytically  !
 ! A9    A(3,4,18)             108.2482         calculate D2E/DX2 analytically  !
 ! A10   A(5,4,8)              112.142          calculate D2E/DX2 analytically  !
 ! A11   A(5,4,18)             107.2244         calculate D2E/DX2 analytically  !
 ! A12   A(8,4,18)             109.7869         calculate D2E/DX2 analytically  !
 ! A13   A(4,5,6)              114.9777         calculate D2E/DX2 analytically  !
 ! A14   A(4,5,7)              123.7188         calculate D2E/DX2 analytically  !
 ! A15   A(6,5,7)              121.3027         calculate D2E/DX2 analytically  !
 ! A16   A(5,6,19)             109.7462         calculate D2E/DX2 analytically  !
 ! A17   A(4,8,9)              112.6345         calculate D2E/DX2 analytically  !
 ! A18   A(4,8,20)             110.9184         calculate D2E/DX2 analytically  !
 ! A19   A(4,8,21)             108.1098         calculate D2E/DX2 analytically  !
 ! A20   A(9,8,20)             108.7249         calculate D2E/DX2 analytically  !
 ! A21   A(9,8,21)             109.7374         calculate D2E/DX2 analytically  !
 ! A22   A(20,8,21)            106.5321         calculate D2E/DX2 analytically  !
 ! A23   A(8,9,10)             132.7209         calculate D2E/DX2 analytically  !
 ! A24   A(8,9,13)             122.0847         calculate D2E/DX2 analytically  !
 ! A25   A(10,9,13)            105.1775         calculate D2E/DX2 analytically  !
 ! A26   A(9,10,11)            110.5788         calculate D2E/DX2 analytically  !
 ! A27   A(9,10,22)            128.0541         calculate D2E/DX2 analytically  !
 ! A28   A(11,10,22)           121.3671         calculate D2E/DX2 analytically  !
 ! A29   A(10,11,12)           104.9269         calculate D2E/DX2 analytically  !
 ! A30   A(11,12,13)           111.8108         calculate D2E/DX2 analytically  !
 ! A31   A(11,12,23)           126.4054         calculate D2E/DX2 analytically  !
 ! A32   A(13,12,23)           121.7836         calculate D2E/DX2 analytically  !
 ! A33   A(9,13,12)            107.5055         calculate D2E/DX2 analytically  !
 ! A34   A(9,13,24)            124.1364         calculate D2E/DX2 analytically  !
 ! A35   A(12,13,24)           128.3572         calculate D2E/DX2 analytically  !
 ! A36   A(2,14,15)            111.7542         calculate D2E/DX2 analytically  !
 ! A37   A(2,14,25)            109.6529         calculate D2E/DX2 analytically  !
 ! A38   A(2,14,26)            107.8944         calculate D2E/DX2 analytically  !
 ! A39   A(15,14,25)           110.7074         calculate D2E/DX2 analytically  !
 ! A40   A(15,14,26)           109.1835         calculate D2E/DX2 analytically  !
 ! A41   A(25,14,26)           107.513          calculate D2E/DX2 analytically  !
 ! A42   A(14,15,16)           111.9921         calculate D2E/DX2 analytically  !
 ! A43   A(14,15,27)           108.5138         calculate D2E/DX2 analytically  !
 ! A44   A(14,15,28)           109.6021         calculate D2E/DX2 analytically  !
 ! A45   A(16,15,27)           109.9929         calculate D2E/DX2 analytically  !
 ! A46   A(16,15,28)           109.4185         calculate D2E/DX2 analytically  !
 ! A47   A(27,15,28)           107.1997         calculate D2E/DX2 analytically  !
 ! A48   A(15,16,29)           111.1194         calculate D2E/DX2 analytically  !
 ! A49   A(15,16,30)           111.4892         calculate D2E/DX2 analytically  !
 ! A50   A(15,16,31)           111.8363         calculate D2E/DX2 analytically  !
 ! A51   A(29,16,30)           107.6538         calculate D2E/DX2 analytically  !
 ! A52   A(29,16,31)           107.2566         calculate D2E/DX2 analytically  !
 ! A53   A(30,16,31)           107.2547         calculate D2E/DX2 analytically  !
 ! D1    D(1,2,3,4)             -2.5603         calculate D2E/DX2 analytically  !
 ! D2    D(1,2,3,17)          -169.1118         calculate D2E/DX2 analytically  !
 ! D3    D(14,2,3,4)           176.1388         calculate D2E/DX2 analytically  !
 ! D4    D(14,2,3,17)            9.5873         calculate D2E/DX2 analytically  !
 ! D5    D(1,2,14,15)          -29.3941         calculate D2E/DX2 analytically  !
 ! D6    D(1,2,14,25)         -152.5395         calculate D2E/DX2 analytically  !
 ! D7    D(1,2,14,26)           90.647          calculate D2E/DX2 analytically  !
 ! D8    D(3,2,14,15)          151.9296         calculate D2E/DX2 analytically  !
 ! D9    D(3,2,14,25)           28.7842         calculate D2E/DX2 analytically  !
 ! D10   D(3,2,14,26)          -88.0293         calculate D2E/DX2 analytically  !
 ! D11   D(2,3,4,5)           -163.6093         calculate D2E/DX2 analytically  !
 ! D12   D(2,3,4,8)             72.96           calculate D2E/DX2 analytically  !
 ! D13   D(2,3,4,18)           -48.247          calculate D2E/DX2 analytically  !
 ! D14   D(17,3,4,5)             3.7612         calculate D2E/DX2 analytically  !
 ! D15   D(17,3,4,8)          -119.6694         calculate D2E/DX2 analytically  !
 ! D16   D(17,3,4,18)          119.1235         calculate D2E/DX2 analytically  !
 ! D17   D(3,4,5,6)            175.9687         calculate D2E/DX2 analytically  !
 ! D18   D(3,4,5,7)             -4.3549         calculate D2E/DX2 analytically  !
 ! D19   D(8,4,5,6)            -60.6569         calculate D2E/DX2 analytically  !
 ! D20   D(8,4,5,7)            119.0194         calculate D2E/DX2 analytically  !
 ! D21   D(18,4,5,6)            59.9261         calculate D2E/DX2 analytically  !
 ! D22   D(18,4,5,7)          -120.3976         calculate D2E/DX2 analytically  !
 ! D23   D(3,4,8,9)           -125.686          calculate D2E/DX2 analytically  !
 ! D24   D(3,4,8,20)           112.1914         calculate D2E/DX2 analytically  !
 ! D25   D(3,4,8,21)            -4.2648         calculate D2E/DX2 analytically  !
 ! D26   D(5,4,8,9)            113.7174         calculate D2E/DX2 analytically  !
 ! D27   D(5,4,8,20)            -8.4053         calculate D2E/DX2 analytically  !
 ! D28   D(5,4,8,21)          -124.8614         calculate D2E/DX2 analytically  !
 ! D29   D(18,4,8,9)            -5.37           calculate D2E/DX2 analytically  !
 ! D30   D(18,4,8,20)         -127.4926         calculate D2E/DX2 analytically  !
 ! D31   D(18,4,8,21)          116.0512         calculate D2E/DX2 analytically  !
 ! D32   D(4,5,6,19)            -2.5335         calculate D2E/DX2 analytically  !
 ! D33   D(7,5,6,19)           177.7816         calculate D2E/DX2 analytically  !
 ! D34   D(4,8,9,10)          -116.9921         calculate D2E/DX2 analytically  !
 ! D35   D(4,8,9,13)            61.2759         calculate D2E/DX2 analytically  !
 ! D36   D(20,8,9,10)            6.3605         calculate D2E/DX2 analytically  !
 ! D37   D(20,8,9,13)         -175.3716         calculate D2E/DX2 analytically  !
 ! D38   D(21,8,9,10)          122.517          calculate D2E/DX2 analytically  !
 ! D39   D(21,8,9,13)          -59.215          calculate D2E/DX2 analytically  !
 ! D40   D(8,9,10,11)          178.6945         calculate D2E/DX2 analytically  !
 ! D41   D(8,9,10,22)           -1.2916         calculate D2E/DX2 analytically  !
 ! D42   D(13,9,10,11)           0.2149         calculate D2E/DX2 analytically  !
 ! D43   D(13,9,10,22)        -179.7711         calculate D2E/DX2 analytically  !
 ! D44   D(8,9,13,12)         -178.8625         calculate D2E/DX2 analytically  !
 ! D45   D(8,9,13,24)            0.8159         calculate D2E/DX2 analytically  !
 ! D46   D(10,9,13,12)          -0.1809         calculate D2E/DX2 analytically  !
 ! D47   D(10,9,13,24)         179.4975         calculate D2E/DX2 analytically  !
 ! D48   D(9,10,11,12)          -0.1645         calculate D2E/DX2 analytically  !
 ! D49   D(22,10,11,12)        179.8226         calculate D2E/DX2 analytically  !
 ! D50   D(10,11,12,13)          0.0452         calculate D2E/DX2 analytically  !
 ! D51   D(10,11,12,23)        179.8721         calculate D2E/DX2 analytically  !
 ! D52   D(11,12,13,9)           0.0867         calculate D2E/DX2 analytically  !
 ! D53   D(11,12,13,24)       -179.5738         calculate D2E/DX2 analytically  !
 ! D54   D(23,12,13,9)        -179.7494         calculate D2E/DX2 analytically  !
 ! D55   D(23,12,13,24)          0.5901         calculate D2E/DX2 analytically  !
 ! D56   D(2,14,15,16)         176.1956         calculate D2E/DX2 analytically  !
 ! D57   D(2,14,15,27)          54.588          calculate D2E/DX2 analytically  !
 ! D58   D(2,14,15,28)         -62.1737         calculate D2E/DX2 analytically  !
 ! D59   D(25,14,15,16)        -61.2594         calculate D2E/DX2 analytically  !
 ! D60   D(25,14,15,27)        177.133          calculate D2E/DX2 analytically  !
 ! D61   D(25,14,15,28)         60.3713         calculate D2E/DX2 analytically  !
 ! D62   D(26,14,15,16)         56.9136         calculate D2E/DX2 analytically  !
 ! D63   D(26,14,15,27)        -64.694          calculate D2E/DX2 analytically  !
 ! D64   D(26,14,15,28)        178.5443         calculate D2E/DX2 analytically  !
 ! D65   D(14,15,16,29)        -59.739          calculate D2E/DX2 analytically  !
 ! D66   D(14,15,16,30)         60.3573         calculate D2E/DX2 analytically  !
 ! D67   D(14,15,16,31)       -179.565          calculate D2E/DX2 analytically  !
 ! D68   D(27,15,16,29)         61.0149         calculate D2E/DX2 analytically  !
 ! D69   D(27,15,16,30)       -178.8888         calculate D2E/DX2 analytically  !
 ! D70   D(27,15,16,31)        -58.8111         calculate D2E/DX2 analytically  !
 ! D71   D(28,15,16,29)        178.5249         calculate D2E/DX2 analytically  !
 ! D72   D(28,15,16,30)        -61.3788         calculate D2E/DX2 analytically  !
 ! D73   D(28,15,16,31)         58.6989         calculate D2E/DX2 analytically  !
 --------------------------------------------------------------------------------
 Trust Radius=3.00D-01 FncErr=1.00D-07 GrdErr=1.00D-06
 Number of steps in this run=    167 maximum allowed number of steps=    186.
 GradGradGradGradGradGradGradGradGradGradGradGradGradGradGradGradGradGrad

                          Input orientation:                          
 ---------------------------------------------------------------------
 Center     Atomic      Atomic             Coordinates (Angstroms)
 Number     Number       Type             X           Y           Z
 ---------------------------------------------------------------------
      1          8           0        0.488024   -1.044212   -0.128100
      2          6           0        1.123845   -0.017492   -0.373609
      3          7           0        0.490472    1.135943   -0.678403
      4          6           0       -0.952331    1.179802   -0.777899
      5          6           0       -1.313456    2.460537   -1.516985
      6          8           0       -2.628012    2.618957   -1.772967
      7          8           0       -0.510003    3.284664   -1.851898
      8          6           0       -1.638845    1.094382    0.620743
      9          6           0       -2.642701   -0.010178    0.702351
     10          6           0       -3.989868   -0.021681    0.905013
     11          7           0       -4.476793   -1.317343    0.866546
     12          6           0       -3.425194   -2.066739    0.639055
     13          7           0       -2.293636   -1.327439    0.530588
     14          6           0        2.639540    0.021364   -0.382610
     15          6           0        3.234388   -0.997902    0.573178
     16          7           0        4.720173   -1.027433    0.502220
     17          1           0        0.981373    1.940946   -1.037338
     18          1           0       -1.278962    0.340841   -1.403513
     19          1           0       -3.115548    1.846115   -1.464303
     20          1           0       -2.131516    2.034185    0.870539
     21          1           0       -0.863674    0.942566    1.369359
     22          1           0       -4.644919    0.820583    1.076687
     23          1           0       -3.413057   -3.138350    0.545338
     24          1           0       -1.352539   -1.645316    0.352137
     25          1           0        2.982476    1.027973   -0.135904
     26          1           0        2.975428   -0.200789   -1.399690
     27          1           0        2.830344   -1.978956    0.327855
     28          1           0        2.924933   -0.767636    1.592065
     29          1           0        5.038567   -1.265120   -0.437119
     30          1           0        5.124010   -0.122922    0.746146
     31          1           0        5.117207   -1.718407    1.140508
 ---------------------------------------------------------------------
                    Distance matrix (angstroms):
                    1          2          3          4          5
     1  O    0.000000
     2  C    1.232354   0.000000
     3  N    2.248537   1.350731   0.000000
     4  C    2.728204   2.430528   1.446894   0.000000
     5  C    4.178230   3.659013   2.389964   1.522151   0.000000
     6  O    5.082723   4.794319   3.622478   2.422651   1.348584
     7  O    4.765156   3.969765   2.644815   2.404075   1.198704
     8  C    3.107719   3.139658   2.494694   1.560384   2.557761
     9  C    3.400046   3.917220   3.610658   2.542547   3.577259
    10  C    4.707909   5.271143   4.890884   3.674559   4.380715
    11  N    5.070831   5.881729   5.751453   4.621879   5.473600
    12  C    4.116718   5.091037   5.227362   4.320050   5.440972
    13  N    2.872580   3.769975   3.909114   3.130095   4.416115
    14  C    2.414384   1.516220   2.438908   3.794702   4.781480
    15  C    2.834863   2.512369   3.694431   4.908809   6.083787
    16  N    4.278863   3.836747   4.895348   6.219959   7.255881
    17  H    3.159316   2.072755   1.008884   2.094244   2.401308
    18  H    2.582110   2.638672   2.070959   1.096328   2.123011
    19  H    4.808863   4.757636   3.758373   2.365298   1.904685
    20  H    4.163628   4.044089   3.175040   2.199499   2.559545
    21  H    2.831388   2.812451   2.462608   2.162142   3.292040
    22  H    5.592502   6.007027   5.436179   4.147739   4.529374
    23  H    4.478545   5.582804   5.916475   5.143206   6.325270
    24  H    1.994900   3.051065   3.492006   3.068947   4.511449
    25  H    3.242885   2.145696   2.552655   3.989726   4.734413
    26  H    2.918130   2.124806   2.912407   4.209506   5.048856
    27  H    2.562831   2.692866   4.023699   5.050650   6.346938
    28  H    2.995661   2.769568   3.834741   4.943927   6.168569
    29  H    4.566370   4.109216   5.148639   6.479555   7.442771
    30  H    4.806813   4.155272   5.008368   6.398572   7.296369
    31  H    4.846983   4.597021   5.732576   6.994225   8.116605
                    6          7          8          9         10
     6  O    0.000000
     7  O    2.221567   0.000000
     8  C    3.005433   3.490785   0.000000
     9  C    3.611062   4.682796   1.494804   0.000000
    10  C    3.999900   5.535516   2.617960   1.362374   0.000000
    11  N    5.087188   6.656113   3.732397   2.258215   1.384672
    12  C    5.330018   6.583366   3.630986   2.201305   2.138189
    13  N    4.581727   5.488997   2.510398   1.373509   2.173109
    14  C    6.035535   4.767343   4.523567   5.392607   6.753434
    15  C    7.276935   6.183997   5.303612   5.960910   7.297465
    16  N    8.512841   7.175709   6.704718   7.435508   8.777163
    17  H    3.745465   2.166400   3.214256   4.468480   5.686639
    18  H    2.673246   3.075458   2.189737   2.533310   3.579067
    19  H    0.964495   3.001420   2.663301   2.892023   3.141139
    20  H    2.752561   3.406562   1.090116   2.114005   2.771506
    21  H    3.974593   3.998376   1.088285   2.125455   3.304312
    22  H    3.927161   5.634345   3.052759   2.199811   1.080728
    23  H    6.255991   7.445105   4.590156   3.225455   3.189938
    24  H    4.932232   5.465559   2.767681   2.112070   3.146007
    25  H    6.057127   4.498300   4.683325   5.781267   7.127332
    26  H    6.284015   4.949859   5.201070   6.001524   7.338875
    27  H    7.439617   6.604161   5.431835   5.828426   7.118941
    28  H    7.323090   6.330940   5.023807   5.688926   6.988774
    29  H    8.697527   7.313601   7.160597   7.866076   9.211954
    30  H    8.599865   7.078388   6.872682   7.767653   9.115825
    31  H    9.342884   8.102513   7.336632   7.957776   9.266777
                   11         12         13         14         15
    11  N    0.000000
    12  C    1.311184   0.000000
    13  N    2.208878   1.356006   0.000000
    14  C    7.348110   6.494996   5.195135   0.000000
    15  C    7.723368   6.745130   5.538001   1.518643   0.000000
    16  N    9.208744   8.212544   7.020279   2.492375   1.487772
    17  H    6.635721   6.187864   4.885327   2.619729   4.038151
    18  H    4.257800   3.817700   2.748357   4.061892   5.105866
    19  H    4.158523   4.453136   3.837522   6.133581   7.249927
    20  H    4.090609   4.306363   3.382657   5.327739   6.170486
    21  H    4.291228   4.018786   2.810917   4.023744   4.603632
    22  H    2.154798   3.164787   3.231216   7.472058   8.102091
    23  H    2.133254   1.075771   2.129019   6.890487   6.983611
    24  H    3.183259   2.134436   1.009234   4.387980   4.637662
    25  H    7.883280   7.157936   5.816316   1.091664   2.161117
    26  H    7.868807   6.971816   5.723491   1.093903   2.143515
    27  H    7.356776   6.263889   5.169211   2.131302   1.088992
    28  H    7.457486   6.551336   5.354771   2.145533   1.089456
    29  H    9.604392   8.569481   7.396049   2.722746   2.084987
    30  H    9.675565   8.768055   7.517899   2.732673   2.089541
    31  H    9.606287   8.564194   7.446170   3.389031   2.094278
                   16         17         18         19         20
    16  N    0.000000
    17  H    5.015988   0.000000
    18  H    6.441554   2.793480   0.000000
    19  H    8.574556   4.120201   2.375414   0.000000
    20  H    7.513641   3.652227   2.960670   2.540704   0.000000
    21  H    5.984327   3.192671   2.867639   3.730547   1.745817
    22  H    9.562956   6.113876   4.208469   3.138044   2.798664
    23  H    8.402813   6.900372   4.522959   5.382570   5.338841
    24  H    6.105910   4.498784   2.651893   4.312510   3.796613
    25  H    2.766132   2.377082   4.498760   6.294434   5.308324
    26  H    2.710118   2.948658   4.288731   6.426040   6.019130
    27  H    2.123030   4.544015   5.026479   7.293602   6.404675
    28  H    2.116163   4.245892   5.279672   7.256755   5.825674
    29  H    1.019915   5.205761   6.589705   8.787746   8.000342
    30  H    1.020159   4.960021   6.770093   8.755199   7.570419
    31  H    1.021026   5.936245   7.184952   9.341794   8.166934
                   21         22         23         24         25
    21  H    0.000000
    22  H    3.794517   0.000000
    23  H    4.881828   4.180068   0.000000
    24  H    2.823271   4.176768   2.551904   0.000000
    25  H    4.131099   7.725966   7.663236   5.116348   0.000000
    26  H    4.869661   8.077459   7.295557   4.887418   1.762686
    27  H    4.823462   8.017339   6.353861   4.196238   3.046283
    28  H    4.162683   7.751820   6.847338   4.539219   2.492670
    29  H    6.555432  10.020563   8.712300   6.450869   3.094595
    30  H    6.113593   9.819951   9.056194   6.664730   2.586260
    31  H    6.550121  10.087104   8.668095   6.518013   3.705254
                   26         27         28         29         30
    26  H    0.000000
    27  H    2.483413   0.000000
    28  H    3.045401   1.753416   0.000000
    29  H    2.513143   2.443562   2.971957   0.000000
    30  H    3.037611   2.980057   2.442781   1.646825   0.000000
    31  H    3.652806   2.440909   2.431858   1.643339   1.643515
                   31
    31  H    0.000000
 Symmetry turned off by external request.
 Stoichiometry    C9H15N4O3(1+)
 Framework group  C1[X(C9H15N4O3)]
 Deg. of freedom    87
 Full point group                 C1      NOp   1
 Rotational constants (GHZ):      0.6579548      0.3092405      0.2195217
 Standard basis: 6-311++G(d,p) (5D, 7F)
   457 basis functions,   711 primitive gaussians,   473 cartesian basis functions
    60 alpha electrons       60 beta electrons
       nuclear repulsion energy      1130.0178159133 Hartrees.
 NAtoms=   31 NActive=   31 NUniq=   31 SFac= 1.00D+00 NAtFMM=   60 NAOKFM=F Big=F
 Integral buffers will be    131072 words long.
 Raffenetti 2 integral format.
 Two-electron integral symmetry is turned off.
 One-electron integrals computed using PRISM.
 NBasis=   457 RedAO= T EigKep=  2.59D-06  NBF=   457
 NBsUse=   457 1.00D-06 EigRej= -1.00D+00 NBFU=   457
 ExpMin= 3.60D-02 ExpMax= 8.59D+03 ExpMxC= 1.30D+03 IAcc=3 IRadAn=         5 AccDes= 0.00D+00
 Harris functional with IExCor=  402 and IRadAn=       5 diagonalized for initial guess.
 HarFok:  IExCor=  402 AccDes= 0.00D+00 IRadAn=         5 IDoV= 1 UseB2=F ITyADJ=14
 ICtDFT=  3500011 ScaDFX=  1.000000  1.000000  1.000000  1.000000
 FoFCou: FMM=F IPFlag=           0 FMFlag=      100000 FMFlg1=           0
         NFxFlg=           0 DoJE=T BraDBF=F KetDBF=T FulRan=T
         wScrn=  0.000000 ICntrl=     500 IOpCl=  0 I1Cent=   200000004 NGrid=           0
         NMat0=    1 NMatS0=      1 NMatT0=    0 NMatD0=    1 NMtDS0=    0 NMtDT0=    0
 Symmetry not used in FoFCou.
 Requested convergence on RMS density matrix=1.00D-08 within 128 cycles.
 Requested convergence on MAX density matrix=1.00D-06.
 Requested convergence on             energy=1.00D-06.
 No special actions if energy rises.
 EnCoef did     2 forward-backward iterations
 SCF Done:  E(RB3LYP) =  -796.678485658     A.U. after   18 cycles
            NFock= 18  Conv=0.11D-08     -V/T= 2.0036
 DoSCS=F DFT=T ScalE2(SS,OS)=  1.000000  1.000000
 Range of M.O.s used for correlation:     1   457
 NBasis=   457 NAE=    60 NBE=    60 NFC=     0 NFV=     0
 NROrb=    457 NOA=    60 NOB=    60 NVA=   397 NVB=   397

 **** Warning!!: The largest alpha MO coefficient is  0.12813422D+03

 Symmetrizing basis deriv contribution to polar:
 IMax=3 JMax=2 DiffMx= 0.00D+00
 G2DrvN: will do    32 centers at a time, making    1 passes.
 Calling FoFCou, ICntrl=  3107 FMM=F I1Cent=   0 AccDes= 0.00D+00.
 End of G2Drv F.D. properties file   721 does not exist.
 End of G2Drv F.D. properties file   722 does not exist.
 End of G2Drv F.D. properties file   788 does not exist.
          IDoAtm=1111111111111111111111111111111
          Differentiating once with respect to nuclear coordinates.
          There are    96 degrees of freedom in the 1st order CPHF.  IDoFFX=6 NUNeed=     0.
     90 vectors produced by pass  0 Test12= 2.48D-14 1.04D-09 XBig12= 2.05D-01 6.66D-02.
 AX will form    90 AO Fock derivatives at one time.
     90 vectors produced by pass  1 Test12= 2.48D-14 1.04D-09 XBig12= 3.24D-02 4.50D-02.
     90 vectors produced by pass  2 Test12= 2.48D-14 1.04D-09 XBig12= 3.16D-04 2.61D-03.
     90 vectors produced by pass  3 Test12= 2.48D-14 1.04D-09 XBig12= 1.20D-06 1.25D-04.
     90 vectors produced by pass  4 Test12= 2.48D-14 1.04D-09 XBig12= 2.56D-09 4.86D-06.
     84 vectors produced by pass  5 Test12= 2.48D-14 1.04D-09 XBig12= 3.54D-12 1.60D-07.
     31 vectors produced by pass  6 Test12= 2.48D-14 1.04D-09 XBig12= 5.12D-15 8.80D-09.
      9 vectors produced by pass  7 Test12= 2.48D-14 1.04D-09 XBig12= 5.62D-16 2.24D-09.
      3 vectors produced by pass  8 Test12= 2.48D-14 1.04D-09 XBig12= 3.92D-16 2.06D-09.
      3 vectors produced by pass  9 Test12= 2.48D-14 1.04D-09 XBig12= 9.84D-15 8.38D-09.
      3 vectors produced by pass 10 Test12= 2.48D-14 1.04D-09 XBig12= 1.23D-15 3.63D-09.
      3 vectors produced by pass 11 Test12= 2.48D-14 1.04D-09 XBig12= 7.80D-15 6.85D-09.
      2 vectors produced by pass 12 Test12= 2.48D-14 1.04D-09 XBig12= 1.25D-15 3.91D-09.
 InvSVY:  IOpt=1 It=  1 EMax= 6.66D-16
 Solved reduced A of dimension   588 with    96 vectors.
 End of Minotr F.D. properties file   721 does not exist.
 End of Minotr F.D. properties file   722 does not exist.
 End of Minotr F.D. properties file   788 does not exist.

 **********************************************************************

            Population analysis using the SCF density.

 **********************************************************************

 Alpha  occ. eigenvalues --  -19.28111 -19.24964 -19.23070 -14.66011 -14.48830
 Alpha  occ. eigenvalues --  -14.44518 -14.37068 -10.43986 -10.43195 -10.42410
 Alpha  occ. eigenvalues --  -10.37563 -10.35755 -10.30448 -10.30334 -10.29272
 Alpha  occ. eigenvalues --  -10.26632  -1.23228  -1.22528  -1.20259  -1.14818
 Alpha  occ. eigenvalues --   -1.10402  -1.08019  -0.99046  -0.95648  -0.92019
 Alpha  occ. eigenvalues --   -0.87450  -0.84234  -0.81412  -0.80737  -0.78345
 Alpha  occ. eigenvalues --   -0.74528  -0.72621  -0.71950  -0.70416  -0.68960
 Alpha  occ. eigenvalues --   -0.67909  -0.66595  -0.64872  -0.62571  -0.61082
 Alpha  occ. eigenvalues --   -0.59635  -0.59074  -0.57958  -0.56817  -0.55899
 Alpha  occ. eigenvalues --   -0.55203  -0.53683  -0.51926  -0.51128  -0.50355
 Alpha  occ. eigenvalues --   -0.49989  -0.49430  -0.49026  -0.44004  -0.42849
 Alpha  occ. eigenvalues --   -0.41447  -0.40248  -0.36519  -0.34971  -0.31960
 Alpha virt. eigenvalues --   -0.21340  -0.16205  -0.15571  -0.14885  -0.13777
 Alpha virt. eigenvalues --   -0.11855  -0.11560  -0.10323  -0.09881  -0.09319
 Alpha virt. eigenvalues --   -0.08744  -0.07978  -0.07322  -0.06473  -0.06316
 Alpha virt. eigenvalues --   -0.06110  -0.05736  -0.05068  -0.04565  -0.03851
 Alpha virt. eigenvalues --   -0.03722  -0.02980  -0.02473  -0.02235  -0.01835
 Alpha virt. eigenvalues --   -0.01424  -0.01166  -0.00848  -0.00591  -0.00129
 Alpha virt. eigenvalues --    0.00028   0.00250   0.00851   0.01100   0.01416
 Alpha virt. eigenvalues --    0.01762   0.02227   0.02427   0.02858   0.03268
 Alpha virt. eigenvalues --    0.03552   0.04034   0.04366   0.04622   0.05085
 Alpha virt. eigenvalues --    0.05246   0.05560   0.05857   0.06657   0.07011
 Alpha virt. eigenvalues --    0.07062   0.07455   0.07843   0.08053   0.08165
 Alpha virt. eigenvalues --    0.08961   0.09180   0.09794   0.10030   0.10763
 Alpha virt. eigenvalues --    0.10999   0.11122   0.11717   0.12494   0.12519
 Alpha virt. eigenvalues --    0.13051   0.13680   0.13864   0.14519   0.14661
 Alpha virt. eigenvalues --    0.14826   0.15441   0.16033   0.16532   0.16831
 Alpha virt. eigenvalues --    0.17372   0.17616   0.18158   0.18680   0.18767
 Alpha virt. eigenvalues --    0.19045   0.19998   0.20425   0.20863   0.21227
 Alpha virt. eigenvalues --    0.21344   0.21977   0.22198   0.22551   0.22957
 Alpha virt. eigenvalues --    0.23446   0.24019   0.24288   0.24838   0.25100
 Alpha virt. eigenvalues --    0.25859   0.25991   0.26550   0.26866   0.27591
 Alpha virt. eigenvalues --    0.27896   0.28299   0.29156   0.29480   0.30498
 Alpha virt. eigenvalues --    0.30926   0.31599   0.31879   0.32646   0.33313
 Alpha virt. eigenvalues --    0.34715   0.35275   0.36637   0.37564   0.38170
 Alpha virt. eigenvalues --    0.39006   0.39918   0.41027   0.42010   0.43537
 Alpha virt. eigenvalues --    0.43811   0.44530   0.45545   0.46219   0.47006
 Alpha virt. eigenvalues --    0.47285   0.48520   0.49763   0.50295   0.51679
 Alpha virt. eigenvalues --    0.52129   0.52778   0.53802   0.54273   0.55216
 Alpha virt. eigenvalues --    0.55533   0.55972   0.56378   0.57940   0.58101
 Alpha virt. eigenvalues --    0.58487   0.58920   0.59389   0.60398   0.61068
 Alpha virt. eigenvalues --    0.61808   0.62174   0.63472   0.64678   0.64973
 Alpha virt. eigenvalues --    0.66174   0.67298   0.67811   0.68745   0.69931
 Alpha virt. eigenvalues --    0.70311   0.72653   0.74603   0.75675   0.77257
 Alpha virt. eigenvalues --    0.78369   0.79787   0.81120   0.82514   0.83112
 Alpha virt. eigenvalues --    0.83589   0.84197   0.85247   0.86758   0.87431
 Alpha virt. eigenvalues --    0.89296   0.91719   0.93343   0.94677   0.96016
 Alpha virt. eigenvalues --    0.96586   0.97295   0.98932   1.00318   1.02527
 Alpha virt. eigenvalues --    1.02973   1.03824   1.04910   1.05386   1.05896
 Alpha virt. eigenvalues --    1.07529   1.07933   1.08902   1.10397   1.11161
 Alpha virt. eigenvalues --    1.12061   1.12273   1.13748   1.15645   1.16157
 Alpha virt. eigenvalues --    1.16419   1.17143   1.19532   1.19759   1.22143
 Alpha virt. eigenvalues --    1.22453   1.24813   1.25876   1.29205   1.30098
 Alpha virt. eigenvalues --    1.32205   1.32586   1.34575   1.35103   1.35754
 Alpha virt. eigenvalues --    1.38217   1.39851   1.40357   1.43121   1.43859
 Alpha virt. eigenvalues --    1.45205   1.46463   1.47248   1.48859   1.50172
 Alpha virt. eigenvalues --    1.50942   1.52667   1.53105   1.53898   1.54548
 Alpha virt. eigenvalues --    1.55338   1.56088   1.57028   1.59678   1.59819
 Alpha virt. eigenvalues --    1.60498   1.60989   1.61710   1.63637   1.64148
 Alpha virt. eigenvalues --    1.64912   1.65311   1.66481   1.68382   1.69004
 Alpha virt. eigenvalues --    1.70342   1.72784   1.74195   1.75586   1.76425
 Alpha virt. eigenvalues --    1.78027   1.79244   1.81596   1.82968   1.84696
 Alpha virt. eigenvalues --    1.86407   1.87933   1.90085   1.92325   1.94493
 Alpha virt. eigenvalues --    1.94654   1.96000   1.98330   1.98696   2.01452
 Alpha virt. eigenvalues --    2.01746   2.02994   2.05086   2.06494   2.07556
 Alpha virt. eigenvalues --    2.09828   2.11858   2.12381   2.15477   2.17279
 Alpha virt. eigenvalues --    2.18740   2.19846   2.22849   2.25654   2.27170
 Alpha virt. eigenvalues --    2.30054   2.30729   2.32846   2.33338   2.35481
 Alpha virt. eigenvalues --    2.36958   2.37293   2.39791   2.42552   2.44992
 Alpha virt. eigenvalues --    2.47488   2.47692   2.48493   2.49120   2.50449
 Alpha virt. eigenvalues --    2.51372   2.51878   2.53170   2.53320   2.54784
 Alpha virt. eigenvalues --    2.55639   2.57301   2.58470   2.59824   2.61485
 Alpha virt. eigenvalues --    2.66105   2.66802   2.68724   2.69628   2.71005
 Alpha virt. eigenvalues --    2.71577   2.72334   2.74177   2.74950   2.75847
 Alpha virt. eigenvalues --    2.76736   2.77856   2.78006   2.80758   2.81803
 Alpha virt. eigenvalues --    2.82505   2.82769   2.83433   2.84683   2.85181
 Alpha virt. eigenvalues --    2.89932   2.90476   2.91531   2.92721   2.93682
 Alpha virt. eigenvalues --    2.96432   2.98278   3.01213   3.03861   3.05525
 Alpha virt. eigenvalues --    3.08203   3.13814   3.14011   3.21095   3.21504
 Alpha virt. eigenvalues --    3.22839   3.26624   3.28038   3.33267   3.37371
 Alpha virt. eigenvalues --    3.45148   3.47355   3.48197   3.53550   3.53892
 Alpha virt. eigenvalues --    3.57828   3.61124   3.63258   3.64424   3.66210
 Alpha virt. eigenvalues --    3.70099   3.78777   3.79664   3.80177   3.81683
 Alpha virt. eigenvalues --    3.83291   3.86810   3.93306   3.95083   3.95818
 Alpha virt. eigenvalues --    4.09294   4.15642   4.25106   4.42312   4.42508
 Alpha virt. eigenvalues --    4.44317   4.57034   4.70377   4.73402   4.84689
 Alpha virt. eigenvalues --    4.89138   4.89558   4.95993   4.96720   5.10700
 Alpha virt. eigenvalues --    5.18713   5.21522   5.30663   5.50607   5.68326
 Alpha virt. eigenvalues --    5.78629  23.64479  23.66943  23.69598  23.70519
 Alpha virt. eigenvalues --   23.72546  23.76375  23.84381  23.89210  24.08641
 Alpha virt. eigenvalues --   35.30590  35.48018  35.48219  35.63260  49.77121
 Alpha virt. eigenvalues --   49.87795  49.91572
          Condensed to atoms (all electrons):
               1          2          3          4          5          6
     1  O    8.114855   0.333074  -0.147425   0.016681  -0.000603  -0.000496
     2  C    0.333074  10.160042  -0.428463  -0.056360  -0.348393  -0.028837
     3  N   -0.147425  -0.428463   7.533124  -0.383555  -0.280369   0.011340
     4  C    0.016681  -0.056360  -0.383555  11.639331  -1.920763  -0.358938
     5  C   -0.000603  -0.348393  -0.280369  -1.920763   8.364975   0.510081
     6  O   -0.000496  -0.028837   0.011340  -0.358938   0.510081   7.826363
     7  O   -0.000513   0.038481   0.046661  -0.228233   0.385557  -0.114009
     8  C   -0.006331  -1.458051   0.040120  -2.430401   0.441632   0.051019
     9  C   -0.031733   0.218894   0.248622  -0.460337   0.246154  -0.016429
    10  C   -0.040585   0.086284   0.077044   0.300714  -0.116573  -0.010922
    11  N    0.001652   0.003283   0.001107   0.005496  -0.008600  -0.001064
    12  C   -0.000565   0.083017   0.005298   0.082083  -0.051521  -0.005678
    13  N    0.035860   0.196103   0.000613   0.009737  -0.139387  -0.012143
    14  C    0.047590  -2.888302   0.138138  -0.766998  -0.413952  -0.011713
    15  C   -0.008084   0.381587  -0.005414  -0.122151  -0.024843  -0.001074
    16  N   -0.000626  -0.000241  -0.005583   0.005611  -0.001183   0.000000
    17  H    0.000712   0.045312   0.221646   0.061339   0.007345   0.024506
    18  H   -0.005676   0.098792  -0.076314   0.636804  -0.208232   0.010530
    19  H    0.001039   0.028345   0.009049   0.049138  -0.185751   0.211789
    20  H    0.003455   0.071269  -0.012235   0.114768  -0.120526  -0.002149
    21  H   -0.010644  -0.258376   0.028726  -0.262102   0.089217   0.003986
    22  H   -0.000389   0.002352   0.002146   0.002917   0.004133  -0.003965
    23  H   -0.000392   0.004554  -0.000636   0.002580  -0.000809  -0.000104
    24  H    0.005670   0.003601   0.007632  -0.008415   0.007577   0.000212
    25  H    0.011102  -0.018106   0.028288  -0.011676  -0.008487  -0.001518
    26  H    0.007864  -0.207425   0.006847   0.023297  -0.013626  -0.000014
    27  H    0.001669   0.067731   0.000356   0.013172   0.003591   0.000064
    28  H   -0.009224  -0.128249  -0.005803  -0.011127  -0.004447  -0.000010
    29  H    0.000818  -0.022009   0.001349  -0.001803  -0.000243   0.000001
    30  H   -0.000340   0.026737  -0.002085   0.000960   0.000329   0.000006
    31  H    0.000998  -0.004280   0.001144  -0.001202  -0.000263  -0.000003
               7          8          9         10         11         12
     1  O   -0.000513  -0.006331  -0.031733  -0.040585   0.001652  -0.000565
     2  C    0.038481  -1.458051   0.218894   0.086284   0.003283   0.083017
     3  N    0.046661   0.040120   0.248622   0.077044   0.001107   0.005298
     4  C   -0.228233  -2.430401  -0.460337   0.300714   0.005496   0.082083
     5  C    0.385557   0.441632   0.246154  -0.116573  -0.008600  -0.051521
     6  O   -0.114009   0.051019  -0.016429  -0.010922  -0.001064  -0.005678
     7  O    7.990608   0.071089   0.002335  -0.001284   0.000141   0.000189
     8  C    0.071089  15.395487  -3.342231  -2.373544  -0.061197  -0.137725
     9  C    0.002335  -3.342231  10.097741  -0.400769  -0.280103  -0.005251
    10  C   -0.001284  -2.373544  -0.400769   7.972687   0.633957  -0.368975
    11  N    0.000141  -0.061197  -0.280103   0.633957   6.513549   0.356374
    12  C    0.000189  -0.137725  -0.005251  -0.368975   0.356374   5.384888
    13  N   -0.000507  -0.747585  -0.220751   0.369094   0.067979   0.166539
    14  C   -0.013116   0.338998  -0.100609  -0.043932  -0.000129   0.017127
    15  C   -0.003991  -0.096051   0.001916   0.007718   0.000006   0.005978
    16  N   -0.000045  -0.001051   0.000148  -0.000099   0.000000   0.000084
    17  H    0.062673  -0.027429  -0.002535   0.002228  -0.000008  -0.001997
    18  H   -0.016911  -0.151916  -0.119821   0.051152   0.000086  -0.004195
    19  H    0.020775   0.156898   0.016096  -0.074727   0.000146   0.002775
    20  H    0.002944   0.246327  -0.026528  -0.015473  -0.000265   0.014079
    21  H    0.001557   1.067773  -0.250490  -0.083909   0.001408  -0.030856
    22  H   -0.000276  -0.121899  -0.096950   0.531577  -0.064732   0.033131
    23  H   -0.000025   0.016895   0.080257  -0.035006  -0.071026   0.447435
    24  H    0.000269  -0.143074  -0.031452   0.063766   0.014198  -0.058337
    25  H   -0.005302   0.005574   0.001365   0.000605   0.000004   0.000352
    26  H    0.000840   0.001819  -0.002655  -0.001178   0.000024   0.000584
    27  H    0.000006   0.003776   0.001548  -0.001012  -0.000072  -0.000165
    28  H    0.000110  -0.011705   0.001497  -0.000052   0.000012   0.001141
    29  H    0.000016   0.000380  -0.000005   0.000004   0.000000   0.000000
    30  H    0.000045   0.000277  -0.000197  -0.000070   0.000000  -0.000005
    31  H   -0.000015  -0.000257   0.000096   0.000050   0.000000   0.000032
              13         14         15         16         17         18
     1  O    0.035860   0.047590  -0.008084  -0.000626   0.000712  -0.005676
     2  C    0.196103  -2.888302   0.381587  -0.000241   0.045312   0.098792
     3  N    0.000613   0.138138  -0.005414  -0.005583   0.221646  -0.076314
     4  C    0.009737  -0.766998  -0.122151   0.005611   0.061339   0.636804
     5  C   -0.139387  -0.413952  -0.024843  -0.001183   0.007345  -0.208232
     6  O   -0.012143  -0.011713  -0.001074   0.000000   0.024506   0.010530
     7  O   -0.000507  -0.013116  -0.003991  -0.000045   0.062673  -0.016911
     8  C   -0.747585   0.338998  -0.096051  -0.001051  -0.027429  -0.151916
     9  C   -0.220751  -0.100609   0.001916   0.000148  -0.002535  -0.119821
    10  C    0.369094  -0.043932   0.007718  -0.000099   0.002228   0.051152
    11  N    0.067979  -0.000129   0.000006   0.000000  -0.000008   0.000086
    12  C    0.166539   0.017127   0.005978   0.000084  -0.001997  -0.004195
    13  N    7.149857   0.027157   0.012783   0.000117  -0.004927   0.042444
    14  C    0.027157  10.025073  -0.672780  -0.131306  -0.073110  -0.030565
    15  C    0.012783  -0.672780   6.416259   0.112623  -0.036033   0.009540
    16  N    0.000117  -0.131306   0.112623   6.188128  -0.001599   0.000305
    17  H   -0.004927  -0.073110  -0.036033  -0.001599   0.434730   0.009648
    18  H    0.042444  -0.030565   0.009540   0.000305   0.009648   0.477700
    19  H    0.008799   0.009411  -0.000177  -0.000004  -0.004670  -0.019167
    20  H    0.009748  -0.005405   0.004131   0.000042   0.003683  -0.000686
    21  H   -0.021908  -0.005601  -0.028103  -0.000500  -0.002672  -0.005499
    22  H    0.027684  -0.000313   0.000092   0.000000  -0.000196   0.000010
    23  H   -0.123509   0.000758   0.000472   0.000011  -0.000084  -0.000391
    24  H    0.374019  -0.016671   0.002732  -0.001105   0.000746   0.000217
    25  H    0.000787   0.320366   0.033115   0.002708  -0.020449   0.000331
    26  H    0.000239   0.559354  -0.109269   0.011135   0.001755   0.000355
    27  H   -0.002175  -0.121520   0.400620  -0.021481   0.001717  -0.000028
    28  H    0.002130   0.137150   0.358796  -0.009909   0.000525  -0.000085
    29  H   -0.000010   0.033592  -0.021081   0.351114   0.000015   0.000016
    30  H    0.000019  -0.013700  -0.013720   0.347089   0.001159  -0.000011
    31  H    0.000024   0.002579  -0.010790   0.340194  -0.000522   0.000035
              19         20         21         22         23         24
     1  O    0.001039   0.003455  -0.010644  -0.000389  -0.000392   0.005670
     2  C    0.028345   0.071269  -0.258376   0.002352   0.004554   0.003601
     3  N    0.009049  -0.012235   0.028726   0.002146  -0.000636   0.007632
     4  C    0.049138   0.114768  -0.262102   0.002917   0.002580  -0.008415
     5  C   -0.185751  -0.120526   0.089217   0.004133  -0.000809   0.007577
     6  O    0.211789  -0.002149   0.003986  -0.003965  -0.000104   0.000212
     7  O    0.020775   0.002944   0.001557  -0.000276  -0.000025   0.000269
     8  C    0.156898   0.246327   1.067773  -0.121899   0.016895  -0.143074
     9  C    0.016096  -0.026528  -0.250490  -0.096950   0.080257  -0.031452
    10  C   -0.074727  -0.015473  -0.083909   0.531577  -0.035006   0.063766
    11  N    0.000146  -0.000265   0.001408  -0.064732  -0.071026   0.014198
    12  C    0.002775   0.014079  -0.030856   0.033131   0.447435  -0.058337
    13  N    0.008799   0.009748  -0.021908   0.027684  -0.123509   0.374019
    14  C    0.009411  -0.005405  -0.005601  -0.000313   0.000758  -0.016671
    15  C   -0.000177   0.004131  -0.028103   0.000092   0.000472   0.002732
    16  N   -0.000004   0.000042  -0.000500   0.000000   0.000011  -0.001105
    17  H   -0.004670   0.003683  -0.002672  -0.000196  -0.000084   0.000746
    18  H   -0.019167  -0.000686  -0.005499   0.000010  -0.000391   0.000217
    19  H    0.485470  -0.002519   0.006889  -0.004101  -0.000094   0.000476
    20  H   -0.002519   0.497175  -0.061591  -0.003918   0.001300  -0.003044
    21  H    0.006889  -0.061591   0.647762  -0.002021  -0.002912   0.001159
    22  H   -0.004101  -0.003918  -0.002021   0.537511  -0.001236   0.003583
    23  H   -0.000094   0.001300  -0.002912  -0.001236   0.523986  -0.015015
    24  H    0.000476  -0.003044   0.001159   0.003583  -0.015015   0.390309
    25  H    0.000315  -0.000167   0.000629   0.000022   0.000027   0.001012
    26  H   -0.000086   0.000340   0.000588  -0.000016   0.000023  -0.001867
    27  H   -0.000021  -0.000225   0.000923  -0.000023   0.000129  -0.000749
    28  H   -0.000023   0.000870  -0.008218   0.000013   0.000087  -0.001719
    29  H    0.000004  -0.000015   0.000010   0.000000  -0.000001  -0.000004
    30  H    0.000000   0.000009   0.000083  -0.000001   0.000001  -0.000111
    31  H   -0.000001   0.000005  -0.000126   0.000001   0.000001   0.000079
              25         26         27         28         29         30
     1  O    0.011102   0.007864   0.001669  -0.009224   0.000818  -0.000340
     2  C   -0.018106  -0.207425   0.067731  -0.128249  -0.022009   0.026737
     3  N    0.028288   0.006847   0.000356  -0.005803   0.001349  -0.002085
     4  C   -0.011676   0.023297   0.013172  -0.011127  -0.001803   0.000960
     5  C   -0.008487  -0.013626   0.003591  -0.004447  -0.000243   0.000329
     6  O   -0.001518  -0.000014   0.000064  -0.000010   0.000001   0.000006
     7  O   -0.005302   0.000840   0.000006   0.000110   0.000016   0.000045
     8  C    0.005574   0.001819   0.003776  -0.011705   0.000380   0.000277
     9  C    0.001365  -0.002655   0.001548   0.001497  -0.000005  -0.000197
    10  C    0.000605  -0.001178  -0.001012  -0.000052   0.000004  -0.000070
    11  N    0.000004   0.000024  -0.000072   0.000012   0.000000   0.000000
    12  C    0.000352   0.000584  -0.000165   0.001141   0.000000  -0.000005
    13  N    0.000787   0.000239  -0.002175   0.002130  -0.000010   0.000019
    14  C    0.320366   0.559354  -0.121520   0.137150   0.033592  -0.013700
    15  C    0.033115  -0.109269   0.400620   0.358796  -0.021081  -0.013720
    16  N    0.002708   0.011135  -0.021481  -0.009909   0.351114   0.347089
    17  H   -0.020449   0.001755   0.001717   0.000525   0.000015   0.001159
    18  H    0.000331   0.000355  -0.000028  -0.000085   0.000016  -0.000011
    19  H    0.000315  -0.000086  -0.000021  -0.000023   0.000004   0.000000
    20  H   -0.000167   0.000340  -0.000225   0.000870  -0.000015   0.000009
    21  H    0.000629   0.000588   0.000923  -0.008218   0.000010   0.000083
    22  H    0.000022  -0.000016  -0.000023   0.000013   0.000000  -0.000001
    23  H    0.000027   0.000023   0.000129   0.000087  -0.000001   0.000001
    24  H    0.001012  -0.001867  -0.000749  -0.001719  -0.000004  -0.000111
    25  H    0.559158  -0.058501   0.006201  -0.017890   0.000626  -0.002622
    26  H   -0.058501   0.557441  -0.015429   0.013817   0.000591  -0.000641
    27  H    0.006201  -0.015429   0.408977  -0.020984  -0.005411   0.002338
    28  H   -0.017890   0.013817  -0.020984   0.464367   0.002160  -0.008200
    29  H    0.000626   0.000591  -0.005411   0.002160   0.357203  -0.028357
    30  H   -0.002622  -0.000641   0.002338  -0.008200  -0.028357   0.363661
    31  H    0.003156   0.000145  -0.000370  -0.003320  -0.010328  -0.014291
              31
     1  O    0.000998
     2  C   -0.004280
     3  N    0.001144
     4  C   -0.001202
     5  C   -0.000263
     6  O   -0.000003
     7  O   -0.000015
     8  C   -0.000257
     9  C    0.000096
    10  C    0.000050
    11  N    0.000000
    12  C    0.000032
    13  N    0.000024
    14  C    0.002579
    15  C   -0.010790
    16  N    0.340194
    17  H   -0.000522
    18  H    0.000035
    19  H   -0.000001
    20  H    0.000005
    21  H   -0.000126
    22  H    0.000001
    23  H    0.000001
    24  H    0.000079
    25  H    0.003156
    26  H    0.000145
    27  H   -0.000370
    28  H   -0.003320
    29  H   -0.010328
    30  H   -0.014291
    31  H    0.346569
 Mulliken charges:
               1
     1  O   -0.319411
     2  C   -0.002366
     3  N   -0.061370
     4  C    0.059433
     5  C   -0.212020
     6  O   -0.080832
     7  O   -0.240070
     8  C   -0.727617
     9  C    0.472179
    10  C   -0.528772
    11  N   -0.112226
    12  C    0.064165
    13  N   -0.228830
    14  C   -0.347573
    15  C   -0.594806
    16  N   -0.184577
    17  H    0.296493
    18  H    0.301531
    19  H    0.283925
    20  H    0.284598
    21  H    0.184821
    22  H    0.154863
    23  H    0.172723
    24  H    0.404306
    25  H    0.168976
    26  H    0.223651
    27  H    0.276847
    28  H    0.258290
    29  H    0.341370
    30  H    0.341638
    31  H    0.350661
 Sum of Mulliken charges =   1.00000
 Mulliken charges with hydrogens summed into heavy atoms:
               1
     1  O   -0.319411
     2  C   -0.002366
     3  N    0.235123
     4  C    0.360965
     5  C   -0.212020
     6  O    0.203093
     7  O   -0.240070
     8  C   -0.258197
     9  C    0.472179
    10  C   -0.373909
    11  N   -0.112226
    12  C    0.236888
    13  N    0.175476
    14  C    0.045054
    15  C   -0.059669
    16  N    0.849091
 APT charges:
               1
     1  O   -0.464418
     2  C   -0.032108
     3  N   -0.474887
     4  C   -0.118315
     5  C   -0.802338
     6  O    0.200246
     7  O    0.104194
     8  C   -1.166011
     9  C    0.700293
    10  C   -1.112531
    11  N    0.197464
    12  C   -0.397214
    13  N   -0.588958
    14  C   -0.714136
    15  C   -0.210126
    16  N   -1.816093
    17  H    0.650602
    18  H    0.375094
    19  H    0.308461
    20  H    0.698064
    21  H    0.144652
    22  H    0.781265
    23  H    0.735700
    24  H    0.111256
    25  H    0.427347
    26  H    0.484120
    27  H    0.254805
    28  H    0.206685
    29  H    0.749978
    30  H    0.710787
    31  H    1.056123
 Sum of APT charges =   1.00000
 APT charges with hydrogens summed into heavy atoms:
               1
     1  O   -0.464418
     2  C   -0.032108
     3  N    0.175714
     4  C    0.256780
     5  C   -0.802338
     6  O    0.508707
     7  O    0.104194
     8  C   -0.323295
     9  C    0.700293
    10  C   -0.331267
    11  N    0.197464
    12  C    0.338486
    13  N   -0.477702
    14  C    0.197331
    15  C    0.251364
    16  N    0.700795
 Electronic spatial extent (au):  <R**2>=           4912.1966
 Charge=              1.0000 electrons
 Dipole moment (field-independent basis, Debye):
    X=             22.5141    Y=             -4.2517    Z=              2.0236  Tot=             23.0012
 Quadrupole moment (field-independent basis, Debye-Ang):
   XX=             -5.3089   YY=            -94.4398   ZZ=            -93.0170
   XY=            -24.8143   XZ=             13.0090   YZ=              6.2368
 Traceless Quadrupole moment (field-independent basis, Debye-Ang):
   XX=             58.9464   YY=            -30.1846   ZZ=            -28.7618
   XY=            -24.8143   XZ=             13.0090   YZ=              6.2368
 Octapole moment (field-independent basis, Debye-Ang**2):
  XXX=            769.2892  YYY=           -143.6076  ZZZ=             37.6739  XYY=             97.0651
  XXY=            -77.3080  XXZ=             35.1965  XZZ=             90.5242  YZZ=            -39.1066
  YYZ=             49.5109  XYZ=            -27.6820
 Hexadecapole moment (field-independent basis, Debye-Ang**3):
 XXXX=          -2384.2984 YYYY=          -1581.7447 ZZZZ=           -621.3073 XXXY=           -633.3746
 XXXZ=            413.2114 YYYX=            169.4349 YYYZ=            439.5108 ZZZX=             79.1433
 ZZZY=            368.1464 XXYY=           -793.2991 XXZZ=           -754.5631 YYZZ=           -414.2438
 XXYZ=            117.1795 YYXZ=              0.8906 ZZXY=             20.8420
 N-N= 1.130017815913D+03 E-N=-4.105651199626D+03  KE= 7.938397090711D+02
  Exact polarizability:   0.000   0.000   0.000   0.000   0.000   0.000
 Approx polarizability: 229.575  11.803 224.676  -9.150 -12.536 152.390
 Calling FoFJK, ICntrl=    100147 FMM=F ISym2X=0 I1Cent= 0 IOpClX= 0 NMat=1 NMatS=1 NMatT=0.
 -------------------------------------------------------------------
 Center     Atomic                   Forces (Hartrees/Bohr)
 Number     Number              X              Y              Z
 -------------------------------------------------------------------
      1        8           0.015981331   -0.002646548    0.003198992
      2        6          -0.023263237    0.001974436   -0.003901117
      3        7           0.012698325   -0.008064852    0.000982869
      4        6           0.000854831    0.000340906   -0.002549758
      5        6          -0.011169082    0.004183068   -0.004021414
      6        8           0.009192638   -0.000912779    0.001242525
      7        8           0.005731115    0.001846139    0.000175867
      8        6          -0.007808445   -0.005914312    0.001938356
      9        6           0.007493003    0.008690488   -0.001789091
     10        6          -0.014513664   -0.003846879    0.000646609
     11        7          -0.000230435    0.005438705    0.000186113
     12        6          -0.004676608   -0.001580660    0.001266178
     13        7           0.006658516   -0.002997090   -0.000340199
     14        6           0.011889480    0.005250389   -0.003709733
     15        6          -0.029115854   -0.000959574    0.002873449
     16        7           0.005939366   -0.001397945    0.000920370
     17        1           0.002265595    0.006433383   -0.000515329
     18        1          -0.000615349   -0.000308495    0.002393688
     19        1          -0.006820293   -0.002234765    0.000629877
     20        1           0.000069810    0.001270434    0.000271457
     21        1           0.003303702    0.001145663    0.001381003
     22        1           0.000086194   -0.000642876    0.000814159
     23        1          -0.001649967   -0.002921903   -0.000042772
     24        1           0.001517875   -0.001230485   -0.000739291
     25        1           0.000769836    0.002255721   -0.000431871
     26        1          -0.001002001    0.000924315   -0.003318370
     27        1           0.004852265   -0.003309450    0.000857692
     28        1           0.005800814   -0.001195500    0.003000050
     29        1           0.002329640   -0.000657345   -0.004548621
     30        1           0.002423650    0.003980977    0.000476700
     31        1           0.001006949   -0.002913167    0.002651611
 -------------------------------------------------------------------
 Cartesian Forces:  Max     0.029115854 RMS     0.005953972
 FormGI is forming the generalized inverse of G from B-inverse, IUseBI=4.

 GradGradGradGradGradGradGradGradGradGradGradGradGradGradGradGradGradGrad
 Berny optimization.
 Internal  Forces:  Max     0.021102348 RMS     0.004466119
 Search for a local minimum.
 Step number   1 out of a maximum of  167
 All quantities printed in internal units (Hartrees-Bohrs-Radians)
 Mixed Optimization -- RFO/linear search
 Second derivative matrix not updated -- analytic derivatives used.
 ITU=  0
     Eigenvalues ---    0.00070   0.00177   0.00206   0.00208   0.00394
     Eigenvalues ---    0.00522   0.00559   0.00869   0.01010   0.01332
     Eigenvalues ---    0.01504   0.02121   0.02467   0.02857   0.03454
     Eigenvalues ---    0.03820   0.03981   0.04100   0.04273   0.04341
     Eigenvalues ---    0.04389   0.04505   0.04923   0.05002   0.05320
     Eigenvalues ---    0.05414   0.06054   0.06110   0.06268   0.07511
     Eigenvalues ---    0.07831   0.08253   0.10493   0.10655   0.10916
     Eigenvalues ---    0.11438   0.11670   0.12544   0.13055   0.13315
     Eigenvalues ---    0.13785   0.15820   0.15990   0.17250   0.17426
     Eigenvalues ---    0.17836   0.19329   0.19912   0.20660   0.21853
     Eigenvalues ---    0.22802   0.22908   0.23897   0.24193   0.24918
     Eigenvalues ---    0.27014   0.29360   0.29862   0.31506   0.32118
     Eigenvalues ---    0.32807   0.33311   0.33834   0.34011   0.34200
     Eigenvalues ---    0.34233   0.34743   0.35102   0.35301   0.36738
     Eigenvalues ---    0.36914   0.37653   0.41653   0.43229   0.43363
     Eigenvalues ---    0.43533   0.44099   0.44438   0.46410   0.46655
     Eigenvalues ---    0.46988   0.48218   0.52099   0.58441   0.69849
     Eigenvalues ---    0.77756   0.90368
 RFO step:  Lambda=-9.68733071D-03 EMin= 7.02783879D-04
 Linear search not attempted -- first point.
 Iteration  1 RMS(Cart)=  0.07175940 RMS(Int)=  0.00148521
 Iteration  2 RMS(Cart)=  0.00208380 RMS(Int)=  0.00030131
 Iteration  3 RMS(Cart)=  0.00000302 RMS(Int)=  0.00030131
 Iteration  4 RMS(Cart)=  0.00000000 RMS(Int)=  0.00030131
 Variable       Old X    -DE/DX   Delta X   Delta X   Delta X     New X
                                 (Linear)    (Quad)   (Total)
    R1        2.32881  -0.00540   0.00000  -0.00558  -0.00558   2.32323
    R2        2.55251  -0.00267   0.00000  -0.01983  -0.01983   2.53268
    R3        2.86524   0.00495   0.00000   0.03670   0.03670   2.90194
    R4        2.73423   0.01245   0.00000   0.01923   0.01923   2.75347
    R5        1.90651   0.00642   0.00000   0.01384   0.01384   1.92035
    R6        2.87645   0.00411   0.00000   0.01562   0.01562   2.89207
    R7        2.94870   0.00765   0.00000   0.01854   0.01854   2.96723
    R8        2.07176  -0.00095   0.00000  -0.00371  -0.00371   2.06805
    R9        2.54845  -0.00304   0.00000  -0.02067  -0.02067   2.52779
   R10        2.26522   0.00506   0.00000   0.00797   0.00797   2.27319
   R11        1.82263   0.00544   0.00000   0.00995   0.00995   1.83258
   R12        2.82477   0.00290   0.00000  -0.00875  -0.00875   2.81602
   R13        2.06002   0.00113   0.00000   0.00370   0.00370   2.06372
   R14        2.05656   0.00314   0.00000   0.00918   0.00918   2.06574
   R15        2.57451   0.01289   0.00000   0.02348   0.02348   2.59799
   R16        2.59556   0.00768   0.00000   0.01750   0.01751   2.61307
   R17        2.61665  -0.00502   0.00000  -0.01773  -0.01774   2.59891
   R18        2.04228  -0.00042   0.00000  -0.00076  -0.00076   2.04152
   R19        2.47778   0.00189   0.00000   0.00145   0.00144   2.47922
   R20        2.56248   0.00901   0.00000   0.01959   0.01960   2.58208
   R21        2.03291   0.00290   0.00000   0.00695   0.00695   2.03986
   R22        1.90717   0.00193   0.00000   0.00686   0.00686   1.91403
   R23        2.86982   0.00560   0.00000   0.00797   0.00797   2.87779
   R24        2.06295   0.00222   0.00000   0.00406   0.00406   2.06700
   R25        2.06718   0.00259   0.00000   0.00544   0.00544   2.07262
   R26        2.81148   0.01173   0.00000   0.05924   0.05924   2.87072
   R27        2.05790   0.00099   0.00000  -0.00009  -0.00009   2.05781
   R28        2.05877   0.00091   0.00000   0.00092   0.00092   2.05969
   R29        1.92736   0.00507   0.00000   0.00964   0.00964   1.93700
   R30        1.92782   0.00460   0.00000   0.00860   0.00860   1.93642
   R31        1.92946   0.00402   0.00000   0.00738   0.00738   1.93684
    A1        2.11118   0.02110   0.00000   0.05918   0.05916   2.17035
    A2        2.13921  -0.01485   0.00000  -0.05076  -0.05079   2.08842
    A3        2.03256  -0.00624   0.00000  -0.00815  -0.00818   2.02438
    A4        2.10480   0.01657   0.00000   0.02035   0.02027   2.12508
    A5        2.13351  -0.00710   0.00000   0.00368   0.00363   2.13714
    A6        2.02256  -0.00921   0.00000  -0.01963  -0.01973   2.00283
    A7        1.87074  -0.00716   0.00000  -0.00856  -0.00859   1.86215
    A8        1.95565   0.00976   0.00000   0.02225   0.02230   1.97795
    A9        1.88929   0.00051   0.00000   0.00071   0.00084   1.89013
   A10        1.95725  -0.00297   0.00000  -0.00172  -0.00174   1.95551
   A11        1.87142   0.00241   0.00000   0.00998   0.00992   1.88134
   A12        1.91614  -0.00277   0.00000  -0.02261  -0.02259   1.89355
   A13        2.00674   0.00284   0.00000   0.01461   0.01461   2.02135
   A14        2.15930  -0.00510   0.00000  -0.02301  -0.02301   2.13629
   A15        2.11713   0.00226   0.00000   0.00838   0.00838   2.12551
   A16        1.91543   0.00858   0.00000   0.04345   0.04345   1.95888
   A17        1.96584   0.00835   0.00000  -0.00340  -0.00340   1.96244
   A18        1.93589  -0.00280   0.00000  -0.00795  -0.00798   1.92791
   A19        1.88687  -0.00328   0.00000  -0.00783  -0.00786   1.87901
   A20        1.89761  -0.00520   0.00000   0.00196   0.00192   1.89953
   A21        1.91528   0.00175   0.00000   0.02262   0.02262   1.93790
   A22        1.85934   0.00088   0.00000  -0.00510  -0.00522   1.85412
   A23        2.31642  -0.00532   0.00000   0.00325   0.00323   2.31965
   A24        2.13078   0.00784   0.00000   0.00065   0.00064   2.13142
   A25        1.83569  -0.00252   0.00000  -0.00383  -0.00380   1.83189
   A26        1.92996   0.00156   0.00000   0.00174   0.00170   1.93167
   A27        2.23497  -0.00039   0.00000  -0.00254  -0.00259   2.23238
   A28        2.11826  -0.00117   0.00000   0.00080   0.00076   2.11901
   A29        1.83132   0.00235   0.00000   0.00981   0.00980   1.84112
   A30        1.95147   0.00126   0.00000  -0.00037  -0.00036   1.95110
   A31        2.20619  -0.00235   0.00000  -0.01097  -0.01097   2.19522
   A32        2.12552   0.00109   0.00000   0.01134   0.01134   2.13686
   A33        1.87633  -0.00265   0.00000  -0.00736  -0.00733   1.86899
   A34        2.16659   0.00199   0.00000   0.00742   0.00740   2.17399
   A35        2.24026   0.00066   0.00000  -0.00003  -0.00005   2.24020
   A36        1.95048  -0.01057   0.00000  -0.05927  -0.05927   1.89121
   A37        1.91380   0.00392   0.00000   0.02675   0.02704   1.94085
   A38        1.88311   0.00106   0.00000  -0.01001  -0.01004   1.87307
   A39        1.93221   0.00339   0.00000   0.01879   0.01889   1.95110
   A40        1.90561   0.00445   0.00000   0.02114   0.02029   1.92591
   A41        1.87646  -0.00199   0.00000   0.00425   0.00390   1.88035
   A42        1.95463  -0.00243   0.00000  -0.01131  -0.01085   1.94378
   A43        1.89392   0.00397   0.00000   0.03709   0.03623   1.93016
   A44        1.91292   0.00433   0.00000   0.04301   0.04222   1.95513
   A45        1.91974  -0.00299   0.00000  -0.04354  -0.04347   1.87627
   A46        1.90971  -0.00304   0.00000  -0.04468  -0.04457   1.86515
   A47        1.87099   0.00036   0.00000   0.02182   0.01906   1.89005
   A48        1.93940   0.00099   0.00000   0.00289   0.00288   1.94228
   A49        1.94585   0.00085   0.00000   0.00444   0.00444   1.95029
   A50        1.95191  -0.00107   0.00000  -0.01010  -0.01010   1.94182
   A51        1.87891  -0.00101   0.00000  -0.00447  -0.00448   1.87444
   A52        1.87198   0.00004   0.00000   0.00335   0.00335   1.87533
   A53        1.87195   0.00014   0.00000   0.00406   0.00407   1.87602
    D1       -0.04469  -0.00117   0.00000  -0.04719  -0.04737  -0.09206
    D2       -2.95156  -0.00141   0.00000  -0.06750  -0.06786  -3.01942
    D3        3.07420  -0.00081   0.00000  -0.03450  -0.03414   3.04006
    D4        0.16733  -0.00105   0.00000  -0.05481  -0.05463   0.11270
    D5       -0.51302   0.00066   0.00000   0.02456   0.02396  -0.48907
    D6       -2.66232   0.00081   0.00000   0.02231   0.02220  -2.64012
    D7        1.58209   0.00046   0.00000   0.00839   0.00854   1.59063
    D8        2.65167  -0.00023   0.00000   0.01008   0.00986   2.66153
    D9        0.50238  -0.00008   0.00000   0.00783   0.00810   0.51048
   D10       -1.53640  -0.00043   0.00000  -0.00610  -0.00556  -1.54196
   D11       -2.85552   0.00004   0.00000  -0.00480  -0.00474  -2.86026
   D12        1.27339   0.00248   0.00000  -0.01094  -0.01084   1.26256
   D13       -0.84207  -0.00056   0.00000   0.00281   0.00283  -0.83924
   D14        0.06565   0.00027   0.00000   0.01689   0.01683   0.08248
   D15       -2.08863   0.00271   0.00000   0.01075   0.01073  -2.07790
   D16        2.07910  -0.00033   0.00000   0.02450   0.02440   2.10349
   D17        3.07123  -0.00233   0.00000  -0.00683  -0.00683   3.06441
   D18       -0.07601  -0.00246   0.00000  -0.01093  -0.01091  -0.08692
   D19       -1.05866   0.00307   0.00000   0.01407   0.01407  -1.04459
   D20        2.07728   0.00293   0.00000   0.00997   0.00999   2.08727
   D21        1.04591  -0.00056   0.00000  -0.00836  -0.00840   1.03751
   D22       -2.10133  -0.00070   0.00000  -0.01246  -0.01248  -2.11381
   D23       -2.19363  -0.00805   0.00000  -0.03259  -0.03252  -2.22615
   D24        1.95811  -0.00521   0.00000  -0.02689  -0.02682   1.93129
   D25       -0.07443  -0.00278   0.00000  -0.01171  -0.01168  -0.08612
   D26        1.98474  -0.00362   0.00000  -0.03616  -0.03613   1.94861
   D27       -0.14670  -0.00079   0.00000  -0.03046  -0.03043  -0.17713
   D28       -2.17924   0.00164   0.00000  -0.01528  -0.01529  -2.19454
   D29       -0.09372  -0.00291   0.00000  -0.03252  -0.03257  -0.12630
   D30       -2.22517  -0.00007   0.00000  -0.02682  -0.02688  -2.25204
   D31        2.02548   0.00236   0.00000  -0.01164  -0.01174   2.01374
   D32       -0.04422   0.00028   0.00000   0.01431   0.01428  -0.02994
   D33        3.10287   0.00044   0.00000   0.01842   0.01845   3.12132
   D34       -2.04190   0.00134   0.00000   0.01703   0.01704  -2.02486
   D35        1.06947   0.00162   0.00000   0.02089   0.02090   1.09037
   D36        0.11101  -0.00031   0.00000   0.00597   0.00594   0.11695
   D37       -3.06081  -0.00003   0.00000   0.00983   0.00980  -3.05101
   D38        2.13833  -0.00123   0.00000   0.01350   0.01351   2.15184
   D39       -1.03350  -0.00096   0.00000   0.01736   0.01737  -1.01612
   D40        3.11881   0.00037   0.00000   0.00230   0.00230   3.12111
   D41       -0.02254  -0.00021   0.00000  -0.01521  -0.01520  -0.03774
   D42        0.00375  -0.00002   0.00000  -0.00113  -0.00112   0.00263
   D43       -3.13760  -0.00060   0.00000  -0.01864  -0.01862   3.12697
   D44       -3.12174  -0.00017   0.00000  -0.00317  -0.00316  -3.12490
   D45        0.01424  -0.00024   0.00000   0.00216   0.00218   0.01641
   D46       -0.00316  -0.00005   0.00000  -0.00014  -0.00014  -0.00330
   D47        3.13282  -0.00012   0.00000   0.00519   0.00519   3.13802
   D48       -0.00287   0.00009   0.00000   0.00199   0.00199  -0.00088
   D49        3.13850   0.00063   0.00000   0.01814   0.01817  -3.12652
   D50        0.00079  -0.00013   0.00000  -0.00210  -0.00210  -0.00131
   D51        3.13936   0.00006   0.00000  -0.00042  -0.00044   3.13892
   D52        0.00151   0.00013   0.00000   0.00148   0.00147   0.00298
   D53       -3.13415   0.00020   0.00000  -0.00417  -0.00416  -3.13832
   D54       -3.13722  -0.00004   0.00000  -0.00007  -0.00009  -3.13731
   D55        0.01030   0.00003   0.00000  -0.00572  -0.00572   0.00458
   D56        3.07519  -0.00112   0.00000  -0.03795  -0.03798   3.03721
   D57        0.95274   0.00149   0.00000  -0.00128  -0.00070   0.95204
   D58       -1.08514  -0.00360   0.00000  -0.07232  -0.07299  -1.15813
   D59       -1.06918  -0.00109   0.00000  -0.03181  -0.03195  -1.10112
   D60        3.09155   0.00153   0.00000   0.00486   0.00534   3.09689
   D61        1.05368  -0.00356   0.00000  -0.06618  -0.06696   0.98672
   D62        0.99333   0.00124   0.00000  -0.00239  -0.00219   0.99114
   D63       -1.12912   0.00385   0.00000   0.03428   0.03509  -1.09403
   D64        3.11619  -0.00123   0.00000  -0.03676  -0.03721   3.07898
   D65       -1.04264   0.00015   0.00000   0.00207   0.00206  -1.04058
   D66        1.05343   0.00011   0.00000   0.00135   0.00134   1.05478
   D67       -3.13400   0.00015   0.00000   0.00266   0.00265  -3.13135
   D68        1.06491   0.00151   0.00000   0.01164   0.01141   1.07633
   D69       -3.12220   0.00147   0.00000   0.01092   0.01070  -3.11150
   D70       -1.02645   0.00151   0.00000   0.01223   0.01201  -1.01444
   D71        3.11585  -0.00162   0.00000  -0.01393  -0.01370   3.10214
   D72       -1.07126  -0.00166   0.00000  -0.01466  -0.01442  -1.08568
   D73        1.02449  -0.00162   0.00000  -0.01334  -0.01311   1.01138
         Item               Value     Threshold  Converged?
 Maximum Force            0.021102     0.000450     NO 
 RMS     Force            0.004466     0.000300     NO 
 Maximum Displacement     0.284225     0.001800     NO 
 RMS     Displacement     0.071797     0.001200     NO 
 Predicted change in Energy=-5.198277D-03
 GradGradGradGradGradGradGradGradGradGradGradGradGradGradGradGradGradGrad

                          Input orientation:                          
 ---------------------------------------------------------------------
 Center     Atomic      Atomic             Coordinates (Angstroms)
 Number     Number       Type             X           Y           Z
 ---------------------------------------------------------------------
      1          8           0        0.619869   -1.064840   -0.012360
      2          6           0        1.161894   -0.009114   -0.333424
      3          7           0        0.502447    1.114460   -0.647983
      4          6           0       -0.950985    1.149065   -0.744910
      5          6           0       -1.310851    2.430917   -1.499582
      6          8           0       -2.609160    2.600847   -1.773108
      7          8           0       -0.484111    3.243691   -1.820393
      8          6           0       -1.669288    1.064377    0.648781
      9          6           0       -2.696557   -0.014157    0.694649
     10          6           0       -4.061989   -0.000029    0.854226
     11          7           0       -4.570494   -1.276690    0.799743
     12          6           0       -3.534447   -2.058626    0.609000
     13          7           0       -2.369664   -1.348178    0.534651
     14          6           0        2.694012    0.067911   -0.403242
     15          6           0        3.270348   -0.944504    0.577556
     16          7           0        4.782484   -1.030227    0.460015
     17          1           0        0.972740    1.939820   -1.008929
     18          1           0       -1.274960    0.299938   -1.354550
     19          1           0       -3.148995    1.854928   -1.468780
     20          1           0       -2.146548    2.016371    0.890758
     21          1           0       -0.900090    0.906161    1.409215
     22          1           0       -4.702130    0.854424    1.019243
     23          1           0       -3.563463   -3.133912    0.518843
     24          1           0       -1.429368   -1.696081    0.390790
     25          1           0        3.049000    1.081539   -0.195964
     26          1           0        2.987251   -0.185522   -1.429261
     27          1           0        2.869814   -1.938040    0.381960
     28          1           0        3.047892   -0.683565    1.612155
     29          1           0        5.067027   -1.310213   -0.484074
     30          1           0        5.230452   -0.130787    0.660932
     31          1           0        5.167596   -1.719021    1.114030
 ---------------------------------------------------------------------
                    Distance matrix (angstroms):
                    1          2          3          4          5
     1  O    0.000000
     2  C    1.229402   0.000000
     3  N    2.273137   1.340238   0.000000
     4  C    2.811687   2.444372   1.457071   0.000000
     5  C    4.261434   3.664443   2.397150   1.530418   0.000000
     6  O    5.192699   4.806811   3.627306   2.431955   1.337647
     7  O    4.801165   3.937150   2.623254   2.400436   1.202921
     8  C    3.195452   3.183190   2.529928   1.570193   2.571259
     9  C    3.549997   3.993069   3.648296   2.544098   3.565560
    10  C    4.878995   5.357196   4.932828   3.681848   4.361041
    11  N    5.257781   5.979221   5.792084   4.622887   5.445964
    12  C    4.316484   5.210017   5.286302   4.335508   5.435669
    13  N    3.052345   3.875377   3.963865   3.144224   4.420492
    14  C    2.395409   1.535641   2.440927   3.817281   4.777519
    15  C    2.718000   2.480004   3.660951   4.894037   6.057669
    16  N    4.189475   3.844593   4.913865   6.250906   7.276556
    17  H    3.185224   2.071336   1.016207   2.096597   2.386777
    18  H    2.693412   2.660163   2.078907   1.094366   2.136210
    19  H    4.985031   4.831919   3.815105   2.419396   1.926522
    20  H    4.238225   4.067801   3.193484   2.203861   2.565924
    21  H    2.866356   2.850666   2.498512   2.168375   3.309789
    22  H    5.750778   6.079653   5.471277   4.155735   4.508945
    23  H    4.697180   5.728849   5.995145   5.173587   6.333690
    24  H    2.181826   3.175686   3.565123   3.100568   4.540889
    25  H    3.246742   2.183939   2.586569   4.038042   4.746424
    26  H    2.895739   2.136330   2.911116   4.214162   5.032333
    27  H    2.445448   2.673859   3.997870   5.039698   6.332925
    28  H    2.946136   2.792338   3.849729   4.990522   6.195284
    29  H    4.478832   4.118934   5.171199   6.506347   7.463554
    30  H    4.752184   4.190073   5.061416   6.467192   7.349747
    31  H    4.730595   4.589614   5.735584   7.008467   8.125468
[...]
 .00002649,-0.00001032,-0.00000131,0.00000798,-0.00000172,0.00000118,-0
 .00001880,0.00001364,0.00000095,-0.01419543,-0.06611123,-0.06659257,0.
 00422088,0.02211116,0.00474718,0.00069406,-0.00039178,0.00028373,-0.00
 081077,-0.00001566,0.00027858,-0.00001293,0.00002110,-0.00002318,0.000
 00834,-0.00001967,0.00002591,0.00001077,-0.00000923,0.00000881,0.00001
 321,0.00002928,-0.00002893,0.00000234,-0.00000127,0.00000395,-0.000000
 49,0.00000040,-0.00000013,0.00001353,0.00000864,-0.00000094,0.01493532
 ,0.06763704,0.06879259,-0.00132200,-0.00137082,-0.00408363,-0.00938229
 ,0.00414946,0.03322195,-0.00104133,-0.00037431,-0.00152762,-0.00005547
 ,-0.00026257,-0.00140519,-0.00018697,-0.00049848,0.00019819,-0.0001315
 9,0.00017829,-0.00006471,0.00007475,0.00018748,-0.00022808,0.00025999,
 0.00006413,-0.00011848,0.00002026,0.00001523,0.00000435,0.00002963,-0.
 00001319,-0.00000425,-0.00004472,-0.00003357,-0.00000909,-0.00001293,-
 0.00000006,0.00000135,-0.00001557,0.00002371,0.00000670,-0.06237256,0.
 01043156,0.06983940,0.00253186,-0.00167866,-0.02025375,0.00199807,-0.0
 0105955,-0.00070931,-0.00044856,0.00032805,0.00064853,-0.00035432,0.00
 015117,-0.00001547,0.00005716,0.00000613,0.00000157,-0.00000410,-0.000
 00371,0.00002016,0.00003938,0.00000922,-0.00001895,0.00000480,-0.00000
 239,-0.00000054,-0.00000265,0.00000017,0.00000121,0.00002025,0.0000231
 6,-0.00000276,0.00130498,-0.00056525,-0.00553409,0.07040448,-0.0009684
 1,-0.00055685,-0.00164550,-0.00298923,-0.00048745,0.00745525,0.0012033
 7,0.00024664,0.00005649,-0.00023092,0.00002436,0.00003577,0.00006910,0
 .00026299,-0.00016727,0.00000544,-0.00007804,0.00004199,-0.00007431,-0
 .00014601,0.00016065,0.00004625,-0.00005339,0.00006264,-0.00000033,-0.
 00000454,-0.00002158,-0.00002068,0.00000647,0.00000587,0.00002887,0.00
 002365,0.00000664,0.00001255,0.00000621,-0.00000145,0.00001521,-0.0000
 1710,-0.00001024,0.01076391,-0.05272708,-0.03112856,-0.00608075,0.0025
 8182,0.02241871,-0.00100142,0.00105867,-0.00042107,0.00020477,-0.00002
 938,-0.00055115,0.00010517,0.00000963,0.00004353,-0.00002224,0.0000063
 1,-0.00001324,-0.00000976,0.00000760,-0.00001649,0.00000126,-0.0000208
 1,0.00001580,-0.00000377,0.00000198,-0.00000131,-0.00000004,-0.0000006
 5,0.00000161,0.00000057,-0.00001079,0.00000933,0.00914828,-0.00244743,
 -0.02931792,-0.01253784,0.05328735,0.00008525,-0.00027931,0.00064850,0
 .00276650,0.00007913,-0.00146721,-0.00037027,0.00064785,0.00052085,0.0
 0029392,0.00004102,0.00012299,0.00000304,-0.00001697,0.00000904,-0.000
 00290,0.00000681,-0.00000383,-0.00000592,0.00000403,-0.00001949,-0.000
 09409,-0.00003715,-0.00002451,-0.00000500,0.00001354,0.00003049,-0.000
 00328,-0.00000576,-0.00000253,-0.00000414,-0.00000230,-0.00000118,-0.0
 0000525,-0.00000067,-0.00000008,0.00000396,0.00000377,0.00000145,0.062
 53592,-0.03142265,-0.27737313,0.00442349,-0.00177536,-0.02001982,0.000
 70084,-0.00102022,0.00195030,0.00000284,-0.00013112,-0.00021744,-0.000
 00080,-0.00005265,-0.00002958,-0.00000101,-0.00000077,0.00000363,0.000
 00032,0.00001074,-0.00000982,0.00000772,-0.00000332,-0.00002629,-0.000
 00002,0.00000015,-0.00000014,-0.00000038,-0.00000011,-0.00000079,-0.00
 000089,-0.00000055,-0.00000315,0.00204536,-0.00112879,-0.00683091,-0.0
 6886406,0.03163380,0.30292022,-0.00191126,-0.00296607,0.00016634,0.001
 00386,0.00525200,-0.00117689,0.00040813,-0.00238693,0.00041788,-0.0003
 2311,-0.00004573,-0.00001778,-0.00006043,0.00016360,-0.00012531,0.0000
 5132,-0.00005188,0.00003514,0.00001966,-0.00016005,0.00010577,-0.00001
 610,0.00000951,0.00000033,-0.00001005,0.00003410,-0.00001144,-0.000006
 57,0.00000439,0.00001063,0.00005803,-0.00000595,-0.00000316,-0.0000505
 3,-0.00000256,-0.00000167,0.00004385,-0.00002817,-0.00001207,0.0062788
 4,0.01588613,0.00442817,-0.06388496,-0.06404703,-0.00974255,-0.0210419
 1,-0.03395645,-0.00431660,0.00050871,0.00003840,0.00010864,-0.00003456
 ,0.00005496,-0.00001912,-0.00001893,0.00000974,-0.00001160,0.00002303,
 -0.00002113,0.00001132,-0.00002080,0.00001809,0.00007036,-0.00000142,0
 .00000129,0.00000168,-0.00000127,-0.00000132,0.00000196,-0.00005749,-0
 .00000622,0.00000730,-0.00260522,0.00188870,-0.00278647,0.00050418,-0.
 00038450,-0.00015571,0.08189146,-0.00229115,0.00188866,-0.00104797,-0.
 00156064,-0.00272514,0.00049519,-0.00003854,0.00022698,0.00008251,0.00
 000414,0.00003067,-0.00001548,-0.00000794,-0.00003392,0.00003951,-0.00
 000028,0.00000519,-0.00000669,0.00001641,0.00003660,-0.00001573,0.0000
 1427,0.00000542,-0.00000490,0.00000557,0.00001069,0.00000347,0.0000060
 0,-0.00000351,-0.00000158,-0.00000287,-0.00001128,-0.00000147,-0.00001
 107,0.00000230,0.00000163,0.00000214,-0.00000196,0.00000276,-0.0012496
 2,-0.01975549,-0.00240338,-0.07505401,-0.29903592,-0.04372451,0.002571
 24,0.00583416,0.00080779,-0.00004757,0.00006732,-0.00009432,0.00002224
 ,0.00001472,0.00000686,0.00000434,0.00000255,-0.00000021,-0.00000461,0
 .00000118,-0.00000077,0.00001393,-0.00000234,-0.00001834,0.00000077,-0
 .00000070,-0.00000084,-0.00000233,0.00000035,-0.00000089,-0.00000215,0
 .00001673,-0.00000415,0.00144145,-0.00061377,0.00285814,-0.00022772,0.
 00075035,0.00013016,0.07674923,0.31631105,0.00012948,-0.00098084,-0.00
 128516,0.00010742,0.00087521,0.00073023,0.00025012,-0.00024014,0.00018
 667,-0.00006792,-0.00007032,0.00001018,-0.00001263,0.00006266,-0.00004
 513,0.00004076,-0.00001680,0.00001130,0.00001191,-0.00004860,0.0000161
 0,-0.00000653,-0.00002261,0.00001632,-0.00000215,0.,-0.00001115,-0.000
 01035,0.00000403,-0.00000293,0.00001273,0.00001068,-0.00000159,0.00000
 503,0.00000166,-0.00000132,0.00000525,-0.00000527,-0.00001907,0.004863
 69,0.02004616,0.00386720,-0.01364664,-0.04670432,-0.06078280,0.0057549
 4,0.00979273,0.00046811,0.00017539,0.00005254,0.00011663,-0.00002353,-
 0.00000906,0.00000231,-0.00001709,-0.00000761,0.00001225,0.00000414,-0
 .00000016,-0.00000325,-0.00000185,-0.00000913,0.00002270,-0.00000176,0
 .00000058,0.00000354,0.00000051,-0.00000079,0.00000479,-0.00000478,-0.
 00001103,0.00003151,-0.00237943,0.00208898,-0.00176880,0.00084348,-0.0
 0015516,0.00056351,0.01222789,0.04350231,0.06039891,-0.00054854,-0.000
 48246,0.00077084,0.00203597,0.00068371,-0.00079897,-0.00060887,0.00023
 130,0.00025200,0.00016182,0.00001501,-0.00005122,0.00008153,0.00002061
 ,-0.00000772,-0.00008674,0.00000097,-0.00000144,-0.00007496,-0.0000241
 4,0.00002547,-0.00004604,0.00002346,-0.00005421,-0.00000694,-0.0000086
 4,0.00004481,0.,-0.00000373,0.00001414,0.00000216,0.00000201,-0.000000
 63,-0.00000162,-0.00000200,-0.00000121,0.00000313,-0.00000119,0.000013
 73,0.00336651,-0.00451933,-0.01725100,-0.05066366,0.00136673,0.0130765
 4,-0.01526519,0.00951068,0.03945276,0.00008567,-0.00010356,-0.00005171
 ,-0.00001897,-0.00000485,-0.00001063,0.00002059,0.00001534,-0.00002968
 ,-0.00000914,0.00001300,-0.00000347,-0.00001743,-0.00002743,-0.0000129
 0,-0.00000056,0.00000075,-0.00000476,0.00000005,0.00000043,-0.00000291
 ,-0.00000092,0.00000121,-0.00002544,0.00043796,-0.00011719,0.00076238,
 -0.00190797,0.00252582,-0.00176686,0.00307063,-0.00091326,-0.00944164,
 0.06422797,-0.00020987,0.00019301,0.00067249,-0.00059066,0.00047301,-0
 .00014731,0.00005438,-0.00030802,-0.00034032,-0.00000810,-0.00001492,-
 0.00001045,0.00001320,0.00000465,0.00001386,-0.00002226,-0.00000187,-0
 .00000462,-0.00000756,-0.00001629,-0.00001906,0.00001416,0.00002268,-0
 .00000150,0.00000352,0.00001327,-0.00000070,0.00001080,0.00000031,0.00
 000426,-0.00000205,-0.00001665,-0.00000299,-0.00001804,-0.00000118,0.0
 0000078,0.00000364,-0.00000474,0.00000542,-0.00208868,0.00497161,0.021
 99014,0.00626880,-0.06659114,-0.06424883,-0.00151291,0.00017664,0.0033
 8071,0.00000159,0.00004536,0.00012175,-0.00001333,0.00000448,-0.000000
 57,0.00000693,0.00000711,-0.00000348,0.00001002,-0.00001215,0.00000606
 ,0.00000154,0.00002317,-0.00000128,0.00000297,-0.00000066,-0.00000071,
 -0.00000143,0.00000006,-0.00000169,-0.00000548,0.00000871,-0.00001357,
 -0.00105919,0.00096676,-0.00019709,0.00288220,-0.00195072,0.00269603,0
 .00431820,-0.00433254,-0.02877025,-0.00795646,0.06561833,-0.00027860,-
 0.00054755,0.00057667,0.00067714,0.00099892,-0.00035299,-0.00026105,-0
 .00008537,0.00008566,0.00000073,0.00001436,-0.00000902,0.00001961,-0.0
 0000667,-0.00000395,-0.00002497,0.00000350,-0.00000149,-0.00001944,0.0
 0000083,0.00001348,-0.00000969,0.00000631,-0.00002261,-0.00000183,-0.0
 0000273,0.00001181,0.00000144,-0.00000100,0.00000227,0.00000098,-0.000
 00134,-0.00000122,-0.00000205,-0.00000069,0.00000016,0.00000127,0.0000
 0115,0.00000190,0.00015380,-0.00308797,-0.01576510,0.02526708,-0.06219
 060,-0.30722284,0.00163547,-0.00072361,-0.00240656,0.00003237,-0.00007
 923,-0.00008015,-0.00001457,0.00001603,-0.00000846,0.00000598,0.000003
 00,-0.00000719,-0.00000018,0.00000078,0.00000166,-0.00001258,-0.000006
 33,0.00001235,0.00000007,-0.00000021,-0.00000044,0.00000011,0.00000024
 ,-0.00000029,-0.00000322,0.00000129,-0.00000326,0.00040440,0.00001529,
 0.00113579,-0.00200377,0.00202863,-0.00020262,-0.00017983,-0.00063196,
 -0.00301303,-0.02612109,0.06405454,0.32613390,0.00050462,0.00029322,-0
 .00027779,-0.00113575,-0.00073566,-0.00017047,0.00072357,-0.00015005,0
 .00002337,-0.00023363,-0.00009106,0.00007002,-0.00017689,0.00012810,-0
 .00010904,0.00019620,-0.00004768,0.00004935,0.00011738,-0.00007052,0.0
 0005522,0.00000663,-0.00001007,0.00005647,0.00000006,0.00000942,-0.000
 04621,-0.00003031,0.00001197,-0.00000029,0.00005536,0.00002312,0.00000
 228,-0.00001137,0.00000503,0.00000240,0.00003088,-0.00002941,-0.000017
 27,0.00202359,0.00013369,0.00106814,-0.00452393,0.00944965,0.03447957,
 -0.06653269,0.01676968,0.05973465,-0.00004762,0.00016614,-0.00003032,0
 .00003608,0.00000422,0.00000516,-0.00005040,-0.00001571,0.00002003,0.0
 0000538,-0.00000449,-0.00000322,-0.00000511,0.00000386,0.00003132,-0.0
 0000613,0.00000308,0.00000412,-0.00000067,-0.00000166,0.00000243,-0.00
 002697,-0.00001943,0.00001705,0.00010039,-0.00006952,-0.00026883,-0.00
 026951,0.00051864,-0.00158518,0.00117716,-0.00068959,-0.00016907,-0.00
 693825,-0.00077951,-0.00032050,0.06841393,-0.00039640,-0.00072172,-0.0
 0000211,0.00105204,0.00074590,0.00014311,-0.00036035,-0.00005422,0.000
 02042,0.00012158,0.00005117,-0.00001359,0.00015378,0.00000519,0.000029
 77,-0.00014184,0.00000107,-0.00002496,-0.00010381,-0.00002116,-0.00000
 560,-0.00000286,0.00000039,-0.00002815,0.00000184,0.00001624,0.0000295
 8,0.00002437,-0.00000879,0.00000153,-0.00002481,-0.00003160,-0.0000040
 6,-0.00001806,0.00000123,-0.00000080,-0.00000567,0.00000573,0.00000291
 ,-0.00059260,-0.00050136,-0.00086437,0.00080986,0.00130573,0.00286520,
 0.01439930,-0.08513708,-0.08228569,0.00006728,-0.00006643,0.00001980,-
 0.00002708,-0.00000376,-0.00000107,0.00003077,0.00002245,-0.00001521,0
 .00000127,-0.00000178,0.00000025,0.00000368,0.00000472,-0.00001133,0.0
 0000460,-0.00000255,-0.00000289,-0.00000261,0.00000093,-0.00000032,0.0
 0000515,0.00002534,-0.00000010,0.00015254,-0.00015086,-0.00009778,0.00
 025731,0.00031851,0.00050972,-0.00064582,-0.00005016,0.00087806,-0.000
 79600,0.00042028,0.00018295,-0.01522657,0.08164152,-0.00020922,0.00022
 096,-0.00024389,0.00005188,0.00006718,-0.00024027,-0.00037571,0.000061
 22,-0.00007486,0.00009044,0.00010830,0.00003370,-0.00000153,-0.0000929
 1,0.00008725,-0.00003234,0.00002761,-0.00003966,0.00000046,0.00005052,
 -0.00007532,-0.00001350,-0.00001042,0.00000261,0.00000498,0.00000403,0
 .00000249,0.00000913,-0.00000117,-0.00000824,-0.00002034,-0.00001108,-
 0.00000621,0.00000148,0.00000053,0.00000123,-0.00000996,0.00000836,-0.
 00000823,-0.00097326,-0.00067342,0.00286879,0.00606638,-0.00005825,-0.
 00347892,0.04993836,-0.08292851,-0.36904156,0.00001333,-0.00004218,0.0
 0008681,-0.00000842,-0.00001914,0.00000840,0.00000604,-0.00000141,0.00
 001911,0.00000263,-0.00000202,-0.00000021,0.00000605,0.00000744,-0.000
 01348,0.00000207,-0.00000177,0.00000342,-0.00000039,-0.00000018,0.0000
 0320,0.00001066,0.00000613,0.00001543,0.00002869,0.00002534,-0.0002870
 2,0.00030168,-0.00033918,-0.00044661,-0.00040943,0.00056226,0.00047932
 ,0.00004103,0.00069178,0.00142256,-0.05869626,0.08951777,0.39032241,0.
 00011449,0.00138694,-0.00059598,-0.00208719,-0.00153248,0.00073906,0.0
 0070878,0.00013424,-0.00000565,-0.00020037,-0.00010811,0.00000003,-0.0
 0017497,0.00009760,-0.00009833,0.00018497,-0.00003553,0.00005028,0.000
 11567,-0.00004325,0.00005228,0.00001545,-0.00000211,0.00004021,-0.0000
 0176,-0.00000379,-0.00003970,-0.00003241,0.00001268,0.00000224,0.00005
 273,0.00002945,0.00000359,-0.00000197,0.00000531,0.00000208,0.00002711
 ,-0.00002744,-0.00001145,0.00273675,-0.00065719,-0.00032743,-0.0112007
 8,-0.03231298,-0.00573883,-0.10121341,-0.11822902,-0.02106933,-0.00009
 970,0.00014961,-0.00009164,0.00003690,0.00001450,0.00000718,-0.0000441
 8,-0.00001704,0.00001241,-0.00000257,0.00000221,-0.00000366,-0.0000043
 5,-0.00000930,0.00002338,-0.00000694,0.00000355,0.00000285,-0.00000009
 ,-0.00000121,0.00000148,-0.00001978,-0.00002161,0.00000757,-0.00043879
 ,0.00106045,-0.00010582,-0.00014155,0.00010355,-0.00023789,-0.00574371
 ,0.00214301,0.00217239,0.00149028,0.00013927,0.00043104,0.00250057,0.0
 0770544,0.00007398,0.10468415,0.00031730,-0.00046465,0.00022087,-0.000
 13687,0.00004665,-0.00001681,0.00043042,-0.00029788,0.00002025,-0.0000
 9054,-0.00007669,0.00000521,0.00004040,0.00015807,-0.00008286,0.000004
 30,-0.00005008,0.00002469,-0.00002699,-0.00012410,0.00005021,0.0000080
 3,0.00001153,0.00001470,0.00000085,0.00001379,-0.00000808,-0.00000314,
 0.00000521,0.00000727,0.00002332,-0.00000643,-0.00000074,-0.00001991,0
 .00000152,0.00000041,0.00001749,-0.00001932,-0.00000642,0.00045043,0.0
 0266281,-0.00027258,-0.00412053,0.00425804,0.00202634,-0.10839504,-0.3
 5064788,-0.04756008,0.00007303,0.00011570,0.00002785,-0.00000312,0.000
 00356,-0.00000387,-0.00000813,0.00001286,-0.00000735,0.00000897,-0.000
 00649,-0.00000206,-0.00000841,0.00000315,0.00002141,0.00000024,0.00000
 060,-0.00000091,-0.00000160,-0.00000046,0.00000006,-0.00001773,0.00000
 219,0.00000152,-0.00005359,-0.00061749,-0.00047410,-0.00006815,0.00003
 832,-0.00003713,0.00119810,0.00094075,0.00017102,0.00041424,0.00030348
 ,0.00025540,-0.00213661,-0.00658666,-0.00069503,0.12088272,0.37040748,
 0.00043736,0.00015143,0.00001154,-0.00065097,0.00011204,-0.00022357,0.
 00024805,-0.00015010,-0.00004790,-0.00010481,-0.00001551,0.00003214,-0
 .00011554,0.00000093,-0.00001388,0.00010500,-0.00000535,0.00000761,0.0
 0008145,0.00000331,-0.00001375,-0.00000150,-0.00000043,0.00003109,0.00
 000279,0.00000457,-0.00002779,-0.00001139,0.00000834,-0.00000429,0.000
 01962,0.00000714,-0.00000377,-0.00000369,0.00000141,0.00000178,0.00001
 071,-0.00001131,-0.00001251,-0.00004499,-0.00040238,-0.00003533,0.0017
 4121,0.00819629,0.00210808,-0.01895160,-0.04552301,-0.07049720,-0.0000
 4732,0.00005468,0.00002698,0.00001267,0.00000198,-0.00000255,-0.000024
 63,-0.00001310,0.00002295,0.00000874,-0.00000829,0.00000282,-0.0000020
 8,0.00001009,0.00001644,-0.00000152,0.00000053,0.00000522,-0.00000019,
 -0.00000085,0.00000308,-0.00001193,-0.00000923,0.00001413,-0.00002099,
 -0.00000137,0.00044572,-0.00019076,-0.00028032,-0.00038258,0.00172416,
 -0.00036323,-0.00005884,0.00042297,0.00078063,-0.00033963,-0.01481318,
 -0.03588893,-0.00249173,0.01934573,0.05116643,0.06633412,0.00041361,-0
 .00094902,0.00051662,0.00056455,0.00318952,-0.00139121,-0.00076990,-0.
 00055765,0.00006112,0.00002595,0.00018331,0.00001278,-0.00010970,-0.00
 004961,0.00001648,0.00001520,0.00001811,-0.00000953,0.00003640,0.00000
 828,-0.00000006,-0.00003200,0.00000042,-0.00002630,-0.00000731,0.00001
 854,0.00001795,-0.00000094,-0.00000333,0.00000586,0.00002021,-0.000006
 54,-0.00000310,-0.00002688,0.00000248,-0.00000003,0.00002006,-0.000010
 85,0.00000076,-0.00665669,-0.00249502,0.00277945,-0.01458031,0.0203113
 6,-0.01945111,-0.14256643,0.11214220,-0.10581608,0.00001186,-0.0000519
 3,0.00000196,0.00000056,-0.00000030,-0.00000131,0.00000219,0.00000357,
 -0.00000550,-0.00000312,0.00000167,0.00000121,-0.00000498,-0.00000130,
 0.00000619,-0.00000206,0.00000080,-0.00000085,-0.00000204,-0.00000043,
 -0.00000044,-0.00001678,0.00000326,-0.00000522,0.00012656,0.00007870,0
 .00022135,0.00044431,-0.00042858,0.00023449,0.00074946,-0.00089141,-0.
 00081978,0.00121153,0.00054432,0.00062187,0.00409742,-0.00644633,0.004
 10109,0.00874666,-0.00877947,0.01083664,0.14829262,-0.00022608,0.00000
 780,-0.00007052,-0.00010876,0.00024708,0.00000472,-0.00028891,-0.00001
 118,-0.00001633,0.00008134,0.00003613,0.00000674,0.00012679,-0.0000007
 0,0.00003361,-0.00011357,0.00000202,-0.00002135,-0.00008053,-0.0000097
 5,-0.00001395,-0.00000163,0.00000594,-0.00002578,0.00000241,0.00001373
 ,0.00002279,0.00002258,-0.00000694,0.00000120,-0.00002222,-0.00002999,
 -0.00000289,-0.00001775,0.00000110,-0.00000024,-0.00000577,0.00000464,
 0.00000535,-0.00046214,0.00005778,0.00034384,0.00067503,0.00375322,-0.
 00440771,0.10551879,-0.19930644,0.12719338,0.00005072,-0.00007049,0.00
 003682,-0.00001556,-0.00000202,-0.00000506,0.00002608,0.00001757,-0.00
 001317,0.00000301,-0.00000420,0.00000263,0.00000661,0.00000787,-0.0000
 0889,0.00000474,-0.00000247,-0.00000199,-0.00000209,0.00000098,-0.0000
 0186,0.00000394,0.00002350,-0.00000645,-0.00023788,0.00016905,0.000014
 48,-0.00001101,-0.00010061,0.00013810,-0.00091662,0.00042108,-0.000434
 54,0.00013498,-0.00000206,-0.00021795,-0.00744228,0.00877169,-0.006482
 76,0.01913055,-0.02008756,0.02217361,-0.11583476,0.20609322,0.00023769
 ,-0.00005027,-0.00010034,-0.00013445,-0.00022331,0.00070498,0.00042479
 ,-0.00006810,-0.00002776,-0.00009841,-0.00007198,-0.00004784,-0.000108
 90,0.00002983,-0.00004302,0.00010943,-0.00001363,0.00001690,0.00007411
 ,-0.00001635,0.00001187,0.00001926,-0.00000373,0.00004440,0.00000461,-
 0.00000007,-0.00003448,-0.00001752,0.00000900,-0.00000528,0.00002536,0
 .00001512,-0.00000141,0.00000224,0.00000279,0.00000285,0.00001135,-0.0
 0001309,-0.00001666,0.00183874,0.00078181,-0.00096942,0.00190195,-0.00
 762416,0.00746602,-0.09876448,0.12582699,-0.18009552,-0.00004086,0.000
 09699,-0.00000314,0.00000284,0.00000921,0.00000121,-0.00002760,-0.0000
 1272,0.00002079,0.00000519,-0.00000584,0.00000088,-0.00000677,0.000004
 62,0.00002047,-0.00000239,0.00000077,0.00000580,0.00000023,-0.00000111
 ,0.00000417,-0.00001123,-0.00001181,0.00001915,-0.00014272,0.00010111,
 -0.00000542,-0.00005405,0.00009374,0.00029076,-0.00034796,-0.00015619,
 0.00005150,0.00076083,-0.00065402,0.00004266,-0.01911395,0.02504588,-0
 .01890054,0.00535794,-0.00484562,0.00509162,0.10809472,-0.13824583,0.1
 8645480\\-0.00000081,0.00000206,-0.00000125,0.00000472,0.00000100,-0.0
 0000042,-0.00000115,0.00000191,-0.00000258,0.00000095,-0.00000394,0.00
 000426,-0.00000410,0.00000111,-0.00000148,0.00000541,0.00000385,-0.000
 00239,0.00000112,-0.00000014,0.00000047,-0.00000003,0.00000124,-0.0000
 0023,0.00000066,-0.00000247,-0.00000102,0.00000006,-0.00000062,0.00000
 043,-0.00000012,-0.00000062,-0.00000039,-0.00000047,0.00000068,-0.0000
 0039,0.00000031,0.00000141,-0.00000141,-0.00000370,-0.00000004,-0.0000
 0059,-0.00000501,-0.00000088,0.00000150,0.00000503,0.00000028,-0.00000
 090,0.00000029,-0.00000203,0.00000034,0.00000077,-0.00000139,0.0000008
 5,-0.00000176,-0.00000143,0.00000176,-0.00000059,0.00000067,0.00000031
 ,-0.00000202,0.00000030,0.00000012,-0.00000011,-0.00000014,0.00000007,
 0.00000021,0.00000015,-0.00000040,-0.00000063,-0.00000031,0.00000028,-
 0.00000017,-0.00000013,0.00000015,0.00000098,0.00000023,0.00000079,0.0
 0000009,0.,0.00000072,0.00000005,-0.00000059,0.00000018,0.00000014,0.0
 0000003,0.00000068,-0.00000012,-0.00000033,0.00000042,0.,0.00000015,0.
 00000013\\\@


 ARTHROPOD AXIOM: A COMPUTER SYSTEM IS LIKE A SPIDER'S WEB.
 YOU CANNOT PULL ON ONE END WITHOUT MAKING THE OTHER END MOVE.
     -- GREG WETTSTEIN
 Job cpu time:       0 days  4 hours 51 minutes 50.3 seconds.
 File lengths (MBytes):  RWF=    608 Int=      0 D2E=      0 Chk=     18 Scr=      1
 Normal termination of Gaussian 09 at Thu Jul 29 02:12:17 2021.
