 Entering Gaussian System, Link 0=g09
 Input=opt_freq-conf-719.com
 Output=opt_freq-conf-719.log
 Initial command:
 /aerosol/software/g09/l1.exe "/scratch/nicole/10640/Gau-82743.inp" -scrdir="/scratch/nicole/10640/"
 Entering Link 1 = /aerosol/software/g09/l1.exe PID=     82746.
  
 Copyright (c) 1988,1990,1992,1993,1995,1998,2003,2009,2013,
            Gaussian, Inc.  All Rights Reserved.
  
 This is part of the Gaussian(R) 09 program.  It is based on
 the Gaussian(R) 03 system (copyright 2003, Gaussian, Inc.),
 the Gaussian(R) 98 system (copyright 1998, Gaussian, Inc.),
 the Gaussian(R) 94 system (copyright 1995, Gaussian, Inc.),
 the Gaussian 92(TM) system (copyright 1992, Gaussian, Inc.),
 the Gaussian 90(TM) system (copyright 1990, Gaussian, Inc.),
 the Gaussian 88(TM) system (copyright 1988, Gaussian, Inc.),
 the Gaussian 86(TM) system (copyright 1986, Carnegie Mellon
 University), and the Gaussian 82(TM) system (copyright 1983,
 Carnegie Mellon University). Gaussian is a federally registered
 trademark of Gaussian, Inc.
  
 This software contains proprietary and confidential information,
 including trade secrets, belonging to Gaussian, Inc.
  
 This software is provided under written license and may be
 used, copied, transmitted, or stored only in accord with that
 written license.
  
 The following legend is applicable only to US Government
 contracts under FAR:
  
                    RESTRICTED RIGHTS LEGEND
  
 Use, reproduction and disclosure by the US Government is
 subject to restrictions as set forth in subparagraphs (a)
 and (c) of the Commercial Computer Software - Restricted
 Rights clause in FAR 52.227-19.
  
 Gaussian, Inc.
 340 Quinnipiac St., Bldg. 40, Wallingford CT 06492
  
  
 ---------------------------------------------------------------
 Warning -- This program may not be used in any manner that
 competes with the business of Gaussian, Inc. or will provide
 assistance to any competitor of Gaussian, Inc.  The licensee
 of this program is prohibited from giving any competitor of
 Gaussian, Inc. access to this program.  By using this program,
 the user acknowledges that Gaussian, Inc. is engaged in the
 business of creating and licensing software in the field of
 computational chemistry and represents and warrants to the
 licensee that it is not a competitor of Gaussian, Inc. and that
 it will not use this program in any manner prohibited above.
 ---------------------------------------------------------------
  

 Cite this work as:
 Gaussian 09, Revision D.01,
 M. J. Frisch, G. W. Trucks, H. B. Schlegel, G. E. Scuseria, 
 M. A. Robb, J. R. Cheeseman, G. Scalmani, V. Barone, B. Mennucci, 
 G. A. Petersson, H. Nakatsuji, M. Caricato, X. Li, H. P. Hratchian, 
 A. F. Izmaylov, J. Bloino, G. Zheng, J. L. Sonnenberg, M. Hada, 
 M. Ehara, K. Toyota, R. Fukuda, J. Hasegawa, M. Ishida, T. Nakajima, 
 Y. Honda, O. Kitao, H. Nakai, T. Vreven, J. A. Montgomery, Jr., 
 J. E. Peralta, F. Ogliaro, M. Bearpark, J. J. Heyd, E. Brothers, 
 K. N. Kudin, V. N. Staroverov, T. Keith, R. Kobayashi, J. Normand, 
 K. Raghavachari, A. Rendell, J. C. Burant, S. S. Iyengar, J. Tomasi, 
 M. Cossi, N. Rega, J. M. Millam, M. Klene, J. E. Knox, J. B. Cross, 
 V. Bakken, C. Adamo, J. Jaramillo, R. Gomperts, R. E. Stratmann, 
 O. Yazyev, A. J. Austin, R. Cammi, C. Pomelli, J. W. Ochterski, 
 R. L. Martin, K. Morokuma, V. G. Zakrzewski, G. A. Voth, 
 P. Salvador, J. J. Dannenberg, S. Dapprich, A. D. Daniels, 
 O. Farkas, J. B. Foresman, J. V. Ortiz, J. Cioslowski, 
 and D. J. Fox, Gaussian, Inc., Wallingford CT, 2013.
 
 ******************************************
 Gaussian 09:  ES64L-G09RevD.01 24-Apr-2013
                28-Jul-2021 
 ******************************************
 %mem=2gb
 %nproc=4
 Will use up to    4 processors via shared memory.
 %chk=conf-719.chk
 ----------------------------------------------------------------------
 # B3LYP/6-311++G(d,p) opt=calcfc freq=noraman nosymm integral(ultrafin
 egrid)
 ----------------------------------------------------------------------
 1/10=4,14=-1,18=20,19=15,26=4,38=1/1,3;
 2/9=110,12=2,15=1,17=6,18=5,40=1/2;
 3/5=4,6=6,7=1111,11=2,16=1,25=1,30=1,71=2,74=-5,75=-5,140=1/1,2,3;
 4//1;
 5/5=2,38=5/2;
 8/6=4,10=90,11=11/1;
 11/6=1,8=1,9=11,15=111,16=1,31=1/1,2,10;
 10/6=1,13=1,31=1/2;
 6/7=2,8=2,9=2,10=2,28=1/1;
 7/10=1,18=20,25=1,30=1/1,2,3,16;
 1/10=4,14=-1,18=20,19=15,26=4/3(2);
 2/9=110,15=1/2;
 99//99;
 2/9=110,15=1/2;
 3/5=4,6=6,7=1111,11=2,16=1,25=1,30=1,71=1,74=-5,75=-5/1,2,3;
 4/5=5,16=3,69=1/1;
 5/5=2,38=5/2;
 7/30=1/1,2,3,16;
 1/14=-1,18=20,19=15,26=4/3(-5);
 2/9=110,15=1/2;
 6/7=2,8=2,9=2,10=2,19=2,28=1/1;
 99/9=1/99;
 ------------------------------------------------------------
 Candidate Structure: Conf:719 OPT and FREQ calc in gas phase
 ------------------------------------------------------------
 Symbolic Z-matrix:
 Charge =  1 Multiplicity = 1
 O                    -0.72005  -0.63766   1.42408 
 C                    -1.30854  -0.35072   0.39193 
 N                    -0.64886   0.02779  -0.73425 
 C                     0.78942   0.22717  -0.70361 
 C                     1.13934   1.06531  -1.91425 
 O                     2.46404   1.31793  -2.00859 
 O                     0.34195   1.46947  -2.71894 
 C                     1.53736  -1.12922  -0.66353 
 C                     2.755    -1.09635   0.19636 
 C                     3.09564  -1.82049   1.30301 
 N                     4.33164  -1.42286   1.78318 
 C                     4.71835  -0.46405   0.97732 
 N                     3.79481  -0.22334   0.00813 
 C                    -2.81985  -0.36212   0.28429 
 C                    -3.40988   0.91549   0.86784 
 N                    -4.89591   0.90764   0.82254 
 H                    -1.13699   0.44142  -1.51384 
 H                     1.02385   0.8044    0.19829 
 H                     2.57954   1.86672  -2.79947 
 H                     0.86206  -1.86744  -0.23474 
 H                     1.76766  -1.4608   -1.67591 
 H                     2.52688  -2.60269   1.78513 
 H                     5.63852   0.08929   1.03276 
 H                     3.82338   0.4747   -0.71798 
 H                    -3.18715  -1.21463   0.85492 
 H                    -3.13759  -0.46911  -0.75496 
 H                    -3.04499   1.77791   0.30734 
 H                    -3.07045   1.02624   1.89791 
 H                    -5.2757    0.11714   1.34345 
 H                    -5.29549   1.75648   1.22538 
 H                    -5.23775   0.83645  -0.1361 
 

 GradGradGradGradGradGradGradGradGradGradGradGradGradGradGradGradGradGrad
 Berny optimization.
 Initialization pass.
                           ----------------------------
                           !    Initial Parameters    !
                           ! (Angstroms and Degrees)  !
 --------------------------                            --------------------------
 ! Name  Definition              Value          Derivative Info.                !
 --------------------------------------------------------------------------------
 ! R1    R(1,2)                  1.2223         calculate D2E/DX2 analytically  !
 ! R2    R(2,3)                  1.3589         calculate D2E/DX2 analytically  !
 ! R3    R(2,14)                 1.5152         calculate D2E/DX2 analytically  !
 ! R4    R(3,4)                  1.4524         calculate D2E/DX2 analytically  !
 ! R5    R(3,17)                 1.0085         calculate D2E/DX2 analytically  !
 ! R6    R(4,5)                  1.5135         calculate D2E/DX2 analytically  !
 ! R7    R(4,8)                  1.5495         calculate D2E/DX2 analytically  !
 ! R8    R(4,18)                 1.0962         calculate D2E/DX2 analytically  !
 ! R9    R(5,6)                  1.3519         calculate D2E/DX2 analytically  !
 ! R10   R(5,7)                  1.2028         calculate D2E/DX2 analytically  !
 ! R11   R(6,19)                 0.9695         calculate D2E/DX2 analytically  !
 ! R12   R(8,9)                  1.491          calculate D2E/DX2 analytically  !
 ! R13   R(8,20)                 1.0885         calculate D2E/DX2 analytically  !
 ! R14   R(8,21)                 1.0899         calculate D2E/DX2 analytically  !
 ! R15   R(9,10)                 1.3657         calculate D2E/DX2 analytically  !
 ! R16   R(9,13)                 1.3707         calculate D2E/DX2 analytically  !
 ! R17   R(10,11)                1.3843         calculate D2E/DX2 analytically  !
 ! R18   R(10,22)                1.0806         calculate D2E/DX2 analytically  !
 ! R19   R(11,12)                1.3108         calculate D2E/DX2 analytically  !
 ! R20   R(12,13)                1.3602         calculate D2E/DX2 analytically  !
 ! R21   R(12,23)                1.0752         calculate D2E/DX2 analytically  !
 ! R22   R(13,24)                1.0076         calculate D2E/DX2 analytically  !
 ! R23   R(14,15)                1.5235         calculate D2E/DX2 analytically  !
 ! R24   R(14,25)                1.0896         calculate D2E/DX2 analytically  !
 ! R25   R(14,26)                1.092          calculate D2E/DX2 analytically  !
 ! R26   R(15,16)                1.4867         calculate D2E/DX2 analytically  !
 ! R27   R(15,27)                1.0914         calculate D2E/DX2 analytically  !
 ! R28   R(15,28)                1.0902         calculate D2E/DX2 analytically  !
 ! R29   R(16,29)                1.02           calculate D2E/DX2 analytically  !
 ! R30   R(16,30)                1.021          calculate D2E/DX2 analytically  !
 ! R31   R(16,31)                1.0202         calculate D2E/DX2 analytically  !
 ! A1    A(1,2,3)              122.1047         calculate D2E/DX2 analytically  !
 ! A2    A(1,2,14)             122.5785         calculate D2E/DX2 analytically  !
 ! A3    A(3,2,14)             115.3041         calculate D2E/DX2 analytically  !
 ! A4    A(2,3,4)              120.0984         calculate D2E/DX2 analytically  !
 ! A5    A(2,3,17)             121.3245         calculate D2E/DX2 analytically  !
 ! A6    A(4,3,17)             116.06           calculate D2E/DX2 analytically  !
 ! A7    A(3,4,5)              106.7453         calculate D2E/DX2 analytically  !
 ! A8    A(3,4,8)              111.0018         calculate D2E/DX2 analytically  !
 ! A9    A(3,4,18)             107.5444         calculate D2E/DX2 analytically  !
 ! A10   A(5,4,8)              113.1954         calculate D2E/DX2 analytically  !
 ! A11   A(5,4,18)             108.4867         calculate D2E/DX2 analytically  !
 ! A12   A(8,4,18)             109.6613         calculate D2E/DX2 analytically  !
 ! A13   A(4,5,6)              112.698          calculate D2E/DX2 analytically  !
 ! A14   A(4,5,7)              124.6084         calculate D2E/DX2 analytically  !
 ! A15   A(6,5,7)              122.6933         calculate D2E/DX2 analytically  !
 ! A16   A(5,6,19)             106.227          calculate D2E/DX2 analytically  !
 ! A17   A(4,8,9)              112.9434         calculate D2E/DX2 analytically  !
 ! A18   A(4,8,20)             107.7227         calculate D2E/DX2 analytically  !
 ! A19   A(4,8,21)             110.1385         calculate D2E/DX2 analytically  !
 ! A20   A(9,8,20)             107.1225         calculate D2E/DX2 analytically  !
 ! A21   A(9,8,21)             111.7052         calculate D2E/DX2 analytically  !
 ! A22   A(20,8,21)            106.8981         calculate D2E/DX2 analytically  !
 ! A23   A(8,9,10)             131.2491         calculate D2E/DX2 analytically  !
 ! A24   A(8,9,13)             123.6667         calculate D2E/DX2 analytically  !
 ! A25   A(10,9,13)            105.0567         calculate D2E/DX2 analytically  !
 ! A26   A(9,10,11)            110.5779         calculate D2E/DX2 analytically  !
 ! A27   A(9,10,22)            127.8827         calculate D2E/DX2 analytically  !
 ! A28   A(11,10,22)           121.5393         calculate D2E/DX2 analytically  !
 ! A29   A(10,11,12)           105.0849         calculate D2E/DX2 analytically  !
 ! A30   A(11,12,13)           111.5417         calculate D2E/DX2 analytically  !
 ! A31   A(11,12,23)           126.6715         calculate D2E/DX2 analytically  !
 ! A32   A(13,12,23)           121.7867         calculate D2E/DX2 analytically  !
 ! A33   A(9,13,12)            107.7286         calculate D2E/DX2 analytically  !
 ! A34   A(9,13,24)            124.1734         calculate D2E/DX2 analytically  !
 ! A35   A(12,13,24)           128.0822         calculate D2E/DX2 analytically  !
 ! A36   A(2,14,15)            110.6579         calculate D2E/DX2 analytically  !
 ! A37   A(2,14,25)            107.7526         calculate D2E/DX2 analytically  !
 ! A38   A(2,14,26)            111.0128         calculate D2E/DX2 analytically  !
 ! A39   A(15,14,25)           108.964          calculate D2E/DX2 analytically  !
 ! A40   A(15,14,26)           109.5123         calculate D2E/DX2 analytically  !
 ! A41   A(25,14,26)           108.8845         calculate D2E/DX2 analytically  !
 ! A42   A(14,15,16)           111.7778         calculate D2E/DX2 analytically  !
 ! A43   A(14,15,27)           109.6626         calculate D2E/DX2 analytically  !
 ! A44   A(14,15,28)           109.0578         calculate D2E/DX2 analytically  !
 ! A45   A(16,15,27)           108.8269         calculate D2E/DX2 analytically  !
 ! A46   A(16,15,28)           109.9093         calculate D2E/DX2 analytically  !
 ! A47   A(27,15,28)           107.5104         calculate D2E/DX2 analytically  !
 ! A48   A(15,16,29)           111.1423         calculate D2E/DX2 analytically  !
 ! A49   A(15,16,30)           112.0089         calculate D2E/DX2 analytically  !
 ! A50   A(15,16,31)           111.3396         calculate D2E/DX2 analytically  !
 ! A51   A(29,16,30)           107.2825         calculate D2E/DX2 analytically  !
 ! A52   A(29,16,31)           107.5184         calculate D2E/DX2 analytically  !
 ! A53   A(30,16,31)           107.3143         calculate D2E/DX2 analytically  !
 ! D1    D(1,2,3,4)             -5.9537         calculate D2E/DX2 analytically  !
 ! D2    D(1,2,3,17)          -167.2503         calculate D2E/DX2 analytically  !
 ! D3    D(14,2,3,4)           172.7854         calculate D2E/DX2 analytically  !
 ! D4    D(14,2,3,17)           11.4887         calculate D2E/DX2 analytically  !
 ! D5    D(1,2,14,15)           80.5041         calculate D2E/DX2 analytically  !
 ! D6    D(1,2,14,25)          -38.5329         calculate D2E/DX2 analytically  !
 ! D7    D(1,2,14,26)         -157.6785         calculate D2E/DX2 analytically  !
 ! D8    D(3,2,14,15)          -98.2283         calculate D2E/DX2 analytically  !
 ! D9    D(3,2,14,25)          142.7347         calculate D2E/DX2 analytically  !
 ! D10   D(3,2,14,26)           23.5891         calculate D2E/DX2 analytically  !
 ! D11   D(2,3,4,5)           -161.334          calculate D2E/DX2 analytically  !
 ! D12   D(2,3,4,8)             74.8806         calculate D2E/DX2 analytically  !
 ! D13   D(2,3,4,18)           -45.0767         calculate D2E/DX2 analytically  !
 ! D14   D(17,3,4,5)             0.9122         calculate D2E/DX2 analytically  !
 ! D15   D(17,3,4,8)          -122.8732         calculate D2E/DX2 analytically  !
 ! D16   D(17,3,4,18)          117.1695         calculate D2E/DX2 analytically  !
 ! D17   D(3,4,5,6)           -179.5997         calculate D2E/DX2 analytically  !
 ! D18   D(3,4,5,7)              0.1965         calculate D2E/DX2 analytically  !
 ! D19   D(8,4,5,6)            -57.1805         calculate D2E/DX2 analytically  !
 ! D20   D(8,4,5,7)            122.6157         calculate D2E/DX2 analytically  !
 ! D21   D(18,4,5,6)            64.7729         calculate D2E/DX2 analytically  !
 ! D22   D(18,4,5,7)          -115.4308         calculate D2E/DX2 analytically  !
 ! D23   D(3,4,8,9)           -142.7371         calculate D2E/DX2 analytically  !
 ! D24   D(3,4,8,20)           -24.6433         calculate D2E/DX2 analytically  !
 ! D25   D(3,4,8,21)            91.6021         calculate D2E/DX2 analytically  !
 ! D26   D(5,4,8,9)             97.2454         calculate D2E/DX2 analytically  !
 ! D27   D(5,4,8,20)          -144.6608         calculate D2E/DX2 analytically  !
 ! D28   D(5,4,8,21)           -28.4154         calculate D2E/DX2 analytically  !
 ! D29   D(18,4,8,9)           -24.0484         calculate D2E/DX2 analytically  !
 ! D30   D(18,4,8,20)           94.0454         calculate D2E/DX2 analytically  !
 ! D31   D(18,4,8,21)         -149.7092         calculate D2E/DX2 analytically  !
 ! D32   D(4,5,6,19)          -179.099          calculate D2E/DX2 analytically  !
 ! D33   D(7,5,6,19)             1.1003         calculate D2E/DX2 analytically  !
 ! D34   D(4,8,9,10)           120.2227         calculate D2E/DX2 analytically  !
 ! D35   D(4,8,9,13)           -57.5692         calculate D2E/DX2 analytically  !
 ! D36   D(20,8,9,10)            1.7786         calculate D2E/DX2 analytically  !
 ! D37   D(20,8,9,13)         -176.0133         calculate D2E/DX2 analytically  !
 ! D38   D(21,8,9,10)         -114.9644         calculate D2E/DX2 analytically  !
 ! D39   D(21,8,9,13)           67.2437         calculate D2E/DX2 analytically  !
 ! D40   D(8,9,10,11)         -179.0325         calculate D2E/DX2 analytically  !
 ! D41   D(8,9,10,22)            0.8577         calculate D2E/DX2 analytically  !
 ! D42   D(13,9,10,11)          -0.9355         calculate D2E/DX2 analytically  !
 ! D43   D(13,9,10,22)         178.9547         calculate D2E/DX2 analytically  !
 ! D44   D(8,9,13,12)          179.2791         calculate D2E/DX2 analytically  !
 ! D45   D(8,9,13,24)            0.6241         calculate D2E/DX2 analytically  !
 ! D46   D(10,9,13,12)           0.9981         calculate D2E/DX2 analytically  !
 ! D47   D(10,9,13,24)        -177.6569         calculate D2E/DX2 analytically  !
 ! D48   D(9,10,11,12)           0.5011         calculate D2E/DX2 analytically  !
 ! D49   D(22,10,11,12)       -179.3972         calculate D2E/DX2 analytically  !
 ! D50   D(10,11,12,13)          0.156          calculate D2E/DX2 analytically  !
 ! D51   D(10,11,12,23)       -179.7186         calculate D2E/DX2 analytically  !
 ! D52   D(11,12,13,9)          -0.7455         calculate D2E/DX2 analytically  !
 ! D53   D(11,12,13,24)        177.8408         calculate D2E/DX2 analytically  !
 ! D54   D(23,12,13,9)         179.1361         calculate D2E/DX2 analytically  !
 ! D55   D(23,12,13,24)         -2.2776         calculate D2E/DX2 analytically  !
 ! D56   D(2,14,15,16)        -177.8071         calculate D2E/DX2 analytically  !
 ! D57   D(2,14,15,27)          61.41           calculate D2E/DX2 analytically  !
 ! D58   D(2,14,15,28)         -56.0723         calculate D2E/DX2 analytically  !
 ! D59   D(25,14,15,16)        -59.5052         calculate D2E/DX2 analytically  !
 ! D60   D(25,14,15,27)        179.7119         calculate D2E/DX2 analytically  !
 ! D61   D(25,14,15,28)         62.2295         calculate D2E/DX2 analytically  !
 ! D62   D(26,14,15,16)         59.4978         calculate D2E/DX2 analytically  !
 ! D63   D(26,14,15,27)        -61.2851         calculate D2E/DX2 analytically  !
 ! D64   D(26,14,15,28)       -178.7675         calculate D2E/DX2 analytically  !
 ! D65   D(14,15,16,29)         59.1679         calculate D2E/DX2 analytically  !
 ! D66   D(14,15,16,30)        179.1595         calculate D2E/DX2 analytically  !
 ! D67   D(14,15,16,31)        -60.6717         calculate D2E/DX2 analytically  !
 ! D68   D(27,15,16,29)       -179.5642         calculate D2E/DX2 analytically  !
 ! D69   D(27,15,16,30)        -59.5726         calculate D2E/DX2 analytically  !
 ! D70   D(27,15,16,31)         60.5963         calculate D2E/DX2 analytically  !
 ! D71   D(28,15,16,29)        -62.0751         calculate D2E/DX2 analytically  !
 ! D72   D(28,15,16,30)         57.9166         calculate D2E/DX2 analytically  !
 ! D73   D(28,15,16,31)        178.0854         calculate D2E/DX2 analytically  !
 --------------------------------------------------------------------------------
 Trust Radius=3.00D-01 FncErr=1.00D-07 GrdErr=1.00D-06
 Number of steps in this run=    167 maximum allowed number of steps=    186.
 GradGradGradGradGradGradGradGradGradGradGradGradGradGradGradGradGradGrad

                          Input orientation:                          
 ---------------------------------------------------------------------
 Center     Atomic      Atomic             Coordinates (Angstroms)
 Number     Number       Type             X           Y           Z
 ---------------------------------------------------------------------
      1          8           0       -0.720054   -0.637656    1.424079
      2          6           0       -1.308542   -0.350722    0.391926
      3          7           0       -0.648861    0.027789   -0.734248
      4          6           0        0.789418    0.227174   -0.703607
      5          6           0        1.139344    1.065305   -1.914246
      6          8           0        2.464037    1.317927   -2.008589
      7          8           0        0.341951    1.469473   -2.718944
      8          6           0        1.537357   -1.129224   -0.663526
      9          6           0        2.754998   -1.096350    0.196361
     10          6           0        3.095644   -1.820487    1.303006
     11          7           0        4.331642   -1.422865    1.783184
     12          6           0        4.718350   -0.464049    0.977320
     13          7           0        3.794806   -0.223340    0.008132
     14          6           0       -2.819851   -0.362120    0.284292
     15          6           0       -3.409884    0.915491    0.867843
     16          7           0       -4.895913    0.907638    0.822538
     17          1           0       -1.136988    0.441420   -1.513845
     18          1           0        1.023851    0.804405    0.198290
     19          1           0        2.579543    1.866720   -2.799467
     20          1           0        0.862055   -1.867444   -0.234739
     21          1           0        1.767665   -1.460804   -1.675913
     22          1           0        2.526878   -2.602694    1.785128
     23          1           0        5.638517    0.089285    1.032764
     24          1           0        3.823382    0.474704   -0.717982
     25          1           0       -3.187149   -1.214629    0.854924
     26          1           0       -3.137595   -0.469107   -0.754956
     27          1           0       -3.044991    1.777907    0.307343
     28          1           0       -3.070450    1.026240    1.897911
     29          1           0       -5.275703    0.117144    1.343445
     30          1           0       -5.295491    1.756479    1.225383
     31          1           0       -5.237750    0.836447   -0.136097
 ---------------------------------------------------------------------
                    Distance matrix (angstroms):
                    1          2          3          4          5
     1  O    0.000000
     2  C    1.222289   0.000000
     3  N    2.259704   1.358940   0.000000
     4  C    2.748360   2.436307   1.452357   0.000000
     5  C    4.183521   3.649069   2.380444   1.513459   0.000000
     6  O    5.074047   4.772757   3.602573   2.386853   1.351861
     7  O    4.767860   3.964183   2.645596   2.409381   1.202800
     8  C    3.113782   3.133558   2.474516   1.549463   2.557082
     9  C    3.713984   4.136009   3.703510   2.534791   3.426040
    10  C    3.996661   4.731504   4.646272   3.679414   4.744008
    11  N    5.124953   5.907348   5.766045   4.631858   5.482038
    12  C    5.459484   6.056315   5.654938   4.328951   4.848645
    13  N    4.749792   5.119345   4.512247   3.121201   3.522445
    14  C    2.405033   1.515180   2.429537   3.788144   4.748299
    15  C    3.155448   2.499086   3.313301   4.536229   5.334599
    16  N    4.493060   3.825980   4.608163   5.925802   6.628663
    17  H    3.157473   2.070962   1.008528   2.100815   2.394001
    18  H    2.573578   2.609956   2.066574   1.096163   2.131717
    19  H    5.915876   5.497203   4.250811   3.207068   1.870844
    20  H    2.601369   2.721148   2.474729   2.147682   3.390966
    21  H    4.059097   3.869275   2.990358   2.179820   2.613965
    22  H    3.812387   4.660776   4.832393   4.149786   5.391181
    23  H    6.411942   6.990416   6.531251   5.152452   5.466263
    24  H    5.144763   5.315061   4.494548   3.044079   2.997318
    25  H    2.596804   2.118930   3.242217   4.507870   5.620048
    26  H    3.259004   2.162126   2.537938   3.988593   4.689412
    27  H    3.533748   2.748357   3.144719   4.257873   4.790816
    28  H    2.918463   2.695984   3.713389   4.722815   5.679475
    29  H    4.618459   4.106416   5.072717   6.402204   7.257024
    30  H    5.167784   4.585925   5.331012   6.563984   7.193198
    31  H    5.001671   4.138460   4.697831   6.084409   6.624313
                    6          7          8          9         10
     6  O    0.000000
     7  O    2.242949   0.000000
     8  C    2.942189   3.522352   0.000000
     9  C    3.282560   4.572226   1.491019   0.000000
    10  C    4.605999   5.880709   2.602567   1.365678   0.000000
    11  N    5.037602   6.674759   3.725674   2.260625   1.384329
    12  C    4.144034   6.045969   3.640543   2.205550   2.139900
    13  N    2.865940   4.714316   2.523456   1.370685   2.171729
    14  C    5.999944   4.729815   4.524607   5.623680   6.177191
    15  C    6.552768   5.219981   5.567867   6.519522   7.070844
    16  N    7.896359   6.347674   6.909714   7.933758   8.458043
    17  H    3.739039   2.167122   3.215911   4.520741   5.564714
    18  H    2.684801   3.068804   2.178379   2.570942   3.521758
    19  H    0.969538   2.274008   3.824144   4.217292   5.540048
    20  H    3.982396   4.192469   1.088512   2.088939   2.712155
    21  H    2.883912   3.421563   1.089915   2.147805   3.281289
    22  H    5.455961   6.453148   3.024264   2.201202   1.080641
    23  H    4.564725   6.635800   4.602356   3.228000   3.191624
    24  H    2.055362   4.136880   2.793110   2.108478   3.143549
    25  H    6.822715   5.694864   4.963259   5.979700   6.327822
    26  H    6.011935   4.441011   4.722212   6.001757   6.701843
    27  H    5.993706   4.552462   5.512885   6.474067   7.186597
    28  H    6.780588   5.758149   5.695513   6.429347   6.817513
    29  H    8.519483   7.063273   7.211044   8.202471   8.592759
    30  H    8.417908   6.886278   7.653957   8.602784   9.122053
    31  H    7.940754   6.181010   7.074186   8.229840   8.864298
                   11         12         13         14         15
    11  N    0.000000
    12  C    1.310835   0.000000
    13  N    2.208588   1.360220   0.000000
    14  C    7.383476   7.570677   6.621874   0.000000
    15  C    8.138611   8.245199   7.344631   1.523470   0.000000
    16  N    9.565660   9.712854   8.801760   2.492394   1.486740
    17  H    6.652208   6.427345   5.203933   2.590560   3.326145
    18  H    4.291165   3.983112   2.961522   4.017739   4.485382
    19  H    5.906937   4.926570   3.705108   6.605358   7.087119
    20  H    4.038279   4.278973   3.370919   4.011462   5.216309
    21  H    4.305900   4.091419   2.911465   5.108308   6.238949
    22  H    2.156194   3.166845   3.229038   5.988338   6.961622
    23  H    2.134866   1.075156   2.132340   8.503410   9.087540
    24  H    3.180398   2.134543   1.007633   6.770331   7.418173
    25  H    7.578736   7.941993   7.102634   1.089632   2.141772
    26  H    7.946150   8.044667   6.978602   1.091990   2.150519
    27  H    8.175436   8.108310   7.132836   2.151961   1.091361
    28  H    7.797579   7.983349   7.229416   2.143387   1.090193
    29  H    9.739922  10.017631   9.174592   2.717114   2.084427
    30  H   10.153869  10.260082   9.382691   3.391594   2.095378
    31  H   10.018053  10.102223   9.095660   2.731213   2.086921
                   16         17         18         19         20
    16  N    0.000000
    17  H    4.450344   0.000000
    18  H    5.953482   2.780718   0.000000
    19  H    8.361890   4.182931   3.540514   0.000000
    20  H    6.478666   3.311063   2.711543   4.844747   0.000000
    21  H    7.500336   3.475878   3.032667   3.604710   1.749991
    22  H    8.267214   5.794287   4.047897   6.402886   2.718840
    23  H   10.568260   7.246840   4.743721   5.215610   5.315067
    24  H    8.864917   5.023921   2.964057   2.795965   3.806395
    25  H    2.724874   3.543546   4.715950   7.490262   4.243770
    26  H    2.734154   2.325382   4.455126   6.505519   4.268860
    27  H    2.109196   2.956923   4.185102   6.426161   5.370981
    28  H    2.121982   3.964892   4.438606   7.395552   5.327870
    29  H    1.020032   5.039665   6.439572   9.051499   6.640883
    30  H    1.021018   5.150329   6.472669   8.844644   7.292472
    31  H    1.020246   4.344017   6.270605   8.322565   6.672959
                   21         22         23         24         25
    21  H    0.000000
    22  H    3.722785   0.000000
    23  H    4.972244   4.182715   0.000000
    24  H    2.981577   4.173352   2.551151   0.000000
    25  H    5.569193   5.953327   8.923239   7.380747   0.000000
    26  H    5.088536   6.564333   8.973733   7.024767   1.774815
    27  H    6.130596   7.240113   8.875866   7.065705   3.045541
    28  H    6.508837   6.671728   8.801845   7.394053   2.474456
    29  H    7.824032   8.274834  10.918677   9.336525   2.524744
    30  H    8.285927   8.972467  11.062060   9.411347   3.661943
    31  H    7.531549   8.706793  10.964382   9.087000   3.064963
                   26         27         28         29         30
    26  H    0.000000
    27  H    2.487192   0.000000
    28  H    3.046026   1.759420   0.000000
    29  H    3.052619   2.967780   2.448883   0.000000
    30  H    3.678518   2.430639   2.436463   1.643701   0.000000
    31  H    2.549139   2.427175   2.978322   1.645565   1.644208
                   31
    31  H    0.000000
 Symmetry turned off by external request.
 Stoichiometry    C9H15N4O3(1+)
 Framework group  C1[X(C9H15N4O3)]
 Deg. of freedom    87
 Full point group                 C1      NOp   1
 Rotational constants (GHZ):      0.8514921      0.2642997      0.2133469
 Standard basis: 6-311++G(d,p) (5D, 7F)
   457 basis functions,   711 primitive gaussians,   473 cartesian basis functions
    60 alpha electrons       60 beta electrons
       nuclear repulsion energy      1124.7477579563 Hartrees.
 NAtoms=   31 NActive=   31 NUniq=   31 SFac= 1.00D+00 NAtFMM=   60 NAOKFM=F Big=F
 Integral buffers will be    131072 words long.
 Raffenetti 2 integral format.
 Two-electron integral symmetry is turned off.
 One-electron integrals computed using PRISM.
 NBasis=   457 RedAO= T EigKep=  2.98D-06  NBF=   457
 NBsUse=   457 1.00D-06 EigRej= -1.00D+00 NBFU=   457
 ExpMin= 3.60D-02 ExpMax= 8.59D+03 ExpMxC= 1.30D+03 IAcc=3 IRadAn=         5 AccDes= 0.00D+00
 Harris functional with IExCor=  402 and IRadAn=       5 diagonalized for initial guess.
 HarFok:  IExCor=  402 AccDes= 0.00D+00 IRadAn=         5 IDoV= 1 UseB2=F ITyADJ=14
 ICtDFT=  3500011 ScaDFX=  1.000000  1.000000  1.000000  1.000000
 FoFCou: FMM=F IPFlag=           0 FMFlag=      100000 FMFlg1=           0
         NFxFlg=           0 DoJE=T BraDBF=F KetDBF=T FulRan=T
         wScrn=  0.000000 ICntrl=     500 IOpCl=  0 I1Cent=   200000004 NGrid=           0
         NMat0=    1 NMatS0=      1 NMatT0=    0 NMatD0=    1 NMtDS0=    0 NMtDT0=    0
 Symmetry not used in FoFCou.
 Requested convergence on RMS density matrix=1.00D-08 within 128 cycles.
 Requested convergence on MAX density matrix=1.00D-06.
 Requested convergence on             energy=1.00D-06.
 No special actions if energy rises.
 EnCoef did     2 forward-backward iterations
 SCF Done:  E(RB3LYP) =  -796.679542082     A.U. after   17 cycles
            NFock= 17  Conv=0.38D-08     -V/T= 2.0036
 DoSCS=F DFT=T ScalE2(SS,OS)=  1.000000  1.000000
 Range of M.O.s used for correlation:     1   457
 NBasis=   457 NAE=    60 NBE=    60 NFC=     0 NFV=     0
 NROrb=    457 NOA=    60 NOB=    60 NVA=   397 NVB=   397

 **** Warning!!: The largest alpha MO coefficient is  0.12174019D+03


 **** Warning!!: The smallest alpha delta epsilon is  0.92932924D-01

 Symmetrizing basis deriv contribution to polar:
 IMax=3 JMax=2 DiffMx= 0.00D+00
 G2DrvN: will do    32 centers at a time, making    1 passes.
 Calling FoFCou, ICntrl=  3107 FMM=F I1Cent=   0 AccDes= 0.00D+00.
 End of G2Drv F.D. properties file   721 does not exist.
 End of G2Drv F.D. properties file   722 does not exist.
 End of G2Drv F.D. properties file   788 does not exist.
          IDoAtm=1111111111111111111111111111111
          Differentiating once with respect to nuclear coordinates.
          There are    96 degrees of freedom in the 1st order CPHF.  IDoFFX=6 NUNeed=     0.
     90 vectors produced by pass  0 Test12= 2.48D-14 1.04D-09 XBig12= 2.12D-01 8.44D-02.
 AX will form    90 AO Fock derivatives at one time.
     90 vectors produced by pass  1 Test12= 2.48D-14 1.04D-09 XBig12= 2.28D-02 6.77D-02.
     90 vectors produced by pass  2 Test12= 2.48D-14 1.04D-09 XBig12= 2.74D-04 1.88D-03.
     90 vectors produced by pass  3 Test12= 2.48D-14 1.04D-09 XBig12= 1.29D-06 1.14D-04.
     90 vectors produced by pass  4 Test12= 2.48D-14 1.04D-09 XBig12= 3.68D-09 5.26D-06.
     86 vectors produced by pass  5 Test12= 2.48D-14 1.04D-09 XBig12= 5.66D-12 2.94D-07.
     34 vectors produced by pass  6 Test12= 2.48D-14 1.04D-09 XBig12= 8.67D-15 8.61D-09.
      8 vectors produced by pass  7 Test12= 2.48D-14 1.04D-09 XBig12= 4.87D-16 2.52D-09.
      6 vectors produced by pass  8 Test12= 2.48D-14 1.04D-09 XBig12= 6.76D-16 4.19D-09.
      6 vectors produced by pass  9 Test12= 2.48D-14 1.04D-09 XBig12= 7.26D-15 1.04D-08.
      3 vectors produced by pass 10 Test12= 2.48D-14 1.04D-09 XBig12= 3.19D-16 1.57D-09.
      3 vectors produced by pass 11 Test12= 2.48D-14 1.04D-09 XBig12= 6.02D-16 2.54D-09.
      3 vectors produced by pass 12 Test12= 2.48D-14 1.04D-09 XBig12= 3.10D-15 6.56D-09.
      3 vectors produced by pass 13 Test12= 2.48D-14 1.04D-09 XBig12= 2.03D-15 3.54D-09.
      3 vectors produced by pass 14 Test12= 2.48D-14 1.04D-09 XBig12= 1.48D-15 3.42D-09.
      3 vectors produced by pass 15 Test12= 2.48D-14 1.04D-09 XBig12= 1.07D-15 3.26D-09.
      3 vectors produced by pass 16 Test12= 2.48D-14 1.04D-09 XBig12= 3.42D-15 4.24D-09.
      2 vectors produced by pass 17 Test12= 2.48D-14 1.04D-09 XBig12= 2.56D-16 1.50D-09.
 InvSVY:  IOpt=1 It=  1 EMax= 6.66D-16
 Solved reduced A of dimension   613 with    96 vectors.
 End of Minotr F.D. properties file   721 does not exist.
 End of Minotr F.D. properties file   722 does not exist.
 End of Minotr F.D. properties file   788 does not exist.

 **********************************************************************

            Population analysis using the SCF density.

 **********************************************************************

 Alpha  occ. eigenvalues --  -19.30492 -19.25182 -19.22962 -14.65488 -14.47754
 Alpha  occ. eigenvalues --  -14.43398 -14.35702 -10.44140 -10.42928 -10.42064
 Alpha  occ. eigenvalues --  -10.36243 -10.35314 -10.29046 -10.28874 -10.27668
 Alpha  occ. eigenvalues --  -10.24902  -1.25014  -1.22755  -1.18531  -1.16261
 Alpha  occ. eigenvalues --   -1.08971  -1.07004  -0.98323  -0.94346  -0.91428
 Alpha  occ. eigenvalues --   -0.86361  -0.83893  -0.80913  -0.80282  -0.77803
 Alpha  occ. eigenvalues --   -0.75322  -0.72015  -0.71453  -0.69001  -0.66712
 Alpha  occ. eigenvalues --   -0.66083  -0.65546  -0.63782  -0.62073  -0.60689
 Alpha  occ. eigenvalues --   -0.59796  -0.59696  -0.58410  -0.55662  -0.55113
 Alpha  occ. eigenvalues --   -0.54618  -0.54246  -0.52088  -0.50604  -0.49684
 Alpha  occ. eigenvalues --   -0.48646  -0.48449  -0.47601  -0.46305  -0.42132
 Alpha  occ. eigenvalues --   -0.40419  -0.39967  -0.35198  -0.33635  -0.30129
 Alpha virt. eigenvalues --   -0.20836  -0.15641  -0.15069  -0.14544  -0.13253
 Alpha virt. eigenvalues --   -0.12895  -0.10797  -0.10294  -0.09678  -0.09195
 Alpha virt. eigenvalues --   -0.08480  -0.07667  -0.06761  -0.05807  -0.05554
 Alpha virt. eigenvalues --   -0.05251  -0.04760  -0.04677  -0.04298  -0.03778
 Alpha virt. eigenvalues --   -0.03162  -0.02847  -0.02094  -0.01763  -0.01247
 Alpha virt. eigenvalues --   -0.00979  -0.00839  -0.00613  -0.00042   0.00076
 Alpha virt. eigenvalues --    0.00440   0.00839   0.01045   0.01417   0.01913
 Alpha virt. eigenvalues --    0.02039   0.02532   0.02850   0.03241   0.03452
 Alpha virt. eigenvalues --    0.03909   0.04416   0.04609   0.04907   0.05151
 Alpha virt. eigenvalues --    0.05662   0.05765   0.06455   0.06836   0.07348
 Alpha virt. eigenvalues --    0.07749   0.07866   0.08213   0.08759   0.08865
 Alpha virt. eigenvalues --    0.09123   0.09156   0.10219   0.10430   0.10734
 Alpha virt. eigenvalues --    0.11253   0.11406   0.11726   0.12070   0.12991
 Alpha virt. eigenvalues --    0.13478   0.13713   0.14151   0.14636   0.14758
 Alpha virt. eigenvalues --    0.15304   0.15658   0.16348   0.16503   0.16945
 Alpha virt. eigenvalues --    0.17721   0.18128   0.18454   0.19084   0.19189
 Alpha virt. eigenvalues --    0.19628   0.19867   0.20244   0.20745   0.21142
 Alpha virt. eigenvalues --    0.21501   0.21897   0.22412   0.22789   0.23401
 Alpha virt. eigenvalues --    0.23510   0.24484   0.24694   0.24951   0.25610
 Alpha virt. eigenvalues --    0.25853   0.26863   0.27336   0.27697   0.28235
 Alpha virt. eigenvalues --    0.28574   0.28921   0.29621   0.30076   0.30711
 Alpha virt. eigenvalues --    0.31442   0.32107   0.32330   0.32619   0.33887
 Alpha virt. eigenvalues --    0.34362   0.36164   0.37784   0.38135   0.38852
 Alpha virt. eigenvalues --    0.39475   0.40398   0.41499   0.42554   0.43549
 Alpha virt. eigenvalues --    0.44152   0.45339   0.46322   0.47394   0.47875
 Alpha virt. eigenvalues --    0.48001   0.49200   0.49538   0.50257   0.50813
 Alpha virt. eigenvalues --    0.52640   0.53672   0.54553   0.54966   0.55643
 Alpha virt. eigenvalues --    0.56352   0.56853   0.57742   0.57958   0.58834
 Alpha virt. eigenvalues --    0.59661   0.60011   0.60682   0.60797   0.61791
 Alpha virt. eigenvalues --    0.63480   0.64167   0.64878   0.65413   0.66354
 Alpha virt. eigenvalues --    0.66436   0.67498   0.67994   0.68731   0.70602
 Alpha virt. eigenvalues --    0.71958   0.72651   0.73235   0.75505   0.76847
 Alpha virt. eigenvalues --    0.78423   0.79346   0.80716   0.81613   0.82516
 Alpha virt. eigenvalues --    0.84529   0.85393   0.85699   0.87397   0.88807
 Alpha virt. eigenvalues --    0.89626   0.90778   0.93128   0.94563   0.95107
 Alpha virt. eigenvalues --    0.96620   0.98501   0.98895   1.00421   1.02279
 Alpha virt. eigenvalues --    1.02733   1.03127   1.03745   1.04846   1.06068
 Alpha virt. eigenvalues --    1.07540   1.08144   1.09091   1.10591   1.11049
 Alpha virt. eigenvalues --    1.12385   1.12828   1.13987   1.16067   1.16164
 Alpha virt. eigenvalues --    1.17744   1.18933   1.20913   1.22414   1.23023
 Alpha virt. eigenvalues --    1.24265   1.25570   1.27233   1.27908   1.31729
 Alpha virt. eigenvalues --    1.32496   1.34911   1.35701   1.36969   1.37789
 Alpha virt. eigenvalues --    1.39178   1.40913   1.42416   1.43642   1.45196
 Alpha virt. eigenvalues --    1.45919   1.47020   1.47909   1.49183   1.50298
 Alpha virt. eigenvalues --    1.51498   1.53263   1.53734   1.54520   1.55341
 Alpha virt. eigenvalues --    1.55614   1.56857   1.57149   1.58740   1.59216
 Alpha virt. eigenvalues --    1.60786   1.61413   1.62176   1.63746   1.64873
 Alpha virt. eigenvalues --    1.65336   1.67474   1.68889   1.69651   1.70223
 Alpha virt. eigenvalues --    1.71681   1.74195   1.74836   1.75501   1.76761
 Alpha virt. eigenvalues --    1.78627   1.78999   1.80997   1.83379   1.85704
 Alpha virt. eigenvalues --    1.87104   1.89699   1.91359   1.93718   1.93759
 Alpha virt. eigenvalues --    1.94797   1.96422   1.97343   1.99424   2.00455
 Alpha virt. eigenvalues --    2.02138   2.04770   2.06534   2.06844   2.08375
 Alpha virt. eigenvalues --    2.10965   2.12020   2.13969   2.16233   2.18350
 Alpha virt. eigenvalues --    2.19698   2.21510   2.23789   2.26887   2.27995
 Alpha virt. eigenvalues --    2.29067   2.31790   2.33695   2.33962   2.35966
 Alpha virt. eigenvalues --    2.38328   2.40444   2.41247   2.43818   2.45487
 Alpha virt. eigenvalues --    2.46706   2.48432   2.48665   2.49345   2.50127
 Alpha virt. eigenvalues --    2.50777   2.52545   2.53380   2.54154   2.56088
 Alpha virt. eigenvalues --    2.57172   2.57606   2.57839   2.59466   2.63410
 Alpha virt. eigenvalues --    2.63907   2.66689   2.67487   2.68314   2.71014
 Alpha virt. eigenvalues --    2.72255   2.73391   2.74054   2.75411   2.76242
 Alpha virt. eigenvalues --    2.77387   2.78262   2.79477   2.80994   2.81814
 Alpha virt. eigenvalues --    2.82972   2.83269   2.85262   2.85903   2.86554
 Alpha virt. eigenvalues --    2.90355   2.90923   2.91382   2.92880   2.94579
 Alpha virt. eigenvalues --    2.96413   2.98955   3.00090   3.04152   3.05427
 Alpha virt. eigenvalues --    3.06083   3.11623   3.14720   3.16812   3.22899
 Alpha virt. eigenvalues --    3.24935   3.25162   3.30295   3.33341   3.39082
 Alpha virt. eigenvalues --    3.44826   3.47355   3.49228   3.52796   3.56375
 Alpha virt. eigenvalues --    3.60540   3.61279   3.63777   3.66445   3.71309
 Alpha virt. eigenvalues --    3.73951   3.75579   3.77892   3.79314   3.83010
 Alpha virt. eigenvalues --    3.84278   3.88475   3.95559   3.96989   3.98610
 Alpha virt. eigenvalues --    4.06519   4.16094   4.26777   4.42905   4.43055
 Alpha virt. eigenvalues --    4.44919   4.57186   4.71732   4.74033   4.84000
 Alpha virt. eigenvalues --    4.87394   4.88597   4.93973   4.99755   5.10316
 Alpha virt. eigenvalues --    5.16094   5.23019   5.35130   5.49765   5.67075
 Alpha virt. eigenvalues --    5.73575  23.64402  23.68061  23.70713  23.71200
 Alpha virt. eigenvalues --   23.73144  23.79605  23.85490  23.90343  24.09186
 Alpha virt. eigenvalues --   35.30881  35.47879  35.49513  35.64458  49.75558
 Alpha virt. eigenvalues --   49.89520  49.90285
          Condensed to atoms (all electrons):
               1          2          3          4          5          6
     1  O    7.965793   0.381585  -0.173708   0.048530  -0.028863  -0.000101
     2  C    0.381585   9.427353  -0.299938  -0.235820   0.034778   0.021615
     3  N   -0.173708  -0.299938   7.754704  -1.023863   0.415529   0.050966
     4  C    0.048530  -0.235820  -1.023863  15.722341  -5.406283  -0.354629
     5  C   -0.028863   0.034778   0.415529  -5.406283  10.219138   0.263078
     6  O   -0.000101   0.021615   0.050966  -0.354629   0.263078   8.087037
     7  O    0.000402   0.062294   0.017318  -0.072773   0.354551  -0.114268
     8  C   -0.095019  -0.191278   0.051007  -1.000420  -0.463973  -0.040773
     9  C    0.075459  -0.002001   0.361846  -1.543972   0.605847   0.114280
    10  C   -0.002115  -0.065670   0.008304   0.201125   0.095732  -0.004027
    11  N   -0.000041  -0.000442  -0.000356   0.006281  -0.000123   0.000676
    12  C   -0.000036  -0.007809   0.006532   0.016708   0.099030  -0.006548
    13  N    0.000050  -0.004248  -0.013850  -0.045512   0.090005   0.024330
    14  C    0.166090  -2.630415  -0.320619  -0.530119  -0.244648  -0.001550
    15  C   -0.042865   0.066494  -0.072677   0.277750  -0.037895  -0.000470
    16  N   -0.002173  -0.098744  -0.009315  -0.006442   0.001657  -0.000006
    17  H    0.000055   0.066372   0.258431  -0.003402   0.042779   0.004802
    18  H   -0.013215   0.046235  -0.058988   0.456840  -0.110235  -0.001773
    19  H   -0.000338  -0.002200   0.006875  -0.195299   0.196487   0.218597
    20  H   -0.032259  -0.005353   0.041321  -0.044042  -0.078071  -0.002615
    21  H    0.005364  -0.000318  -0.011344  -0.050837  -0.105932   0.001661
    22  H    0.000698   0.009268  -0.002396  -0.010402   0.000364   0.000156
    23  H   -0.000102  -0.001315   0.000764  -0.004960   0.005744   0.000182
    24  H    0.000548   0.005581  -0.009646   0.121380  -0.094432  -0.030023
    25  H   -0.006200  -0.266753  -0.010536   0.001395   0.008627  -0.000165
    26  H    0.000363  -0.005926   0.023529  -0.031751  -0.016177   0.000279
    27  H    0.002132  -0.160236   0.031216   0.005185  -0.001137  -0.000388
    28  H    0.000992   0.032712  -0.007345  -0.013062   0.003208   0.000073
    29  H    0.001420  -0.005663   0.004241   0.000125  -0.000341   0.000001
    30  H    0.000062  -0.000549   0.000754   0.000536  -0.000142  -0.000002
    31  H   -0.000469   0.020326  -0.002497   0.000098   0.001219  -0.000002
               7          8          9         10         11         12
     1  O    0.000402  -0.095019   0.075459  -0.002115  -0.000041  -0.000036
     2  C    0.062294  -0.191278  -0.002001  -0.065670  -0.000442  -0.007809
     3  N    0.017318   0.051007   0.361846   0.008304  -0.000356   0.006532
     4  C   -0.072773  -1.000420  -1.543972   0.201125   0.006281   0.016708
     5  C    0.354551  -0.463973   0.605847   0.095732  -0.000123   0.099030
     6  O   -0.114268  -0.040773   0.114280  -0.004027   0.000676  -0.006548
     7  O    7.994583   0.011033  -0.004954   0.002190   0.000031  -0.000231
     8  C    0.011033  12.442932  -3.494259  -1.180935  -0.047254  -0.257777
     9  C   -0.004954  -3.494259  10.481706  -0.331222  -0.157317   0.041834
    10  C    0.002190  -1.180935  -0.331222   6.823097   0.531853  -0.244827
    11  N    0.000031  -0.047254  -0.157317   0.531853   6.534792   0.347438
    12  C   -0.000231  -0.257777   0.041834  -0.244827   0.347438   5.412159
    13  N    0.000438  -0.376054   0.025550   0.076551   0.046001   0.143994
    14  C   -0.013263   0.137514   0.052694  -0.019640   0.000331  -0.011016
    15  C   -0.000750  -0.024598  -0.028446   0.000901   0.000134   0.000904
    16  N   -0.000020  -0.000684   0.000192  -0.000010   0.000000   0.000006
    17  H    0.042279  -0.019802  -0.017898  -0.000951  -0.000028   0.001002
    18  H   -0.006597  -0.003931  -0.078979   0.034845   0.000341  -0.022344
    19  H   -0.015056  -0.011274   0.011599   0.001129  -0.000318   0.002045
    20  H   -0.000017   0.364194   0.090936  -0.029336  -0.000862   0.005176
    21  H    0.001427   0.678545  -0.253967  -0.030217   0.001442  -0.014406
    22  H    0.000058  -0.051572  -0.083102   0.456517  -0.074753   0.037348
    23  H   -0.000036   0.000405   0.084401  -0.020804  -0.066742   0.447958
    24  H    0.004222   0.012536  -0.085614   0.003684   0.011966  -0.055902
    25  H   -0.000396  -0.020371   0.002662  -0.001433   0.000079   0.000285
    26  H   -0.000121   0.024321  -0.002815   0.001605  -0.000060  -0.000341
    27  H   -0.001360  -0.017205   0.006355   0.000462   0.000035   0.000284
    28  H    0.000464   0.006770  -0.001369  -0.000495  -0.000032  -0.000012
    29  H    0.000009   0.000394   0.000152   0.000042   0.000000  -0.000003
    30  H   -0.000018  -0.000052  -0.000009   0.000031   0.000000   0.000002
    31  H   -0.000021  -0.000745   0.000061  -0.000029   0.000001   0.000002
              13         14         15         16         17         18
     1  O    0.000050   0.166090  -0.042865  -0.002173   0.000055  -0.013215
     2  C   -0.004248  -2.630415   0.066494  -0.098744   0.066372   0.046235
     3  N   -0.013850  -0.320619  -0.072677  -0.009315   0.258431  -0.058988
     4  C   -0.045512  -0.530119   0.277750  -0.006442  -0.003402   0.456840
     5  C    0.090005  -0.244648  -0.037895   0.001657   0.042779  -0.110235
     6  O    0.024330  -0.001550  -0.000470  -0.000006   0.004802  -0.001773
     7  O    0.000438  -0.013263  -0.000750  -0.000020   0.042279  -0.006597
     8  C   -0.376054   0.137514  -0.024598  -0.000684  -0.019802  -0.003931
     9  C    0.025550   0.052694  -0.028446   0.000192  -0.017898  -0.078979
    10  C    0.076551  -0.019640   0.000901  -0.000010  -0.000951   0.034845
    11  N    0.046001   0.000331   0.000134   0.000000  -0.000028   0.000341
    12  C    0.143994  -0.011016   0.000904   0.000006   0.001002  -0.022344
    13  N    6.938543  -0.006983   0.001755  -0.000001   0.000394   0.012283
    14  C   -0.006983   9.460082  -0.670644   0.002065  -0.074411  -0.015551
    15  C    0.001755  -0.670644   6.369145   0.067951   0.010690  -0.002421
    16  N   -0.000001   0.002065   0.067951   6.224542  -0.002551  -0.000828
    17  H    0.000394  -0.074411   0.010690  -0.002551   0.423705   0.005337
    18  H    0.012283  -0.015551  -0.002421  -0.000828   0.005337   0.442763
    19  H   -0.005398  -0.001268  -0.000640  -0.000001   0.003811   0.002306
    20  H    0.001738  -0.011104  -0.012086  -0.000468  -0.000522  -0.006892
    21  H    0.017349   0.009794   0.001127  -0.000013  -0.003291   0.011034
    22  H    0.018836   0.002562   0.000338   0.000013  -0.000090  -0.000326
    23  H   -0.122629  -0.000462   0.000001   0.000000   0.000081  -0.001911
    24  H    0.367509   0.003130   0.000306  -0.000001  -0.001316   0.005516
    25  H    0.000127   0.615270  -0.014591   0.015505   0.002918  -0.000933
    26  H   -0.000473   0.436321  -0.111262  -0.004309  -0.027552   0.001632
    27  H    0.000083   0.082250   0.389563  -0.005668  -0.000576  -0.001254
    28  H   -0.000059  -0.039851   0.372503  -0.015629  -0.001467  -0.001206
    29  H   -0.000003   0.002513  -0.003069   0.343364   0.000093   0.000088
    30  H    0.000001   0.013913  -0.018152   0.331318  -0.000319   0.000027
    31  H    0.000006  -0.000995  -0.025334   0.352105   0.000790  -0.000022
              19         20         21         22         23         24
     1  O   -0.000338  -0.032259   0.005364   0.000698  -0.000102   0.000548
     2  C   -0.002200  -0.005353  -0.000318   0.009268  -0.001315   0.005581
     3  N    0.006875   0.041321  -0.011344  -0.002396   0.000764  -0.009646
     4  C   -0.195299  -0.044042  -0.050837  -0.010402  -0.004960   0.121380
     5  C    0.196487  -0.078071  -0.105932   0.000364   0.005744  -0.094432
     6  O    0.218597  -0.002615   0.001661   0.000156   0.000182  -0.030023
     7  O   -0.015056  -0.000017   0.001427   0.000058  -0.000036   0.004222
     8  C   -0.011274   0.364194   0.678545  -0.051572   0.000405   0.012536
     9  C    0.011599   0.090936  -0.253967  -0.083102   0.084401  -0.085614
    10  C    0.001129  -0.029336  -0.030217   0.456517  -0.020804   0.003684
    11  N   -0.000318  -0.000862   0.001442  -0.074753  -0.066742   0.011966
    12  C    0.002045   0.005176  -0.014406   0.037348   0.447958  -0.055902
    13  N   -0.005398   0.001738   0.017349   0.018836  -0.122629   0.367509
    14  C   -0.001268  -0.011104   0.009794   0.002562  -0.000462   0.003130
    15  C   -0.000640  -0.012086   0.001127   0.000338   0.000001   0.000306
    16  N   -0.000001  -0.000468  -0.000013   0.000013   0.000000  -0.000001
    17  H    0.003811  -0.000522  -0.003291  -0.000090   0.000081  -0.001316
    18  H    0.002306  -0.006892   0.011034  -0.000326  -0.001911   0.005516
    19  H    0.444409  -0.001288  -0.002186   0.000035   0.000304  -0.001161
    20  H   -0.001288   0.523542  -0.036293  -0.001585   0.001218  -0.000847
    21  H   -0.002186  -0.036293   0.552185   0.001559  -0.001597   0.007249
    22  H    0.000035  -0.001585   0.001559   0.549414  -0.001071   0.001819
    23  H    0.000304   0.001218  -0.001597  -0.001071   0.524233  -0.009664
    24  H   -0.001161  -0.000847   0.007249   0.001819  -0.009664   0.383644
    25  H    0.000015  -0.002979  -0.000792   0.000193  -0.000003  -0.000036
    26  H   -0.000095   0.003480   0.001402  -0.000148  -0.000004   0.000133
    27  H   -0.000046  -0.001041  -0.000516   0.000063   0.000004  -0.000066
    28  H    0.000032   0.001062   0.000012  -0.000044   0.000001   0.000018
    29  H    0.000000   0.000108  -0.000004  -0.000007   0.000000  -0.000001
    30  H    0.000000   0.000018  -0.000004  -0.000001   0.000000   0.000000
    31  H    0.000000  -0.000172   0.000006   0.000006   0.000000   0.000001
              25         26         27         28         29         30
     1  O   -0.006200   0.000363   0.002132   0.000992   0.001420   0.000062
     2  C   -0.266753  -0.005926  -0.160236   0.032712  -0.005663  -0.000549
     3  N   -0.010536   0.023529   0.031216  -0.007345   0.004241   0.000754
     4  C    0.001395  -0.031751   0.005185  -0.013062   0.000125   0.000536
     5  C    0.008627  -0.016177  -0.001137   0.003208  -0.000341  -0.000142
     6  O   -0.000165   0.000279  -0.000388   0.000073   0.000001  -0.000002
     7  O   -0.000396  -0.000121  -0.001360   0.000464   0.000009  -0.000018
     8  C   -0.020371   0.024321  -0.017205   0.006770   0.000394  -0.000052
     9  C    0.002662  -0.002815   0.006355  -0.001369   0.000152  -0.000009
    10  C   -0.001433   0.001605   0.000462  -0.000495   0.000042   0.000031
    11  N    0.000079  -0.000060   0.000035  -0.000032   0.000000   0.000000
    12  C    0.000285  -0.000341   0.000284  -0.000012  -0.000003   0.000002
    13  N    0.000127  -0.000473   0.000083  -0.000059  -0.000003   0.000001
    14  C    0.615270   0.436321   0.082250  -0.039851   0.002513   0.013913
    15  C   -0.014591  -0.111262   0.389563   0.372503  -0.003069  -0.018152
    16  N    0.015505  -0.004309  -0.005668  -0.015629   0.343364   0.331318
    17  H    0.002918  -0.027552  -0.000576  -0.001467   0.000093  -0.000319
    18  H   -0.000933   0.001632  -0.001254  -0.001206   0.000088   0.000027
    19  H    0.000015  -0.000095  -0.000046   0.000032   0.000000   0.000000
    20  H   -0.002979   0.003480  -0.001041   0.001062   0.000108   0.000018
    21  H   -0.000792   0.001402  -0.000516   0.000012  -0.000004  -0.000004
    22  H    0.000193  -0.000148   0.000063  -0.000044  -0.000007  -0.000001
    23  H   -0.000003  -0.000004   0.000004   0.000001   0.000000   0.000000
    24  H   -0.000036   0.000133  -0.000066   0.000018  -0.000001   0.000000
    25  H    0.513198  -0.065383   0.013062  -0.012194  -0.003813  -0.000344
    26  H   -0.065383   0.601783  -0.021958   0.015352   0.001708   0.002430
    27  H    0.013062  -0.021958   0.474557  -0.026249   0.003394  -0.001371
    28  H   -0.012194   0.015352  -0.026249   0.415981  -0.006605   0.000060
    29  H   -0.003813   0.001708   0.003394  -0.006605   0.357629  -0.009627
    30  H   -0.000344   0.002430  -0.001371   0.000060  -0.009627   0.346329
    31  H    0.004095  -0.004943  -0.007339   0.000724  -0.029080  -0.014420
              31
     1  O   -0.000469
     2  C    0.020326
     3  N   -0.002497
     4  C    0.000098
     5  C    0.001219
     6  O   -0.000002
     7  O   -0.000021
     8  C   -0.000745
     9  C    0.000061
    10  C   -0.000029
    11  N    0.000001
    12  C    0.000002
    13  N    0.000006
    14  C   -0.000995
    15  C   -0.025334
    16  N    0.352105
    17  H    0.000790
    18  H   -0.000022
    19  H    0.000000
    20  H   -0.000172
    21  H    0.000006
    22  H    0.000006
    23  H    0.000000
    24  H    0.000001
    25  H    0.004095
    26  H   -0.004943
    27  H   -0.007339
    28  H    0.000724
    29  H   -0.029080
    30  H   -0.014420
    31  H    0.362696
 Mulliken charges:
               1
     1  O   -0.252039
     2  C   -0.189935
     3  N   -0.016261
     4  C   -0.284707
     5  C    0.150477
     6  O   -0.230394
     7  O   -0.261421
     8  C   -0.431675
     9  C    0.130351
    10  C   -0.306357
    11  N   -0.133072
    12  C    0.058543
    13  N   -0.190332
    14  C   -0.391991
    15  C   -0.493662
    16  N   -0.191855
    17  H    0.290635
    18  H    0.308159
    19  H    0.348924
    20  H    0.235038
    21  H    0.221558
    22  H    0.146249
    23  H    0.166006
    24  H    0.359467
    25  H    0.229490
    26  H    0.178981
    27  H    0.237768
    28  H    0.275654
    29  H    0.342936
    30  H    0.349530
    31  H    0.343934
 Sum of Mulliken charges =   1.00000
 Mulliken charges with hydrogens summed into heavy atoms:
               1
     1  O   -0.252039
     2  C   -0.189935
     3  N    0.274374
     4  C    0.023452
     5  C    0.150477
     6  O    0.118530
     7  O   -0.261421
     8  C    0.024920
     9  C    0.130351
    10  C   -0.160108
    11  N   -0.133072
    12  C    0.224549
    13  N    0.169136
    14  C    0.016481
    15  C    0.019759
    16  N    0.844545
 APT charges:
               1
     1  O   -0.433131
     2  C    0.127217
     3  N   -0.445389
     4  C   -0.575185
     5  C    0.079250
     6  O   -0.592591
     7  O   -0.105269
     8  C   -1.300980
     9  C    0.340326
    10  C   -0.622662
    11  N   -0.064458
    12  C   -0.383328
    13  N   -0.555737
    14  C   -0.862716
    15  C   -0.234700
    16  N   -1.871456
    17  H    0.570868
    18  H    0.332913
    19  H    1.013311
    20  H    0.256620
    21  H    0.536932
    22  H    0.387876
    23  H    1.052890
    24  H    0.427180
    25  H    0.544984
    26  H    0.362475
    27  H    0.175516
    28  H    0.289114
    29  H    0.809204
    30  H    1.077465
    31  H    0.663461
 Sum of APT charges =   1.00000
 APT charges with hydrogens summed into heavy atoms:
               1
     1  O   -0.433131
     2  C    0.127217
     3  N    0.125479
     4  C   -0.242271
     5  C    0.079250
     6  O    0.420720
     7  O   -0.105269
     8  C   -0.507428
     9  C    0.340326
    10  C   -0.234786
    11  N   -0.064458
    12  C    0.669562
    13  N   -0.128557
    14  C    0.044742
    15  C    0.229929
    16  N    0.678675
 Electronic spatial extent (au):  <R**2>=           5048.9243
 Charge=              1.0000 electrons
 Dipole moment (field-independent basis, Debye):
    X=            -20.6582    Y=              6.8016    Z=             -1.9729  Tot=             21.8384
 Quadrupole moment (field-independent basis, Debye-Ang):
   XX=             16.3573   YY=            -85.9617   ZZ=            -94.9895
   XY=             -3.9032   XZ=            -34.8759   YZ=              6.4745
 Traceless Quadrupole moment (field-independent basis, Debye-Ang):
   XX=             71.2219   YY=            -31.0971   ZZ=            -40.1248
   XY=             -3.9032   XZ=            -34.8759   YZ=              6.4745
 Octapole moment (field-independent basis, Debye-Ang**2):
  XXX=           -721.0808  YYY=             42.6793  ZZZ=             -9.9898  XYY=            -94.6709
  XXY=            173.5601  XXZ=             21.3154  XZZ=            -89.5894  YZZ=             28.8333
  YYZ=              1.2074  XYZ=            -14.6189
 Hexadecapole moment (field-independent basis, Debye-Ang**3):
 XXXX=          -1935.4883 YYYY=           -655.9085 ZZZZ=          -1066.8429 XXXY=            191.9526
 XXXZ=           -671.1891 YYYX=            351.6744 YYYZ=            220.7938 ZZZX=           -153.1127
 ZZZY=            248.6383 XXYY=           -814.1000 XXZZ=           -888.7487 YYZZ=           -272.7037
 XXYZ=            201.5003 YYXZ=            -82.9568 ZZXY=            185.6384
 N-N= 1.124747757956D+03 E-N=-4.095825441286D+03  KE= 7.938555727241D+02
  Exact polarizability:   0.000   0.000   0.000   0.000   0.000   0.000
 Approx polarizability: 217.411   6.641 174.359  21.045 -32.380 212.757
 Calling FoFJK, ICntrl=    100147 FMM=F ISym2X=0 I1Cent= 0 IOpClX= 0 NMat=1 NMatS=1 NMatT=0.
 -------------------------------------------------------------------
 Center     Atomic                   Forces (Hartrees/Bohr)
 Number     Number              X              Y              Z
 -------------------------------------------------------------------
      1        8          -0.011780513    0.000815419   -0.001457584
      2        6           0.020703789    0.002569102    0.002357026
      3        7          -0.008493919    0.002132228    0.002751309
      4        6          -0.004780219   -0.000137598    0.001272917
      5        6           0.006138530    0.000461296    0.001580494
      6        8          -0.007231612    0.001352223   -0.001460223
      7        8          -0.004466667    0.001941184   -0.002837264
      8        6           0.006489290   -0.001816693    0.006057150
      9        6          -0.006608150   -0.002836438   -0.001246587
     10        6           0.006661707   -0.003421397    0.007900233
     11        7          -0.004761059   -0.002884072   -0.001089481
     12        6           0.000570216   -0.001003904    0.003062034
     13        7           0.003974350    0.005281124   -0.007115831
     14        6          -0.015166224   -0.002180967   -0.002074752
     15        6           0.029361707    0.002193969    0.000247260
     16        7          -0.007942729    0.002113301    0.001765833
     17        1          -0.001475377   -0.001042155   -0.005159850
     18        1           0.003773865   -0.001813485   -0.000278630
     19        1           0.003624851    0.000764641   -0.001697637
     20        1          -0.000267026    0.000121154   -0.000027688
     21        1           0.000165692   -0.000322586   -0.004108737
     22        1           0.000859287    0.000582540   -0.000417487
     23        1           0.002962942    0.001067746    0.001667110
     24        1           0.003409838    0.000218172   -0.000176647
     25        1           0.001175780   -0.004215117   -0.000157496
     26        1           0.000148518   -0.002253449   -0.002283583
     27        1          -0.005673119    0.002740366    0.000280494
     28        1          -0.006002265    0.001172231    0.002603702
     29        1          -0.002172988   -0.004169599    0.002266709
     30        1          -0.001367183    0.003511161    0.001804905
     31        1          -0.001831313   -0.000940395   -0.004027702
 -------------------------------------------------------------------
 Cartesian Forces:  Max     0.029361707 RMS     0.005360954
 FormGI is forming the generalized inverse of G from B-inverse, IUseBI=4.

 GradGradGradGradGradGradGradGradGradGradGradGradGradGradGradGradGradGrad
 Berny optimization.
 Internal  Forces:  Max     0.014483118 RMS     0.003865503
 Search for a local minimum.
 Step number   1 out of a maximum of  167
 All quantities printed in internal units (Hartrees-Bohrs-Radians)
 Mixed Optimization -- RFO/linear search
 Second derivative matrix not updated -- analytic derivatives used.
 ITU=  0
     Eigenvalues ---   -0.00053   0.00151   0.00188   0.00221   0.00258
     Eigenvalues ---    0.00359   0.00633   0.00727   0.00821   0.01016
     Eigenvalues ---    0.01967   0.02037   0.02117   0.02559   0.03586
     Eigenvalues ---    0.03858   0.03945   0.04116   0.04231   0.04313
     Eigenvalues ---    0.04462   0.04642   0.04919   0.04989   0.05082
     Eigenvalues ---    0.05268   0.05748   0.06093   0.06330   0.07571
     Eigenvalues ---    0.07839   0.07929   0.10411   0.10464   0.10908
     Eigenvalues ---    0.11598   0.11683   0.12349   0.12942   0.13040
     Eigenvalues ---    0.13602   0.15282   0.15751   0.15977   0.16635
     Eigenvalues ---    0.18626   0.18912   0.20310   0.21026   0.21577
     Eigenvalues ---    0.22819   0.22948   0.23469   0.24622   0.24879
     Eigenvalues ---    0.26851   0.28882   0.30737   0.31048   0.32376
     Eigenvalues ---    0.33331   0.33568   0.33856   0.33931   0.34137
     Eigenvalues ---    0.34482   0.34814   0.34889   0.36033   0.36807
     Eigenvalues ---    0.37593   0.37765   0.40148   0.41318   0.43345
     Eigenvalues ---    0.43502   0.44185   0.44405   0.46160   0.46733
     Eigenvalues ---    0.46779   0.47768   0.51093   0.57172   0.59070
     Eigenvalues ---    0.80228   0.88919
 RFO step:  Lambda=-1.05570208D-02 EMin=-5.33712960D-04
 Linear search not attempted -- first point.
 Iteration  1 RMS(Cart)=  0.14110436 RMS(Int)=  0.04115353
 Iteration  2 RMS(Cart)=  0.11908184 RMS(Int)=  0.00624935
 Iteration  3 RMS(Cart)=  0.01171436 RMS(Int)=  0.00039144
 Iteration  4 RMS(Cart)=  0.00011206 RMS(Int)=  0.00038913
 Iteration  5 RMS(Cart)=  0.00000008 RMS(Int)=  0.00038913
 Variable       Old X    -DE/DX   Delta X   Delta X   Delta X     New X
                                 (Linear)    (Quad)   (Total)
    R1        2.30979  -0.00709   0.00000  -0.00550  -0.00550   2.30429
    R2        2.56802   0.00098   0.00000  -0.02058  -0.02058   2.54745
    R3        2.86328   0.00943   0.00000   0.04300   0.04300   2.90627
    R4        2.74456   0.01010   0.00000   0.01872   0.01872   2.76327
    R5        1.90584   0.00428   0.00000   0.00873   0.00873   1.91458
    R6        2.86002   0.00559   0.00000   0.01817   0.01817   2.87820
    R7        2.92806   0.01100   0.00000   0.02828   0.02828   2.95634
    R8        2.07145  -0.00038   0.00000  -0.00211  -0.00211   2.06934
    R9        2.55465  -0.00292   0.00000  -0.01356  -0.01356   2.54109
   R10        2.27296   0.00551   0.00000   0.00637   0.00637   2.27934
   R11        1.83216   0.00225   0.00000   0.00329   0.00329   1.83545
   R12        2.81762   0.00720   0.00000   0.00451   0.00451   2.82213
   R13        2.05699   0.00007   0.00000   0.00213   0.00213   2.05912
   R14        2.05964   0.00395   0.00000   0.01116   0.01116   2.07080
   R15        2.58076   0.00799   0.00000   0.01546   0.01549   2.59624
   R16        2.59022   0.01151   0.00000   0.02381   0.02384   2.61406
   R17        2.61600  -0.00537   0.00000  -0.01983  -0.01985   2.59615
   R18        2.04211  -0.00106   0.00000  -0.00204  -0.00204   2.04008
   R19        2.47712   0.00100   0.00000   0.00160   0.00156   2.47868
   R20        2.57044   0.00629   0.00000   0.01223   0.01223   2.58267
   R21        2.03175   0.00317   0.00000   0.00792   0.00792   2.03967
   R22        1.90415   0.00038   0.00000   0.00131   0.00131   1.90546
   R23        2.87894   0.00575   0.00000   0.00062   0.00062   2.87956
   R24        2.05911   0.00282   0.00000   0.00953   0.00953   2.06863
   R25        2.06356   0.00235   0.00000   0.00238   0.00238   2.06594
   R26        2.80953   0.01325   0.00000   0.06285   0.06285   2.87238
   R27        2.06237   0.00012   0.00000  -0.00091  -0.00091   2.06147
   R28        2.06017   0.00071   0.00000   0.00056   0.00056   2.06073
   R29        1.92758   0.00520   0.00000   0.00973   0.00973   1.93731
   R30        1.92945   0.00417   0.00000   0.00747   0.00747   1.93691
   R31        1.92799   0.00446   0.00000   0.00803   0.00803   1.93602
    A1        2.13113   0.01037   0.00000   0.04918   0.04917   2.18030
    A2        2.13940  -0.01166   0.00000  -0.06712  -0.06713   2.07227
    A3        2.01244   0.00129   0.00000   0.01809   0.01809   2.03052
    A4        2.09611   0.00650   0.00000   0.03208   0.03112   2.12723
    A5        2.11751  -0.00253   0.00000  -0.00114  -0.00210   2.11541
    A6        2.02563  -0.00339   0.00000  -0.00895  -0.00994   2.01569
    A7        1.86306  -0.00824   0.00000  -0.02149  -0.02146   1.84160
    A8        1.93735   0.00473   0.00000   0.02348   0.02349   1.96083
    A9        1.87700   0.00235   0.00000   0.02307   0.02317   1.90018
   A10        1.97563   0.00410   0.00000   0.00242   0.00247   1.97810
   A11        1.89345   0.00101   0.00000  -0.00242  -0.00242   1.89103
   A12        1.91395  -0.00406   0.00000  -0.02393  -0.02416   1.88979
   A13        1.96695   0.00407   0.00000   0.00027   0.00027   1.96722
   A14        2.17483  -0.00317   0.00000  -0.00874  -0.00874   2.16608
   A15        2.14140  -0.00090   0.00000   0.00847   0.00847   2.14987
   A16        1.85401   0.00608   0.00000   0.03072   0.03072   1.88473
   A17        1.97123   0.01448   0.00000   0.03818   0.03821   2.00944
   A18        1.88012  -0.00478   0.00000  -0.01910  -0.01916   1.86096
   A19        1.92228  -0.00448   0.00000  -0.01423  -0.01449   1.90779
   A20        1.86964  -0.00458   0.00000  -0.00616  -0.00594   1.86370
   A21        1.94962  -0.00342   0.00000  -0.00095  -0.00094   1.94868
   A22        1.86572   0.00206   0.00000  -0.00033  -0.00056   1.86516
   A23        2.29073  -0.00557   0.00000  -0.01470  -0.01489   2.27584
   A24        2.15839   0.00869   0.00000   0.02267   0.02248   2.18087
   A25        1.83359  -0.00309   0.00000  -0.00702  -0.00711   1.82647
   A26        1.92995   0.00240   0.00000   0.00680   0.00682   1.93677
   A27        2.23197  -0.00092   0.00000  -0.00649  -0.00650   2.22548
   A28        2.12126  -0.00148   0.00000  -0.00031  -0.00032   2.12094
   A29        1.83408   0.00266   0.00000   0.00628   0.00622   1.84030
   A30        1.94677   0.00100   0.00000   0.00186   0.00184   1.94861
   A31        2.21083  -0.00210   0.00000  -0.01147  -0.01146   2.19937
   A32        2.12558   0.00110   0.00000   0.00961   0.00962   2.13520
   A33        1.88022  -0.00295   0.00000  -0.00765  -0.00761   1.87261
   A34        2.16723   0.00437   0.00000   0.02189   0.02187   2.18910
   A35        2.23546  -0.00143   0.00000  -0.01426  -0.01428   2.22118
   A36        1.93134  -0.00555   0.00000  -0.06814  -0.06848   1.86286
   A37        1.88064  -0.00075   0.00000  -0.02962  -0.03060   1.85004
   A38        1.93754   0.00138   0.00000   0.04417   0.04527   1.98281
   A39        1.90178   0.00267   0.00000   0.00887   0.00655   1.90833
   A40        1.91135   0.00400   0.00000   0.04859   0.04904   1.96039
   A41        1.90039  -0.00175   0.00000  -0.00488  -0.00502   1.89537
   A42        1.95089  -0.00158   0.00000  -0.00227  -0.00201   1.94888
   A43        1.91397   0.00407   0.00000   0.04536   0.04504   1.95901
   A44        1.90342   0.00366   0.00000   0.01768   0.01687   1.92029
   A45        1.89939  -0.00269   0.00000  -0.03638  -0.03647   1.86292
   A46        1.91828  -0.00408   0.00000  -0.05068  -0.05082   1.86746
   A47        1.87641   0.00071   0.00000   0.02767   0.02553   1.90194
   A48        1.93980   0.00026   0.00000  -0.00391  -0.00392   1.93587
   A49        1.95492  -0.00042   0.00000  -0.00867  -0.00868   1.94625
   A50        1.94324   0.00047   0.00000   0.00487   0.00488   1.94812
   A51        1.87243   0.00009   0.00000   0.00415   0.00412   1.87655
   A52        1.87655  -0.00058   0.00000  -0.00104  -0.00104   1.87551
   A53        1.87299   0.00016   0.00000   0.00514   0.00515   1.87814
    D1       -0.10391   0.00036   0.00000   0.03786   0.03781  -0.06610
    D2       -2.91907  -0.00110   0.00000  -0.03992  -0.04020  -2.95927
    D3        3.01567   0.00082   0.00000   0.04461   0.04490   3.06057
    D4        0.20052  -0.00065   0.00000  -0.03317  -0.03312   0.16740
    D5        1.40506  -0.00164   0.00000  -0.42892  -0.42810   0.97697
    D6       -0.67253  -0.00122   0.00000  -0.38244  -0.38354  -1.05607
    D7       -2.75201   0.00057   0.00000  -0.38383  -0.38392  -3.13593
    D8       -1.71441  -0.00241   0.00000  -0.43734  -0.43627  -2.15068
    D9        2.49119  -0.00199   0.00000  -0.39086  -0.39171   2.09948
   D10        0.41171  -0.00019   0.00000  -0.39224  -0.39209   0.01961
   D11       -2.81581   0.00161   0.00000  -0.01307  -0.01304  -2.82885
   D12        1.30691  -0.00092   0.00000  -0.01634  -0.01611   1.29080
   D13       -0.78674  -0.00019   0.00000  -0.01531  -0.01554  -0.80228
   D14        0.01592   0.00303   0.00000   0.06167   0.06168   0.07760
   D15       -2.14454   0.00051   0.00000   0.05840   0.05861  -2.08594
   D16        2.04499   0.00123   0.00000   0.05943   0.05917   2.10417
   D17       -3.13461  -0.00140   0.00000  -0.01338  -0.01334   3.13524
   D18        0.00343  -0.00111   0.00000  -0.01438  -0.01433  -0.01090
   D19       -0.99799   0.00135   0.00000   0.00262   0.00265  -0.99534
   D20        2.14005   0.00164   0.00000   0.00162   0.00166   2.14170
   D21        1.13050  -0.00039   0.00000  -0.02797  -0.02806   1.10244
   D22       -2.01465  -0.00010   0.00000  -0.02897  -0.02905  -2.04370
   D23       -2.49123  -0.00098   0.00000  -0.03014  -0.02999  -2.52122
   D24       -0.43011  -0.00123   0.00000  -0.02771  -0.02773  -0.45783
   D25        1.59876  -0.00388   0.00000  -0.04656  -0.04634   1.55242
   D26        1.69725   0.00343   0.00000  -0.02094  -0.02088   1.67637
   D27       -2.52481   0.00318   0.00000  -0.01850  -0.01862  -2.54342
   D28       -0.49594   0.00052   0.00000  -0.03736  -0.03723  -0.53317
   D29       -0.41972   0.00227   0.00000  -0.00228  -0.00239  -0.42211
   D30        1.64140   0.00202   0.00000   0.00016  -0.00013   1.64128
   D31       -2.61292  -0.00063   0.00000  -0.01870  -0.01874  -2.63166
   D32       -3.12587  -0.00051   0.00000  -0.01853  -0.01853   3.13878
   D33        0.01920  -0.00079   0.00000  -0.01751  -0.01751   0.00170
   D34        2.09828  -0.00144   0.00000  -0.03381  -0.03383   2.06445
   D35       -1.00477  -0.00262   0.00000  -0.07155  -0.07164  -1.07641
   D36        0.03104  -0.00098   0.00000  -0.02844  -0.02845   0.00259
   D37       -3.07201  -0.00216   0.00000  -0.06618  -0.06625  -3.13826
   D38       -2.00651   0.00115   0.00000  -0.02383  -0.02371  -2.03022
   D39        1.17362  -0.00003   0.00000  -0.06157  -0.06151   1.11211
   D40       -3.12471  -0.00036   0.00000  -0.02138  -0.02087   3.13761
   D41        0.01497  -0.00052   0.00000  -0.01850  -0.01818  -0.00321
   D42       -0.01633   0.00088   0.00000   0.01170   0.01172  -0.00461
   D43        3.12335   0.00072   0.00000   0.01458   0.01441   3.13776
   D44        3.12901  -0.00031   0.00000   0.01475   0.01519  -3.13898
   D45        0.01089  -0.00014   0.00000   0.01585   0.01618   0.02707
   D46        0.01742  -0.00111   0.00000  -0.01429  -0.01423   0.00319
   D47       -3.10070  -0.00094   0.00000  -0.01320  -0.01325  -3.11395
   D48        0.00875  -0.00033   0.00000  -0.00452  -0.00452   0.00423
   D49       -3.13107  -0.00018   0.00000  -0.00718  -0.00702  -3.13809
   D50        0.00272  -0.00034   0.00000  -0.00472  -0.00481  -0.00209
   D51       -3.13668   0.00014   0.00000  -0.00462  -0.00460  -3.14129
   D52       -0.01301   0.00091   0.00000   0.01224   0.01230  -0.00072
   D53        3.10391   0.00083   0.00000   0.01173   0.01193   3.11583
   D54        3.12652   0.00046   0.00000   0.01212   0.01206   3.13858
   D55       -0.03975   0.00037   0.00000   0.01162   0.01169  -0.02806
   D56       -3.10332   0.00212   0.00000   0.11260   0.11236  -2.99096
   D57        1.07181   0.00378   0.00000   0.12916   0.12922   1.20103
   D58       -0.97865  -0.00155   0.00000   0.05936   0.05861  -0.92004
   D59       -1.03856  -0.00046   0.00000   0.04140   0.04145  -0.99711
   D60        3.13656   0.00120   0.00000   0.05797   0.05831  -3.08831
   D61        1.08611  -0.00413   0.00000  -0.01184  -0.01230   1.07381
   D62        1.03843   0.00136   0.00000   0.06940   0.06980   1.10823
   D63       -1.06963   0.00302   0.00000   0.08596   0.08667  -0.98296
   D64       -3.12008  -0.00231   0.00000   0.01616   0.01606  -3.10402
   D65        1.03267  -0.00056   0.00000  -0.01167  -0.01152   1.02115
   D66        3.12692  -0.00055   0.00000  -0.01497  -0.01480   3.11212
   D67       -1.05892  -0.00031   0.00000  -0.01098  -0.01082  -1.06974
   D68       -3.13399   0.00172   0.00000   0.01920   0.01886  -3.11512
   D69       -1.03974   0.00172   0.00000   0.01589   0.01558  -1.02416
   D70        1.05760   0.00196   0.00000   0.01989   0.01956   1.07717
   D71       -1.08341  -0.00134   0.00000   0.00228   0.00244  -1.08098
   D72        1.01083  -0.00133   0.00000  -0.00102  -0.00085   1.00999
   D73        3.10818  -0.00109   0.00000   0.00297   0.00313   3.11131
         Item               Value     Threshold  Converged?
 Maximum Force            0.014483     0.000450     NO 
 RMS     Force            0.003866     0.000300     NO 
 Maximum Displacement     1.024734     0.001800     NO 
 RMS     Displacement     0.250353     0.001200     NO 
 Predicted change in Energy=-8.672874D-03
 GradGradGradGradGradGradGradGradGradGradGradGradGradGradGradGradGradGrad

                          Input orientation:                          
 ---------------------------------------------------------------------
 Center     Atomic      Atomic             Coordinates (Angstroms)
 Number     Number       Type             X           Y           Z
 ---------------------------------------------------------------------
      1          8           0       -0.919723   -0.352590    1.348052
      2          6           0       -1.365604   -0.149200    0.231492
      3          7           0       -0.620927    0.117947   -0.859989
      4          6           0        0.831441    0.270595   -0.785591
      5          6           0        1.231552    0.990921   -2.066530
      6          8           0        2.555152    1.214936   -2.144477
      7          8           0        0.453931    1.324135   -2.926255
      8          6           0        1.564079   -1.097671   -0.589300
      9          6           0        2.781751   -1.047047    0.273820
     10          6           0        3.055754   -1.675068    1.464635
     11          7           0        4.311490   -1.347678    1.915566
     12          6           0        4.801511   -0.525908    1.018330
     13          7           0        3.917370   -0.306330   -0.000456
     14          6           0       -2.889821   -0.174647    0.028137
     15          6           0       -3.479119    0.840385    0.999939
     16          7           0       -4.996282    0.759058    1.044681
     17          1           0       -1.048598    0.431086   -1.723421
     18          1           0        1.076652    0.916433    0.064054
     19          1           0        2.733164    1.671835   -2.982892
     20          1           0        0.855881   -1.762491   -0.095552
     21          1           0        1.781409   -1.536239   -1.569733
     22          1           0        2.414304   -2.344640    2.017509
     23          1           0        5.776505   -0.063747    1.046322
     24          1           0        4.042869    0.297373   -0.798275
     25          1           0       -3.215427   -1.180301    0.312658
     26          1           0       -3.196927    0.012189   -1.004320
     27          1           0       -3.227381    1.866486    0.728337
     28          1           0       -3.119345    0.642597    2.010193
     29          1           0       -5.304564   -0.178996    1.320386
     30          1           0       -5.388549    1.423470    1.719402
     31          1           0       -5.412332    0.963162    0.130988
 ---------------------------------------------------------------------
                    Distance matrix (angstroms):
                    1          2          3          4          5
     1  O    0.000000
     2  C    1.219378   0.000000
     3  N    2.277307   1.348051   0.000000
     4  C    2.829729   2.457172   1.462262   0.000000
     5  C    4.253513   3.650479   2.376868   1.523077   0.000000
     6  O    5.170072   4.783139   3.597328   2.389462   1.344684
     7  O    4.792497   3.931003   2.622911   2.415554   1.206172
     8  C    3.236934   3.186900   2.515004   1.564429   2.579728
     9  C    3.916268   4.243639   3.771068   2.581132   3.468958
    10  C    4.191295   4.837077   4.704972   3.714389   4.785847
    11  N    5.355171   6.041676   5.846409   4.693165   5.550870
    12  C    5.733347   6.228510   5.774554   4.432833   4.955981
    13  N    5.021761   5.290397   4.638421   3.236084   3.628380
    14  C    2.378051   1.537934   2.454030   3.835126   4.767798
    15  C    2.845150   2.456977   3.485758   4.700394   5.622838
    16  N    4.236288   3.829887   4.814823   6.127875   6.965580
    17  H    3.172491   2.063712   1.013150   2.107090   2.372809
    18  H    2.691576   2.669873   2.091222   1.095048   2.137505
    19  H    6.016557   5.518001   4.262771   3.226167   1.886320
    20  H    2.687858   2.764897   2.510253   2.147135   3.406928
    21  H    4.148566   3.882264   3.001880   2.186771   2.633569
    22  H    3.941087   4.722025   4.853551   4.147563   5.404095
[...]
 308,0.00001089,0.00001522,-0.00000160,0.00001307,-0.00000571,-0.000010
 94,0.00001118,-0.00561707,-0.02882045,-0.05234548,-0.00667591,-0.02822
 910,-0.00429687,-0.00121433,0.00038624,0.00178440,0.00008221,0.0006103
 3,0.00026160,0.00004910,0.00002709,-0.00004480,-0.00000463,-0.00000273
 ,0.00001403,-0.00001703,0.00001117,0.00000700,0.00002552,-0.00002470,-
 0.00001052,-0.00000253,-0.00000313,-0.00000449,0.00000094,0.00000104,0
 .00000098,-0.00001340,0.00000490,0.00000379,0.00509969,0.03498329,0.05
 474104,-0.00829125,-0.00226740,-0.00264615,0.00118446,0.01761262,-0.02
 797974,0.00078839,-0.00106921,0.00164319,0.00001496,-0.00020462,0.0000
 4604,-0.00028288,0.00006500,-0.00029420,0.00017202,0.00000372,0.000043
 66,0.00022850,-0.00010406,0.00019701,0.00014477,0.00000934,0.00002944,
 0.00002263,-0.00001659,-0.00003324,0.00001700,0.00002501,0.00000097,0.
 00000072,0.00000663,0.00002468,-0.00002148,-0.00001105,-0.00000151,-0.
 00002380,-0.00001028,0.00002820,-0.06331759,0.03308544,-0.04875879,0.0
 0355882,-0.00936325,0.01700728,0.00126192,-0.00025575,0.00009949,-0.00
 177026,0.00033686,0.00069191,0.00011277,0.00003899,-0.00001165,-0.0000
 2333,0.00000941,0.00000822,0.00002965,-0.00007995,-0.00001745,-0.00002
 131,0.00000222,0.00001994,0.00000532,-0.00003152,0.00001073,-0.0000008
 8,-0.00000179,0.00000176,-0.00001270,0.00001172,-0.00001760,0.00186981
 ,-0.00419243,0.00777181,0.06663862,-0.00061733,0.00107576,-0.00091330,
 -0.00243850,-0.00032977,-0.00135057,0.00038091,-0.00006559,-0.00051977
 ,0.00003808,0.00004920,-0.00021786,0.00006214,-0.00002888,0.00016508,-
 0.00000567,0.00001933,-0.00004578,-0.00004052,-0.00004897,-0.00012853,
 -0.00003938,-0.00001298,0.00001564,-0.00000828,-0.00000741,-0.00000818
 ,-0.00001412,-0.00000664,0.00000302,0.00001314,-0.00000110,-0.00000150
 ,0.00000813,0.00000378,-0.00000317,0.00001190,0.00000348,-0.00000081,0
 .03349020,-0.11626001,0.11123949,-0.00405731,0.00721401,-0.01396858,-0
 .00064874,0.00009222,0.00028833,0.00051799,0.00056120,-0.00014147,-0.0
 0006982,0.00000287,-0.00000730,0.00000114,0.00000794,0.00001041,-0.000
 00932,0.00002324,-0.00000703,0.00001771,-0.00001028,-0.00000956,-0.000
 00328,0.00000834,-0.00000802,0.00000056,0.00000109,-0.00000013,-0.0000
 0422,0.00000244,0.00000700,0.00765571,-0.01449906,0.02561044,-0.035315
 00,0.12140709,-0.00140864,0.00030826,0.00127905,-0.00101284,0.00120030
 ,-0.00566929,0.00152790,-0.00033576,0.00027198,-0.00043718,-0.00058751
 ,0.00007551,-0.00005339,0.00003075,0.00004496,0.00000815,-0.00000056,-
 0.00001572,0.00000426,-0.00002072,-0.00003645,0.00013168,0.00007920,0.
 00000768,0.00002652,-0.00004576,-0.00000753,0.00000652,0.00000270,-0.0
 0002862,0.00002048,0.00001273,0.00001172,0.00000882,-0.00000332,0.0000
 1544,-0.00002197,-0.00001226,0.00001611,-0.04834886,0.10894810,-0.2277
 3136,-0.00703615,0.01195426,-0.02168830,0.00014457,-0.00001487,0.00059
 580,0.00048681,0.00030038,0.00093496,-0.00001741,0.00004968,0.00002872
 ,-0.00000051,0.00000463,0.00000202,-0.00000177,-0.00000165,-0.00000977
 ,0.00000584,-0.00001555,0.00000433,0.00000076,-0.00000787,0.00000100,-
 0.00000048,0.00000045,0.00000132,-0.00000372,0.00000094,-0.00000152,0.
 00124156,-0.00197178,0.00456057,0.05134217,-0.11803724,0.24906512,-0.0
 0068097,-0.00066934,-0.00057992,0.00203245,0.00058159,0.00067552,-0.00
 059333,-0.00027884,0.00018302,0.00011934,0.00004471,0.00006731,0.00003
 680,0.00004487,-0.00003462,-0.00005871,-0.00002850,0.00002613,-0.00003
 613,-0.00004207,0.00001236,-0.00001314,0.00000209,-0.00001193,0.000010
 65,-0.00000441,0.00000538,0.00000814,0.00000101,0.00000239,-0.00002028
 ,-0.00001081,-0.00000886,-0.00001216,0.00000177,-0.00000101,0.00000028
 ,-0.00000399,-0.00001054,0.00233194,0.01605362,-0.00011498,-0.04967507
 ,0.00379058,-0.00186042,-0.01280539,-0.04150716,0.00037841,0.00006239,
 0.00010817,-0.00005420,-0.00004856,0.00001814,-0.00001109,0.00000009,0
 .00001176,0.00000143,0.00001047,-0.00000567,0.00001515,0.00000291,0.00
 000008,-0.00000638,0.00000232,0.00000420,0.00000575,-0.00000167,0.0000
 0184,0.00000005,0.00000425,0.00000613,0.00000212,-0.00143991,0.0007545
 6,0.00273060,0.00033236,-0.00071067,-0.00026057,0.06158460,0.00042975,
 0.00047042,0.00048186,-0.00037282,-0.00009048,-0.00094557,0.00025280,-
 0.00006299,0.00011519,-0.00002720,-0.00000961,-0.00003334,-0.00000754,
 -0.00000440,0.00001260,0.00001726,0.00000393,-0.00001007,0.00000718,0.
 00000653,-0.00000210,0.00000703,0.00001154,-0.00000070,0.00000037,0.00
 000056,-0.00000429,-0.00000127,0.00000109,-0.00000323,0.00000686,0.000
 00273,0.00000535,0.00000264,0.00000031,-0.00000004,-0.00000193,-0.0000
 0277,0.00000669,0.00092802,-0.00840763,-0.00079113,-0.00952928,-0.3240
 3678,-0.00472752,-0.00186638,-0.00429904,0.00042335,-0.00001840,-0.000
 06621,0.00002272,0.00001265,0.00000319,0.00000754,-0.00000073,-0.00000
 044,0.00000095,-0.00000271,0.00000128,-0.00000456,0.00000056,-0.000002
 45,0.00000161,-0.00000060,-0.00000230,-0.00000209,0.00000020,-0.000000
 43,0.00000010,-0.00000238,0.00000040,-0.00000104,0.00095457,0.00094473
 ,-0.00112546,-0.00013378,0.00107864,0.00002599,0.01065370,0.34297334,-
 0.00020972,-0.00053709,0.00029614,-0.00094971,-0.00012328,0.00000536,0
 .00016861,0.00039605,-0.00009958,0.00000661,0.00002830,-0.00002943,0.0
 0008265,-0.00002870,0.00007148,-0.00003851,0.00000250,-0.00001545,-0.0
 0004856,0.00004670,-0.00004387,0.00000400,-0.00002062,0.00000082,-0.00
 000489,0.00000484,0.00000131,0.00000378,0.00000007,0.00000099,-0.00000
 316,-0.00000293,-0.00000832,0.00000002,-0.00000204,0.00000646,0.000002
 39,0.00000618,-0.00000755,-0.00077771,-0.02741583,-0.00111125,-0.00021
 919,-0.00364073,-0.05067286,-0.00052451,-0.00001735,-0.00050928,0.0000
 3223,-0.00014603,-0.00000834,0.00001996,-0.00000329,0.00000702,0.00000
 927,-0.00000446,-0.00000179,-0.00000289,-0.00000145,-0.00001178,-0.000
 00613,-0.00000085,0.00000285,0.00000176,0.00000158,0.00000127,0.000000
 13,0.00000039,0.00000051,0.00000372,-0.00000395,0.00000410,0.00331732,
 -0.00188589,-0.00350708,-0.00108785,0.00023346,0.00117177,-0.00272849,
 0.00743308,0.05116293,-0.00262307,0.00062364,-0.00286672,0.00109578,-0
 .00040991,0.00597302,0.00030302,0.00022084,-0.00281824,-0.00033659,0.0
 0000421,-0.00001007,-0.00008722,-0.00012988,0.00025633,0.00007405,0.00
 004328,-0.00008758,0.00002741,0.00010306,-0.00021105,-0.00001591,0.000
 02832,0.00001519,-0.00002251,-0.00004377,0.00001894,-0.00002807,-0.000
 02955,-0.00001228,0.00004715,-0.00000037,-0.00000285,0.00002625,0.0000
 1124,0.00000774,0.00001312,0.00000065,-0.00000867,0.00768647,-0.007433
 46,0.01183967,-0.08209736,0.03576981,-0.08223282,-0.02402110,0.0109986
 0,-0.02826513,0.00059563,0.00002138,-0.00003124,-0.00003345,-0.0000139
 8,0.00005041,-0.00000787,-0.00001301,0.00001733,-0.00000711,0.00006480
 ,0.00001430,0.00002375,-0.00000158,-0.00001997,-0.00001031,0.00003565,
 -0.00001253,0.00000160,0.00000206,-0.00000150,-0.00001346,0.00000084,0
 .00001316,0.00041127,0.00023817,-0.00022787,-0.00243833,0.00181246,0.0
 0268305,0.00298771,-0.00026419,0.00272239,0.10205841,0.00036070,-0.001
 75566,0.00001465,0.00030410,0.00093606,0.00009068,-0.00029410,0.000186
 49,0.00033207,0.00012758,0.00001320,0.00009261,0.00002974,0.00004328,-
 0.00008428,-0.00004497,-0.00002621,0.00003496,-0.00001536,-0.00002700,
 0.00004979,0.00001013,0.00000337,-0.00001019,0.00001149,-0.00000071,0.
 00000391,0.00002486,0.00000570,-0.00000776,-0.00002598,-0.00001127,-0.
 00000532,-0.00001408,-0.00000318,0.00000307,-0.00000926,-0.00000321,-0
 .00000548,-0.00551800,0.00600591,-0.01149404,0.04279941,-0.09506109,0.
 09175191,-0.00909285,0.00385485,-0.01182359,-0.00016055,0.00007796,-0.
 00001022,0.00001330,-0.00000071,-0.00001754,0.00000311,0.00000656,-0.0
 0000460,0.00000970,-0.00001281,-0.00000414,-0.00000557,0.00000030,0.00
 000093,0.00000733,0.00000080,0.00001071,-0.00000173,0.00000119,0.00000
 147,0.00000614,0.00000346,-0.00000187,-0.00069818,0.00047182,0.0001539
 4,0.00169588,-0.00024102,-0.00197538,0.01270915,-0.00973943,0.02619804
 ,-0.04053157,0.09473936,-0.00221523,-0.00002717,0.00264377,-0.00189347
 ,0.00066454,-0.00340420,-0.00011402,-0.00002492,0.00041383,0.00006058,
 -0.00000098,0.00005380,-0.00000164,0.00005682,-0.00008546,-0.00001187,
 -0.00001480,0.00002580,0.00001605,-0.00003207,0.00006456,0.00002107,-0
 .00000670,0.00000744,0.00001256,-0.00000017,0.00000873,0.00000227,-0.0
 0000664,0.00001151,-0.00001245,-0.00000329,-0.00001371,-0.00001219,-0.
 00000402,0.00000299,0.00000433,0.00000666,-0.00001981,-0.00532652,0.00
 987391,-0.02365327,-0.09163348,0.08876845,-0.24520938,0.00371092,-0.00
 246565,0.00561031,-0.00012257,-0.00000169,0.00011390,0.00003621,0.0000
 0565,-0.00000538,-0.00000103,0.00000147,-0.00000166,0.00001068,-0.0000
 3226,-0.00000019,-0.00001252,0.00000062,0.00000288,-0.00000020,0.00000
 297,0.00001118,-0.00000053,0.00000116,-0.00000022,0.00000445,0.0000020
 0,0.00000076,-0.00036496,-0.00023192,0.00069896,0.00204530,-0.00288574
 ,-0.00240416,0.00169394,-0.00089888,0.00276760,0.09333819,-0.09266085,
 0.26124209,0.00046088,0.00021391,0.00017177,-0.00096841,0.00027611,-0.
 00042182,0.00064241,-0.00001506,-0.00021062,-0.00021106,-0.00006839,-0
 .00009409,-0.00014165,-0.00009659,0.00017280,0.00015517,0.00005225,-0.
 00008385,0.00008733,0.00005457,-0.00009985,0.00000286,0.00004165,0.000
 00443,-0.00000923,-0.00002773,-0.00000910,-0.00002431,-0.00000931,-0.0
 0001881,0.00005736,0.00000875,0.00001647,0.00002198,0.00000451,0.00000
 473,0.00000236,-0.00000724,0.00001752,0.00184954,-0.00092500,-0.000400
 13,-0.00204139,-0.03596739,0.00067144,-0.06027410,-0.04055954,0.000751
 74,-0.00002160,-0.00003955,0.00013996,0.00002311,-0.00000157,0.0000104
 9,-0.00001718,-0.00001319,0.00001775,-0.00001157,0.00003181,-0.0000121
 6,0.00001267,-0.00000983,0.00000002,-0.00000693,0.00001057,-0.00001220
 ,0.00000160,0.00000117,0.00000003,-0.00002095,0.00000288,0.00000405,-0
 .00018857,0.00134128,0.00098356,0.00013279,0.00032699,-0.00003196,-0.0
 0703297,-0.00003203,0.00005622,0.00101238,0.00029417,-0.00072239,0.062
 10745,0.00031481,-0.00021411,-0.00008735,-0.00041398,-0.00009470,-0.00
 034139,0.00049814,-0.00004524,-0.00008470,-0.00013833,0.00004522,-0.00
 007052,-0.00008020,-0.00002815,0.00005350,0.00009371,0.00001464,-0.000
 04181,0.00006610,-0.00000302,-0.00002477,-0.00000499,0.00004431,-0.000
 00971,0.00000593,-0.00003045,-0.00000805,0.00001011,-0.00000397,-0.000
 02551,0.00001693,-0.00001040,0.00001399,0.00000323,0.00000419,0.000001
 09,-0.00001184,-0.00001625,0.00001893,0.00126582,0.00222580,0.00131879
 ,-0.00612576,-0.00521817,-0.00033505,-0.03047594,-0.39735478,0.0067562
 8,-0.00003094,0.00004177,0.00007826,0.00000814,-0.00000041,-0.00000247
 ,-0.00000744,0.00000554,0.00000983,-0.00000318,0.00002357,0.00000720,0
 .00001322,-0.00000430,-0.00000656,-0.00000206,0.00001509,0.00000200,-0
 .00000094,0.00000248,0.00000149,-0.00001305,0.00001378,-0.00000157,-0.
 00035470,-0.00027584,0.00022628,-0.00004985,-0.00028750,-0.00008556,-0
 .00042486,0.00159298,-0.00038239,0.00052136,0.00088945,-0.00045006,0.0
 3784558,0.42084787,-0.00040184,0.00015248,-0.00074961,0.00115056,-0.00
 041686,0.00066798,-0.00032313,-0.00000519,-0.00006975,0.00011389,0.000
 04499,0.00002853,0.00013122,0.00003505,-0.00001502,-0.00011531,-0.0000
 2393,0.00002960,-0.00008488,-0.00002034,-0.00000871,0.00000225,-0.0000
 3234,0.00001870,-0.00000183,0.00001135,0.00001718,-0.00000528,-0.00000
 822,0.00003147,-0.00002834,-0.00000038,-0.00003035,-0.00001051,-0.0000
 0430,0.00000470,0.00001556,0.00001598,-0.00004100,-0.00056868,0.001716
 26,0.00015525,-0.00027337,-0.00044640,0.00032333,0.00094593,0.00716476
 ,-0.06309635,0.00005245,0.00004366,-0.00006564,-0.00001556,-0.00000182
 ,-0.00000184,0.00001309,0.00000739,-0.00000584,0.00000360,-0.00001472,
 0.00001746,-0.00000475,0.00000664,-0.00000948,0.00000093,-0.00000197,0
 .00000771,0.00000010,0.00000041,-0.00000093,0.00001552,-0.00000433,0.0
 0000668,0.00023735,-0.00084385,0.00004525,0.00009775,-0.00001174,-0.00
 014309,-0.00008305,0.00007597,0.00034590,-0.00063486,-0.00071638,-0.00
 023584,-0.00023471,-0.00700730,0.05761108,0.00032256,-0.00019512,-0.00
 110708,0.00077016,0.00036076,0.00342308,-0.00082575,0.00002180,-0.0005
 0656,0.00004771,-0.00003665,0.00017888,-0.00009539,0.00000765,-0.00004
 895,0.00001441,-0.00000843,0.00002063,0.00002994,-0.00000544,0.0000043
 8,-0.00000795,-0.00001054,0.00000174,-0.00000395,-0.00000176,0.0000074
 3,-0.00001152,-0.00000990,0.00000544,0.00001006,-0.00000315,-0.0000071
 6,0.00000127,0.00000201,-0.00000046,0.00001186,0.00000307,-0.00001004,
 -0.00664174,-0.00232972,-0.00242466,-0.01278271,0.01287327,0.02598647,
 -0.12544081,0.06218805,0.12817095,0.00001300,0.00003233,-0.00004922,-0
 .00001710,0.00000094,0.00000476,-0.00001379,-0.00000091,0.00000728,0.0
 0000022,0.00000953,0.00000085,0.00000030,0.00000097,-0.00000254,-0.000
 00278,0.00000961,-0.00000161,0.00000009,0.00000159,-0.00000069,-0.0000
 0339,0.00000180,0.00000508,0.00041801,-0.00013966,-0.00054560,0.000048
 89,-0.00021258,0.00005804,0.00131540,-0.00063460,0.00023173,0.00048276
 ,0.00110490,-0.00065744,0.00212231,-0.00130739,-0.00528393,0.13008890,
 -0.00014491,-0.00012693,-0.00004488,0.00025418,0.00062217,0.00053595,-
 0.00039204,-0.00004156,0.00004611,0.00007969,-0.00005706,0.00006531,0.
 00004154,0.00004558,-0.00008648,-0.00006464,-0.00002969,0.00003973,-0.
 00003130,-0.00003606,0.00004362,0.00001128,-0.00001224,-0.00000362,0.0
 0000722,0.00000960,0.00000122,0.00001322,0.00000155,0.00000127,-0.0000
 2085,-0.00000837,-0.00000474,-0.00000879,-0.00000147,-0.00000183,-0.00
 000250,-0.00000301,-0.00000268,-0.00216448,-0.00085558,-0.00100213,-0.
 00235879,0.00495371,0.00950394,0.05723642,-0.11078201,-0.10245954,0.00
 001609,0.00004979,-0.00005336,-0.00002437,0.00000423,0.00000137,0.0000
 0375,0.00001232,-0.00000314,0.00000472,-0.00000776,0.00000470,-0.00000
 160,0.00000271,-0.00000182,0.00000214,-0.00000052,0.00000492,-0.000001
 53,0.00000143,0.00000082,0.00000684,0.00000388,-0.00000115,0.00009694,
 0.00032294,-0.00001965,0.00020580,0.00004392,-0.00011696,-0.00061798,-
 0.00026872,0.00068733,0.00061608,0.00001807,-0.00007257,0.01819907,-0.
 01145141,-0.03295491,-0.06226036,0.11101318,-0.00032603,0.00005021,0.0
 0017031,-0.00011000,0.00007346,-0.00004013,-0.00029418,0.00000965,0.00
 007120,0.00010005,-0.00000789,0.00001241,0.00014663,0.00003159,-0.0000
 2188,-0.00012493,-0.00002615,0.00003334,-0.00009276,-0.00001047,0.0000
 0180,0.00001822,-0.00003146,0.00001366,0.00000028,0.00001280,0.0000140
 2,0.00000367,-0.00000420,0.00002522,-0.00003174,-0.00000313,-0.0000291
 2,-0.00001217,-0.00000687,0.00000758,0.00000990,0.00001495,-0.00003663
 ,-0.00024114,-0.00038214,0.00011255,0.00184839,0.00325926,0.00436797,0
 .12009406,-0.10487128,-0.28553968,0.00005065,0.00001836,-0.00008089,-0
 .00001626,-0.00000274,0.00000387,0.00001527,0.00000605,-0.00000762,0.0
 0000773,-0.00001492,0.00000973,-0.00000660,0.00000523,-0.00000709,0.00
 000279,-0.00000166,0.00000955,-0.00000029,0.00000083,-0.00000003,0.000
 01644,-0.00000492,0.00000545,-0.00004757,0.00000422,-0.00008419,-0.000
 20318,-0.00002989,0.00013177,-0.00018841,0.00022625,0.00020900,-0.0007
 9813,0.00013568,0.00071088,-0.00240622,0.00090226,0.00329077,-0.132222
 53,0.11360351,0.29964574,0.00019473,0.00018126,0.00149961,-0.00225826,
 -0.00024138,-0.00161458,0.00076213,-0.00002984,0.00006489,-0.00020776,
 0.00001381,-0.00009802,-0.00016789,-0.00007502,0.00013903,0.00017639,0
 .00004857,-0.00008265,0.00011293,0.00003274,-0.00006775,-0.00000436,0.
 00005088,-0.00000482,-0.00000198,-0.00003528,-0.00001084,-0.00001316,-
 0.00000393,-0.00002731,0.00005128,0.00000452,0.00002083,0.00001641,0.0
 0000469,0.00000404,-0.00000544,-0.00001266,0.00002376,0.00275302,0.000
 53147,-0.00041203,-0.01497331,0.01234660,-0.02762787,-0.13093352,0.060
 38089,-0.13358574,-0.00008004,-0.00001406,0.00016702,0.00002863,0.0000
 0293,0.00000251,-0.00001914,-0.00001057,0.00002018,-0.00000658,0.00002
 254,-0.00001159,0.00001091,-0.00001180,0.00000373,-0.00000420,0.000009
 82,-0.00000859,0.00000076,0.00000123,0.00000057,-0.00002376,0.00000756
 ,0.00000169,-0.00016994,0.00025238,0.00019859,-0.00036060,-0.00014231,
 0.00093834,0.00157621,-0.00037774,-0.00006148,-0.00510440,-0.00309948,
 0.00214593,0.00227774,-0.00121761,0.00528983,0.01014902,-0.00870084,0.
 01480806,0.13622417,-0.00047763,0.00009774,0.00015438,0.00048349,-0.00
 019482,-0.00031554,-0.00027460,-0.00007973,0.00021173,0.00011097,0.000
 02710,0.00004313,0.00004486,0.00007103,-0.00011270,-0.00005775,-0.0000
 3363,0.00004364,-0.00002358,-0.00006414,0.00006902,-0.00000805,-0.0000
 0926,0.00000145,0.00000982,0.00001059,0.00000098,0.00001172,0.00000168
 ,0.00000785,-0.00002522,-0.00000650,-0.00000513,-0.00001186,-0.0000014
 1,-0.00000486,-0.00000120,-0.00000167,-0.00000554,0.00009946,0.0000808
 8,-0.00035689,-0.00259754,0.00549859,-0.00970232,0.05554213,-0.1050010
 6,0.09592592,0.00000308,0.00006983,-0.00005133,-0.00001319,0.00000648,
 -0.00000911,0.00000268,0.00001585,-0.00000549,0.00000431,-0.00001887,0
 .00001021,-0.00000275,0.00000406,-0.00000250,0.00000175,-0.00000395,0.
 00000621,-0.00000142,0.00000109,0.00000029,0.00000725,0.00000460,-0.00
 000305,0.00021853,-0.00042820,0.00012683,-0.00000211,0.00020463,0.0003
 1438,-0.00048364,-0.00009799,-0.00082165,-0.00224519,-0.00037555,0.000
 43611,0.01906715,-0.01072799,0.03324005,-0.00946209,0.00657733,-0.0129
 5659,-0.05991939,0.10437329,0.00016585,-0.00008609,-0.00068706,0.00024
 198,-0.00002604,0.00017117,0.00026236,0.00000547,-0.00027770,-0.000049
 59,0.00002859,-0.00004752,0.00007944,-0.00004700,0.00016046,-0.0000349
 3,0.00000998,-0.00004054,-0.00005675,0.00003543,-0.00011871,0.00000408
 ,0.00000112,0.00001048,-0.00000877,-0.00001039,0.00000588,-0.00000811,
 -0.00000852,0.00000553,0.00000571,0.00000113,-0.00001356,0.00000455,-0
 .00000046,0.00000951,0.00000800,0.00000552,-0.00001806,0.00035703,-0.0
 0048735,0.00253247,-0.00261218,-0.00336370,0.00482821,-0.12464679,0.09
 807055,-0.28692647,0.00009790,-0.00001191,0.00004848,-0.00000143,-0.00
 000043,0.00000386,0.00000857,-0.00000046,0.00000581,-0.00000550,0.0000
 1521,0.00000299,0.00000678,-0.00000352,-0.00000843,-0.00000160,0.00000
 653,-0.00000055,0.00000054,0.00000127,0.00000020,0.00000219,-0.0000019
 0,0.00000898,0.00001083,-0.00013947,0.00010738,-0.00005822,0.00072332,
 -0.00048402,0.00015492,-0.00028922,-0.00002897,0.00129177,-0.00005276,
 0.00064230,0.00173493,-0.00042511,0.00187184,-0.01523826,0.01228967,-0
 .02299956,0.13828467,-0.10623947,0.30123561\\-0.00000103,-0.00000154,-
 0.00000058,0.00000221,0.00000162,-0.00000205,-0.00000324,-0.00000151,0
 .00000215,0.00000039,0.00000100,-0.00000064,0.00000438,0.00000011,-0.0
 0000024,-0.00000103,-0.00000251,0.00000552,-0.00000260,0.00000077,-0.0
 0000203,-0.00000054,0.00000023,0.00000136,-0.00000155,-0.00000009,0.00
 000055,0.00000018,-0.00000089,0.00000024,0.00000006,-0.00000018,-0.000
 00117,0.00000190,0.00000060,0.00000137,-0.00000308,0.00000169,-0.00000
 284,-0.00000057,-0.00000101,0.00000149,-0.00000064,-0.00000016,-0.0000
 0067,0.00000162,0.00000033,0.00000028,0.00000056,0.00000171,-0.0000014
 6,0.00000034,-0.00000038,-0.00000005,0.00000067,0.00000088,0.00000084,
 -0.00000211,0.00000052,0.00000010,0.00000037,-0.00000022,-0.00000024,0
 .00000004,-0.00000051,-0.00000027,0.00000041,-0.00000034,0.00000008,0.
 00000180,-0.00000031,-0.00000186,0.00000155,-0.00000055,-0.00000012,0.
 00000033,0.00000123,-0.00000029,0.00000049,-0.00000035,0.00000077,-0.0
 0000015,0.00000019,0.00000023,-0.00000027,-0.00000072,-0.00000036,-0.0
 0000027,0.00000008,0.00000042,-0.00000020,0.00000029,-0.00000054\\\@


 FOR THE NATURE OF THE CHEMICAL BOND
 IS THE PROBLEM AT THE HEART OF ALL CHEMISTRY.

                     -- BRYCE CRAWFORD, JR., 1953
 Job cpu time:       0 days  4 hours 56 minutes 35.0 seconds.
 File lengths (MBytes):  RWF=    608 Int=      0 D2E=      0 Chk=     18 Scr=      1
 Normal termination of Gaussian 09 at Thu Jul 29 01:54:10 2021.
