 Entering Gaussian System, Link 0=g09
 Input=opt_freq-conf-719.com
 Output=opt_freq-conf-719.log
 Initial command:
 /aerosol/software/g09/l1.exe "/scratch/nicole/10676/Gau-83221.inp" -scrdir="/scratch/nicole/10676/"
 Entering Link 1 = /aerosol/software/g09/l1.exe PID=     83226.
  
 Copyright (c) 1988,1990,1992,1993,1995,1998,2003,2009,2013,
            Gaussian, Inc.  All Rights Reserved.
  
 This is part of the Gaussian(R) 09 program.  It is based on
 the Gaussian(R) 03 system (copyright 2003, Gaussian, Inc.),
 the Gaussian(R) 98 system (copyright 1998, Gaussian, Inc.),
 the Gaussian(R) 94 system (copyright 1995, Gaussian, Inc.),
 the Gaussian 92(TM) system (copyright 1992, Gaussian, Inc.),
 the Gaussian 90(TM) system (copyright 1990, Gaussian, Inc.),
 the Gaussian 88(TM) system (copyright 1988, Gaussian, Inc.),
 the Gaussian 86(TM) system (copyright 1986, Carnegie Mellon
 University), and the Gaussian 82(TM) system (copyright 1983,
 Carnegie Mellon University). Gaussian is a federally registered
 trademark of Gaussian, Inc.
  
 This software contains proprietary and confidential information,
 including trade secrets, belonging to Gaussian, Inc.
  
 This software is provided under written license and may be
 used, copied, transmitted, or stored only in accord with that
 written license.
  
 The following legend is applicable only to US Government
 contracts under FAR:
  
                    RESTRICTED RIGHTS LEGEND
  
 Use, reproduction and disclosure by the US Government is
 subject to restrictions as set forth in subparagraphs (a)
 and (c) of the Commercial Computer Software - Restricted
 Rights clause in FAR 52.227-19.
  
 Gaussian, Inc.
 340 Quinnipiac St., Bldg. 40, Wallingford CT 06492
  
  
 ---------------------------------------------------------------
 Warning -- This program may not be used in any manner that
 competes with the business of Gaussian, Inc. or will provide
 assistance to any competitor of Gaussian, Inc.  The licensee
 of this program is prohibited from giving any competitor of
 Gaussian, Inc. access to this program.  By using this program,
 the user acknowledges that Gaussian, Inc. is engaged in the
 business of creating and licensing software in the field of
 computational chemistry and represents and warrants to the
 licensee that it is not a competitor of Gaussian, Inc. and that
 it will not use this program in any manner prohibited above.
 ---------------------------------------------------------------
  

 Cite this work as:
 Gaussian 09, Revision D.01,
 M. J. Frisch, G. W. Trucks, H. B. Schlegel, G. E. Scuseria, 
 M. A. Robb, J. R. Cheeseman, G. Scalmani, V. Barone, B. Mennucci, 
 G. A. Petersson, H. Nakatsuji, M. Caricato, X. Li, H. P. Hratchian, 
 A. F. Izmaylov, J. Bloino, G. Zheng, J. L. Sonnenberg, M. Hada, 
 M. Ehara, K. Toyota, R. Fukuda, J. Hasegawa, M. Ishida, T. Nakajima, 
 Y. Honda, O. Kitao, H. Nakai, T. Vreven, J. A. Montgomery, Jr., 
 J. E. Peralta, F. Ogliaro, M. Bearpark, J. J. Heyd, E. Brothers, 
 K. N. Kudin, V. N. Staroverov, T. Keith, R. Kobayashi, J. Normand, 
 K. Raghavachari, A. Rendell, J. C. Burant, S. S. Iyengar, J. Tomasi, 
 M. Cossi, N. Rega, J. M. Millam, M. Klene, J. E. Knox, J. B. Cross, 
 V. Bakken, C. Adamo, J. Jaramillo, R. Gomperts, R. E. Stratmann, 
 O. Yazyev, A. J. Austin, R. Cammi, C. Pomelli, J. W. Ochterski, 
 R. L. Martin, K. Morokuma, V. G. Zakrzewski, G. A. Voth, 
 P. Salvador, J. J. Dannenberg, S. Dapprich, A. D. Daniels, 
 O. Farkas, J. B. Foresman, J. V. Ortiz, J. Cioslowski, 
 and D. J. Fox, Gaussian, Inc., Wallingford CT, 2013.
 
 ******************************************
 Gaussian 09:  ES64L-G09RevD.01 24-Apr-2013
                28-Jul-2021 
 ******************************************
 %mem=2gb
 %nproc=4
 Will use up to    4 processors via shared memory.
 %chk=conf-719.chk
 ----------------------------------------------------------------------
 # B3LYP/6-31G(d,p) opt=calcfc freq=noraman nosymm integral(ultrafinegr
 id)
 ----------------------------------------------------------------------
 1/10=4,14=-1,18=20,19=15,26=4,38=1/1,3;
 2/9=110,12=2,15=1,17=6,18=5,40=1/2;
 3/5=1,6=6,7=101,11=2,16=1,25=1,30=1,71=2,74=-5,75=-5,140=1/1,2,3;
 4//1;
 5/5=2,38=5/2;
 8/6=4,10=90,11=11/1;
 11/6=1,8=1,9=11,15=111,16=1,31=1/1,2,10;
 10/6=1,13=1,31=1/2;
 6/7=2,8=2,9=2,10=2,28=1/1;
 7/10=1,18=20,25=1,30=1/1,2,3,16;
 1/10=4,14=-1,18=20,19=15,26=4/3(2);
 2/9=110,15=1/2;
 99//99;
 2/9=110,15=1/2;
 3/5=1,6=6,7=101,11=2,16=1,25=1,30=1,71=1,74=-5,75=-5/1,2,3;
 4/5=5,16=3,69=1/1;
 5/5=2,38=5/2;
 7/30=1/1,2,3,16;
 1/14=-1,18=20,19=15,26=4/3(-5);
 2/9=110,15=1/2;
 6/7=2,8=2,9=2,10=2,19=2,28=1/1;
 99/9=1/99;
 ------------------------------------------------------------
 Candidate Structure: Conf:719 OPT and FREQ calc in gas phase
 ------------------------------------------------------------
 Symbolic Z-matrix:
 Charge =  1 Multiplicity = 1
 O                    -0.72005  -0.63766   1.42408 
 C                    -1.30854  -0.35072   0.39193 
 N                    -0.64886   0.02779  -0.73425 
 C                     0.78942   0.22717  -0.70361 
 C                     1.13934   1.06531  -1.91425 
 O                     2.46404   1.31793  -2.00859 
 O                     0.34195   1.46947  -2.71894 
 C                     1.53736  -1.12922  -0.66353 
 C                     2.755    -1.09635   0.19636 
 C                     3.09564  -1.82049   1.30301 
 N                     4.33164  -1.42286   1.78318 
 C                     4.71835  -0.46405   0.97732 
 N                     3.79481  -0.22334   0.00813 
 C                    -2.81985  -0.36212   0.28429 
 C                    -3.40988   0.91549   0.86784 
 N                    -4.89591   0.90764   0.82254 
 H                    -1.13699   0.44142  -1.51384 
 H                     1.02385   0.8044    0.19829 
 H                     2.57954   1.86672  -2.79947 
 H                     0.86206  -1.86744  -0.23474 
 H                     1.76766  -1.4608   -1.67591 
 H                     2.52688  -2.60269   1.78513 
 H                     5.63852   0.08929   1.03276 
 H                     3.82338   0.4747   -0.71798 
 H                    -3.18715  -1.21463   0.85492 
 H                    -3.13759  -0.46911  -0.75496 
 H                    -3.04499   1.77791   0.30734 
 H                    -3.07045   1.02624   1.89791 
 H                    -5.2757    0.11714   1.34345 
 H                    -5.29549   1.75648   1.22538 
 H                    -5.23775   0.83645  -0.1361 
 

 GradGradGradGradGradGradGradGradGradGradGradGradGradGradGradGradGradGrad
 Berny optimization.
 Initialization pass.
                           ----------------------------
                           !    Initial Parameters    !
                           ! (Angstroms and Degrees)  !
 --------------------------                            --------------------------
 ! Name  Definition              Value          Derivative Info.                !
 --------------------------------------------------------------------------------
 ! R1    R(1,2)                  1.2223         calculate D2E/DX2 analytically  !
 ! R2    R(2,3)                  1.3589         calculate D2E/DX2 analytically  !
 ! R3    R(2,14)                 1.5152         calculate D2E/DX2 analytically  !
 ! R4    R(3,4)                  1.4524         calculate D2E/DX2 analytically  !
 ! R5    R(3,17)                 1.0085         calculate D2E/DX2 analytically  !
 ! R6    R(4,5)                  1.5135         calculate D2E/DX2 analytically  !
 ! R7    R(4,8)                  1.5495         calculate D2E/DX2 analytically  !
 ! R8    R(4,18)                 1.0962         calculate D2E/DX2 analytically  !
 ! R9    R(5,6)                  1.3519         calculate D2E/DX2 analytically  !
 ! R10   R(5,7)                  1.2028         calculate D2E/DX2 analytically  !
 ! R11   R(6,19)                 0.9695         calculate D2E/DX2 analytically  !
 ! R12   R(8,9)                  1.491          calculate D2E/DX2 analytically  !
 ! R13   R(8,20)                 1.0885         calculate D2E/DX2 analytically  !
 ! R14   R(8,21)                 1.0899         calculate D2E/DX2 analytically  !
 ! R15   R(9,10)                 1.3657         calculate D2E/DX2 analytically  !
 ! R16   R(9,13)                 1.3707         calculate D2E/DX2 analytically  !
 ! R17   R(10,11)                1.3843         calculate D2E/DX2 analytically  !
 ! R18   R(10,22)                1.0806         calculate D2E/DX2 analytically  !
 ! R19   R(11,12)                1.3108         calculate D2E/DX2 analytically  !
 ! R20   R(12,13)                1.3602         calculate D2E/DX2 analytically  !
 ! R21   R(12,23)                1.0752         calculate D2E/DX2 analytically  !
 ! R22   R(13,24)                1.0076         calculate D2E/DX2 analytically  !
 ! R23   R(14,15)                1.5235         calculate D2E/DX2 analytically  !
 ! R24   R(14,25)                1.0896         calculate D2E/DX2 analytically  !
 ! R25   R(14,26)                1.092          calculate D2E/DX2 analytically  !
 ! R26   R(15,16)                1.4867         calculate D2E/DX2 analytically  !
 ! R27   R(15,27)                1.0914         calculate D2E/DX2 analytically  !
 ! R28   R(15,28)                1.0902         calculate D2E/DX2 analytically  !
 ! R29   R(16,29)                1.02           calculate D2E/DX2 analytically  !
 ! R30   R(16,30)                1.021          calculate D2E/DX2 analytically  !
 ! R31   R(16,31)                1.0202         calculate D2E/DX2 analytically  !
 ! A1    A(1,2,3)              122.1047         calculate D2E/DX2 analytically  !
 ! A2    A(1,2,14)             122.5785         calculate D2E/DX2 analytically  !
 ! A3    A(3,2,14)             115.3041         calculate D2E/DX2 analytically  !
 ! A4    A(2,3,4)              120.0984         calculate D2E/DX2 analytically  !
 ! A5    A(2,3,17)             121.3245         calculate D2E/DX2 analytically  !
 ! A6    A(4,3,17)             116.06           calculate D2E/DX2 analytically  !
 ! A7    A(3,4,5)              106.7453         calculate D2E/DX2 analytically  !
 ! A8    A(3,4,8)              111.0018         calculate D2E/DX2 analytically  !
 ! A9    A(3,4,18)             107.5444         calculate D2E/DX2 analytically  !
 ! A10   A(5,4,8)              113.1954         calculate D2E/DX2 analytically  !
 ! A11   A(5,4,18)             108.4867         calculate D2E/DX2 analytically  !
 ! A12   A(8,4,18)             109.6613         calculate D2E/DX2 analytically  !
 ! A13   A(4,5,6)              112.698          calculate D2E/DX2 analytically  !
 ! A14   A(4,5,7)              124.6084         calculate D2E/DX2 analytically  !
 ! A15   A(6,5,7)              122.6933         calculate D2E/DX2 analytically  !
 ! A16   A(5,6,19)             106.227          calculate D2E/DX2 analytically  !
 ! A17   A(4,8,9)              112.9434         calculate D2E/DX2 analytically  !
 ! A18   A(4,8,20)             107.7227         calculate D2E/DX2 analytically  !
 ! A19   A(4,8,21)             110.1385         calculate D2E/DX2 analytically  !
 ! A20   A(9,8,20)             107.1225         calculate D2E/DX2 analytically  !
 ! A21   A(9,8,21)             111.7052         calculate D2E/DX2 analytically  !
 ! A22   A(20,8,21)            106.8981         calculate D2E/DX2 analytically  !
 ! A23   A(8,9,10)             131.2491         calculate D2E/DX2 analytically  !
 ! A24   A(8,9,13)             123.6667         calculate D2E/DX2 analytically  !
 ! A25   A(10,9,13)            105.0567         calculate D2E/DX2 analytically  !
 ! A26   A(9,10,11)            110.5779         calculate D2E/DX2 analytically  !
 ! A27   A(9,10,22)            127.8827         calculate D2E/DX2 analytically  !
 ! A28   A(11,10,22)           121.5393         calculate D2E/DX2 analytically  !
 ! A29   A(10,11,12)           105.0849         calculate D2E/DX2 analytically  !
 ! A30   A(11,12,13)           111.5417         calculate D2E/DX2 analytically  !
 ! A31   A(11,12,23)           126.6715         calculate D2E/DX2 analytically  !
 ! A32   A(13,12,23)           121.7867         calculate D2E/DX2 analytically  !
 ! A33   A(9,13,12)            107.7286         calculate D2E/DX2 analytically  !
 ! A34   A(9,13,24)            124.1734         calculate D2E/DX2 analytically  !
 ! A35   A(12,13,24)           128.0822         calculate D2E/DX2 analytically  !
 ! A36   A(2,14,15)            110.6579         calculate D2E/DX2 analytically  !
 ! A37   A(2,14,25)            107.7526         calculate D2E/DX2 analytically  !
 ! A38   A(2,14,26)            111.0128         calculate D2E/DX2 analytically  !
 ! A39   A(15,14,25)           108.964          calculate D2E/DX2 analytically  !
 ! A40   A(15,14,26)           109.5123         calculate D2E/DX2 analytically  !
 ! A41   A(25,14,26)           108.8845         calculate D2E/DX2 analytically  !
 ! A42   A(14,15,16)           111.7778         calculate D2E/DX2 analytically  !
 ! A43   A(14,15,27)           109.6626         calculate D2E/DX2 analytically  !
 ! A44   A(14,15,28)           109.0578         calculate D2E/DX2 analytically  !
 ! A45   A(16,15,27)           108.8269         calculate D2E/DX2 analytically  !
 ! A46   A(16,15,28)           109.9093         calculate D2E/DX2 analytically  !
 ! A47   A(27,15,28)           107.5104         calculate D2E/DX2 analytically  !
 ! A48   A(15,16,29)           111.1423         calculate D2E/DX2 analytically  !
 ! A49   A(15,16,30)           112.0089         calculate D2E/DX2 analytically  !
 ! A50   A(15,16,31)           111.3396         calculate D2E/DX2 analytically  !
 ! A51   A(29,16,30)           107.2825         calculate D2E/DX2 analytically  !
 ! A52   A(29,16,31)           107.5184         calculate D2E/DX2 analytically  !
 ! A53   A(30,16,31)           107.3143         calculate D2E/DX2 analytically  !
 ! D1    D(1,2,3,4)             -5.9537         calculate D2E/DX2 analytically  !
 ! D2    D(1,2,3,17)          -167.2503         calculate D2E/DX2 analytically  !
 ! D3    D(14,2,3,4)           172.7854         calculate D2E/DX2 analytically  !
 ! D4    D(14,2,3,17)           11.4887         calculate D2E/DX2 analytically  !
 ! D5    D(1,2,14,15)           80.5041         calculate D2E/DX2 analytically  !
 ! D6    D(1,2,14,25)          -38.5329         calculate D2E/DX2 analytically  !
 ! D7    D(1,2,14,26)         -157.6785         calculate D2E/DX2 analytically  !
 ! D8    D(3,2,14,15)          -98.2283         calculate D2E/DX2 analytically  !
 ! D9    D(3,2,14,25)          142.7347         calculate D2E/DX2 analytically  !
 ! D10   D(3,2,14,26)           23.5891         calculate D2E/DX2 analytically  !
 ! D11   D(2,3,4,5)           -161.334          calculate D2E/DX2 analytically  !
 ! D12   D(2,3,4,8)             74.8806         calculate D2E/DX2 analytically  !
 ! D13   D(2,3,4,18)           -45.0767         calculate D2E/DX2 analytically  !
 ! D14   D(17,3,4,5)             0.9122         calculate D2E/DX2 analytically  !
 ! D15   D(17,3,4,8)          -122.8732         calculate D2E/DX2 analytically  !
 ! D16   D(17,3,4,18)          117.1695         calculate D2E/DX2 analytically  !
 ! D17   D(3,4,5,6)           -179.5997         calculate D2E/DX2 analytically  !
 ! D18   D(3,4,5,7)              0.1965         calculate D2E/DX2 analytically  !
 ! D19   D(8,4,5,6)            -57.1805         calculate D2E/DX2 analytically  !
 ! D20   D(8,4,5,7)            122.6157         calculate D2E/DX2 analytically  !
 ! D21   D(18,4,5,6)            64.7729         calculate D2E/DX2 analytically  !
 ! D22   D(18,4,5,7)          -115.4308         calculate D2E/DX2 analytically  !
 ! D23   D(3,4,8,9)           -142.7371         calculate D2E/DX2 analytically  !
 ! D24   D(3,4,8,20)           -24.6433         calculate D2E/DX2 analytically  !
 ! D25   D(3,4,8,21)            91.6021         calculate D2E/DX2 analytically  !
 ! D26   D(5,4,8,9)             97.2454         calculate D2E/DX2 analytically  !
 ! D27   D(5,4,8,20)          -144.6608         calculate D2E/DX2 analytically  !
 ! D28   D(5,4,8,21)           -28.4154         calculate D2E/DX2 analytically  !
 ! D29   D(18,4,8,9)           -24.0484         calculate D2E/DX2 analytically  !
 ! D30   D(18,4,8,20)           94.0454         calculate D2E/DX2 analytically  !
 ! D31   D(18,4,8,21)         -149.7092         calculate D2E/DX2 analytically  !
 ! D32   D(4,5,6,19)          -179.099          calculate D2E/DX2 analytically  !
 ! D33   D(7,5,6,19)             1.1003         calculate D2E/DX2 analytically  !
 ! D34   D(4,8,9,10)           120.2227         calculate D2E/DX2 analytically  !
 ! D35   D(4,8,9,13)           -57.5692         calculate D2E/DX2 analytically  !
 ! D36   D(20,8,9,10)            1.7786         calculate D2E/DX2 analytically  !
 ! D37   D(20,8,9,13)         -176.0133         calculate D2E/DX2 analytically  !
 ! D38   D(21,8,9,10)         -114.9644         calculate D2E/DX2 analytically  !
 ! D39   D(21,8,9,13)           67.2437         calculate D2E/DX2 analytically  !
 ! D40   D(8,9,10,11)         -179.0325         calculate D2E/DX2 analytically  !
 ! D41   D(8,9,10,22)            0.8577         calculate D2E/DX2 analytically  !
 ! D42   D(13,9,10,11)          -0.9355         calculate D2E/DX2 analytically  !
 ! D43   D(13,9,10,22)         178.9547         calculate D2E/DX2 analytically  !
 ! D44   D(8,9,13,12)          179.2791         calculate D2E/DX2 analytically  !
 ! D45   D(8,9,13,24)            0.6241         calculate D2E/DX2 analytically  !
 ! D46   D(10,9,13,12)           0.9981         calculate D2E/DX2 analytically  !
 ! D47   D(10,9,13,24)        -177.6569         calculate D2E/DX2 analytically  !
 ! D48   D(9,10,11,12)           0.5011         calculate D2E/DX2 analytically  !
 ! D49   D(22,10,11,12)       -179.3972         calculate D2E/DX2 analytically  !
 ! D50   D(10,11,12,13)          0.156          calculate D2E/DX2 analytically  !
 ! D51   D(10,11,12,23)       -179.7186         calculate D2E/DX2 analytically  !
 ! D52   D(11,12,13,9)          -0.7455         calculate D2E/DX2 analytically  !
 ! D53   D(11,12,13,24)        177.8408         calculate D2E/DX2 analytically  !
 ! D54   D(23,12,13,9)         179.1361         calculate D2E/DX2 analytically  !
 ! D55   D(23,12,13,24)         -2.2776         calculate D2E/DX2 analytically  !
 ! D56   D(2,14,15,16)        -177.8071         calculate D2E/DX2 analytically  !
 ! D57   D(2,14,15,27)          61.41           calculate D2E/DX2 analytically  !
 ! D58   D(2,14,15,28)         -56.0723         calculate D2E/DX2 analytically  !
 ! D59   D(25,14,15,16)        -59.5052         calculate D2E/DX2 analytically  !
 ! D60   D(25,14,15,27)        179.7119         calculate D2E/DX2 analytically  !
 ! D61   D(25,14,15,28)         62.2295         calculate D2E/DX2 analytically  !
 ! D62   D(26,14,15,16)         59.4978         calculate D2E/DX2 analytically  !
 ! D63   D(26,14,15,27)        -61.2851         calculate D2E/DX2 analytically  !
 ! D64   D(26,14,15,28)       -178.7675         calculate D2E/DX2 analytically  !
 ! D65   D(14,15,16,29)         59.1679         calculate D2E/DX2 analytically  !
 ! D66   D(14,15,16,30)        179.1595         calculate D2E/DX2 analytically  !
 ! D67   D(14,15,16,31)        -60.6717         calculate D2E/DX2 analytically  !
 ! D68   D(27,15,16,29)       -179.5642         calculate D2E/DX2 analytically  !
 ! D69   D(27,15,16,30)        -59.5726         calculate D2E/DX2 analytically  !
 ! D70   D(27,15,16,31)         60.5963         calculate D2E/DX2 analytically  !
 ! D71   D(28,15,16,29)        -62.0751         calculate D2E/DX2 analytically  !
 ! D72   D(28,15,16,30)         57.9166         calculate D2E/DX2 analytically  !
 ! D73   D(28,15,16,31)        178.0854         calculate D2E/DX2 analytically  !
 --------------------------------------------------------------------------------
 Trust Radius=3.00D-01 FncErr=1.00D-07 GrdErr=1.00D-06
 Number of steps in this run=    167 maximum allowed number of steps=    186.
 GradGradGradGradGradGradGradGradGradGradGradGradGradGradGradGradGradGrad

                          Input orientation:                          
 ---------------------------------------------------------------------
 Center     Atomic      Atomic             Coordinates (Angstroms)
 Number     Number       Type             X           Y           Z
 ---------------------------------------------------------------------
      1          8           0       -0.720054   -0.637656    1.424079
      2          6           0       -1.308542   -0.350722    0.391926
      3          7           0       -0.648861    0.027789   -0.734248
      4          6           0        0.789418    0.227174   -0.703607
      5          6           0        1.139344    1.065305   -1.914246
      6          8           0        2.464037    1.317927   -2.008589
      7          8           0        0.341951    1.469473   -2.718944
      8          6           0        1.537357   -1.129224   -0.663526
      9          6           0        2.754998   -1.096350    0.196361
     10          6           0        3.095644   -1.820487    1.303006
     11          7           0        4.331642   -1.422865    1.783184
     12          6           0        4.718350   -0.464049    0.977320
     13          7           0        3.794806   -0.223340    0.008132
     14          6           0       -2.819851   -0.362120    0.284292
     15          6           0       -3.409884    0.915491    0.867843
     16          7           0       -4.895913    0.907638    0.822538
     17          1           0       -1.136988    0.441420   -1.513845
     18          1           0        1.023851    0.804405    0.198290
     19          1           0        2.579543    1.866720   -2.799467
     20          1           0        0.862055   -1.867444   -0.234739
     21          1           0        1.767665   -1.460804   -1.675913
     22          1           0        2.526878   -2.602694    1.785128
     23          1           0        5.638517    0.089285    1.032764
     24          1           0        3.823382    0.474704   -0.717982
     25          1           0       -3.187149   -1.214629    0.854924
     26          1           0       -3.137595   -0.469107   -0.754956
     27          1           0       -3.044991    1.777907    0.307343
     28          1           0       -3.070450    1.026240    1.897911
     29          1           0       -5.275703    0.117144    1.343445
     30          1           0       -5.295491    1.756479    1.225383
     31          1           0       -5.237750    0.836447   -0.136097
 ---------------------------------------------------------------------
                    Distance matrix (angstroms):
                    1          2          3          4          5
     1  O    0.000000
     2  C    1.222289   0.000000
     3  N    2.259704   1.358940   0.000000
     4  C    2.748360   2.436307   1.452357   0.000000
     5  C    4.183521   3.649069   2.380444   1.513459   0.000000
     6  O    5.074047   4.772757   3.602573   2.386853   1.351861
     7  O    4.767860   3.964183   2.645596   2.409381   1.202800
     8  C    3.113782   3.133558   2.474516   1.549463   2.557082
     9  C    3.713984   4.136009   3.703510   2.534791   3.426040
    10  C    3.996661   4.731504   4.646272   3.679414   4.744008
    11  N    5.124953   5.907348   5.766045   4.631858   5.482038
    12  C    5.459484   6.056315   5.654938   4.328951   4.848645
    13  N    4.749792   5.119345   4.512247   3.121201   3.522445
    14  C    2.405033   1.515180   2.429537   3.788144   4.748299
    15  C    3.155448   2.499086   3.313301   4.536229   5.334599
    16  N    4.493060   3.825980   4.608163   5.925802   6.628663
    17  H    3.157473   2.070962   1.008528   2.100815   2.394001
    18  H    2.573578   2.609956   2.066574   1.096163   2.131717
    19  H    5.915876   5.497203   4.250811   3.207068   1.870844
    20  H    2.601369   2.721148   2.474729   2.147682   3.390966
    21  H    4.059097   3.869275   2.990358   2.179820   2.613965
    22  H    3.812387   4.660776   4.832393   4.149786   5.391181
    23  H    6.411942   6.990416   6.531251   5.152452   5.466263
    24  H    5.144763   5.315061   4.494548   3.044079   2.997318
    25  H    2.596804   2.118930   3.242217   4.507870   5.620048
    26  H    3.259004   2.162126   2.537938   3.988593   4.689412
    27  H    3.533748   2.748357   3.144719   4.257873   4.790816
    28  H    2.918463   2.695984   3.713389   4.722815   5.679475
    29  H    4.618459   4.106416   5.072717   6.402204   7.257024
    30  H    5.167784   4.585925   5.331012   6.563984   7.193198
    31  H    5.001671   4.138460   4.697831   6.084409   6.624313
                    6          7          8          9         10
     6  O    0.000000
     7  O    2.242949   0.000000
     8  C    2.942189   3.522352   0.000000
     9  C    3.282560   4.572226   1.491019   0.000000
    10  C    4.605999   5.880709   2.602567   1.365678   0.000000
    11  N    5.037602   6.674759   3.725674   2.260625   1.384329
    12  C    4.144034   6.045969   3.640543   2.205550   2.139900
    13  N    2.865940   4.714316   2.523456   1.370685   2.171729
    14  C    5.999944   4.729815   4.524607   5.623680   6.177191
    15  C    6.552768   5.219981   5.567867   6.519522   7.070844
    16  N    7.896359   6.347674   6.909714   7.933758   8.458043
    17  H    3.739039   2.167122   3.215911   4.520741   5.564714
    18  H    2.684801   3.068804   2.178379   2.570942   3.521758
    19  H    0.969538   2.274008   3.824144   4.217292   5.540048
    20  H    3.982396   4.192469   1.088512   2.088939   2.712155
    21  H    2.883912   3.421563   1.089915   2.147805   3.281289
    22  H    5.455961   6.453148   3.024264   2.201202   1.080641
    23  H    4.564725   6.635800   4.602356   3.228000   3.191624
    24  H    2.055362   4.136880   2.793110   2.108478   3.143549
    25  H    6.822715   5.694864   4.963259   5.979700   6.327822
    26  H    6.011935   4.441011   4.722212   6.001757   6.701843
    27  H    5.993706   4.552462   5.512885   6.474067   7.186597
    28  H    6.780588   5.758149   5.695513   6.429347   6.817513
    29  H    8.519483   7.063273   7.211044   8.202471   8.592759
    30  H    8.417908   6.886278   7.653957   8.602784   9.122053
    31  H    7.940754   6.181010   7.074186   8.229840   8.864298
                   11         12         13         14         15
    11  N    0.000000
    12  C    1.310835   0.000000
    13  N    2.208588   1.360220   0.000000
    14  C    7.383476   7.570677   6.621874   0.000000
    15  C    8.138611   8.245199   7.344631   1.523470   0.000000
    16  N    9.565660   9.712854   8.801760   2.492394   1.486740
    17  H    6.652208   6.427345   5.203933   2.590560   3.326145
    18  H    4.291165   3.983112   2.961522   4.017739   4.485382
    19  H    5.906937   4.926570   3.705108   6.605358   7.087119
    20  H    4.038279   4.278973   3.370919   4.011462   5.216309
    21  H    4.305900   4.091419   2.911465   5.108308   6.238949
    22  H    2.156194   3.166845   3.229038   5.988338   6.961622
    23  H    2.134866   1.075156   2.132340   8.503410   9.087540
    24  H    3.180398   2.134543   1.007633   6.770331   7.418173
    25  H    7.578736   7.941993   7.102634   1.089632   2.141772
    26  H    7.946150   8.044667   6.978602   1.091990   2.150519
    27  H    8.175436   8.108310   7.132836   2.151961   1.091361
    28  H    7.797579   7.983349   7.229416   2.143387   1.090193
    29  H    9.739922  10.017631   9.174592   2.717114   2.084427
    30  H   10.153869  10.260082   9.382691   3.391594   2.095378
    31  H   10.018053  10.102223   9.095660   2.731213   2.086921
                   16         17         18         19         20
    16  N    0.000000
    17  H    4.450344   0.000000
    18  H    5.953482   2.780718   0.000000
    19  H    8.361890   4.182931   3.540514   0.000000
    20  H    6.478666   3.311063   2.711543   4.844747   0.000000
    21  H    7.500336   3.475878   3.032667   3.604710   1.749991
    22  H    8.267214   5.794287   4.047897   6.402886   2.718840
    23  H   10.568260   7.246840   4.743721   5.215610   5.315067
    24  H    8.864917   5.023921   2.964057   2.795965   3.806395
    25  H    2.724874   3.543546   4.715950   7.490262   4.243770
    26  H    2.734154   2.325382   4.455126   6.505519   4.268860
    27  H    2.109196   2.956923   4.185102   6.426161   5.370981
    28  H    2.121982   3.964892   4.438606   7.395552   5.327870
    29  H    1.020032   5.039665   6.439572   9.051499   6.640883
    30  H    1.021018   5.150329   6.472669   8.844644   7.292472
    31  H    1.020246   4.344017   6.270605   8.322565   6.672959
                   21         22         23         24         25
    21  H    0.000000
    22  H    3.722785   0.000000
    23  H    4.972244   4.182715   0.000000
    24  H    2.981577   4.173352   2.551151   0.000000
    25  H    5.569193   5.953327   8.923239   7.380747   0.000000
    26  H    5.088536   6.564333   8.973733   7.024767   1.774815
    27  H    6.130596   7.240113   8.875866   7.065705   3.045541
    28  H    6.508837   6.671728   8.801845   7.394053   2.474456
    29  H    7.824032   8.274834  10.918677   9.336525   2.524744
    30  H    8.285927   8.972467  11.062060   9.411347   3.661943
    31  H    7.531549   8.706793  10.964382   9.087000   3.064963
                   26         27         28         29         30
    26  H    0.000000
    27  H    2.487192   0.000000
    28  H    3.046026   1.759420   0.000000
    29  H    3.052619   2.967780   2.448883   0.000000
    30  H    3.678518   2.430639   2.436463   1.643701   0.000000
    31  H    2.549139   2.427175   2.978322   1.645565   1.644208
                   31
    31  H    0.000000
 Symmetry turned off by external request.
 Stoichiometry    C9H15N4O3(1+)
 Framework group  C1[X(C9H15N4O3)]
 Deg. of freedom    87
 Full point group                 C1      NOp   1
 Rotational constants (GHZ):      0.8514921      0.2642997      0.2133469
 Standard basis: 6-31G(d,p) (6D, 7F)
   315 basis functions,   553 primitive gaussians,   315 cartesian basis functions
    60 alpha electrons       60 beta electrons
       nuclear repulsion energy      1124.7477579563 Hartrees.
 NAtoms=   31 NActive=   31 NUniq=   31 SFac= 1.00D+00 NAtFMM=   60 NAOKFM=F Big=F
 Integral buffers will be    131072 words long.
 Raffenetti 2 integral format.
 Two-electron integral symmetry is turned off.
 One-electron integrals computed using PRISM.
 NBasis=   315 RedAO= T EigKep=  1.21D-03  NBF=   315
 NBsUse=   315 1.00D-06 EigRej= -1.00D+00 NBFU=   315
 ExpMin= 1.61D-01 ExpMax= 5.48D+03 ExpMxC= 8.25D+02 IAcc=3 IRadAn=         5 AccDes= 0.00D+00
 Harris functional with IExCor=  402 and IRadAn=       5 diagonalized for initial guess.
 HarFok:  IExCor=  402 AccDes= 0.00D+00 IRadAn=         5 IDoV= 1 UseB2=F ITyADJ=14
 ICtDFT=  3500011 ScaDFX=  1.000000  1.000000  1.000000  1.000000
 FoFCou: FMM=F IPFlag=           0 FMFlag=      100000 FMFlg1=           0
         NFxFlg=           0 DoJE=T BraDBF=F KetDBF=T FulRan=T
         wScrn=  0.000000 ICntrl=     500 IOpCl=  0 I1Cent=   200000004 NGrid=           0
         NMat0=    1 NMatS0=      1 NMatT0=    0 NMatD0=    1 NMtDS0=    0 NMtDT0=    0
 Symmetry not used in FoFCou.
 Requested convergence on RMS density matrix=1.00D-08 within 128 cycles.
 Requested convergence on MAX density matrix=1.00D-06.
 Requested convergence on             energy=1.00D-06.
 No special actions if energy rises.
 Integral accuracy reduced to 1.0D-05 until final iterations.
 EnCoef did     2 forward-backward iterations
 Initial convergence to 1.0D-05 achieved.  Increase integral accuracy.
 SCF Done:  E(RB3LYP) =  -796.467751576     A.U. after   17 cycles
            NFock= 17  Conv=0.42D-08     -V/T= 2.0088
 DoSCS=F DFT=T ScalE2(SS,OS)=  1.000000  1.000000
 Range of M.O.s used for correlation:     1   315
 NBasis=   315 NAE=    60 NBE=    60 NFC=     0 NFV=     0
 NROrb=    315 NOA=    60 NOB=    60 NVA=   255 NVB=   255
 Symmetrizing basis deriv contribution to polar:
 IMax=3 JMax=2 DiffMx= 0.00D+00
 G2DrvN: will do    32 centers at a time, making    1 passes.
 Calling FoFCou, ICntrl=  3107 FMM=F I1Cent=   0 AccDes= 0.00D+00.
 End of G2Drv F.D. properties file   721 does not exist.
 End of G2Drv F.D. properties file   722 does not exist.
 End of G2Drv F.D. properties file   788 does not exist.
          IDoAtm=1111111111111111111111111111111
          Differentiating once with respect to nuclear coordinates.
          There are    96 degrees of freedom in the 1st order CPHF.  IDoFFX=6 NUNeed=     0.
     90 vectors produced by pass  0 Test12= 1.59D-14 1.04D-09 XBig12= 1.74D-01 1.06D-01.
 AX will form    90 AO Fock derivatives at one time.
     90 vectors produced by pass  1 Test12= 1.59D-14 1.04D-09 XBig12= 4.94D-02 7.06D-02.
     90 vectors produced by pass  2 Test12= 1.59D-14 1.04D-09 XBig12= 3.53D-04 3.72D-03.
     90 vectors produced by pass  3 Test12= 1.59D-14 1.04D-09 XBig12= 1.17D-06 1.34D-04.
     90 vectors produced by pass  4 Test12= 1.59D-14 1.04D-09 XBig12= 1.80D-09 4.65D-06.
     74 vectors produced by pass  5 Test12= 1.59D-14 1.04D-09 XBig12= 1.56D-12 1.34D-07.
     14 vectors produced by pass  6 Test12= 1.59D-14 1.04D-09 XBig12= 1.33D-15 2.98D-09.
 InvSVY:  IOpt=1 It=  1 EMax= 5.00D-16
 Solved reduced A of dimension   538 with    96 vectors.
 End of Minotr F.D. properties file   721 does not exist.
 End of Minotr F.D. properties file   722 does not exist.
 End of Minotr F.D. properties file   788 does not exist.

 **********************************************************************

            Population analysis using the SCF density.

 **********************************************************************

 Alpha  occ. eigenvalues --  -19.32381 -19.26981 -19.24682 -14.67855 -14.48991
 Alpha  occ. eigenvalues --  -14.44677 -14.36638 -10.44749 -10.44305 -10.42666
 Alpha  occ. eigenvalues --  -10.37314 -10.35738 -10.29677 -10.29465 -10.28136
 Alpha  occ. eigenvalues --  -10.25448  -1.23667  -1.22583  -1.17087  -1.14875
 Alpha  occ. eigenvalues --   -1.07543  -1.05665  -0.97753  -0.92988  -0.90302
 Alpha  occ. eigenvalues --   -0.85676  -0.82758  -0.80620  -0.79859  -0.76547
 Alpha  occ. eigenvalues --   -0.74092  -0.70999  -0.70694  -0.67684  -0.65479
 Alpha  occ. eigenvalues --   -0.65153  -0.64594  -0.62532  -0.60583  -0.59368
 Alpha  occ. eigenvalues --   -0.58915  -0.58551  -0.57074  -0.54595  -0.54011
 Alpha  occ. eigenvalues --   -0.53288  -0.52833  -0.50707  -0.49209  -0.48255
 Alpha  occ. eigenvalues --   -0.47359  -0.47150  -0.46290  -0.44736  -0.40632
 Alpha  occ. eigenvalues --   -0.38828  -0.38386  -0.33672  -0.32014  -0.28682
 Alpha virt. eigenvalues --   -0.17362  -0.12931  -0.11334  -0.10922  -0.10471
 Alpha virt. eigenvalues --   -0.07216  -0.03713  -0.03467  -0.03266  -0.02773
 Alpha virt. eigenvalues --   -0.01324   0.00083   0.00938   0.01863   0.02259
 Alpha virt. eigenvalues --    0.03902   0.05032   0.05503   0.05859   0.07209
 Alpha virt. eigenvalues --    0.09508   0.10568   0.11530   0.12440   0.15232
 Alpha virt. eigenvalues --    0.16318   0.17453   0.18679   0.21005   0.22656
 Alpha virt. eigenvalues --    0.24608   0.26809   0.27797   0.31850   0.32410
 Alpha virt. eigenvalues --    0.33072   0.33772   0.35986   0.37320   0.41210
 Alpha virt. eigenvalues --    0.41998   0.43212   0.44228   0.45144   0.46127
 Alpha virt. eigenvalues --    0.46912   0.48214   0.49009   0.49604   0.51547
 Alpha virt. eigenvalues --    0.52650   0.53031   0.54538   0.56362   0.56989
 Alpha virt. eigenvalues --    0.57284   0.57541   0.58093   0.58501   0.59157
 Alpha virt. eigenvalues --    0.59728   0.60614   0.61465   0.63169   0.64103
 Alpha virt. eigenvalues --    0.64947   0.66461   0.67839   0.68661   0.69679
 Alpha virt. eigenvalues --    0.70370   0.70893   0.71987   0.73572   0.74236
 Alpha virt. eigenvalues --    0.74502   0.75048   0.76183   0.76383   0.76996
 Alpha virt. eigenvalues --    0.77754   0.78891   0.80607   0.80937   0.82655
 Alpha virt. eigenvalues --    0.83625   0.84776   0.86005   0.86262   0.90787
 Alpha virt. eigenvalues --    0.92123   0.94067   0.94764   0.95543   0.98908
 Alpha virt. eigenvalues --    1.01546   1.02812   1.04647   1.06205   1.06714
 Alpha virt. eigenvalues --    1.09136   1.14700   1.17247   1.19336   1.20207
 Alpha virt. eigenvalues --    1.21044   1.23874   1.24908   1.26673   1.27267
 Alpha virt. eigenvalues --    1.28480   1.29147   1.32745   1.35049   1.36415
 Alpha virt. eigenvalues --    1.38599   1.38891   1.41996   1.42113   1.43120
 Alpha virt. eigenvalues --    1.43952   1.45215   1.47262   1.50353   1.52275
 Alpha virt. eigenvalues --    1.55502   1.57114   1.59292   1.61405   1.64561
 Alpha virt. eigenvalues --    1.65796   1.66170   1.66926   1.67629   1.68368
 Alpha virt. eigenvalues --    1.69213   1.71053   1.71662   1.74836   1.75687
 Alpha virt. eigenvalues --    1.76983   1.77688   1.79151   1.79431   1.80458
 Alpha virt. eigenvalues --    1.81962   1.83219   1.85563   1.87071   1.87853
 Alpha virt. eigenvalues --    1.88600   1.91454   1.94221   1.94662   1.95284
 Alpha virt. eigenvalues --    1.96875   1.97424   2.00168   2.00817   2.02174
 Alpha virt. eigenvalues --    2.03466   2.05017   2.06336   2.06994   2.08181
 Alpha virt. eigenvalues --    2.09186   2.11358   2.12531   2.15622   2.16802
 Alpha virt. eigenvalues --    2.17476   2.19037   2.19862   2.20631   2.23124
 Alpha virt. eigenvalues --    2.26075   2.27575   2.28801   2.31224   2.32073
 Alpha virt. eigenvalues --    2.34499   2.36629   2.37676   2.38898   2.39943
 Alpha virt. eigenvalues --    2.41298   2.41835   2.43474   2.45784   2.46765
 Alpha virt. eigenvalues --    2.47614   2.49266   2.52065   2.52604   2.53061
 Alpha virt. eigenvalues --    2.54272   2.55421   2.55978   2.57875   2.58960
 Alpha virt. eigenvalues --    2.60191   2.60927   2.63288   2.63747   2.67348
 Alpha virt. eigenvalues --    2.68240   2.69794   2.70506   2.71420   2.72686
 Alpha virt. eigenvalues --    2.73617   2.76889   2.77185   2.79450   2.80514
 Alpha virt. eigenvalues --    2.83489   2.86101   2.88853   2.91660   2.93324
 Alpha virt. eigenvalues --    2.94904   2.97495   2.97985   3.06727   3.09410
 Alpha virt. eigenvalues --    3.10584   3.13786   3.16929   3.21658   3.22618
 Alpha virt. eigenvalues --    3.24188   3.26403   3.27711   3.31545   3.37427
 Alpha virt. eigenvalues --    3.39886   3.42753   3.50732   3.63551   3.85353
 Alpha virt. eigenvalues --    3.89188   3.94052   4.00427   4.02765   4.07971
 Alpha virt. eigenvalues --    4.15394   4.16687   4.18247   4.33184   4.35782
 Alpha virt. eigenvalues --    4.39884   4.43412   4.54291   4.61902   4.70887
          Condensed to atoms (all electrons):
               1          2          3          4          5          6
     1  O    8.056221   0.576038  -0.103883   0.006421   0.000624   0.000000
     2  C    0.576038   4.368688   0.268992  -0.028701   0.006278  -0.000047
     3  N   -0.103883   0.268992   7.101612   0.200031  -0.025040   0.001875
     4  C    0.006421  -0.028701   0.200031   5.154147   0.289122  -0.092209
     5  C    0.000624   0.006278  -0.025040   0.289122   4.385653   0.259721
     6  O    0.000000  -0.000047   0.001875  -0.092209   0.259721   8.105332
     7  O   -0.000005   0.000489  -0.016276  -0.076678   0.569708  -0.082571
     8  C   -0.003089  -0.005940  -0.043607   0.299952  -0.025591   0.005495
     9  C   -0.000631   0.000115   0.003522  -0.039166  -0.001758  -0.000753
    10  C    0.000135   0.000018  -0.000117  -0.000709   0.000079   0.000031
    11  N    0.000000   0.000001   0.000000  -0.000083  -0.000001  -0.000006
    12  C    0.000000   0.000000   0.000000   0.000302  -0.000032   0.000133
    13  N    0.000004   0.000004   0.000132  -0.000930  -0.000874  -0.011982
    14  C   -0.077532   0.303406  -0.120363   0.007207  -0.000183   0.000000
    15  C   -0.003506  -0.024565  -0.005535  -0.000053   0.000007   0.000000
    16  N   -0.000013   0.001388  -0.000025   0.000001   0.000000   0.000000
    17  H    0.002855  -0.017514   0.317191  -0.039408  -0.007726   0.000767
    18  H    0.008588  -0.000396  -0.051525   0.387988  -0.031256   0.000969
    19  H    0.000000   0.000004  -0.000153   0.009306  -0.009493   0.277183
    20  H    0.005435   0.003524  -0.011123  -0.033621   0.002698   0.000098
    21  H    0.000131   0.000310   0.002261  -0.055290  -0.003528   0.000613
    22  H    0.000083  -0.000005   0.000002   0.000014  -0.000002   0.000000
    23  H    0.000000   0.000000   0.000000  -0.000001   0.000001  -0.000007
    24  H    0.000000  -0.000001  -0.000023  -0.000601   0.001247   0.022949
    25  H    0.003357  -0.016144   0.003078  -0.000101   0.000000   0.000000
    26  H    0.002478  -0.020929   0.006809   0.000072  -0.000045   0.000000
    27  H   -0.000123  -0.001082   0.004033  -0.000109  -0.000006   0.000000
    28  H    0.006137   0.001367   0.000649  -0.000005  -0.000001   0.000000
    29  H    0.000011  -0.000009   0.000003   0.000000   0.000000   0.000000
    30  H    0.000003  -0.000012   0.000004   0.000000   0.000000   0.000000
    31  H    0.000003  -0.000013   0.000016   0.000000   0.000000   0.000000
               7          8          9         10         11         12
     1  O   -0.000005  -0.003089  -0.000631   0.000135   0.000000   0.000000
     2  C    0.000489  -0.005940   0.000115   0.000018   0.000001   0.000000
     3  N   -0.016276  -0.043607   0.003522  -0.000117   0.000000   0.000000
     4  C   -0.076678   0.299952  -0.039166  -0.000709  -0.000083   0.000302
     5  C    0.569708  -0.025591  -0.001758   0.000079  -0.000001  -0.000032
     6  O   -0.082571   0.005495  -0.000753   0.000031  -0.000006   0.000133
     7  O    8.020618  -0.000396   0.000124   0.000001   0.000000   0.000000
     8  C   -0.000396   5.104810   0.325362  -0.052299   0.006952   0.006145
     9  C    0.000124   0.325362   4.782663   0.569868  -0.046384  -0.094140
    10  C    0.000001  -0.052299   0.569868   4.847196   0.426944  -0.117297
    11  N    0.000000   0.006952  -0.046384   0.426944   6.673677   0.535833
    12  C    0.000000   0.006145  -0.094140  -0.117297   0.535833   4.670023
    13  N   -0.000025  -0.071783   0.349542  -0.073374  -0.086802   0.355264
    14  C   -0.000068  -0.000430  -0.000004   0.000000   0.000000   0.000000
    15  C    0.000002  -0.000008   0.000000   0.000000   0.000000   0.000000
    16  N    0.000000   0.000000   0.000000   0.000000   0.000000   0.000000
    17  H    0.034688   0.003458  -0.000153   0.000001   0.000000   0.000000
    18  H    0.000938  -0.046649   0.007071   0.001886  -0.000155  -0.000201
    19  H    0.007850  -0.000231  -0.000071  -0.000002   0.000000  -0.000001
    20  H   -0.000107   0.386255  -0.027617  -0.004122   0.000038  -0.000070
    21  H    0.000303   0.368537  -0.026207   0.000607  -0.000144   0.000182
    22  H    0.000000  -0.001894  -0.058451   0.393088  -0.040497   0.007193
    23  H    0.000000  -0.000191   0.003123   0.007237  -0.036381   0.393011
    24  H    0.000150  -0.003767  -0.029267   0.008787   0.004595  -0.021629
    25  H    0.000000   0.000026  -0.000001   0.000000   0.000000   0.000000
    26  H   -0.000010   0.000020   0.000001   0.000000   0.000000   0.000000
    27  H    0.000000   0.000005   0.000000   0.000000   0.000000   0.000000
    28  H    0.000000   0.000000   0.000000   0.000000   0.000000   0.000000
    29  H    0.000000   0.000000   0.000000   0.000000   0.000000   0.000000
    30  H    0.000000   0.000000   0.000000   0.000000   0.000000   0.000000
    31  H    0.000000   0.000000   0.000000   0.000000   0.000000   0.000000
              13         14         15         16         17         18
     1  O    0.000004  -0.077532  -0.003506  -0.000013   0.002855   0.008588
     2  C    0.000004   0.303406  -0.024565   0.001388  -0.017514  -0.000396
     3  N    0.000132  -0.120363  -0.005535  -0.000025   0.317191  -0.051525
     4  C   -0.000930   0.007207  -0.000053   0.000001  -0.039408   0.387988
     5  C   -0.000874  -0.000183   0.000007   0.000000  -0.007726  -0.031256
     6  O   -0.011982   0.000000   0.000000   0.000000   0.000767   0.000969
     7  O   -0.000025  -0.000068   0.000002   0.000000   0.034688   0.000938
     8  C   -0.071783  -0.000430  -0.000008   0.000000   0.003458  -0.046649
     9  C    0.349542  -0.000004   0.000000   0.000000  -0.000153   0.007071
    10  C   -0.073374   0.000000   0.000000   0.000000   0.000001   0.001886
    11  N   -0.086802   0.000000   0.000000   0.000000   0.000000  -0.000155
    12  C    0.355264   0.000000   0.000000   0.000000   0.000000  -0.000201
    13  N    6.800337   0.000000   0.000000   0.000000   0.000000   0.000565
    14  C    0.000000   5.234055   0.333387  -0.044721  -0.000824   0.000484
    15  C    0.000000   0.333387   5.036115   0.172219  -0.000065   0.000066
    16  N    0.000000  -0.044721   0.172219   6.474926  -0.000023   0.000000
    17  H    0.000000  -0.000824  -0.000065  -0.000023   0.426955   0.003902
    18  H    0.000565   0.000484   0.000066   0.000000   0.003902   0.537836
    19  H    0.000386   0.000000   0.000000   0.000000  -0.000084  -0.000297
    20  H    0.003760  -0.000108   0.000003   0.000000   0.000113  -0.001267
    21  H   -0.002059   0.000028   0.000000   0.000000   0.000008   0.005318
    22  H    0.004804   0.000000   0.000000   0.000000   0.000000   0.000017
    23  H   -0.056921   0.000000   0.000000   0.000000   0.000000   0.000003
    24  H    0.326470   0.000000   0.000000   0.000000  -0.000004   0.000304
    25  H    0.000000   0.372078  -0.037966  -0.003987   0.000039  -0.000022
    26  H    0.000000   0.356742  -0.040030  -0.004108   0.000297  -0.000001
    27  H    0.000000  -0.036423   0.389194  -0.033129   0.000453  -0.000042
    28  H    0.000000  -0.039194   0.388959  -0.031820  -0.000066  -0.000002
    29  H    0.000000  -0.000564  -0.022907   0.332502   0.000000   0.000000
    30  H    0.000000   0.003579  -0.017971   0.332701   0.000000   0.000000
    31  H    0.000000  -0.000586  -0.021932   0.332274  -0.000001   0.000000
              19         20         21         22         23         24
     1  O    0.000000   0.005435   0.000131   0.000083   0.000000   0.000000
     2  C    0.000004   0.003524   0.000310  -0.000005   0.000000  -0.000001
     3  N   -0.000153  -0.011123   0.002261   0.000002   0.000000  -0.000023
     4  C    0.009306  -0.033621  -0.055290   0.000014  -0.000001  -0.000601
     5  C   -0.009493   0.002698  -0.003528  -0.000002   0.000001   0.001247
     6  O    0.277183   0.000098   0.000613   0.000000  -0.000007   0.022949
     7  O    0.007850  -0.000107   0.000303   0.000000   0.000000   0.000150
     8  C   -0.000231   0.386255   0.368537  -0.001894  -0.000191  -0.003767
     9  C   -0.000071  -0.027617  -0.026207  -0.058451   0.003123  -0.029267
    10  C   -0.000002  -0.004122   0.000607   0.393088   0.007237   0.008787
    11  N    0.000000   0.000038  -0.000144  -0.040497  -0.036381   0.004595
    12  C   -0.000001  -0.000070   0.000182   0.007193   0.393011  -0.021629
    13  N    0.000386   0.003760  -0.002059   0.004804  -0.056921   0.326470
    14  C    0.000000  -0.000108   0.000028   0.000000   0.000000   0.000000
    15  C    0.000000   0.000003   0.000000   0.000000   0.000000   0.000000
    16  N    0.000000   0.000000   0.000000   0.000000   0.000000   0.000000
    17  H   -0.000084   0.000113   0.000008   0.000000   0.000000  -0.000004
    18  H   -0.000297  -0.001267   0.005318   0.000017   0.000003   0.000304
    19  H    0.366808   0.000009  -0.000171   0.000000   0.000001  -0.000529
    20  H    0.000009   0.550792  -0.028791   0.003125   0.000004  -0.000048
    21  H   -0.000171  -0.028791   0.604433  -0.000021  -0.000001   0.000592
    22  H    0.000000   0.003125  -0.000021   0.598391  -0.000157  -0.000112
    23  H    0.000001   0.000004  -0.000001  -0.000157   0.569094   0.000249
    24  H   -0.000529  -0.000048   0.000592  -0.000112   0.000249   0.416513
    25  H    0.000000   0.000039  -0.000002   0.000000   0.000000   0.000000
    26  H    0.000000  -0.000032  -0.000003   0.000000   0.000000   0.000000
    27  H    0.000000   0.000001   0.000000   0.000000   0.000000   0.000000
    28  H    0.000000  -0.000001   0.000000   0.000000   0.000000   0.000000
    29  H    0.000000   0.000000   0.000000   0.000000   0.000000   0.000000
    30  H    0.000000   0.000000   0.000000   0.000000   0.000000   0.000000
    31  H    0.000000   0.000000   0.000000   0.000000   0.000000   0.000000
              25         26         27         28         29         30
     1  O    0.003357   0.002478  -0.000123   0.006137   0.000011   0.000003
     2  C   -0.016144  -0.020929  -0.001082   0.001367  -0.000009  -0.000012
     3  N    0.003078   0.006809   0.004033   0.000649   0.000003   0.000004
     4  C   -0.000101   0.000072  -0.000109  -0.000005   0.000000   0.000000
     5  C    0.000000  -0.000045  -0.000006  -0.000001   0.000000   0.000000
     6  O    0.000000   0.000000   0.000000   0.000000   0.000000   0.000000
     7  O    0.000000  -0.000010   0.000000   0.000000   0.000000   0.000000
     8  C    0.000026   0.000020   0.000005   0.000000   0.000000   0.000000
     9  C   -0.000001   0.000001   0.000000   0.000000   0.000000   0.000000
    10  C    0.000000   0.000000   0.000000   0.000000   0.000000   0.000000
    11  N    0.000000   0.000000   0.000000   0.000000   0.000000   0.000000
    12  C    0.000000   0.000000   0.000000   0.000000   0.000000   0.000000
    13  N    0.000000   0.000000   0.000000   0.000000   0.000000   0.000000
    14  C    0.372078   0.356742  -0.036423  -0.039194  -0.000564   0.003579
    15  C   -0.037966  -0.040030   0.389194   0.388959  -0.022907  -0.017971
    16  N   -0.003987  -0.004108  -0.033129  -0.031820   0.332502   0.332701
    17  H    0.000039   0.000297   0.000453  -0.000066   0.000000   0.000000
    18  H   -0.000022  -0.000001  -0.000042  -0.000002   0.000000   0.000000
    19  H    0.000000   0.000000   0.000000   0.000000   0.000000   0.000000
    20  H    0.000039  -0.000032   0.000001  -0.000001   0.000000   0.000000
    21  H   -0.000002  -0.000003   0.000000   0.000000   0.000000   0.000000
    22  H    0.000000   0.000000   0.000000   0.000000   0.000000   0.000000
    23  H    0.000000   0.000000   0.000000   0.000000   0.000000   0.000000
    24  H    0.000000   0.000000   0.000000   0.000000   0.000000   0.000000
    25  H    0.530215  -0.026783   0.004856  -0.003770   0.004686   0.000029
    26  H   -0.026783   0.580924  -0.004600   0.005271  -0.000312   0.000055
    27  H    0.004856  -0.004600   0.507449  -0.024175   0.004027  -0.001998
    28  H   -0.003770   0.005271  -0.024175   0.477172  -0.002826  -0.001469
    29  H    0.004686  -0.000312   0.004027  -0.002826   0.342719  -0.014493
    30  H    0.000029   0.000055  -0.001998  -0.001469  -0.014493   0.337968
    31  H   -0.000283   0.004704  -0.003335   0.003726  -0.016196  -0.014695
              31
     1  O    0.000003
     2  C   -0.000013
     3  N    0.000016
     4  C    0.000000
     5  C    0.000000
     6  O    0.000000
     7  O    0.000000
     8  C    0.000000
     9  C    0.000000
    10  C    0.000000
    11  N    0.000000
    12  C    0.000000
    13  N    0.000000
    14  C   -0.000586
    15  C   -0.021932
    16  N    0.332274
    17  H   -0.000001
    18  H    0.000000
    19  H    0.000000
    20  H    0.000000
    21  H    0.000000
    22  H    0.000000
    23  H    0.000000
    24  H    0.000000
    25  H   -0.000283
    26  H    0.004704
    27  H   -0.003335
    28  H    0.003726
    29  H   -0.016196
    30  H   -0.014695
    31  H    0.346423
 Mulliken charges:
               1
     1  O   -0.479740
     2  C    0.584739
     3  N   -0.532543
     4  C    0.013102
     5  C    0.590395
     6  O   -0.487588
     7  O   -0.458734
     8  C   -0.251142
     9  C    0.283215
    10  C   -0.007957
    11  N   -0.437587
    12  C    0.265285
    13  N   -0.536519
    14  C   -0.289968
    15  C   -0.145414
    16  N   -0.528186
    17  H    0.275141
    18  H    0.175879
    19  H    0.349487
    20  H    0.151014
    21  H    0.132896
    22  H    0.094423
    23  H    0.120937
    24  H    0.274125
    25  H    0.170655
    26  H    0.139478
    27  H    0.195005
    28  H    0.220047
    29  H    0.373360
    30  H    0.376300
    31  H    0.369895
 Sum of Mulliken charges =   1.00000
 Mulliken charges with hydrogens summed into heavy atoms:
               1
     1  O   -0.479740
     2  C    0.584739
     3  N   -0.257401
     4  C    0.188981
     5  C    0.590395
     6  O   -0.138101
     7  O   -0.458734
     8  C    0.032768
     9  C    0.283215
    10  C    0.086466
    11  N   -0.437587
    12  C    0.386222
    13  N   -0.262394
    14  C    0.020166
    15  C    0.269638
    16  N    0.591369
 APT charges:
               1
     1  O   -0.343688
     2  C    0.197949
     3  N   -0.680328
     4  C   -0.254333
     5  C   -0.186007
     6  O   -0.857828
     7  O    0.096426
     8  C   -0.864841
     9  C   -0.481783
    10  C   -0.236193
    11  N    0.161739
    12  C   -0.455003
    13  N   -0.649478
    14  C   -0.774069
    15  C   -0.060927
    16  N   -1.991467
    17  H    0.555564
    18  H    0.287826
    19  H    1.067203
    20  H    0.268506
    21  H    0.505023
    22  H    0.375722
    23  H    1.001000
    24  H    0.405680
    25  H    0.516689
    26  H    0.363298
    27  H    0.174472
    28  H    0.294172
    29  H    0.806771
    30  H    1.096482
    31  H    0.661422
 Sum of APT charges =   1.00000
 APT charges with hydrogens summed into heavy atoms:
               1
     1  O   -0.343688
     2  C    0.197949
     3  N   -0.124764
     4  C    0.033493
     5  C   -0.186007
     6  O    0.209375
     7  O    0.096426
     8  C   -0.091312
     9  C   -0.481783
    10  C    0.139528
    11  N    0.161739
    12  C    0.545997
    13  N   -0.243798
    14  C    0.105918
    15  C    0.407718
    16  N    0.573209
 Electronic spatial extent (au):  <R**2>=           5042.3990
 Charge=              1.0000 electrons
 Dipole moment (field-independent basis, Debye):
    X=            -20.6431    Y=              6.9084    Z=             -1.8805  Tot=             21.8495
 Quadrupole moment (field-independent basis, Debye-Ang):
   XX=             18.8990   YY=            -83.4842   ZZ=            -91.2320
   XY=             -4.2968   XZ=            -34.3785   YZ=              5.7986
 Traceless Quadrupole moment (field-independent basis, Debye-Ang):
   XX=             70.8380   YY=            -31.5451   ZZ=            -39.2929
   XY=             -4.2968   XZ=            -34.3785   YZ=              5.7986
 Octapole moment (field-independent basis, Debye-Ang**2):
  XXX=           -710.7808  YYY=             42.1493  ZZZ=            -10.0300  XYY=            -90.4436
  XXY=            170.0803  XXZ=             24.0820  XZZ=            -84.6204  YZZ=             29.0026
  YYZ=              0.2590  XYZ=            -15.4834
 Hexadecapole moment (field-independent basis, Debye-Ang**3):
 XXXX=          -1812.0889 YYYY=           -625.7226 ZZZZ=          -1005.1234 XXXY=            163.1479
 XXXZ=           -654.0055 YYYX=            341.0269 YYYZ=            210.2974 ZZZX=           -141.1679
 ZZZY=            232.2481 XXYY=           -783.6339 XXZZ=           -851.1448 YYZZ=           -257.6959
 XXYZ=            191.6323 YYXZ=            -79.0320 ZZXY=            179.9358
 N-N= 1.124747757956D+03 E-N=-4.091874251600D+03  KE= 7.895359313945D+02
  Exact polarizability:   0.000   0.000   0.000   0.000   0.000   0.000
 Approx polarizability: 197.972   8.688 148.168  22.931 -38.103 190.002
 Calling FoFJK, ICntrl=    100147 FMM=F ISym2X=0 I1Cent= 0 IOpClX= 0 NMat=1 NMatS=1 NMatT=0.
 -------------------------------------------------------------------
 Center     Atomic                   Forces (Hartrees/Bohr)
 Number     Number              X              Y              Z
 -------------------------------------------------------------------
      1        8          -0.008282336   -0.000838544    0.005643775
      2        6           0.020290646    0.003316985   -0.002670740
      3        7          -0.009169943    0.002696170    0.001194696
      4        6          -0.005633811   -0.000482746    0.001697548
      5        6           0.011760350   -0.002560972    0.006633647
      6        8          -0.005396805   -0.000388174    0.001531644
      7        8          -0.011688886    0.005564282   -0.009693498
      8        6           0.007157851   -0.001230486    0.006145689
      9        6          -0.007987861   -0.002025460   -0.002352332
     10        6           0.008737249   -0.002509607    0.008516187
     11        7          -0.004214950   -0.005937010    0.002863702
     12        6          -0.001272109   -0.000541850    0.001148706
     13        7           0.004852794    0.006380268   -0.007779586
     14        6          -0.015941472   -0.001503542   -0.002454280
     15        6           0.028896612    0.001258443   -0.000123226
     16        7          -0.007391456    0.002778894    0.001996965
     17        1          -0.000778887   -0.000346141   -0.006109846
     18        1           0.004057068   -0.001620398    0.000968511
     19        1           0.002712014    0.001890047   -0.003684488
     20        1          -0.001119411   -0.000474112    0.000478461
     21        1           0.000015689   -0.000608780   -0.005306422
     22        1           0.000063936   -0.000514650    0.000122530
     23        1           0.004128304    0.001845834    0.001691710
     24        1           0.002831000    0.000459615   -0.000790603
     25        1           0.000904441   -0.004892375    0.000466293
     26        1          -0.000390753   -0.002299239   -0.003237033
     27        1          -0.005257221    0.003435311   -0.000340835
     28        1          -0.005364429    0.000979804    0.003515145
     29        1          -0.002498124   -0.005092526    0.002734681
     30        1          -0.001925106    0.004420740    0.002249603
     31        1          -0.002094395   -0.001159778   -0.005056602
 -------------------------------------------------------------------
 Cartesian Forces:  Max     0.028896612 RMS     0.005848877
 FormGI is forming the generalized inverse of G from B-inverse, IUseBI=4.

 GradGradGradGradGradGradGradGradGradGradGradGradGradGradGradGradGradGrad
 Berny optimization.
 Internal  Forces:  Max     0.016103880 RMS     0.004130831
 Search for a local minimum.
 Step number   1 out of a maximum of  167
 All quantities printed in internal units (Hartrees-Bohrs-Radians)
 Mixed Optimization -- RFO/linear search
 Second derivative matrix not updated -- analytic derivatives used.
 ITU=  0
     Eigenvalues ---   -0.00128   0.00138   0.00200   0.00220   0.00293
     Eigenvalues ---    0.00343   0.00617   0.00678   0.00782   0.01005
     Eigenvalues ---    0.02048   0.02058   0.02154   0.02609   0.03513
     Eigenvalues ---    0.03750   0.04011   0.04090   0.04267   0.04332
     Eigenvalues ---    0.04500   0.04627   0.04978   0.05066   0.05096
     Eigenvalues ---    0.05328   0.05731   0.06168   0.06394   0.07500
     Eigenvalues ---    0.07894   0.08016   0.10370   0.10589   0.11081
     Eigenvalues ---    0.11630   0.11868   0.12343   0.12924   0.13110
     Eigenvalues ---    0.13553   0.15106   0.15608   0.15974   0.16598
     Eigenvalues ---    0.18745   0.19096   0.20394   0.21285   0.21873
     Eigenvalues ---    0.23231   0.23282   0.23640   0.25078   0.25251
     Eigenvalues ---    0.27222   0.29175   0.31352   0.31450   0.33018
     Eigenvalues ---    0.33898   0.34331   0.34600   0.34716   0.34913
     Eigenvalues ---    0.35161   0.35481   0.35533   0.36886   0.37674
     Eigenvalues ---    0.38197   0.38607   0.41851   0.42491   0.44100
     Eigenvalues ---    0.44284   0.44804   0.45413   0.47378   0.47470
     Eigenvalues ---    0.47930   0.49233   0.52113   0.58492   0.60480
     Eigenvalues ---    0.84778   0.94189
 RFO step:  Lambda=-1.11670687D-02 EMin=-1.27715613D-03
 Linear search not attempted -- first point.
 Iteration  1 RMS(Cart)=  0.14780071 RMS(Int)=  0.04153660
 Iteration  2 RMS(Cart)=  0.12060534 RMS(Int)=  0.00635613
 Iteration  3 RMS(Cart)=  0.01225425 RMS(Int)=  0.00047336
 Iteration  4 RMS(Cart)=  0.00012781 RMS(Int)=  0.00047089
 Iteration  5 RMS(Cart)=  0.00000017 RMS(Int)=  0.00047089
 Variable       Old X    -DE/DX   Delta X   Delta X   Delta X     New X
                                 (Linear)    (Quad)   (Total)
    R1        2.30979   0.00097   0.00000   0.00507   0.00507   2.31486
    R2        2.56802   0.00168   0.00000  -0.02178  -0.02178   2.54624
    R3        2.86328   0.01107   0.00000   0.04565   0.04565   2.90892
    R4        2.74456   0.00858   0.00000   0.01619   0.01619   2.76075
    R5        1.90584   0.00496   0.00000   0.01027   0.01027   1.91611
    R6        2.86002   0.00606   0.00000   0.01885   0.01885   2.87887
    R7        2.92806   0.01100   0.00000   0.02938   0.02938   2.95744
    R8        2.07145   0.00081   0.00000   0.00152   0.00152   2.07297
    R9        2.55465  -0.00220   0.00000  -0.01304  -0.01304   2.54161
   R10        2.27296   0.01610   0.00000   0.01788   0.01788   2.29084
   R11        1.83216   0.00440   0.00000   0.00791   0.00791   1.84007
   R12        2.81762   0.00774   0.00000   0.00589   0.00589   2.82351
   R13        2.05699   0.00120   0.00000   0.00498   0.00498   2.06197
   R14        2.05964   0.00512   0.00000   0.01396   0.01396   2.07360
   R15        2.58076   0.01066   0.00000   0.01919   0.01921   2.59997
   R16        2.59022   0.01169   0.00000   0.02494   0.02497   2.61519
   R17        2.61600  -0.00503   0.00000  -0.01870  -0.01872   2.59728
   R18        2.04211   0.00039   0.00000   0.00195   0.00195   2.04406
   R19        2.47712   0.00436   0.00000   0.00788   0.00785   2.48496
   R20        2.57044   0.00696   0.00000   0.01143   0.01143   2.58187
   R21        2.03175   0.00457   0.00000   0.01124   0.01124   2.04299
   R22        1.90415   0.00097   0.00000   0.00244   0.00244   1.90659
   R23        2.87894   0.00577   0.00000   0.00082   0.00082   2.87976
   R24        2.05911   0.00377   0.00000   0.01187   0.01187   2.07098
   R25        2.06356   0.00342   0.00000   0.00512   0.00512   2.06869
   R26        2.80953   0.01384   0.00000   0.06335   0.06335   2.87288
   R27        2.06237   0.00113   0.00000   0.00183   0.00183   2.06421
   R28        2.06017   0.00175   0.00000   0.00351   0.00351   2.06367
   R29        1.92758   0.00627   0.00000   0.01210   0.01210   1.93968
   R30        1.92945   0.00532   0.00000   0.00991   0.00991   1.93936
   R31        1.92799   0.00553   0.00000   0.01038   0.01038   1.93836
    A1        2.13113   0.01121   0.00000   0.05109   0.05108   2.18221
    A2        2.13940  -0.01182   0.00000  -0.07282  -0.07282   2.06658
    A3        2.01244   0.00061   0.00000   0.02165   0.02165   2.03408
    A4        2.09611   0.00471   0.00000   0.02646   0.02546   2.12157
    A5        2.11751  -0.00053   0.00000   0.01113   0.01021   2.12772
    A6        2.02563  -0.00369   0.00000  -0.01508  -0.01617   2.00946
    A7        1.86306  -0.00902   0.00000  -0.02652  -0.02648   1.83658
    A8        1.93735   0.00500   0.00000   0.02623   0.02624   1.96359
    A9        1.87700   0.00258   0.00000   0.02422   0.02438   1.90138
   A10        1.97563   0.00450   0.00000   0.00380   0.00390   1.97953
   A11        1.89345   0.00143   0.00000   0.00170   0.00173   1.89518
   A12        1.91395  -0.00461   0.00000  -0.02821  -0.02844   1.88551
   A13        1.96695   0.00348   0.00000   0.00272   0.00272   1.96967
   A14        2.17483  -0.00314   0.00000  -0.01009  -0.01009   2.16473
   A15        2.14140  -0.00034   0.00000   0.00737   0.00737   2.14878
   A16        1.85401   0.00389   0.00000   0.01906   0.01906   1.87307
   A17        1.97123   0.01335   0.00000   0.03297   0.03299   2.00423
   A18        1.88012  -0.00462   0.00000  -0.02029  -0.02035   1.85976
   A19        1.92228  -0.00440   0.00000  -0.01412  -0.01439   1.90789
   A20        1.86964  -0.00421   0.00000  -0.00434  -0.00412   1.86552
   A21        1.94962  -0.00274   0.00000   0.00307   0.00309   1.95271
   A22        1.86572   0.00195   0.00000   0.00031   0.00007   1.86579
   A23        2.29073  -0.00472   0.00000  -0.01022  -0.01037   2.28035
   A24        2.15839   0.00785   0.00000   0.01946   0.01931   2.17770
   A25        1.83359  -0.00310   0.00000  -0.00840  -0.00846   1.82512
   A26        1.92995   0.00340   0.00000   0.01050   0.01051   1.94046
   A27        2.23197  -0.00151   0.00000  -0.00974  -0.00974   2.22223
   A28        2.12126  -0.00189   0.00000  -0.00076  -0.00076   2.12050
   A29        1.83408   0.00075   0.00000   0.00062   0.00054   1.83462
   A30        1.94677   0.00238   0.00000   0.00579   0.00576   1.95253
   A31        2.21083  -0.00271   0.00000  -0.01330  -0.01329   2.19755
   A32        2.12558   0.00034   0.00000   0.00751   0.00753   2.13311
   A33        1.88022  -0.00341   0.00000  -0.00822  -0.00818   1.87204
   A34        2.16723   0.00399   0.00000   0.01854   0.01852   2.18575
   A35        2.23546  -0.00058   0.00000  -0.01032  -0.01033   2.22513
   A36        1.93134  -0.00666   0.00000  -0.08326  -0.08384   1.84750
   A37        1.88064  -0.00052   0.00000  -0.02969  -0.03155   1.84908
   A38        1.93754   0.00195   0.00000   0.05636   0.05785   1.99539
   A39        1.90178   0.00287   0.00000   0.00333   0.00016   1.90194
   A40        1.91135   0.00421   0.00000   0.05609   0.05693   1.96828
   A41        1.90039  -0.00186   0.00000  -0.00408  -0.00408   1.89631
   A42        1.95089  -0.00083   0.00000   0.00275   0.00291   1.95380
   A43        1.91397   0.00380   0.00000   0.04720   0.04707   1.96105
   A44        1.90342   0.00313   0.00000   0.00659   0.00600   1.90942
   A45        1.89939  -0.00287   0.00000  -0.03749  -0.03771   1.86168
   A46        1.91828  -0.00403   0.00000  -0.04606  -0.04629   1.87199
   A47        1.87641   0.00088   0.00000   0.02829   0.02656   1.90297
   A48        1.93980   0.00013   0.00000  -0.00393  -0.00394   1.93586
   A49        1.95492  -0.00018   0.00000  -0.00676  -0.00677   1.94815
   A50        1.94324   0.00031   0.00000   0.00341   0.00341   1.94666
   A51        1.87243   0.00009   0.00000   0.00440   0.00438   1.87681
   A52        1.87655  -0.00055   0.00000  -0.00211  -0.00211   1.87444
   A53        1.87299   0.00019   0.00000   0.00548   0.00549   1.87848
    D1       -0.10391   0.00026   0.00000   0.03920   0.03966  -0.06425
    D2       -2.91907  -0.00087   0.00000  -0.03927  -0.03956  -2.95862
    D3        3.01567   0.00041   0.00000   0.03383   0.03412   3.04979
    D4        0.20052  -0.00072   0.00000  -0.04464  -0.04510   0.15541
    D5        1.40506  -0.00186   0.00000  -0.44042  -0.43904   0.96602
    D6       -0.67253  -0.00119   0.00000  -0.37846  -0.37966  -1.05219
    D7       -2.75201   0.00026   0.00000  -0.38787  -0.38785  -3.13985
    D8       -1.71441  -0.00233   0.00000  -0.43676  -0.43551  -2.14992
    D9        2.49119  -0.00167   0.00000  -0.37480  -0.37614   2.11505
   D10        0.41171  -0.00022   0.00000  -0.38421  -0.38432   0.02739
   D11       -2.81581   0.00134   0.00000  -0.02513  -0.02492  -2.84073
   D12        1.30691  -0.00134   0.00000  -0.02848  -0.02802   1.27890
   D13       -0.78674  -0.00025   0.00000  -0.02455  -0.02464  -0.81138
   D14        0.01592   0.00289   0.00000   0.05361   0.05342   0.06935
   D15       -2.14454   0.00021   0.00000   0.05026   0.05033  -2.09421
   D16        2.04499   0.00130   0.00000   0.05419   0.05371   2.09870
   D17       -3.13461  -0.00132   0.00000  -0.00503  -0.00497  -3.13958
   D18        0.00343  -0.00101   0.00000  -0.00549  -0.00544  -0.00201
   D19       -0.99799   0.00149   0.00000   0.01179   0.01183  -0.98616
   D20        2.14005   0.00180   0.00000   0.01132   0.01137   2.15141
   D21        1.13050  -0.00039   0.00000  -0.02040  -0.02049   1.11001
   D22       -2.01465  -0.00007   0.00000  -0.02086  -0.02096  -2.03560
   D23       -2.49123  -0.00115   0.00000  -0.03307  -0.03290  -2.52413
   D24       -0.43011  -0.00150   0.00000  -0.03225  -0.03224  -0.46235
   D25        1.59876  -0.00416   0.00000  -0.05096  -0.05069   1.54806
   D26        1.69725   0.00378   0.00000  -0.02032  -0.02027   1.67698
   D27       -2.52481   0.00343   0.00000  -0.01949  -0.01961  -2.54442
   D28       -0.49594   0.00077   0.00000  -0.03820  -0.03807  -0.53401
   D29       -0.41972   0.00221   0.00000  -0.00480  -0.00495  -0.42467
   D30        1.64140   0.00186   0.00000  -0.00397  -0.00429   1.63711
   D31       -2.61292  -0.00080   0.00000  -0.02269  -0.02274  -2.63566
   D32       -3.12587  -0.00056   0.00000  -0.01949  -0.01950   3.13782
   D33        0.01920  -0.00086   0.00000  -0.01900  -0.01900   0.00021
   D34        2.09828  -0.00139   0.00000  -0.03617  -0.03620   2.06208
   D35       -1.00477  -0.00254   0.00000  -0.06986  -0.06996  -1.07473
   D36        0.03104  -0.00071   0.00000  -0.02749  -0.02749   0.00355
   D37       -3.07201  -0.00186   0.00000  -0.06117  -0.06125  -3.13326
   D38       -2.00651   0.00096   0.00000  -0.02692  -0.02678  -2.03329
   D39        1.17362  -0.00019   0.00000  -0.06061  -0.06054   1.11309
   D40       -3.12471  -0.00031   0.00000  -0.01752  -0.01712   3.14136
   D41        0.01497  -0.00044   0.00000  -0.01491  -0.01466   0.00031
   D42       -0.01633   0.00089   0.00000   0.01201   0.01204  -0.00429
   D43        3.12335   0.00075   0.00000   0.01462   0.01449   3.13784
   D44        3.12901  -0.00035   0.00000   0.01141   0.01174   3.14075
   D45        0.01089  -0.00014   0.00000   0.01124   0.01147   0.02236
   D46        0.01742  -0.00115   0.00000  -0.01461  -0.01452   0.00290
   D47       -3.10070  -0.00093   0.00000  -0.01477  -0.01478  -3.11548
   D48        0.00875  -0.00033   0.00000  -0.00475  -0.00476   0.00398
   D49       -3.13107  -0.00020   0.00000  -0.00716  -0.00704  -3.13811
   D50        0.00272  -0.00035   0.00000  -0.00467  -0.00476  -0.00203
   D51       -3.13668   0.00011   0.00000  -0.00414  -0.00413  -3.14081
   D52       -0.01301   0.00094   0.00000   0.01239   0.01244  -0.00057
   D53        3.10391   0.00079   0.00000   0.01307   0.01322   3.11713
   D54        3.12652   0.00050   0.00000   0.01186   0.01181   3.13833
   D55       -0.03975   0.00035   0.00000   0.01254   0.01259  -0.02716
   D56       -3.10332   0.00221   0.00000   0.11968   0.11918  -2.98413
   D57        1.07181   0.00380   0.00000   0.13313   0.13277   1.20457
   D58       -0.97865  -0.00126   0.00000   0.06797   0.06709  -0.91156
   D59       -1.03856  -0.00061   0.00000   0.03603   0.03632  -1.00224
   D60        3.13656   0.00098   0.00000   0.04948   0.04990  -3.09672
   D61        1.08611  -0.00409   0.00000  -0.01568  -0.01578   1.07033
   D62        1.03843   0.00133   0.00000   0.06612   0.06658   1.10501
   D63       -1.06963   0.00292   0.00000   0.07957   0.08016  -0.98947
   D64       -3.12008  -0.00215   0.00000   0.01440   0.01448  -3.10560
   D65        1.03267  -0.00069   0.00000  -0.01832  -0.01816   1.01451
   D66        3.12692  -0.00060   0.00000  -0.02002  -0.01985   3.10707
   D67       -1.05892  -0.00028   0.00000  -0.01529  -0.01513  -1.07405
   D68       -3.13399   0.00160   0.00000   0.01731   0.01696  -3.11702
   D69       -1.03974   0.00169   0.00000   0.01561   0.01528  -1.02446
   D70        1.05760   0.00201   0.00000   0.02034   0.02000   1.07760
   D71       -1.08341  -0.00133   0.00000   0.00315   0.00333  -1.08009
   D72        1.01083  -0.00124   0.00000   0.00145   0.00164   1.01247
   D73        3.10818  -0.00092   0.00000   0.00618   0.00636   3.11454
         Item               Value     Threshold  Converged?
 Maximum Force            0.016104     0.000450     NO 
 RMS     Force            0.004131     0.000300     NO 
 Maximum Displacement     1.078417     0.001800     NO 
 RMS     Displacement     0.259549     0.001200     NO 
 Predicted change in Energy=-9.571197D-03
 GradGradGradGradGradGradGradGradGradGradGradGradGradGradGradGradGradGrad

                          Input orientation:                          
 ---------------------------------------------------------------------
 Center     Atomic      Atomic             Coordinates (Angstroms)
 Number     Number       Type             X           Y           Z
 ---------------------------------------------------------------------
      1          8           0       -0.928856   -0.384362    1.322694
      2          6           0       -1.370889   -0.169076    0.200727
      3          7           0       -0.623121    0.111057   -0.884582
      4          6           0        0.827205    0.262424   -0.795467
      5          6           0        1.233652    0.983159   -2.074604
      6          8           0        2.558464    1.201557   -2.152704
      7          8           0        0.454201    1.323846   -2.938295
      8          6           0        1.560829   -1.104928   -0.591997
      9          6           0        2.771574   -1.043593    0.281377
     10          6           0        3.044285   -1.661248    1.480159
     11          7           0        4.293565   -1.320985    1.941198
     12          6           0        4.780515   -0.499192    1.037469
     13          7           0        3.903049   -0.294224    0.010468
     14          6           0       -2.897086   -0.180254    0.000356
     15          6           0       -3.455324    0.827512    0.997883
     16          7           0       -4.972643    0.771024    1.073764
     17          1           0       -1.037284    0.433595   -1.752082
     18          1           0        1.066108    0.906508    0.059762
     19          1           0        2.727631    1.659163   -2.995386
     20          1           0        0.848765   -1.769703   -0.100423
     21          1           0        1.785053   -1.545771   -1.571515
     22          1           0        2.402048   -2.334036    2.032338
     23          1           0        5.752427   -0.026723    1.068155
     24          1           0        4.026606    0.303821   -0.792653
     25          1           0       -3.230648   -1.184829    0.284250
     26          1           0       -3.218479    0.017996   -1.027152
     27          1           0       -3.192599    1.856087    0.740598
     28          1           0       -3.072423    0.600990    1.995202
     29          1           0       -5.291693   -0.168584    1.336287
     30          1           0       -5.341165    1.428507    1.770274
     31          1           0       -5.403548    1.000320    0.171609
 ---------------------------------------------------------------------
                    Distance matrix (angstroms):
                    1          2          3          4          5
     1  O    0.000000
     2  C    1.224970   0.000000
     3  N    2.282757   1.347414   0.000000
     4  C    2.826426   2.451573   1.460924   0.000000
     5  C    4.253021   3.645327   2.371565   1.523434   0.000000
     6  O    5.172517   4.780908   3.594413   2.391928   1.344963
     7  O    4.794460   3.925969   2.617101   2.420219   1.212259
     8  C    3.222388   3.177923   2.516717   1.565010   2.581719
     9  C    3.900269   4.234534   3.770495   2.577954   3.467503
    10  C    4.176252   4.832938   4.709877   3.714086   4.786191
    11  N    5.341674   6.036735   5.848895   4.691713   5.549668
    12  C    5.717644   6.216822   5.767665   4.423615   4.945968
    13  N    5.007730   5.278852   4.631586   3.228035   3.620072
    14  C    2.379951   1.539334   2.457416   3.834010   4.766758
    15  C    2.820848   2.444078   3.475393   4.677123   5.608110
    16  N    4.212968   3.823430   4.815497   6.114812   6.962422
    17  H    3.183561   2.070741   1.013962   2.102553   2.358642
    18  H    2.690952   2.667528   2.092373   1.096967   2.142304
    19  H    6.015954   5.509579   4.252019   3.225236   1.880637
    20  H    2.665402   2.753100   2.513685   2.147811   3.409367
    21  H    4.134080   3.872479   3.002709   2.188446   2.636784
    22  H    3.924250   4.719841   4.861949   4.149484   5.407023
    23  H    6.695688   7.177348   6.669316   5.273946   5.596081
    24  H    5.431840   5.508483   4.654629   3.199671   3.147299
    25  H    2.649030   2.120716   3.137624   4.441452   5.494937
    26  H    3.305457   2.226269   2.600936   4.059677   4.674416
    27  H    3.237744   2.776936   3.505503   4.588908   5.317806
    28  H    2.453175   2.590051   3.812121   4.807240   5.937310
    29  H    4.368191   4.081936   5.177453   6.493924   7.452571
    30  H    4.791169   4.558382   5.571703   6.781708   7.629524
    31  H    4.823403   4.198890   4.975823   6.348386   7.007010
                    6          7          8          9         10
     6  O    0.000000
     7  O    2.249451   0.000000
     8  C    2.958201   3.553686   0.000000
     9  C    3.318263   4.619661   1.494138   0.000000
    10  C    4.650739   5.928074   2.608442   1.375844   0.000000
    11  N    5.112125   6.748725   3.732507   2.269010   1.374422
    12  C    4.243496   6.152004   3.659024   2.214473   2.135613
    13  N    2.953741   4.817459   2.550726   1.383901   2.183168
    14  C    6.025620   4.704159   4.591177   5.740908   6.299448
    15  C    6.799394   5.569941   5.605696   6.541305   6.976492
    16  N    8.204452   6.771475   6.998586   7.993347   8.387625
    17  H    3.698604   2.103373   3.234662   4.563380   5.612037
    18  H    2.684993   3.088195   2.171500   2.600119   3.538938
    19  H    0.973722   2.298734   3.844204   4.247823   5.581748
    20  H    3.995412   4.216545   1.091149   2.090502   2.707455
    21  H    2.912689   3.445861   1.097303   2.158383   3.303289
    22  H    5.480826   6.471584   3.017531   2.206276   1.081671
    23  H    4.699362   6.778412   4.635529   3.246310   3.189898
    24  H    2.193424   4.290257   2.846910   2.131707   3.161033
    25  H    6.719182   5.500579   4.871595   6.003883   6.405619
    26  H    6.003395   4.341232   4.928701   6.222535   6.951884
    27  H    6.471038   5.207369   5.756604   6.647585   7.198425
    28  H    7.019451   6.107290   5.574116   6.308260   6.541950
    29  H    8.699156   7.315374   7.179977   8.178921   8.469786
    30  H    8.823004   7.467788   7.722444   8.610727   8.941282
    31  H    8.296781   6.639986   7.315580   8.427470   8.953331
                   11         12         13         14         15
    11  N    0.000000
    12  C    1.314987   0.000000
    13  N    2.221364   1.366268   0.000000
    14  C    7.534825   7.753894   6.801097   0.000000
    15  C    8.096367   8.342107   7.508591   1.523904   0.000000
    16  N    9.538949   9.835591   9.002403   2.522910   1.520265
    17  H    6.718394   6.519085   5.295583   2.628062   3.682987
    18  H    4.349483   4.090075   3.080977   4.109925   4.618405
    19  H    5.975223   5.013656   3.772597   6.632900   7.407211
    20  H    4.029418   4.285750   3.393816   4.070368   5.145579
    21  H    4.322304   4.107909   2.924885   5.124240   6.300463
    22  H    2.147653   3.164415   3.240647   6.070300   6.736044
    23  H    2.136726   1.081102   2.147197   8.716526   9.247558
    24  H    3.191426   2.136013   1.008924   6.985750   7.711002
    25  H    7.705698   8.075652   7.194287   1.095916   2.146921
    26  H    8.187476   8.277321   7.203492   1.094701   2.193668
[...]
 002160,0.00003526,0.00001301,0.00001188,0.00001048,-0.00000107,0.00001
 304,-0.00000775,-0.00000926,0.00001344,-0.01103002,-0.04634865,-0.0587
 9766,-0.00743406,-0.02858162,-0.00617440,-0.00117658,0.00035057,0.0018
 7793,0.00008471,0.00051312,0.00024947,0.00007838,0.00002591,-0.0000476
 1,-0.00000737,-0.00000048,0.00001274,-0.00001302,-0.00000563,-0.000000
 60,0.00001670,-0.00002829,-0.00000489,-0.00000164,-0.00000507,-0.00000
 249,0.00000154,0.00000049,0.00000053,-0.00001350,0.00000649,0.00000257
 ,0.01108341,0.05358942,0.06181060,-0.00811918,-0.00208637,-0.00234862,
 0.00164529,0.01934189,-0.02720500,0.00073409,-0.00118665,0.00169421,-0
 .00002718,-0.00033368,-0.00001542,-0.00025670,0.00008596,-0.00029601,0
 .00015282,-0.00000935,0.00005487,0.00019644,-0.00011944,0.00019443,0.0
 0016630,0.00002466,0.00004702,0.00003197,-0.00003445,-0.00001798,0.000
 02028,0.00001553,-0.00000916,-0.00000763,0.00000572,0.00002019,-0.0000
 1931,-0.00000557,-0.00000260,-0.00001964,-0.00001146,0.00002066,-0.062
 67405,0.03678816,-0.04571950,0.00348258,-0.01070715,0.01606110,0.00122
 550,-0.00034456,0.00016636,-0.00166009,0.00050898,0.00075130,0.0000804
 9,0.00005610,0.00000726,-0.00002589,0.00000961,0.00000717,0.00003769,-
 0.00010242,-0.00002976,-0.00001569,-0.00000114,0.00001437,0.00000590,-
 0.00002516,0.00001373,-0.00000178,-0.00000089,0.00000135,-0.00001207,0
 .00001375,-0.00001493,0.00202820,-0.00512152,0.00794941,0.06548980,-0.
 00052109,0.00083376,-0.00082466,-0.00216689,0.00014145,-0.00089250,0.0
 0019721,-0.00008324,-0.00043158,0.00007316,0.00012200,-0.00021894,0.00
 008315,-0.00003169,0.00016066,-0.00003105,0.00001452,-0.00004138,-0.00
 005718,-0.00003464,-0.00011981,-0.00004595,-0.00003430,0.00000902,-0.0
 0001469,0.00001037,-0.00000547,-0.00000946,-0.00000705,0.00000833,0.00
 000787,-0.00000115,-0.00000357,0.00000455,0.00000276,-0.00000272,0.000
 01349,0.00000439,-0.00000428,0.03648049,-0.13673427,0.12059861,-0.0035
 8204,0.00756969,-0.01216359,-0.00059963,0.00007876,0.00020664,0.000553
 91,0.00042050,-0.00021504,-0.00006361,-0.00000141,-0.00000178,0.000005
 68,0.00000873,0.00000686,-0.00001027,0.00001893,-0.00000630,0.00001140
 ,-0.00000735,-0.00000554,-0.00000247,0.00000615,-0.00000739,0.00000112
 ,0.00000046,-0.00000045,-0.00000075,0.00000089,0.00000736,0.00740599,-
 0.01604158,0.02433858,-0.03860061,0.14275779,-0.00136910,0.00036575,0.
 00133438,-0.00116048,0.00133415,-0.00541510,0.00146461,-0.00040769,0.0
 0035210,-0.00045137,-0.00058318,0.00001835,-0.00006979,0.00002544,0.00
 005304,0.00002283,0.00000345,-0.00002184,0.00002963,-0.00001290,-0.000
 04584,0.00013262,0.00007971,0.00000391,0.00002325,-0.00004932,-0.00000
 164,0.00000776,0.00000552,-0.00003262,0.00002284,0.00001020,0.00001271
 ,0.00000790,-0.00000251,0.00001595,-0.00002009,-0.00001148,0.00001801,
 -0.04483844,0.11874631,-0.21424764,-0.00737512,0.01441180,-0.02135775,
 0.00007426,-0.00004529,0.00060232,0.00045320,0.00027226,0.00080274,-0.
 00002553,0.00004922,0.00002443,-0.00000211,0.00000438,0.00000442,0.000
 00131,-0.00000813,-0.00001266,0.00000388,-0.00001569,0.00000610,0.0000
 0082,-0.00000698,0.00000131,-0.00000015,0.00000040,0.00000121,-0.00000
 623,0.00000264,-0.00000114,0.00175851,-0.00397074,0.00648242,0.0477643
 2,-0.12851883,0.23363354,-0.00072630,-0.00075631,-0.00058399,0.0020781
 8,0.00060229,0.00064780,-0.00062717,-0.00029986,0.00019147,0.00013720,
 0.00005653,0.00007889,0.00004766,0.00004226,-0.00003622,-0.00006723,-0
 .00002849,0.00002820,-0.00005001,-0.00004233,0.00001428,-0.00000944,-0
 .00001222,-0.00001836,0.00000751,0.00000592,0.00000921,0.00001036,-0.0
 0000341,0.00000691,-0.00002509,-0.00001146,-0.00001140,-0.00001135,0.0
 0000003,-0.00000295,0.00000017,-0.00000331,-0.00001385,0.00265723,0.01
 544750,0.00085272,-0.04954341,-0.00027945,-0.00191032,-0.01350593,-0.0
 4115361,-0.00262326,0.00006889,0.00011591,-0.00006300,-0.00005063,0.00
 001750,-0.00001977,0.00000324,0.00001367,0.00000174,0.00001137,-0.0000
 0557,0.00001659,0.00000498,-0.00000395,-0.00000583,0.00000293,0.000003
 75,0.00000614,-0.00000234,0.00000190,0.00000030,0.00000657,0.00000595,
 0.00000230,-0.00141069,0.00059367,0.00273540,0.00031938,-0.00064839,-0
 .00028419,0.06179898,0.00038650,0.00059142,0.00055497,-0.00037170,-0.0
 0003598,-0.00101628,0.00021568,-0.00007132,0.00014766,-0.00001687,-0.0
 0000880,-0.00002930,-0.00000660,0.00000333,-0.00000234,0.00001336,0.00
 000147,-0.00000419,0.00000836,-0.00000015,0.00000857,0.00000489,0.0000
 1379,-0.00000120,0.00000156,-0.00000007,-0.00000375,0.00000005,0.00000
 317,-0.00000357,0.00000436,0.00000277,0.00000539,0.00000141,-0.0000001
 5,-0.00000066,-0.00000205,-0.00000186,0.00000712,0.00081018,-0.0062629
 3,-0.00107238,-0.01374249,-0.32754921,-0.02550948,-0.00134823,-0.00382
 998,0.00024000,-0.00002437,-0.00005581,0.00001523,0.00001142,0.0000038
 8,0.00000684,-0.00000088,0.00000004,-0.00000011,-0.00000037,-0.0000063
 7,-0.00000505,-0.00000201,-0.00000135,0.00000254,-0.00000056,-0.000003
 77,-0.00000125,0.00000014,-0.00000029,0.00000010,-0.00000195,0.0000001
 7,-0.00000164,0.00073461,0.00104863,-0.00084871,-0.00004935,0.00102959
 ,0.00010811,0.01522476,0.34493230,-0.00010818,-0.00058534,0.00035786,-
 0.00101863,-0.00018082,-0.00019983,0.00018373,0.00042736,-0.00004851,-
 0.00001615,0.00001959,-0.00002607,0.00006049,-0.00003702,0.00005836,-0
 .00002602,0.00000850,-0.00001532,-0.00003156,0.00004867,-0.00003560,0.
 00000970,-0.00001630,0.00000592,-0.00000430,0.00000443,-0.00000002,0.0
 0000155,-0.00000066,0.00000074,-0.00000035,-0.00000242,-0.00000710,0.0
 0000164,-0.00000083,0.00000585,0.00000305,0.00000439,-0.00000604,-0.00
 136636,-0.02795393,-0.00292685,-0.00145370,-0.02458587,-0.05360215,-0.
 00052779,0.00015932,-0.00065982,0.00000859,-0.00015902,-0.00000727,0.0
 0002955,-0.00000374,0.00001149,0.00000801,-0.00000699,-0.00000213,-0.0
 0000032,0.00000240,-0.00001502,-0.00000688,0.00000178,0.00000276,0.000
 00167,0.00000312,0.00000105,0.00000029,0.00000005,0.00000055,0.0000031
 2,-0.00000451,0.00000382,0.00343924,-0.00167632,-0.00390402,-0.0010917
 5,0.00019380,0.00127600,-0.00152334,0.02969263,0.05428186,-0.00341393,
 0.00100054,-0.00371069,0.00184108,-0.00074148,0.00747425,0.00028744,0.
 00031538,-0.00353252,-0.00052896,0.00000211,0.00004359,-0.00018888,-0.
 00016524,0.00031365,0.00014268,0.00005927,-0.00011671,0.00010061,0.000
 13522,-0.00026287,-0.00003795,0.00002686,0.00000691,-0.00003247,-0.000
 05140,0.00000660,-0.00003558,-0.00002168,-0.00002502,0.00008017,0.0000
 0460,0.00000893,0.00002800,0.00000777,0.00001659,0.00000979,-0.0000055
 8,0.00000612,0.00763574,-0.00808293,0.01044871,-0.08376922,0.04420891,
 -0.08277819,-0.02383285,0.01331738,-0.02640504,0.00067418,-0.00003107,
 -0.00001220,-0.00002866,-0.00003217,0.00007051,-0.00001817,-0.00001771
 ,0.00002180,-0.00002112,0.00012223,0.00002188,0.00003687,-0.00000529,-
 0.00002380,-0.00001303,0.00003363,-0.00002018,0.00000486,0.00000242,-0
 .00000157,-0.00002372,0.00000364,0.00001304,0.00032578,0.00031273,-0.0
 0017731,-0.00252485,0.00161986,0.00282185,0.00326238,-0.00092863,0.003
 17790,0.10373769,0.00053557,-0.00209870,-0.00009499,0.00044971,0.00083
 933,-0.00008742,-0.00025406,0.00021729,0.00031894,0.00014868,0.0000059
 3,0.00008702,0.00004013,0.00003841,-0.00007192,-0.00004693,-0.00002169
 ,0.00003247,-0.00002338,-0.00002664,0.00004467,0.00001466,-0.00000692,
 -0.00001070,0.00001109,0.00000274,0.00000667,0.00002079,0.00000192,-0.
 00000452,-0.00002654,-0.00001196,-0.00000733,-0.00001053,-0.00000179,0
 .00000167,-0.00000773,-0.00000278,-0.00000681,-0.00515481,0.00608416,-
 0.00924202,0.05181347,-0.11240589,0.10425946,-0.00918430,0.00460469,-0
 .01155259,-0.00015853,0.00013350,-0.00001987,0.00001381,-0.00000042,-0
 .00003019,0.00000497,0.00000590,-0.00000401,0.00000840,-0.00000720,-0.
 00000158,-0.00000420,0.00000011,0.00000026,0.00000613,0.00000397,0.000
 01028,-0.00000239,0.00000094,0.00000125,0.00000659,0.00000326,-0.00000
 105,-0.00068872,0.00055347,0.00010310,0.00166650,0.00003676,-0.0018753
 5,0.01280331,-0.01127022,0.02509440,-0.05004378,0.11255821,-0.00255315
 ,-0.00041618,0.00305522,-0.00199148,0.00107596,-0.00452663,-0.00017436
 ,-0.00006049,0.00070299,0.00016110,-0.00000498,0.00004384,0.00005015,0
 .00007789,-0.00011930,-0.00005372,-0.00002378,0.00004472,-0.00001797,-
 0.00005139,0.00009152,0.00003077,-0.00001550,0.00001508,0.00001543,0.0
 0000867,0.00001691,-0.00000212,-0.00000875,0.00002669,-0.00002750,-0.0
 0000447,-0.00002232,-0.00001345,-0.00000319,-0.00000093,0.00000733,0.0
 0000923,-0.00003082,-0.00561603,0.01212906,-0.02361207,-0.09174912,0.1
 0182658,-0.23205642,0.00377905,-0.00291827,0.00474761,-0.00015692,0.00
 004063,0.00009074,0.00003142,0.00001079,-0.00001712,0.00000439,0.00000
 409,-0.00000466,0.00002073,-0.00005739,-0.00000140,-0.00001847,0.00000
 346,0.00000318,0.00000231,0.00000036,0.00001213,-0.00000141,0.00000077
 ,-0.00000082,0.00001100,-0.00000040,0.00000059,-0.00043518,-0.00015496
 ,0.00073373,0.00212846,-0.00278904,-0.00298936,0.00268646,-0.00238278,
 0.00481927,0.09294374,-0.10618544,0.24765331,0.00047047,0.00021439,0.0
 0018140,-0.00100701,0.00028945,-0.00045857,0.00065449,-0.00001204,-0.0
 0018609,-0.00022151,-0.00005368,-0.00009448,-0.00015306,-0.00008803,0.
 00016649,0.00015891,0.00004696,-0.00008401,0.00010403,0.00005345,-0.00
 009624,-0.00000326,0.00004572,0.00000082,-0.00001030,-0.00003021,-0.00
 000798,-0.00002354,-0.00000563,-0.00002270,0.00006362,0.00001070,0.000
 01626,0.00001604,0.00000229,0.00001101,0.00000298,-0.00000794,0.000018
 02,0.00189596,-0.00099621,-0.00049693,-0.00226422,-0.03554427,-0.00231
 647,-0.06184822,-0.04627200,-0.00313049,-0.00002952,-0.00005102,0.0001
 4712,0.00003057,-0.00000212,0.00001190,-0.00001945,-0.00001252,0.00001
 633,-0.00001439,0.00003397,-0.00001231,0.00001120,-0.00001046,0.000001
 40,-0.00000663,0.00000750,-0.00001256,0.00000352,0.00000103,-0.0000006
 2,-0.00002337,0.00000428,0.00000377,-0.00015160,0.00135526,0.00115868,
 0.00012145,0.00034349,0.00001062,-0.00722795,-0.00005980,0.00014569,0.
 00099344,0.00019790,-0.00066711,0.06331991,0.00036883,-0.00022731,-0.0
 0012969,-0.00043361,-0.00001685,-0.00027602,0.00051802,-0.00005589,-0.
 00010430,-0.00015321,0.00004904,-0.00006838,-0.00008631,-0.00002833,0.
 00006154,0.00010030,0.00001096,-0.00004572,0.00007549,-0.00000118,-0.0
 0003046,-0.00000597,0.00004564,-0.00001310,0.00000559,-0.00003088,-0.0
 0000482,0.00000823,-0.00000341,-0.00002736,0.00002083,-0.00000859,0.00
 001376,0.00000205,0.00000260,0.00000456,-0.00001146,-0.00001713,0.0000
 1703,0.00139386,0.00202411,0.00147632,-0.00587751,-0.00427718,-0.00072
 065,-0.03536473,-0.39950412,-0.02090692,-0.00003206,0.00003572,0.00008
 648,0.00000911,-0.00000188,-0.00000063,-0.00000976,0.00000633,0.000009
 64,-0.00000436,0.00003091,0.00000920,0.00001566,-0.00000713,-0.0000086
 7,-0.00000260,0.00001333,0.00000081,-0.00000038,0.00000264,0.00000122,
 -0.00001508,0.00001566,-0.00000141,-0.00043676,-0.00023837,0.00019796,
 -0.00008252,-0.00030326,-0.00011115,-0.00036218,0.00164269,-0.00027899
 ,0.00055613,0.00093834,-0.00029884,0.04360553,0.42109439,-0.00038538,0
 .00017692,-0.00071480,0.00116256,-0.00049778,0.00052246,-0.00032412,0.
 00000036,-0.00003631,0.00012976,0.00004681,0.00002192,0.00014037,0.000
 03178,-0.00001153,-0.00012149,-0.00002096,0.00002913,-0.00009743,-0.00
 002118,-0.00000937,0.00000354,-0.00003531,0.00002263,-0.00000158,0.000
 01577,0.00001562,-0.00000918,-0.00000929,0.00003816,-0.00003209,-0.000
 00104,-0.00003116,-0.00000692,-0.00000241,0.00000046,0.00001542,0.0000
 1578,-0.00004130,-0.00042319,0.00206338,0.00043333,-0.00079683,-0.0003
 6863,0.00015727,-0.00194223,-0.02029292,-0.06538188,0.00005721,0.00004
 969,-0.00006808,-0.00001899,-0.00000216,-0.00000420,0.00001601,0.00000
 799,-0.00000501,0.00000440,-0.00002065,0.00001698,-0.00000498,0.000007
 33,-0.00000952,0.00000209,-0.00000220,0.00000630,-0.00000067,0.0000002
 5,-0.00000086,0.00001828,-0.00000596,0.00000698,0.00019505,-0.00099988
 ,-0.00005392,0.00010051,-0.00004756,-0.00018192,-0.00003148,0.00016063
 ,0.00041154,-0.00069195,-0.00069294,-0.00013948,0.00330558,0.02287765,
 0.05944090,0.00037513,-0.00016173,-0.00113026,0.00082147,0.00021728,0.
 00353565,-0.00087098,0.00005139,-0.00052888,0.00006354,-0.00003690,0.0
 0019319,-0.00008679,0.00001268,-0.00005057,0.00000327,-0.00001075,0.00
 002509,0.00002110,-0.00000582,0.00000428,-0.00000957,-0.00001964,0.000
 00150,-0.00000562,0.00000428,0.00000815,-0.00001419,-0.00000937,0.0000
 1200,0.00000886,-0.00000317,-0.00000991,-0.00000080,0.00000122,0.,0.00
 001368,0.00000387,-0.00001398,-0.00687404,-0.00221594,-0.00265526,-0.0
 1192354,0.01099779,0.02704401,-0.12177255,0.05140456,0.13085510,0.0000
 2159,0.00002748,-0.00005952,-0.00001869,-0.00000053,0.00000540,-0.0000
 1313,-0.00000008,0.00000625,0.00000055,0.00001123,0.00000360,0.0000001
 4,0.00000244,-0.00000371,-0.00000195,0.00000794,-0.00000215,0.00000062
 ,0.00000158,-0.00000106,-0.00000156,0.00000059,0.00000507,0.00043055,-
 0.00009655,-0.00057078,0.00001901,-0.00020700,0.00003951,0.00126764,-0
 .00058412,0.00024508,0.00045299,0.00110944,-0.00041169,0.00242147,-0.0
 0140872,-0.00594348,0.12575206,-0.00012594,-0.00013831,-0.00001522,0.0
 0025027,0.00060038,0.00049539,-0.00037061,-0.00003398,0.00004594,0.000
 07693,-0.00005295,0.00006214,0.00003524,0.00004083,-0.00007903,-0.0000
 5603,-0.00002675,0.00003640,-0.00003097,-0.00003394,0.00004078,0.00001
 053,-0.00000922,-0.00000293,0.00000680,0.00000705,0.00000110,0.0000138
 4,0.00000156,0.00000046,-0.00002141,-0.00000977,-0.00000353,-0.0000064
 5,-0.00000016,-0.00000320,-0.00000371,-0.00000387,-0.00000162,-0.00210
 061,-0.00070562,-0.00107085,-0.00213318,0.00370624,0.00923420,0.046791
 39,-0.09785040,-0.08985789,0.00001441,0.00005052,-0.00005027,-0.000023
 24,0.00000467,-0.00000018,0.00000370,0.00001206,-0.00000235,0.00000534
 ,-0.00000732,0.00000281,-0.00000164,0.00000156,-0.00000218,0.00000184,
 0.00000105,0.00000480,-0.00000207,0.00000132,0.00000097,0.00000626,0.0
 0000420,-0.00000093,0.00011001,0.00031313,0.00001351,0.00025809,0.0000
 6941,-0.00012585,-0.00069739,-0.00027421,0.00065287,0.00072199,0.00010
 322,-0.00016433,0.01780414,-0.00827758,-0.03422809,-0.05082611,0.09569
 567,-0.00038161,0.00005493,0.00025081,-0.00011573,0.00009997,-0.000143
 45,-0.00032789,0.00001348,0.00010144,0.00010993,-0.00001635,0.00001167
 ,0.00015279,0.00002850,-0.00002287,-0.00012990,-0.00002116,0.00003383,
 -0.00010250,-0.00001150,0.00000529,0.00002157,-0.00003648,0.00001639,0
 .00000042,0.00001711,0.00001327,-0.00000011,-0.00000603,0.00003097,-0.
 00003588,-0.00000382,-0.00003002,-0.00000801,-0.00000334,0.00000344,0.
 00001034,0.00001372,-0.00003726,-0.00031070,-0.00042650,0.00011914,0.0
 0173247,0.00320637,0.00523315,0.12167474,-0.09238828,-0.30817192,0.000
 05641,0.00002445,-0.00008980,-0.00001882,-0.00000284,0.00000270,0.0000
 1812,0.00000558,-0.00000665,0.00000992,-0.00001840,0.00000800,-0.00000
 754,0.00000623,-0.00000699,0.00000390,-0.00000131,0.00000883,-0.000001
 18,0.00000026,-0.00000001,0.00001923,-0.00000672,0.00000567,-0.0000426
 9,0.00002044,-0.00008506,-0.00018672,-0.00001560,0.00010558,-0.0002123
 8,0.00014442,0.00028052,-0.00076283,0.00001939,0.00074807,-0.00093941,
 0.00087510,0.00098353,-0.13410058,0.09954470,0.32250545,0.00005679,0.0
 0012230,0.00158982,-0.00232321,-0.00014342,-0.00167879,0.00078950,-0.0
 0006724,0.00008389,-0.00021175,0.00002109,-0.00010114,-0.00016784,-0.0
 0005942,0.00012914,0.00017353,0.00003890,-0.00007957,0.00012234,0.0000
 2794,-0.00006294,-0.00000801,0.00005124,-0.00000592,-0.00000315,-0.000
 03302,-0.00000765,-0.00001133,-0.00000220,-0.00003018,0.00005464,0.000
 00569,0.00001974,0.00000988,0.00000189,0.00000959,-0.00000471,-0.00001
 343,0.00002235,0.00284235,0.00066737,-0.00044401,-0.01476269,0.0146575
 3,-0.02626783,-0.13287826,0.07387335,-0.12987560,-0.00008194,-0.000020
 28,0.00017034,0.00003098,0.00000271,0.00000383,-0.00002138,-0.00000890
 ,0.00001759,-0.00000702,0.00002238,-0.00001066,0.00001046,-0.00001271,
 0.00000287,-0.00000422,0.00000756,-0.00000826,0.00000230,0.00000136,0.
 00000004,-0.00002519,0.00000948,0.00000095,-0.00024063,0.00018591,0.00
 021859,-0.00039314,-0.00024028,0.00096286,0.00157288,-0.00027729,-0.00
 014395,-0.00514433,-0.00324527,0.00201734,0.00273599,-0.00239244,0.005
 68120,0.00991971,-0.00971142,0.01387460,0.13796746,-0.00056130,0.00009
 125,0.00024601,0.00051276,-0.00014570,-0.00043577,-0.00031886,-0.00007
 590,0.00026183,0.00013116,0.00001997,0.00004396,0.00005737,0.00007273,
 -0.00011745,-0.00006692,-0.00003444,0.00004768,-0.00003743,-0.00006462
 ,0.00007157,-0.00000317,-0.00000927,0.00000120,0.00001034,0.00001307,0
 .00000258,0.00001246,0.00000187,0.00000972,-0.00003096,-0.00000810,-0.
 00000593,-0.00000990,-0.00000078,-0.00000758,-0.00000185,-0.00000144,-
 0.00000647,-0.00000674,0.00002323,-0.00052836,-0.00224383,0.00633239,-
 0.00915259,0.06781115,-0.12582850,0.11158291,0.00000144,0.00007553,-0.
 00005839,-0.00001681,0.00000677,-0.00001249,0.00000528,0.00001643,-0.0
 0000515,0.00000598,-0.00002676,0.00000811,-0.00000421,0.00000330,-0.00
 000184,0.00000240,-0.00000384,0.00000683,-0.00000237,0.00000087,0.0000
 0052,0.00000896,0.00000466,-0.00000251,0.00025524,-0.00043092,0.000089
 19,0.00004735,0.00015300,0.00032572,-0.00062701,0.00009923,-0.00082054
 ,-0.00232369,-0.00027796,0.00035267,0.01912984,-0.01291326,0.03179463,
 -0.00826730,0.00681121,-0.01111632,-0.07346938,0.12609598,0.00015499,-
 0.00005665,-0.00070743,0.00035871,0.00000468,0.00013716,0.00020752,0.0
 0000497,-0.00024297,-0.00003388,0.00002866,-0.00003555,0.00007457,-0.0
 0003997,0.00013888,-0.00004048,0.00000850,-0.00003460,-0.00005390,0.00
 003112,-0.00010251,0.00000531,-0.00000286,0.00000870,-0.00000738,-0.00
 000595,0.00000654,-0.00000965,-0.00000744,0.00000932,0.00000320,0.0000
 0081,-0.00001513,0.00000358,-0.00000053,0.00000892,0.00000800,0.000005
 35,-0.00001918,0.00029729,-0.00075108,0.00245474,-0.00243057,-0.003470
 80,0.00420699,-0.12056274,0.11361771,-0.26966520,0.00009849,-0.0000106
 1,0.00003819,-0.00000202,-0.00000077,0.00000358,0.00000978,0.00000040,
 0.00000515,-0.00000427,0.00001311,0.00000378,0.00000460,-0.00000314,-0
 .00000712,-0.00000041,0.00000475,-0.00000066,0.00000068,0.00000089,-0.
 00000003,0.00000403,-0.00000245,0.00000882,0.00004648,-0.00014700,0.00
 009541,-0.00005926,0.00078616,-0.00044101,0.00006193,-0.00021150,-0.00
 006181,0.00112482,-0.00009083,0.00071570,0.00333083,-0.00260418,0.0045
 8214,-0.01650204,0.01547238,-0.02187369,0.13391179,-0.12257373,0.28078
 287\\0.00000031,-0.00000114,0.00000171,-0.00000327,0.00000330,-0.00000
 019,0.00000062,0.00000004,0.00000014,-0.00000012,-0.00000078,-0.000000
 84,0.00000114,0.00000052,-0.00000076,0.00000127,-0.00000157,0.00000345
 ,-0.00000086,0.00000031,-0.00000019,0.00000046,-0.00000143,-0.00000028
 ,-0.00000196,0.00000155,0.00000138,-0.00000002,-0.00000024,-0.00000063
 ,0.00000024,-0.00000009,-0.00000082,0.00000095,-0.00000028,0.00000017,
 -0.00000123,-0.00000007,-0.00000197,0.00000099,0.00000282,-0.00000056,
 0.00000442,-0.00000142,0.00000158,-0.00000064,-0.00000049,-0.00000130,
 -0.00000049,0.00000057,0.00000007,0.,0.00000001,0.,-0.00000031,0.00000
 055,0.00000033,-0.00000027,-0.00000002,-0.00000006,0.00000016,0.000000
 06,-0.00000014,0.00000003,-0.00000037,-0.00000030,-0.00000005,-0.00000
 031,-0.00000030,0.00000004,0.00000023,-0.00000135,0.00000063,-0.000001
 58,0.00000116,-0.00000248,-0.00000037,-0.00000025,0.00000173,-0.000000
 70,0.00000045,-0.00000149,0.00000051,-0.00000054,-0.00000015,0.0000001
 7,-0.00000006,0.00000044,0.00000013,-0.00000005,-0.00000008,0.00000009
 ,0.00000015\\\@


 I DO NOT DEFINE TIME, SPACE, PLACE, AND MOTION, AS BEING WELL KNOWN TO ALL.
                                            -- NEWTON (1642-1726), PRINCIPIA
 Job cpu time:       0 days  1 hours 16 minutes 48.8 seconds.
 File lengths (MBytes):  RWF=    349 Int=      0 D2E=      0 Chk=     10 Scr=      1
 Normal termination of Gaussian 09 at Wed Jul 28 22:53:40 2021.
