 Entering Gaussian System, Link 0=g09
 Input=opt_freq-conf-580.com
 Output=opt_freq-conf-580.log
 Initial command:
 /aerosol/software/g09/l1.exe "/scratch/nicole/10673/Gau-83126.inp" -scrdir="/scratch/nicole/10673/"
 Entering Link 1 = /aerosol/software/g09/l1.exe PID=     83129.
  
 Copyright (c) 1988,1990,1992,1993,1995,1998,2003,2009,2013,
            Gaussian, Inc.  All Rights Reserved.
  
 This is part of the Gaussian(R) 09 program.  It is based on
 the Gaussian(R) 03 system (copyright 2003, Gaussian, Inc.),
 the Gaussian(R) 98 system (copyright 1998, Gaussian, Inc.),
 the Gaussian(R) 94 system (copyright 1995, Gaussian, Inc.),
 the Gaussian 92(TM) system (copyright 1992, Gaussian, Inc.),
 the Gaussian 90(TM) system (copyright 1990, Gaussian, Inc.),
 the Gaussian 88(TM) system (copyright 1988, Gaussian, Inc.),
 the Gaussian 86(TM) system (copyright 1986, Carnegie Mellon
 University), and the Gaussian 82(TM) system (copyright 1983,
 Carnegie Mellon University). Gaussian is a federally registered
 trademark of Gaussian, Inc.
  
 This software contains proprietary and confidential information,
 including trade secrets, belonging to Gaussian, Inc.
  
 This software is provided under written license and may be
 used, copied, transmitted, or stored only in accord with that
 written license.
  
 The following legend is applicable only to US Government
 contracts under FAR:
  
                    RESTRICTED RIGHTS LEGEND
  
 Use, reproduction and disclosure by the US Government is
 subject to restrictions as set forth in subparagraphs (a)
 and (c) of the Commercial Computer Software - Restricted
 Rights clause in FAR 52.227-19.
  
 Gaussian, Inc.
 340 Quinnipiac St., Bldg. 40, Wallingford CT 06492
  
  
 ---------------------------------------------------------------
 Warning -- This program may not be used in any manner that
 competes with the business of Gaussian, Inc. or will provide
 assistance to any competitor of Gaussian, Inc.  The licensee
 of this program is prohibited from giving any competitor of
 Gaussian, Inc. access to this program.  By using this program,
 the user acknowledges that Gaussian, Inc. is engaged in the
 business of creating and licensing software in the field of
 computational chemistry and represents and warrants to the
 licensee that it is not a competitor of Gaussian, Inc. and that
 it will not use this program in any manner prohibited above.
 ---------------------------------------------------------------
  

 Cite this work as:
 Gaussian 09, Revision D.01,
 M. J. Frisch, G. W. Trucks, H. B. Schlegel, G. E. Scuseria, 
 M. A. Robb, J. R. Cheeseman, G. Scalmani, V. Barone, B. Mennucci, 
 G. A. Petersson, H. Nakatsuji, M. Caricato, X. Li, H. P. Hratchian, 
 A. F. Izmaylov, J. Bloino, G. Zheng, J. L. Sonnenberg, M. Hada, 
 M. Ehara, K. Toyota, R. Fukuda, J. Hasegawa, M. Ishida, T. Nakajima, 
 Y. Honda, O. Kitao, H. Nakai, T. Vreven, J. A. Montgomery, Jr., 
 J. E. Peralta, F. Ogliaro, M. Bearpark, J. J. Heyd, E. Brothers, 
 K. N. Kudin, V. N. Staroverov, T. Keith, R. Kobayashi, J. Normand, 
 K. Raghavachari, A. Rendell, J. C. Burant, S. S. Iyengar, J. Tomasi, 
 M. Cossi, N. Rega, J. M. Millam, M. Klene, J. E. Knox, J. B. Cross, 
 V. Bakken, C. Adamo, J. Jaramillo, R. Gomperts, R. E. Stratmann, 
 O. Yazyev, A. J. Austin, R. Cammi, C. Pomelli, J. W. Ochterski, 
 R. L. Martin, K. Morokuma, V. G. Zakrzewski, G. A. Voth, 
 P. Salvador, J. J. Dannenberg, S. Dapprich, A. D. Daniels, 
 O. Farkas, J. B. Foresman, J. V. Ortiz, J. Cioslowski, 
 and D. J. Fox, Gaussian, Inc., Wallingford CT, 2013.
 
 ******************************************
 Gaussian 09:  ES64L-G09RevD.01 24-Apr-2013
                28-Jul-2021 
 ******************************************
 %mem=2gb
 %nproc=4
 Will use up to    4 processors via shared memory.
 %chk=conf-580.chk
 ----------------------------------------------------------------------
 # B3LYP/6-31G(d,p) opt=calcfc freq=noraman nosymm integral(ultrafinegr
 id)
 ----------------------------------------------------------------------
 1/10=4,14=-1,18=20,19=15,26=4,38=1/1,3;
 2/9=110,12=2,15=1,17=6,18=5,40=1/2;
 3/5=1,6=6,7=101,11=2,16=1,25=1,30=1,71=2,74=-5,75=-5,140=1/1,2,3;
 4//1;
 5/5=2,38=5/2;
 8/6=4,10=90,11=11/1;
 11/6=1,8=1,9=11,15=111,16=1,31=1/1,2,10;
 10/6=1,13=1,31=1/2;
 6/7=2,8=2,9=2,10=2,28=1/1;
 7/10=1,18=20,25=1,30=1/1,2,3,16;
 1/10=4,14=-1,18=20,19=15,26=4/3(2);
 2/9=110,15=1/2;
 99//99;
 2/9=110,15=1/2;
 3/5=1,6=6,7=101,11=2,16=1,25=1,30=1,71=1,74=-5,75=-5/1,2,3;
 4/5=5,16=3,69=1/1;
 5/5=2,38=5/2;
 7/30=1/1,2,3,16;
 1/14=-1,18=20,19=15,26=4/3(-5);
 2/9=110,15=1/2;
 6/7=2,8=2,9=2,10=2,19=2,28=1/1;
 99/9=1/99;
 ------------------------------------------------------------
 Candidate Structure: Conf:580 OPT and FREQ calc in gas phase
 ------------------------------------------------------------
 Symbolic Z-matrix:
 Charge =  1 Multiplicity = 1
 O                     1.1626    0.47867  -1.24083 
 C                     1.43062   0.39643  -0.04924 
 N                     0.44893   0.32097   0.88846 
 C                    -0.95542   0.32737   0.51041 
 C                    -1.72354   0.76875   1.73533 
 O                    -2.59503   1.76808   1.49955 
 O                    -1.57563   0.26701   2.82237 
 C                    -1.39558  -1.08541   0.07214 
 C                    -2.827    -1.1616   -0.34837 
 C                    -3.94651  -1.63385   0.27999 
 N                    -5.07043  -1.45394  -0.50815 
 C                    -4.63104  -0.88057  -1.60483 
 N                    -3.28184  -0.68161  -1.55821 
 C                     2.85113   0.35726   0.49446 
 C                     3.88925   0.67519  -0.5716 
 N                     5.27509   0.60883  -0.03633 
 H                     0.66614   0.21415   1.86708 
 H                    -1.09215   1.03096  -0.31002 
 H                    -3.03128   1.94422   2.34426 
 H                    -1.24299  -1.76764   0.90622 
 H                    -0.73868  -1.39207  -0.73967 
 H                    -4.00148  -2.07935   1.265 
 H                    -5.22149  -0.59048  -2.45542 
 H                    -2.71356  -0.26592  -2.27903 
 H                     3.04083  -0.64193   0.90267 
 H                     2.93715   1.06208   1.32718 
 H                     3.77607  -0.02889  -1.39457 
 H                     3.69767   1.66864  -0.97572 
 H                     5.96943   0.81982  -0.75442 
 H                     5.41211   1.27593   0.72291 
 H                     5.48682  -0.32092   0.32558 
 

 GradGradGradGradGradGradGradGradGradGradGradGradGradGradGradGradGradGrad
 Berny optimization.
 Initialization pass.
                           ----------------------------
                           !    Initial Parameters    !
                           ! (Angstroms and Degrees)  !
 --------------------------                            --------------------------
 ! Name  Definition              Value          Derivative Info.                !
 --------------------------------------------------------------------------------
 ! R1    R(1,2)                  1.2241         calculate D2E/DX2 analytically  !
 ! R2    R(2,3)                  1.3597         calculate D2E/DX2 analytically  !
 ! R3    R(2,14)                 1.5215         calculate D2E/DX2 analytically  !
 ! R4    R(3,4)                  1.4544         calculate D2E/DX2 analytically  !
 ! R5    R(3,17)                 1.0081         calculate D2E/DX2 analytically  !
 ! R6    R(4,5)                  1.5117         calculate D2E/DX2 analytically  !
 ! R7    R(4,8)                  1.5433         calculate D2E/DX2 analytically  !
 ! R8    R(4,18)                 1.0894         calculate D2E/DX2 analytically  !
 ! R9    R(5,6)                  1.3468         calculate D2E/DX2 analytically  !
 ! R10   R(5,7)                  1.2064         calculate D2E/DX2 analytically  !
 ! R11   R(6,19)                 0.9669         calculate D2E/DX2 analytically  !
 ! R12   R(8,9)                  1.4938         calculate D2E/DX2 analytically  !
 ! R13   R(8,20)                 1.0883         calculate D2E/DX2 analytically  !
 ! R14   R(8,21)                 1.0884         calculate D2E/DX2 analytically  !
 ! R15   R(9,10)                 1.3679         calculate D2E/DX2 analytically  !
 ! R16   R(9,13)                 1.3788         calculate D2E/DX2 analytically  !
 ! R17   R(10,11)                1.3845         calculate D2E/DX2 analytically  !
 ! R18   R(10,22)                1.0825         calculate D2E/DX2 analytically  !
 ! R19   R(11,12)                1.3132         calculate D2E/DX2 analytically  !
 ! R20   R(12,13)                1.3646         calculate D2E/DX2 analytically  !
 ! R21   R(12,23)                1.0753         calculate D2E/DX2 analytically  !
 ! R22   R(13,24)                1.0076         calculate D2E/DX2 analytically  !
 ! R23   R(14,15)                1.5216         calculate D2E/DX2 analytically  !
 ! R24   R(14,25)                1.0959         calculate D2E/DX2 analytically  !
 ! R25   R(14,26)                1.0943         calculate D2E/DX2 analytically  !
 ! R26   R(15,16)                1.4871         calculate D2E/DX2 analytically  !
 ! R27   R(15,27)                1.089          calculate D2E/DX2 analytically  !
 ! R28   R(15,28)                1.0895         calculate D2E/DX2 analytically  !
 ! R29   R(16,29)                1.0209         calculate D2E/DX2 analytically  !
 ! R30   R(16,30)                1.0199         calculate D2E/DX2 analytically  !
 ! R31   R(16,31)                1.0199         calculate D2E/DX2 analytically  !
 ! A1    A(1,2,3)              121.1297         calculate D2E/DX2 analytically  !
 ! A2    A(1,2,14)             123.6408         calculate D2E/DX2 analytically  !
 ! A3    A(3,2,14)             115.227          calculate D2E/DX2 analytically  !
 ! A4    A(2,3,4)              121.176          calculate D2E/DX2 analytically  !
 ! A5    A(2,3,17)             121.3189         calculate D2E/DX2 analytically  !
 ! A6    A(4,3,17)             117.442          calculate D2E/DX2 analytically  !
 ! A7    A(3,4,5)              106.3383         calculate D2E/DX2 analytically  !
 ! A8    A(3,4,8)              110.1931         calculate D2E/DX2 analytically  !
 ! A9    A(3,4,18)             108.6502         calculate D2E/DX2 analytically  !
 ! A10   A(5,4,8)              110.6385         calculate D2E/DX2 analytically  !
 ! A11   A(5,4,18)             110.9702         calculate D2E/DX2 analytically  !
 ! A12   A(8,4,18)             109.9717         calculate D2E/DX2 analytically  !
 ! A13   A(4,5,6)              113.8036         calculate D2E/DX2 analytically  !
 ! A14   A(4,5,7)              123.1211         calculate D2E/DX2 analytically  !
 ! A15   A(6,5,7)              123.0739         calculate D2E/DX2 analytically  !
 ! A16   A(5,6,19)             105.914          calculate D2E/DX2 analytically  !
 ! A17   A(4,8,9)              113.5732         calculate D2E/DX2 analytically  !
 ! A18   A(4,8,20)             108.435          calculate D2E/DX2 analytically  !
 ! A19   A(4,8,21)             107.3141         calculate D2E/DX2 analytically  !
 ! A20   A(9,8,20)             108.5493         calculate D2E/DX2 analytically  !
 ! A21   A(9,8,21)             110.7317         calculate D2E/DX2 analytically  !
 ! A22   A(20,8,21)            108.0823         calculate D2E/DX2 analytically  !
 ! A23   A(8,9,10)             132.2612         calculate D2E/DX2 analytically  !
 ! A24   A(8,9,13)             123.049          calculate D2E/DX2 analytically  !
 ! A25   A(10,9,13)            104.6715         calculate D2E/DX2 analytically  !
 ! A26   A(9,10,11)            110.9795         calculate D2E/DX2 analytically  !
 ! A27   A(9,10,22)            126.988          calculate D2E/DX2 analytically  !
 ! A28   A(11,10,22)           122.0242         calculate D2E/DX2 analytically  !
 ! A29   A(10,11,12)           105.1009         calculate D2E/DX2 analytically  !
 ! A30   A(11,12,13)           111.4658         calculate D2E/DX2 analytically  !
 ! A31   A(11,12,23)           126.488          calculate D2E/DX2 analytically  !
 ! A32   A(13,12,23)           122.046          calculate D2E/DX2 analytically  !
 ! A33   A(9,13,12)            107.782          calculate D2E/DX2 analytically  !
 ! A34   A(9,13,24)            125.8228         calculate D2E/DX2 analytically  !
 ! A35   A(12,13,24)           126.3934         calculate D2E/DX2 analytically  !
 ! A36   A(2,14,15)            112.4095         calculate D2E/DX2 analytically  !
 ! A37   A(2,14,25)            108.5535         calculate D2E/DX2 analytically  !
 ! A38   A(2,14,26)            109.1908         calculate D2E/DX2 analytically  !
 ! A39   A(15,14,25)           109.474          calculate D2E/DX2 analytically  !
 ! A40   A(15,14,26)           110.1769         calculate D2E/DX2 analytically  !
 ! A41   A(25,14,26)           106.8689         calculate D2E/DX2 analytically  !
 ! A42   A(14,15,16)           111.9807         calculate D2E/DX2 analytically  !
 ! A43   A(14,15,27)           108.8738         calculate D2E/DX2 analytically  !
 ! A44   A(14,15,28)           109.2953         calculate D2E/DX2 analytically  !
 ! A45   A(16,15,27)           109.8784         calculate D2E/DX2 analytically  !
 ! A46   A(16,15,28)           109.7596         calculate D2E/DX2 analytically  !
 ! A47   A(27,15,28)           106.9165         calculate D2E/DX2 analytically  !
 ! A48   A(15,16,29)           111.8023         calculate D2E/DX2 analytically  !
 ! A49   A(15,16,30)           111.3432         calculate D2E/DX2 analytically  !
 ! A50   A(15,16,31)           111.2144         calculate D2E/DX2 analytically  !
 ! A51   A(29,16,30)           107.2805         calculate D2E/DX2 analytically  !
 ! A52   A(29,16,31)           107.266          calculate D2E/DX2 analytically  !
 ! A53   A(30,16,31)           107.7099         calculate D2E/DX2 analytically  !
 ! D1    D(1,2,3,4)              0.3576         calculate D2E/DX2 analytically  !
 ! D2    D(1,2,3,17)           177.3943         calculate D2E/DX2 analytically  !
 ! D3    D(14,2,3,4)          -179.0877         calculate D2E/DX2 analytically  !
 ! D4    D(14,2,3,17)           -2.0511         calculate D2E/DX2 analytically  !
 ! D5    D(1,2,14,15)           10.0468         calculate D2E/DX2 analytically  !
 ! D6    D(1,2,14,25)         -111.2039         calculate D2E/DX2 analytically  !
 ! D7    D(1,2,14,26)          132.6334         calculate D2E/DX2 analytically  !
 ! D8    D(3,2,14,15)         -170.5235         calculate D2E/DX2 analytically  !
 ! D9    D(3,2,14,25)           68.2258         calculate D2E/DX2 analytically  !
 ! D10   D(3,2,14,26)          -47.9369         calculate D2E/DX2 analytically  !
 ! D11   D(2,3,4,5)           -158.491          calculate D2E/DX2 analytically  !
 ! D12   D(2,3,4,8)             81.5636         calculate D2E/DX2 analytically  !
 ! D13   D(2,3,4,18)           -38.9825         calculate D2E/DX2 analytically  !
 ! D14   D(17,3,4,5)            24.3615         calculate D2E/DX2 analytically  !
 ! D15   D(17,3,4,8)           -95.584          calculate D2E/DX2 analytically  !
 ! D16   D(17,3,4,18)          143.87           calculate D2E/DX2 analytically  !
 ! D17   D(3,4,5,6)            129.6372         calculate D2E/DX2 analytically  !
 ! D18   D(3,4,5,7)            -50.781          calculate D2E/DX2 analytically  !
 ! D19   D(8,4,5,6)           -110.7067         calculate D2E/DX2 analytically  !
 ! D20   D(8,4,5,7)             68.875          calculate D2E/DX2 analytically  !
 ! D21   D(18,4,5,6)            11.6523         calculate D2E/DX2 analytically  !
 ! D22   D(18,4,5,7)          -168.7659         calculate D2E/DX2 analytically  !
 ! D23   D(3,4,8,9)           -179.3492         calculate D2E/DX2 analytically  !
 ! D24   D(3,4,8,20)            59.9            calculate D2E/DX2 analytically  !
 ! D25   D(3,4,8,21)           -56.6265         calculate D2E/DX2 analytically  !
 ! D26   D(5,4,8,9)             63.3402         calculate D2E/DX2 analytically  !
 ! D27   D(5,4,8,20)           -57.4105         calculate D2E/DX2 analytically  !
 ! D28   D(5,4,8,21)          -173.9371         calculate D2E/DX2 analytically  !
 ! D29   D(18,4,8,9)           -59.6006         calculate D2E/DX2 analytically  !
 ! D30   D(18,4,8,20)          179.6487         calculate D2E/DX2 analytically  !
 ! D31   D(18,4,8,21)           63.1221         calculate D2E/DX2 analytically  !
 ! D32   D(4,5,6,19)           178.8089         calculate D2E/DX2 analytically  !
 ! D33   D(7,5,6,19)            -0.7731         calculate D2E/DX2 analytically  !
 ! D34   D(4,8,9,10)          -102.7806         calculate D2E/DX2 analytically  !
 ! D35   D(4,8,9,13)            75.411          calculate D2E/DX2 analytically  !
 ! D36   D(20,8,9,10)           17.9057         calculate D2E/DX2 analytically  !
 ! D37   D(20,8,9,13)         -163.9026         calculate D2E/DX2 analytically  !
 ! D38   D(21,8,9,10)          136.3996         calculate D2E/DX2 analytically  !
 ! D39   D(21,8,9,13)          -45.4088         calculate D2E/DX2 analytically  !
 ! D40   D(8,9,10,11)          178.3004         calculate D2E/DX2 analytically  !
 ! D41   D(8,9,10,22)           -0.6592         calculate D2E/DX2 analytically  !
 ! D42   D(13,9,10,11)          -0.1328         calculate D2E/DX2 analytically  !
 ! D43   D(13,9,10,22)        -179.0924         calculate D2E/DX2 analytically  !
 ! D44   D(8,9,13,12)         -178.5556         calculate D2E/DX2 analytically  !
 ! D45   D(8,9,13,24)            1.9074         calculate D2E/DX2 analytically  !
 ! D46   D(10,9,13,12)           0.0611         calculate D2E/DX2 analytically  !
 ! D47   D(10,9,13,24)        -179.4759         calculate D2E/DX2 analytically  !
 ! D48   D(9,10,11,12)           0.1538         calculate D2E/DX2 analytically  !
 ! D49   D(22,10,11,12)        179.1736         calculate D2E/DX2 analytically  !
 ! D50   D(10,11,12,13)         -0.1125         calculate D2E/DX2 analytically  !
 ! D51   D(10,11,12,23)        179.7345         calculate D2E/DX2 analytically  !
 ! D52   D(11,12,13,9)           0.034          calculate D2E/DX2 analytically  !
 ! D53   D(11,12,13,24)        179.5676         calculate D2E/DX2 analytically  !
 ! D54   D(23,12,13,9)        -179.821          calculate D2E/DX2 analytically  !
 ! D55   D(23,12,13,24)         -0.2873         calculate D2E/DX2 analytically  !
 ! D56   D(2,14,15,16)        -178.9104         calculate D2E/DX2 analytically  !
 ! D57   D(2,14,15,27)         -57.2083         calculate D2E/DX2 analytically  !
 ! D58   D(2,14,15,28)          59.2471         calculate D2E/DX2 analytically  !
 ! D59   D(25,14,15,16)        -58.188          calculate D2E/DX2 analytically  !
 ! D60   D(25,14,15,27)         63.5141         calculate D2E/DX2 analytically  !
 ! D61   D(25,14,15,28)        179.9695         calculate D2E/DX2 analytically  !
 ! D62   D(26,14,15,16)         59.0607         calculate D2E/DX2 analytically  !
 ! D63   D(26,14,15,27)       -179.2371         calculate D2E/DX2 analytically  !
 ! D64   D(26,14,15,28)        -62.7818         calculate D2E/DX2 analytically  !
 ! D65   D(14,15,16,29)        179.8294         calculate D2E/DX2 analytically  !
 ! D66   D(14,15,16,30)        -60.1839         calculate D2E/DX2 analytically  !
 ! D67   D(14,15,16,31)         59.9494         calculate D2E/DX2 analytically  !
 ! D68   D(27,15,16,29)         58.7058         calculate D2E/DX2 analytically  !
 ! D69   D(27,15,16,30)        178.6925         calculate D2E/DX2 analytically  !
 ! D70   D(27,15,16,31)        -61.1741         calculate D2E/DX2 analytically  !
 ! D71   D(28,15,16,29)        -58.5946         calculate D2E/DX2 analytically  !
 ! D72   D(28,15,16,30)         61.3921         calculate D2E/DX2 analytically  !
 ! D73   D(28,15,16,31)       -178.4746         calculate D2E/DX2 analytically  !
 --------------------------------------------------------------------------------
 Trust Radius=3.00D-01 FncErr=1.00D-07 GrdErr=1.00D-06
 Number of steps in this run=    167 maximum allowed number of steps=    186.
 GradGradGradGradGradGradGradGradGradGradGradGradGradGradGradGradGradGrad

                          Input orientation:                          
 ---------------------------------------------------------------------
 Center     Atomic      Atomic             Coordinates (Angstroms)
 Number     Number       Type             X           Y           Z
 ---------------------------------------------------------------------
      1          8           0        1.162603    0.478671   -1.240831
      2          6           0        1.430616    0.396434   -0.049241
      3          7           0        0.448932    0.320965    0.888456
      4          6           0       -0.955423    0.327373    0.510414
      5          6           0       -1.723545    0.768751    1.735326
      6          8           0       -2.595029    1.768084    1.499553
      7          8           0       -1.575633    0.267005    2.822369
      8          6           0       -1.395584   -1.085407    0.072144
      9          6           0       -2.826998   -1.161603   -0.348369
     10          6           0       -3.946509   -1.633854    0.279987
     11          7           0       -5.070431   -1.453941   -0.508152
     12          6           0       -4.631038   -0.880572   -1.604833
     13          7           0       -3.281841   -0.681612   -1.558207
     14          6           0        2.851131    0.357259    0.494464
     15          6           0        3.889249    0.675187   -0.571600
     16          7           0        5.275090    0.608825   -0.036333
     17          1           0        0.666139    0.214146    1.867082
     18          1           0       -1.092150    1.030957   -0.310017
     19          1           0       -3.031278    1.944219    2.344257
     20          1           0       -1.242985   -1.767641    0.906216
     21          1           0       -0.738682   -1.392072   -0.739669
     22          1           0       -4.001481   -2.079351    1.264996
     23          1           0       -5.221486   -0.590477   -2.455421
     24          1           0       -2.713556   -0.265923   -2.279028
     25          1           0        3.040831   -0.641932    0.902672
     26          1           0        2.937152    1.062081    1.327175
     27          1           0        3.776071   -0.028894   -1.394566
     28          1           0        3.697671    1.668637   -0.975717
     29          1           0        5.969430    0.819825   -0.754425
     30          1           0        5.412113    1.275928    0.722911
     31          1           0        5.486815   -0.320917    0.325582
 ---------------------------------------------------------------------
                    Distance matrix (angstroms):
                    1          2          3          4          5
     1  O    0.000000
     2  C    1.224125   0.000000
     3  N    2.251236   1.359660   0.000000
     4  C    2.752414   2.451768   1.454363   0.000000
     5  C    4.155900   3.643080   2.374312   1.511700   0.000000
     6  O    4.826188   4.526147   3.425389   2.396321   1.346752
     7  O    4.904318   4.159378   2.800320   2.394461   1.206354
     8  C    3.273311   3.193430   2.458961   1.543298   2.512297
     9  C    4.404986   4.543592   3.802560   2.541131   3.047238
    10  C    5.733993   5.757076   4.848861   3.584145   3.582191
    11  N    6.566774   6.774813   5.963571   4.598244   4.601652
    12  C    5.962073   6.387038   5.785004   4.409483   4.725510
    13  N    4.604353   5.064228   4.572744   3.272531   3.921632
    14  C    2.424277   1.521517   2.434566   3.806705   4.757807
    15  C    2.814443   2.528921   3.754067   4.976201   6.069112
    16  N    4.287226   3.850358   4.922388   6.260786   7.221166
    17  H    3.158413   2.071219   1.008116   2.117270   2.456732
    18  H    2.501068   2.614377   2.077344   1.089418   2.156580
    19  H    5.708706   5.294617   4.106844   3.207233   1.860830
    20  H    3.929705   3.569910   2.687969   2.151380   2.711392
    21  H    2.713987   2.895047   2.644942   2.136860   3.429972
    22  H    6.284140   6.112643   5.070452   3.954767   3.677213
    23  H    6.585962   7.142419   6.645742   5.276165   5.625429
    24  H    4.081284   4.752350   4.514280   3.350226   4.262125
    25  H    3.062369   2.139424   2.765016   4.130795   5.038116
    26  H    3.175539   2.146453   2.633052   4.044631   4.687720
    27  H    2.666734   2.737145   4.050240   5.113014   6.377949
    28  H    2.812983   2.759782   3.980662   5.065458   6.127734
    29  H    4.843404   4.612741   5.781334   7.056622   8.085996
    30  H    4.748710   4.149946   5.056929   6.441307   7.224945
    31  H    4.668169   4.136163   5.109708   6.477413   7.427251
                    6          7          8          9         10
     6  O    0.000000
     7  O    2.245495   0.000000
     8  C    3.408604   3.070045   0.000000
     9  C    3.471554   3.695999   1.493848   0.000000
    10  C    3.858370   3.962073   2.617481   1.367902   0.000000
    11  N    4.532101   5.125196   3.738591   2.268035   1.384461
    12  C    4.560474   5.500231   3.649982   2.216357   2.142092
    13  N    3.977766   4.795880   2.525680   1.378761   2.174283
    14  C    5.715006   5.002353   4.504912   5.937883   7.086497
    15  C    6.894198   6.445974   5.607456   6.966463   8.213158
    16  N    8.101951   7.431112   6.883320   8.299133   9.495660
    17  H    3.631118   2.437398   3.026771   4.359233   5.216368
    18  H    2.465065   3.260248   2.171892   2.796156   3.949264
    19  H    0.966882   2.271682   4.125121   4.115591   4.231012
    20  H    3.831635   2.814620   1.088304   2.109588   2.778327
    21  H    4.294965   4.017603   1.088395   2.137123   3.374657
    22  H    4.103156   3.716926   3.033400   2.196501   1.082466
    23  H    5.301218   6.471676   4.612057   3.240282   3.193221
    24  H    4.292891   5.253869   2.817200   2.131328   3.152771
    25  H    6.158520   5.081648   4.535221   6.022174   7.084812
    26  H    5.579712   4.820060   4.995939   6.401378   7.466555
    27  H    7.224678   6.819885   5.478456   6.780713   8.063390
    28  H    6.762760   6.648140   5.884218   7.139687   8.421207
    29  H    8.906715   8.368216   7.652226   9.025967  10.267248
    30  H    8.059760   7.365749   7.234926   8.658646   9.810546
    31  H    8.429611   7.513839   6.929365   8.383344   9.524363
                   11         12         13         14         15
    11  N    0.000000
    12  C    1.313212   0.000000
    13  N    2.213179   1.364585   0.000000
    14  C    8.187603   7.869061   6.550272   0.000000
    15  C    9.209402   8.722571   7.364701   1.521597   0.000000
    16  N   10.559708  10.139520   8.786489   2.494115   1.487101
    17  H    6.429035   6.427494   5.302974   2.584329   4.067944
    18  H    4.694752   4.225425   3.047231   4.080505   5.000933
    19  H    4.882814   5.112141   4.710307   6.367332   7.616190
    20  H    4.092455   4.309426   3.377835   4.631040   5.872919
    21  H    4.338373   4.020021   2.764492   4.179713   5.071445
    22  H    2.162833   3.173221   3.231413   7.313623   8.557113
    23  H    2.135473   1.075307   2.139047   8.646802   9.389152
    24  H    3.178403   2.123457   1.007635   6.248709   6.884623
    25  H    8.272990   8.074782   6.784813   1.095903   2.151300
    26  H    8.591867   8.345542   7.074021   1.094341   2.159056
    27  H    9.004281   8.452753   7.089918   2.138472   1.088950
    28  H    9.319266   8.732791   7.387594   2.144242   1.089475
    29  H   11.274271  10.769608   9.406721   3.390793   2.093203
    30  H   10.901901  10.532510   9.198930   2.730342   2.087047
    31  H   10.650555  10.315555   8.975973   2.726770   2.085516
                   16         17         18         19         20
    16  N    0.000000
    17  H    5.002119   0.000000
    18  H    6.387084   2.915222   0.000000
    19  H    8.743354   4.109956   3.411662   0.000000
    20  H    7.001521   2.914704   3.055180   4.363927   0.000000
    21  H    6.376812   3.368770   2.486083   5.088952   1.761905
    22  H    9.745487   5.235391   4.540803   4.277291   2.799140
    23  H   10.838285   7.348168   4.927801   5.853085   5.339924
    24  H    8.343460   5.370571   2.861444   5.134242   3.816217
    25  H    2.727277   2.702243   4.620682   6.755505   4.429257
    26  H    2.744185   2.483544   4.349326   6.118396   5.065380
    27  H    2.120976   4.513213   5.098931   8.013237   5.788589
    28  H    2.119881   4.403094   4.877722   7.508457   6.305534
    29  H    1.020923   5.946768   7.078699   9.585345   7.840385
    30  H    1.019928   4.996077   6.590325   8.623586   7.320331
    31  H    1.019917   5.089346   6.746431   9.042334   6.907993
                   21         22         23         24         25
    21  H    0.000000
    22  H    3.890616   0.000000
    23  H    4.866404   4.188873   0.000000
    24  H    2.745535   4.184182   2.534988   0.000000
    25  H    4.188641   7.196639   8.918819   6.586165   0.000000
    26  H    4.879187   7.616895   9.143432   6.833652   1.759151
    27  H    4.761317   8.471597   9.077269   6.553908   2.488714
    28  H    5.394895   8.851280   9.319039   6.822388   3.049347
    29  H    7.063390  10.578391  11.406969   8.882427   3.668705
    30  H    6.862190  10.008372  11.254275   8.798605   3.055074
    31  H    6.406165   9.695482  11.066814   8.604250   2.533559
                   26         27         28         29         30
    26  H    0.000000
    27  H    3.049900   0.000000
    28  H    2.499923   1.750198   0.000000
    29  H    3.685981   2.437402   2.435230   0.000000
    30  H    2.556619   2.977063   2.445173   1.643519   0.000000
    31  H    3.068657   2.443529   2.975356   1.643357   1.647229
                   31
    31  H    0.000000
 Symmetry turned off by external request.
 Stoichiometry    C9H15N4O3(1+)
 Framework group  C1[X(C9H15N4O3)]
 Deg. of freedom    87
 Full point group                 C1      NOp   1
 Rotational constants (GHZ):      1.0449480      0.2251058      0.2000292
 Standard basis: 6-31G(d,p) (6D, 7F)
   315 basis functions,   553 primitive gaussians,   315 cartesian basis functions
    60 alpha electrons       60 beta electrons
       nuclear repulsion energy      1111.5256414978 Hartrees.
 NAtoms=   31 NActive=   31 NUniq=   31 SFac= 1.00D+00 NAtFMM=   60 NAOKFM=F Big=F
 Integral buffers will be    131072 words long.
 Raffenetti 2 integral format.
 Two-electron integral symmetry is turned off.
 One-electron integrals computed using PRISM.
 NBasis=   315 RedAO= T EigKep=  1.16D-03  NBF=   315
 NBsUse=   315 1.00D-06 EigRej= -1.00D+00 NBFU=   315
 ExpMin= 1.61D-01 ExpMax= 5.48D+03 ExpMxC= 8.25D+02 IAcc=3 IRadAn=         5 AccDes= 0.00D+00
 Harris functional with IExCor=  402 and IRadAn=       5 diagonalized for initial guess.
 HarFok:  IExCor=  402 AccDes= 0.00D+00 IRadAn=         5 IDoV= 1 UseB2=F ITyADJ=14
 ICtDFT=  3500011 ScaDFX=  1.000000  1.000000  1.000000  1.000000
 FoFCou: FMM=F IPFlag=           0 FMFlag=      100000 FMFlg1=           0
         NFxFlg=           0 DoJE=T BraDBF=F KetDBF=T FulRan=T
         wScrn=  0.000000 ICntrl=     500 IOpCl=  0 I1Cent=   200000004 NGrid=           0
         NMat0=    1 NMatS0=      1 NMatT0=    0 NMatD0=    1 NMtDS0=    0 NMtDT0=    0
 Symmetry not used in FoFCou.
 Requested convergence on RMS density matrix=1.00D-08 within 128 cycles.
 Requested convergence on MAX density matrix=1.00D-06.
 Requested convergence on             energy=1.00D-06.
 No special actions if energy rises.
 Integral accuracy reduced to 1.0D-05 until final iterations.
 EnCoef did     2 forward-backward iterations
 Initial convergence to 1.0D-05 achieved.  Increase integral accuracy.
 SCF Done:  E(RB3LYP) =  -796.471846543     A.U. after   17 cycles
            NFock= 17  Conv=0.45D-08     -V/T= 2.0089
 DoSCS=F DFT=T ScalE2(SS,OS)=  1.000000  1.000000
 Range of M.O.s used for correlation:     1   315
 NBasis=   315 NAE=    60 NBE=    60 NFC=     0 NFV=     0
 NROrb=    315 NOA=    60 NOB=    60 NVA=   255 NVB=   255
 Symmetrizing basis deriv contribution to polar:
 IMax=3 JMax=2 DiffMx= 0.00D+00
 G2DrvN: will do    32 centers at a time, making    1 passes.
 Calling FoFCou, ICntrl=  3107 FMM=F I1Cent=   0 AccDes= 0.00D+00.
 End of G2Drv F.D. properties file   721 does not exist.
 End of G2Drv F.D. properties file   722 does not exist.
 End of G2Drv F.D. properties file   788 does not exist.
          IDoAtm=1111111111111111111111111111111
          Differentiating once with respect to nuclear coordinates.
          There are    96 degrees of freedom in the 1st order CPHF.  IDoFFX=6 NUNeed=     0.
     90 vectors produced by pass  0 Test12= 1.59D-14 1.04D-09 XBig12= 1.43D-01 1.22D-01.
 AX will form    90 AO Fock derivatives at one time.
     90 vectors produced by pass  1 Test12= 1.59D-14 1.04D-09 XBig12= 1.31D-02 3.50D-02.
     90 vectors produced by pass  2 Test12= 1.59D-14 1.04D-09 XBig12= 1.35D-04 1.86D-03.
     90 vectors produced by pass  3 Test12= 1.59D-14 1.04D-09 XBig12= 4.11D-07 1.02D-04.
     90 vectors produced by pass  4 Test12= 1.59D-14 1.04D-09 XBig12= 6.60D-10 3.27D-06.
     71 vectors produced by pass  5 Test12= 1.59D-14 1.04D-09 XBig12= 7.40D-13 1.07D-07.
     15 vectors produced by pass  6 Test12= 1.59D-14 1.04D-09 XBig12= 6.67D-16 4.01D-09.
 InvSVY:  IOpt=1 It=  1 EMax= 7.77D-16
 Solved reduced A of dimension   536 with    96 vectors.
 End of Minotr F.D. properties file   721 does not exist.
 End of Minotr F.D. properties file   722 does not exist.
 End of Minotr F.D. properties file   788 does not exist.

 **********************************************************************

            Population analysis using the SCF density.

 **********************************************************************

 Alpha  occ. eigenvalues --  -19.29410 -19.25225 -19.24240 -14.67814 -14.48932
 Alpha  occ. eigenvalues --  -14.45777 -14.37334 -10.43774 -10.43227 -10.42263
 Alpha  occ. eigenvalues --  -10.37890 -10.34711 -10.30244 -10.29490 -10.28862
 Alpha  occ. eigenvalues --  -10.26179  -1.22478  -1.20875  -1.17446  -1.12007
 Alpha  occ. eigenvalues --   -1.07987  -1.05416  -0.97496  -0.93480  -0.90181
 Alpha  occ. eigenvalues --   -0.85765  -0.82305  -0.80563  -0.79668  -0.76603
 Alpha  occ. eigenvalues --   -0.72595  -0.70561  -0.70379  -0.67848  -0.65777
 Alpha  occ. eigenvalues --   -0.65112  -0.64554  -0.61133  -0.59936  -0.59235
 Alpha  occ. eigenvalues --   -0.57560  -0.57141  -0.56700  -0.54941  -0.53587
 Alpha  occ. eigenvalues --   -0.52733  -0.51575  -0.50165  -0.49489  -0.48541
 Alpha  occ. eigenvalues --   -0.47499  -0.46976  -0.46276  -0.41758  -0.39695
 Alpha  occ. eigenvalues --   -0.38658  -0.37612  -0.34308  -0.32622  -0.29315
 Alpha virt. eigenvalues --   -0.17433  -0.12351  -0.10906  -0.10398  -0.09271
 Alpha virt. eigenvalues --   -0.07265  -0.04267  -0.03582  -0.02740  -0.02215
 Alpha virt. eigenvalues --   -0.00662  -0.00281   0.00304   0.01056   0.02231
 Alpha virt. eigenvalues --    0.03289   0.04342   0.05600   0.07248   0.07990
 Alpha virt. eigenvalues --    0.09144   0.10995   0.11111   0.13115   0.14487
 Alpha virt. eigenvalues --    0.15615   0.17222   0.19132   0.20744   0.21302
 Alpha virt. eigenvalues --    0.25213   0.26445   0.27584   0.31760   0.33052
 Alpha virt. eigenvalues --    0.33308   0.34222   0.36022   0.38684   0.39292
 Alpha virt. eigenvalues --    0.40154   0.41922   0.44304   0.45008   0.47084
 Alpha virt. eigenvalues --    0.48354   0.48468   0.49116   0.50167   0.50930
 Alpha virt. eigenvalues --    0.51813   0.53009   0.54090   0.56314   0.56929
 Alpha virt. eigenvalues --    0.57463   0.57822   0.58235   0.58551   0.59661
 Alpha virt. eigenvalues --    0.60282   0.60482   0.62167   0.63392   0.65370
 Alpha virt. eigenvalues --    0.66454   0.67077   0.67958   0.68866   0.69938
 Alpha virt. eigenvalues --    0.71467   0.71895   0.73110   0.73323   0.73852
 Alpha virt. eigenvalues --    0.74166   0.75552   0.75987   0.76495   0.78066
 Alpha virt. eigenvalues --    0.78247   0.78980   0.79565   0.80543   0.81078
 Alpha virt. eigenvalues --    0.81706   0.83769   0.85160   0.86464   0.88871
 Alpha virt. eigenvalues --    0.90309   0.93007   0.93451   0.96512   0.99211
 Alpha virt. eigenvalues --    0.99709   1.01614   1.05404   1.05922   1.06174
 Alpha virt. eigenvalues --    1.10667   1.13850   1.14828   1.17157   1.19561
 Alpha virt. eigenvalues --    1.21802   1.23858   1.25483   1.26934   1.28540
 Alpha virt. eigenvalues --    1.29063   1.30733   1.32216   1.34580   1.35599
 Alpha virt. eigenvalues --    1.36972   1.38906   1.39658   1.40968   1.42723
 Alpha virt. eigenvalues --    1.44007   1.46438   1.50336   1.50536   1.54252
 Alpha virt. eigenvalues --    1.55660   1.56888   1.58306   1.61637   1.63197
 Alpha virt. eigenvalues --    1.66161   1.66560   1.66918   1.68409   1.69113
 Alpha virt. eigenvalues --    1.71033   1.71661   1.73283   1.74862   1.75054
 Alpha virt. eigenvalues --    1.76982   1.78000   1.78842   1.79708   1.80906
 Alpha virt. eigenvalues --    1.83365   1.85718   1.86183   1.87024   1.87962
 Alpha virt. eigenvalues --    1.89983   1.90379   1.92670   1.94478   1.96424
 Alpha virt. eigenvalues --    1.96828   1.97498   1.99009   2.01583   2.02790
 Alpha virt. eigenvalues --    2.03507   2.04880   2.05370   2.07086   2.08437
 Alpha virt. eigenvalues --    2.10664   2.11655   2.11820   2.13032   2.16650
 Alpha virt. eigenvalues --    2.16917   2.17899   2.20496   2.21092   2.22639
 Alpha virt. eigenvalues --    2.25053   2.27062   2.28831   2.30205   2.32923
 Alpha virt. eigenvalues --    2.35932   2.37173   2.38031   2.38667   2.39168
 Alpha virt. eigenvalues --    2.41518   2.41804   2.43681   2.45788   2.47575
 Alpha virt. eigenvalues --    2.49052   2.49252   2.50313   2.50976   2.52571
 Alpha virt. eigenvalues --    2.53118   2.54488   2.56050   2.58486   2.60353
 Alpha virt. eigenvalues --    2.61167   2.62675   2.63382   2.65870   2.66050
 Alpha virt. eigenvalues --    2.66731   2.67953   2.71285   2.72343   2.73228
 Alpha virt. eigenvalues --    2.74150   2.74886   2.78672   2.80291   2.82367
 Alpha virt. eigenvalues --    2.82909   2.85271   2.88812   2.91026   2.94327
 Alpha virt. eigenvalues --    2.95670   2.96437   2.96960   3.07293   3.09187
 Alpha virt. eigenvalues --    3.11099   3.13163   3.16616   3.20296   3.22265
 Alpha virt. eigenvalues --    3.22985   3.25666   3.29048   3.35286   3.36381
 Alpha virt. eigenvalues --    3.40175   3.44839   3.49546   3.61270   3.83550
 Alpha virt. eigenvalues --    3.85599   3.93522   3.97002   4.04022   4.08465
 Alpha virt. eigenvalues --    4.15424   4.17829   4.20609   4.33618   4.35386
 Alpha virt. eigenvalues --    4.39595   4.44143   4.50644   4.64538   4.73050
          Condensed to atoms (all electrons):
               1          2          3          4          5          6
     1  O    8.095462   0.566182  -0.097278   0.004566   0.000499   0.000000
     2  C    0.566182   4.311940   0.317587  -0.031390   0.006310  -0.000100
     3  N   -0.097278   0.317587   7.050267   0.198487  -0.023191   0.000480
     4  C    0.004566  -0.031390   0.198487   5.122997   0.277089  -0.080062
     5  C    0.000499   0.006310  -0.023191   0.277089   4.422551   0.277262
     6  O    0.000000  -0.000100   0.000480  -0.080062   0.277262   8.069661
     7  O   -0.000004   0.000420  -0.007529  -0.082424   0.542387  -0.085020
     8  C   -0.003953  -0.003220  -0.049164   0.325427  -0.034677  -0.000983
     9  C   -0.000159   0.000102   0.004057  -0.054303   0.004239   0.001377
    10  C   -0.000001  -0.000002  -0.000045  -0.004276   0.005303  -0.000558
    11  N    0.000000   0.000000   0.000000  -0.000069  -0.000046  -0.000029
    12  C    0.000000   0.000000   0.000001   0.000235  -0.000074   0.000108
    13  N    0.000002  -0.000007   0.000021   0.000109  -0.001149  -0.000170
    14  C   -0.095371   0.280831  -0.129198   0.006945  -0.000183   0.000000
    15  C    0.008850  -0.020205   0.004280  -0.000147   0.000001   0.000000
    16  N    0.000331   0.002353  -0.000017   0.000000   0.000000   0.000000
    17  H    0.002960  -0.023227   0.330123  -0.034567  -0.002774   0.000600
    18  H    0.009140  -0.002852  -0.044185   0.380736  -0.032978   0.004344
    19  H    0.000000   0.000003  -0.000229   0.010182  -0.012858   0.277371
    20  H    0.000025   0.000256  -0.001198  -0.037526  -0.009151   0.000238
    21  H    0.005849   0.005133  -0.008734  -0.043410   0.005570  -0.000102
    22  H    0.000000   0.000000  -0.000001   0.000048   0.000176  -0.000030
    23  H    0.000000   0.000000   0.000000  -0.000001  -0.000001   0.000001
    24  H    0.000065   0.000005  -0.000032   0.000147   0.000102  -0.000018
    25  H    0.000455  -0.016008  -0.000883  -0.000048  -0.000003   0.000000
    26  H    0.001466  -0.016051   0.001806  -0.000006  -0.000017   0.000000
    27  H    0.008296   0.000787   0.000369  -0.000003   0.000000   0.000000
    28  H    0.003599  -0.000082   0.000238  -0.000004   0.000000   0.000000
    29  H    0.000014   0.000021   0.000001   0.000000   0.000000   0.000000
    30  H    0.000006  -0.000026   0.000000   0.000000   0.000000   0.000000
    31  H    0.000012  -0.000005   0.000001   0.000000   0.000000   0.000000
               7          8          9         10         11         12
     1  O   -0.000004  -0.003953  -0.000159  -0.000001   0.000000   0.000000
     2  C    0.000420  -0.003220   0.000102  -0.000002   0.000000   0.000000
     3  N   -0.007529  -0.049164   0.004057  -0.000045   0.000000   0.000001
     4  C   -0.082424   0.325427  -0.054303  -0.004276  -0.000069   0.000235
     5  C    0.542387  -0.034677   0.004239   0.005303  -0.000046  -0.000074
     6  O   -0.085020  -0.000983   0.001377  -0.000558  -0.000029   0.000108
     7  O    8.061109  -0.000922  -0.002177   0.000144   0.000003   0.000000
     8  C   -0.000922   5.078186   0.342352  -0.052634   0.006862   0.006087
     9  C   -0.002177   0.342352   4.803728   0.563810  -0.047149  -0.090792
    10  C    0.000144  -0.052634   0.563810   4.859103   0.422230  -0.115869
    11  N    0.000003   0.006862  -0.047149   0.422230   6.670276   0.534908
    12  C    0.000000   0.006087  -0.090792  -0.115869   0.534908   4.668023
    13  N    0.000004  -0.069311   0.336858  -0.074078  -0.083291   0.349141
    14  C   -0.000033  -0.000584  -0.000004   0.000000   0.000000   0.000000
    15  C    0.000000   0.000005   0.000000   0.000000   0.000000   0.000000
    16  N    0.000000   0.000000   0.000000   0.000000   0.000000   0.000000
    17  H    0.018611   0.001164  -0.000045  -0.000003   0.000000   0.000000
    18  H    0.003005  -0.036365  -0.003089  -0.000109   0.000011  -0.000016
    19  H    0.007404  -0.000346   0.000127   0.000125  -0.000004  -0.000008
    20  H    0.006174   0.374364  -0.025126  -0.004190   0.000074  -0.000069
    21  H    0.000042   0.367616  -0.021183   0.002802  -0.000167   0.000044
    22  H    0.000150  -0.001294  -0.058740   0.393944  -0.039164   0.006973
    23  H    0.000000  -0.000163   0.003170   0.006996  -0.035907   0.393218
    24  H    0.000000  -0.002754  -0.031744   0.008796   0.005155  -0.023145
    25  H    0.000000   0.000075  -0.000001   0.000000   0.000000   0.000000
    26  H   -0.000001   0.000004   0.000000   0.000000   0.000000   0.000000
    27  H    0.000000   0.000000   0.000000   0.000000   0.000000   0.000000
    28  H    0.000000   0.000001   0.000000   0.000000   0.000000   0.000000
    29  H    0.000000   0.000000   0.000000   0.000000   0.000000   0.000000
    30  H    0.000000   0.000000   0.000000   0.000000   0.000000   0.000000
    31  H    0.000000   0.000000   0.000000   0.000000   0.000000   0.000000
              13         14         15         16         17         18
     1  O    0.000002  -0.095371   0.008850   0.000331   0.002960   0.009140
     2  C   -0.000007   0.280831  -0.020205   0.002353  -0.023227  -0.002852
     3  N    0.000021  -0.129198   0.004280  -0.000017   0.330123  -0.044185
     4  C    0.000109   0.006945  -0.000147   0.000000  -0.034567   0.380736
     5  C   -0.001149  -0.000183   0.000001   0.000000  -0.002774  -0.032978
     6  O   -0.000170   0.000000   0.000000   0.000000   0.000600   0.004344
     7  O    0.000004  -0.000033   0.000000   0.000000   0.018611   0.003005
     8  C   -0.069311  -0.000584   0.000005   0.000000   0.001164  -0.036365
     9  C    0.336858  -0.000004   0.000000   0.000000  -0.000045  -0.003089
    10  C   -0.074078   0.000000   0.000000   0.000000  -0.000003  -0.000109
    11  N   -0.083291   0.000000   0.000000   0.000000   0.000000   0.000011
    12  C    0.349141   0.000000   0.000000   0.000000   0.000000  -0.000016
    13  N    6.785983   0.000000   0.000000   0.000000   0.000000   0.003035
    14  C    0.000000   5.304009   0.316903  -0.041788   0.000566   0.000709
    15  C    0.000000   0.316903   5.028624   0.154117  -0.000016   0.000010
    16  N    0.000000  -0.041788   0.154117   6.480789  -0.000009   0.000000
    17  H    0.000000   0.000566  -0.000016  -0.000009   0.418535   0.004402
    18  H    0.003035   0.000709   0.000010   0.000000   0.004402   0.559629
    19  H    0.000007   0.000000   0.000000   0.000000  -0.000084  -0.000411
    20  H    0.003687   0.000043   0.000000   0.000000   0.001897   0.005445
    21  H   -0.004294   0.000091  -0.000001   0.000000  -0.000386  -0.005285
    22  H    0.004757   0.000000   0.000000   0.000000   0.000000   0.000008
    23  H   -0.056112   0.000000   0.000000   0.000000   0.000000   0.000004
    24  H    0.338129   0.000000   0.000000   0.000000   0.000000   0.000507
    25  H    0.000000   0.371617  -0.038182  -0.002310   0.000494  -0.000014
    26  H    0.000000   0.365922  -0.039014  -0.002148   0.000888  -0.000030
    27  H    0.000000  -0.038726   0.393687  -0.030633  -0.000013  -0.000002
    28  H    0.000000  -0.036536   0.396944  -0.031397  -0.000008  -0.000004
    29  H    0.000000   0.003521  -0.023004   0.338345   0.000000   0.000000
    30  H    0.000000  -0.001427  -0.020778   0.332482   0.000000   0.000000
    31  H    0.000000  -0.000987  -0.022172   0.332537   0.000000   0.000000
              19         20         21         22         23         24
     1  O    0.000000   0.000025   0.005849   0.000000   0.000000   0.000065
     2  C    0.000003   0.000256   0.005133   0.000000   0.000000   0.000005
     3  N   -0.000229  -0.001198  -0.008734  -0.000001   0.000000  -0.000032
     4  C    0.010182  -0.037526  -0.043410   0.000048  -0.000001   0.000147
     5  C   -0.012858  -0.009151   0.005570   0.000176  -0.000001   0.000102
     6  O    0.277371   0.000238  -0.000102  -0.000030   0.000001  -0.000018
     7  O    0.007404   0.006174   0.000042   0.000150   0.000000   0.000000
     8  C   -0.000346   0.374364   0.367616  -0.001294  -0.000163  -0.002754
     9  C    0.000127  -0.025126  -0.021183  -0.058740   0.003170  -0.031744
    10  C    0.000125  -0.004190   0.002802   0.393944   0.006996   0.008796
    11  N   -0.000004   0.000074  -0.000167  -0.039164  -0.035907   0.005155
    12  C   -0.000008  -0.000069   0.000044   0.006973   0.393218  -0.023145
    13  N    0.000007   0.003687  -0.004294   0.004757  -0.056112   0.338129
    14  C    0.000000   0.000043   0.000091   0.000000   0.000000   0.000000
    15  C    0.000000   0.000000  -0.000001   0.000000   0.000000   0.000000
    16  N    0.000000   0.000000   0.000000   0.000000   0.000000   0.000000
    17  H   -0.000084   0.001897  -0.000386   0.000000   0.000000   0.000000
    18  H   -0.000411   0.005445  -0.005285   0.000008   0.000004   0.000507
    19  H    0.378576  -0.000024   0.000009   0.000007   0.000000   0.000000
    20  H   -0.000024   0.573631  -0.029441   0.002536   0.000004  -0.000060
    21  H    0.000009  -0.029441   0.592688  -0.000017  -0.000005   0.001754
    22  H    0.000007   0.002536  -0.000017   0.588453  -0.000151  -0.000097
    23  H    0.000000   0.000004  -0.000005  -0.000151   0.561046   0.000307
    24  H    0.000000  -0.000060   0.001754  -0.000097   0.000307   0.436600
    25  H    0.000000  -0.000012  -0.000019   0.000000   0.000000   0.000000
    26  H    0.000000   0.000001   0.000000   0.000000   0.000000   0.000000
    27  H    0.000000   0.000000  -0.000001   0.000000   0.000000   0.000000
    28  H    0.000000   0.000000   0.000000   0.000000   0.000000   0.000000
    29  H    0.000000   0.000000   0.000000   0.000000   0.000000   0.000000
    30  H    0.000000   0.000000   0.000000   0.000000   0.000000   0.000000
    31  H    0.000000   0.000000   0.000000   0.000000   0.000000   0.000000
              25         26         27         28         29         30
     1  O    0.000455   0.001466   0.008296   0.003599   0.000014   0.000006
     2  C   -0.016008  -0.016051   0.000787  -0.000082   0.000021  -0.000026
     3  N   -0.000883   0.001806   0.000369   0.000238   0.000001   0.000000
     4  C   -0.000048  -0.000006  -0.000003  -0.000004   0.000000   0.000000
     5  C   -0.000003  -0.000017   0.000000   0.000000   0.000000   0.000000
     6  O    0.000000   0.000000   0.000000   0.000000   0.000000   0.000000
     7  O    0.000000  -0.000001   0.000000   0.000000   0.000000   0.000000
     8  C    0.000075   0.000004   0.000000   0.000001   0.000000   0.000000
     9  C   -0.000001   0.000000   0.000000   0.000000   0.000000   0.000000
    10  C    0.000000   0.000000   0.000000   0.000000   0.000000   0.000000
    11  N    0.000000   0.000000   0.000000   0.000000   0.000000   0.000000
    12  C    0.000000   0.000000   0.000000   0.000000   0.000000   0.000000
    13  N    0.000000   0.000000   0.000000   0.000000   0.000000   0.000000
    14  C    0.371617   0.365922  -0.038726  -0.036536   0.003521  -0.001427
    15  C   -0.038182  -0.039014   0.393687   0.396944  -0.023004  -0.020778
    16  N   -0.002310  -0.002148  -0.030633  -0.031397   0.338345   0.332482
    17  H    0.000494   0.000888  -0.000013  -0.000008   0.000000   0.000000
    18  H   -0.000014  -0.000030  -0.000002  -0.000004   0.000000   0.000000
    19  H    0.000000   0.000000   0.000000   0.000000   0.000000   0.000000
    20  H   -0.000012   0.000001   0.000000   0.000000   0.000000   0.000000
    21  H   -0.000019   0.000000  -0.000001   0.000000   0.000000   0.000000
    22  H    0.000000   0.000000   0.000000   0.000000   0.000000   0.000000
    23  H    0.000000   0.000000   0.000000   0.000000   0.000000   0.000000
    24  H    0.000000   0.000000   0.000000   0.000000   0.000000   0.000000
    25  H    0.549251  -0.030604  -0.004763   0.004504  -0.000006  -0.000401
    26  H   -0.030604   0.561666   0.004656  -0.004772  -0.000008   0.004428
    27  H   -0.004763   0.004656   0.473647  -0.023009  -0.001758   0.003684
    28  H    0.004504  -0.004772  -0.023009   0.480988  -0.001960  -0.003285
    29  H   -0.000006  -0.000008  -0.001758  -0.001960   0.336335  -0.014991
    30  H   -0.000401   0.004428   0.003684  -0.003285  -0.014991   0.346926
    31  H    0.004824  -0.000319  -0.003157   0.003816  -0.014658  -0.016640
              31
     1  O    0.000012
     2  C   -0.000005
     3  N    0.000001
     4  C    0.000000
     5  C    0.000000
     6  O    0.000000
     7  O    0.000000
     8  C    0.000000
     9  C    0.000000
    10  C    0.000000
    11  N    0.000000
    12  C    0.000000
    13  N    0.000000
    14  C   -0.000987
    15  C   -0.022172
    16  N    0.332537
    17  H    0.000000
    18  H    0.000000
    19  H    0.000000
    20  H    0.000000
    21  H    0.000000
    22  H    0.000000
    23  H    0.000000
    24  H    0.000000
    25  H    0.004824
    26  H   -0.000319
    27  H   -0.003157
    28  H    0.003816
    29  H   -0.014658
    30  H   -0.016640
    31  H    0.346719
 Mulliken charges:
               1
     1  O   -0.511012
     2  C    0.621244
     3  N   -0.546032
     4  C    0.041266
     5  C    0.575612
     6  O   -0.464369
     7  O   -0.461346
     8  C   -0.245775
     9  C    0.274690
    10  C   -0.011489
    11  N   -0.433691
    12  C    0.271237
    13  N   -0.533320
    14  C   -0.306321
    15  C   -0.139903
    16  N   -0.532653
    17  H    0.280891
    18  H    0.154354
    19  H    0.340154
    20  H    0.138424
    21  H    0.131448
    22  H    0.102443
    23  H    0.127595
    24  H    0.266282
    25  H    0.162033
    26  H    0.152131
    27  H    0.216938
    28  H    0.210969
    29  H    0.378148
    30  H    0.370023
    31  H    0.370028
 Sum of Mulliken charges =   1.00000
 Mulliken charges with hydrogens summed into heavy atoms:
               1
     1  O   -0.511012
     2  C    0.621244
     3  N   -0.265141
     4  C    0.195620
     5  C    0.575612
     6  O   -0.124215
     7  O   -0.461346
     8  C    0.024097
     9  C    0.274690
    10  C    0.090954
    11  N   -0.433691
    12  C    0.398832
    13  N   -0.267037
    14  C    0.007843
    15  C    0.288004
    16  N    0.585546
 APT charges:
               1
     1  O   -0.412721
     2  C    0.216133
     3  N   -0.722086
     4  C   -0.266203
     5  C   -0.303761
     6  O   -0.813683
     7  O    0.145248
     8  C   -0.747367
     9  C   -0.709043
    10  C   -0.139889
    11  N    0.431042
    12  C   -0.564644
    13  N   -0.600970
    14  C   -0.650264
    15  C   -0.155568
    16  N   -1.995856
    17  H    0.586338
    18  H    0.316418
    19  H    1.073656
    20  H    0.395154
    21  H    0.242665
    22  H    0.532694
    23  H    0.973351
    24  H    0.225947
    25  H    0.365809
    26  H    0.418009
    27  H    0.255274
    28  H    0.334450
    29  H    1.247459
    30  H    0.714550
    31  H    0.607856
 Sum of APT charges =   1.00000
 APT charges with hydrogens summed into heavy atoms:
               1
     1  O   -0.412721
     2  C    0.216133
     3  N   -0.135747
     4  C    0.050216
     5  C   -0.303761
     6  O    0.259974
     7  O    0.145248
     8  C   -0.109548
     9  C   -0.709043
    10  C    0.392805
    11  N    0.431042
    12  C    0.408707
    13  N   -0.375022
    14  C    0.133555
    15  C    0.434156
    16  N    0.574010
 Electronic spatial extent (au):  <R**2>=           5468.3245
 Charge=              1.0000 electrons
 Dipole moment (field-independent basis, Debye):
    X=             23.6638    Y=              4.3259    Z=              0.3929  Tot=             24.0591
 Quadrupole moment (field-independent basis, Debye-Ang):
   XX=             20.6204   YY=            -87.0445   ZZ=            -83.3485
   XY=              2.9425   XZ=              5.9860   YZ=              3.6214
 Traceless Quadrupole moment (field-independent basis, Debye-Ang):
   XX=             70.5446   YY=            -37.1203   ZZ=            -33.4243
   XY=              2.9425   XZ=              5.9860   YZ=              3.6214
 Octapole moment (field-independent basis, Debye-Ang**2):
  XXX=            970.3784  YYY=             32.1148  ZZZ=            -63.6550  XYY=             98.3905
  XXY=            138.3837  XXZ=            -24.3344  XZZ=             41.5266  YZZ=             17.3983
  YYZ=              3.7580  XYZ=             -6.9663
 Hexadecapole moment (field-independent basis, Debye-Ang**3):
 XXXX=          -2400.7184 YYYY=           -595.1957 ZZZZ=           -874.6599 XXXY=           -364.1862
 XXXZ=            -36.3843 YYYX=           -477.6708 YYYZ=           -114.7416 ZZZX=             41.1465
 ZZZY=            -79.6647 XXYY=           -947.1762 XXZZ=           -791.8345 YYZZ=           -209.2973
 XXYZ=            -24.4440 YYXZ=            -63.9979 ZZXY=           -172.9573
 N-N= 1.111525641498D+03 E-N=-4.065788896814D+03  KE= 7.894322529230D+02
  Exact polarizability:   0.000   0.000   0.000   0.000   0.000   0.000
 Approx polarizability: 201.637   4.085 133.202   0.615 -25.327 201.272
 Calling FoFJK, ICntrl=    100147 FMM=F ISym2X=0 I1Cent= 0 IOpClX= 0 NMat=1 NMatS=1 NMatT=0.
 -------------------------------------------------------------------
 Center     Atomic                   Forces (Hartrees/Bohr)
 Number     Number              X              Y              Z
 -------------------------------------------------------------------
      1        8           0.013772814    0.001672333   -0.008667353
      2        6          -0.023692691   -0.000978918    0.002696338
      3        7           0.016714761    0.004203633   -0.001543549
      4        6           0.001253924   -0.001160361   -0.002959427
      5        6          -0.013747469    0.010754964   -0.002540447
      6        8           0.008701827   -0.005695981   -0.007467649
      7        8           0.006890184   -0.005353800    0.009815707
      8        6          -0.009489664   -0.001586794   -0.001631216
      9        6           0.005798951    0.000226341    0.000284130
     10        6          -0.009522870   -0.000163081    0.001009650
     11        7           0.002467778   -0.002008815    0.004648699
     12        6           0.001868560   -0.001801774    0.004613478
     13        7           0.002283002    0.003636496   -0.005613354
     14        6           0.011974797   -0.002204535    0.010396434
     15        6          -0.030020918    0.001456465   -0.011689465
     16        7           0.005547677    0.000321836    0.000027702
     17        1          -0.001478177   -0.001656280    0.004391840
     18        1           0.000018104    0.001671482    0.000026360
     19        1          -0.005485229    0.001835207    0.005047236
     20        1           0.001347685   -0.001797876    0.003029986
     21        1           0.003535109   -0.001327951   -0.002888202
     22        1          -0.001303415   -0.000707316   -0.001033805
     23        1          -0.003104799    0.000734961   -0.003020717
     24        1           0.000280132    0.000292379   -0.001904542
     25        1          -0.001202769   -0.002036902    0.001699049
     26        1          -0.000614635    0.001139532    0.002404647
     27        1           0.005298176   -0.001246821   -0.002086583
     28        1           0.005939235    0.002549255   -0.000807402
     29        1           0.003075292    0.001120588   -0.003983960
     30        1           0.001244702    0.003067629    0.004832163
     31        1           0.001649927   -0.004955895    0.002914253
 -------------------------------------------------------------------
 Cartesian Forces:  Max     0.030020918 RMS     0.006385174
 FormGI is forming the generalized inverse of G from B-inverse, IUseBI=4.

 GradGradGradGradGradGradGradGradGradGradGradGradGradGradGradGradGradGrad
 Berny optimization.
 Internal  Forces:  Max     0.018448782 RMS     0.003818813
 Search for a local minimum.
 Step number   1 out of a maximum of  167
 All quantities printed in internal units (Hartrees-Bohrs-Radians)
 Mixed Optimization -- RFO/linear search
 Second derivative matrix not updated -- analytic derivatives used.
 ITU=  0
     Eigenvalues ---   -0.00072   0.00064   0.00181   0.00208   0.00219
     Eigenvalues ---    0.00343   0.00455   0.00464   0.00518   0.00927
     Eigenvalues ---    0.01950   0.02058   0.02292   0.02584   0.03301
     Eigenvalues ---    0.03839   0.03922   0.03967   0.04146   0.04315
     Eigenvalues ---    0.04361   0.04510   0.04675   0.04975   0.05082
     Eigenvalues ---    0.05192   0.05282   0.05676   0.06119   0.07412
     Eigenvalues ---    0.07949   0.08314   0.10207   0.10642   0.10920
     Eigenvalues ---    0.11074   0.11759   0.11938   0.13103   0.13269
     Eigenvalues ---    0.13737   0.14696   0.15526   0.15742   0.15818
     Eigenvalues ---    0.16159   0.16301   0.18617   0.19542   0.20071
     Eigenvalues ---    0.21366   0.22944   0.23108   0.24420   0.24727
     Eigenvalues ---    0.25281   0.27054   0.29864   0.31710   0.32616
     Eigenvalues ---    0.33332   0.33721   0.34127   0.34191   0.34831
     Eigenvalues ---    0.34947   0.35119   0.35206   0.35568   0.35829
     Eigenvalues ---    0.37267   0.37524   0.38580   0.41575   0.42849
     Eigenvalues ---    0.44147   0.44345   0.44863   0.44937   0.47378
     Eigenvalues ---    0.47851   0.48047   0.48648   0.53317   0.58727
     Eigenvalues ---    0.84254   0.92295
 RFO step:  Lambda=-1.09299524D-02 EMin=-7.15361395D-04
 Linear search not attempted -- first point.
 Iteration  1 RMS(Cart)=  0.15209850 RMS(Int)=  0.01852802
 Iteration  2 RMS(Cart)=  0.03511704 RMS(Int)=  0.00068037
 Iteration  3 RMS(Cart)=  0.00115955 RMS(Int)=  0.00036816
 Iteration  4 RMS(Cart)=  0.00000174 RMS(Int)=  0.00036816
 Iteration  5 RMS(Cart)=  0.00000000 RMS(Int)=  0.00036816
 Variable       Old X    -DE/DX   Delta X   Delta X   Delta X     New X
                                 (Linear)    (Quad)   (Total)
    R1        2.31326   0.00553   0.00000   0.00853   0.00853   2.32180
    R2        2.56938  -0.00352   0.00000  -0.02782  -0.02782   2.54156
    R3        2.87525   0.00404   0.00000   0.03340   0.03340   2.90865
    R4        2.74835   0.00807   0.00000   0.01698   0.01698   2.76533
    R5        1.90506   0.00412   0.00000   0.01002   0.01002   1.91508
    R6        2.85670   0.00623   0.00000   0.02250   0.02250   2.87920
    R7        2.91641   0.00650   0.00000   0.02508   0.02508   2.94149
    R8        2.05870   0.00106   0.00000   0.00302   0.00302   2.06172
    R9        2.54499  -0.00452   0.00000  -0.02221  -0.02221   2.52278
   R10        2.27968   0.01192   0.00000   0.01331   0.01331   2.29299
   R11        1.82714   0.00722   0.00000   0.01343   0.01343   1.84057
   R12        2.82296   0.00146   0.00000  -0.00157  -0.00157   2.82139
   R13        2.05660   0.00364   0.00000   0.01047   0.01047   2.06707
   R14        2.05677   0.00466   0.00000   0.01421   0.01421   2.07098
   R15        2.58496   0.00778   0.00000   0.01532   0.01532   2.60028
   R16        2.60548   0.00549   0.00000   0.01319   0.01320   2.61868
   R17        2.61625  -0.00597   0.00000  -0.01840  -0.01841   2.59784
   R18        2.04556  -0.00058   0.00000  -0.00091  -0.00091   2.04466
   R19        2.48161   0.00158   0.00000   0.00180   0.00179   2.48341
   R20        2.57869   0.00332   0.00000   0.00576   0.00576   2.58445
   R21        2.03204   0.00429   0.00000   0.01084   0.01084   2.04288
   R22        1.90415   0.00164   0.00000   0.00286   0.00286   1.90702
   R23        2.87540   0.00309   0.00000   0.00255   0.00255   2.87795
   R24        2.07096   0.00228   0.00000   0.00637   0.00637   2.07732
   R25        2.06800   0.00252   0.00000   0.00156   0.00156   2.06956
   R26        2.81021   0.01212   0.00000   0.06079   0.06079   2.87101
   R27        2.05782   0.00183   0.00000   0.00268   0.00268   2.06049
   R28        2.05881   0.00158   0.00000   0.00224   0.00224   2.06105
   R29        1.92927   0.00513   0.00000   0.00962   0.00962   1.93889
   R30        1.92739   0.00577   0.00000   0.01089   0.01089   1.93827
   R31        1.92736   0.00589   0.00000   0.01149   0.01149   1.93885
    A1        2.11411   0.01845   0.00000   0.06146   0.06146   2.17557
    A2        2.15794  -0.01709   0.00000  -0.07669  -0.07669   2.08125
    A3        2.01109  -0.00136   0.00000   0.01518   0.01518   2.02627
    A4        2.11492   0.00364   0.00000   0.02199   0.02176   2.13668
    A5        2.11741   0.00052   0.00000   0.00965   0.00938   2.12679
    A6        2.04975  -0.00418   0.00000  -0.03343  -0.03364   2.01611
    A7        1.85595  -0.00076   0.00000  -0.00580  -0.00573   1.85022
    A8        1.92323   0.00341   0.00000   0.01585   0.01581   1.93904
    A9        1.89630  -0.00065   0.00000   0.00527   0.00519   1.90150
   A10        1.93101  -0.00186   0.00000  -0.00911  -0.00910   1.92191
   A11        1.93680   0.00012   0.00000  -0.00602  -0.00604   1.93075
   A12        1.91937  -0.00020   0.00000   0.00019   0.00006   1.91943
   A13        1.98625  -0.00469   0.00000  -0.01559  -0.01559   1.97065
   A14        2.14887  -0.00259   0.00000  -0.01631  -0.01631   2.13256
   A15        2.14804   0.00728   0.00000   0.03190   0.03190   2.17994
   A16        1.84855   0.00389   0.00000   0.03174   0.03174   1.88029
   A17        1.98223   0.00051   0.00000   0.00517   0.00516   1.98739
   A18        1.89255  -0.00102   0.00000  -0.00994  -0.00996   1.88258
   A19        1.87298  -0.00031   0.00000  -0.00535  -0.00543   1.86755
   A20        1.89454   0.00041   0.00000   0.00254   0.00256   1.89711
   A21        1.93263   0.00045   0.00000   0.01273   0.01273   1.94536
   A22        1.88639  -0.00010   0.00000  -0.00622  -0.00630   1.88009
   A23        2.30839  -0.00107   0.00000  -0.01028  -0.01029   2.29810
   A24        2.14761   0.00193   0.00000   0.01375   0.01373   2.16134
   A25        1.82686  -0.00086   0.00000  -0.00352  -0.00349   1.82337
   A26        1.93696   0.00101   0.00000   0.00451   0.00446   1.94142
   A27        2.21636   0.00101   0.00000   0.00540   0.00534   2.22170
   A28        2.12972  -0.00201   0.00000  -0.00960  -0.00966   2.12006
   A29        1.83436   0.00087   0.00000   0.00157   0.00156   1.83592
   A30        1.94545   0.00247   0.00000   0.00603   0.00604   1.95149
   A31        2.20763  -0.00218   0.00000  -0.00915  -0.00916   2.19847
   A32        2.13010  -0.00029   0.00000   0.00312   0.00311   2.13321
   A33        1.88115  -0.00349   0.00000  -0.00858  -0.00857   1.87258
   A34        2.19602   0.00259   0.00000   0.01250   0.01245   2.20848
   A35        2.20598   0.00090   0.00000  -0.00403  -0.00407   2.20191
   A36        1.96192  -0.01695   0.00000  -0.10362  -0.10386   1.85805
   A37        1.89462   0.00388   0.00000  -0.00628  -0.00755   1.88706
   A38        1.90574   0.00512   0.00000   0.04943   0.05030   1.95604
   A39        1.91068   0.00587   0.00000   0.01956   0.01725   1.92793
   A40        1.92295   0.00543   0.00000   0.03406   0.03483   1.95778
   A41        1.86521  -0.00269   0.00000   0.01203   0.01117   1.87638
   A42        1.95443  -0.00246   0.00000  -0.00637  -0.00600   1.94843
   A43        1.90021   0.00383   0.00000   0.01965   0.01905   1.91926
   A44        1.90756   0.00429   0.00000   0.05108   0.05062   1.95819
   A45        1.91774  -0.00263   0.00000  -0.03062  -0.03071   1.88703
   A46        1.91567  -0.00303   0.00000  -0.05063  -0.05056   1.86511
   A47        1.86604   0.00021   0.00000   0.01901   0.01684   1.88288
   A48        1.95132  -0.00095   0.00000  -0.00867  -0.00866   1.94266
   A49        1.94330   0.00086   0.00000   0.00651   0.00652   1.94982
   A50        1.94106   0.00088   0.00000   0.00076   0.00076   1.94182
   A51        1.87240   0.00013   0.00000   0.00393   0.00394   1.87634
   A52        1.87215   0.00012   0.00000   0.00364   0.00364   1.87579
   A53        1.87989  -0.00109   0.00000  -0.00613  -0.00613   1.87376
    D1        0.00624   0.00085   0.00000   0.04536   0.04552   0.05176
    D2        3.09611   0.00025   0.00000   0.00233   0.00195   3.09806
    D3       -3.12567   0.00065   0.00000   0.05023   0.05061  -3.07506
    D4       -0.03580   0.00005   0.00000   0.00720   0.00704  -0.02876
    D5        0.17535  -0.00027   0.00000   0.21621   0.21724   0.39259
    D6       -1.94087   0.00057   0.00000   0.26251   0.26175  -1.67912
    D7        2.31489  -0.00117   0.00000   0.22472   0.22422   2.53911
    D8       -2.97620   0.00016   0.00000   0.21208   0.21326  -2.76293
    D9        1.19077   0.00100   0.00000   0.25838   0.25778   1.44854
   D10       -0.83666  -0.00073   0.00000   0.22059   0.22025  -0.61641
   D11       -2.76619   0.00022   0.00000  -0.00131  -0.00112  -2.76731
   D12        1.42355   0.00102   0.00000   0.00433   0.00456   1.42812
   D13       -0.68037  -0.00040   0.00000  -0.00885  -0.00869  -0.68906
   D14        0.42519   0.00067   0.00000   0.03896   0.03876   0.46395
   D15       -1.66826   0.00148   0.00000   0.04460   0.04444  -1.62381
   D16        2.51100   0.00005   0.00000   0.03142   0.03119   2.54219
   D17        2.26260  -0.00024   0.00000   0.11205   0.11204   2.37464
   D18       -0.88630   0.00037   0.00000   0.11211   0.11211  -0.77419
   D19       -1.93220   0.00238   0.00000   0.12260   0.12260  -1.80960
   D20        1.20210   0.00299   0.00000   0.12267   0.12267   1.32476
   D21        0.20337   0.00092   0.00000   0.11239   0.11239   0.31576
   D22       -2.94552   0.00153   0.00000   0.11245   0.11246  -2.83306
   D23       -3.13023  -0.00061   0.00000  -0.02051  -0.02054   3.13241
   D24        1.04545  -0.00074   0.00000  -0.02007  -0.02006   1.02539
   D25       -0.98832   0.00007   0.00000  -0.00482  -0.00488  -0.99320
   D26        1.10549  -0.00064   0.00000  -0.01757  -0.01755   1.08794
   D27       -1.00200  -0.00077   0.00000  -0.01713  -0.01708  -1.01908
   D28       -3.03578   0.00004   0.00000  -0.00188  -0.00190  -3.03767
   D29       -1.04023   0.00061   0.00000  -0.00392  -0.00391  -1.04413
   D30        3.13546   0.00047   0.00000  -0.00347  -0.00344   3.13202
   D31        1.10169   0.00129   0.00000   0.01177   0.01175   1.11344
   D32        3.12080  -0.00104   0.00000  -0.04399  -0.04399   3.07682
   D33       -0.01349  -0.00161   0.00000  -0.04382  -0.04382  -0.05731
   D34       -1.79386   0.00042   0.00000   0.00862   0.00863  -1.78523
   D35        1.31617   0.00044   0.00000   0.00596   0.00600   1.32217
   D36        0.31251  -0.00025   0.00000   0.00115   0.00114   0.31365
   D37       -2.86064  -0.00023   0.00000  -0.00151  -0.00150  -2.86214
   D38        2.38062   0.00014   0.00000   0.00260   0.00256   2.38318
   D39       -0.79253   0.00016   0.00000  -0.00006  -0.00007  -0.79261
   D40        3.11193   0.00021   0.00000   0.00117   0.00123   3.11316
   D41       -0.01151  -0.00044   0.00000  -0.01775  -0.01777  -0.02928
   D42       -0.00232   0.00015   0.00000   0.00321   0.00322   0.00090
   D43       -3.12575  -0.00050   0.00000  -0.01572  -0.01578  -3.14154
   D44       -3.11638  -0.00011   0.00000  -0.00071  -0.00071  -3.11710
   D45        0.03329   0.00022   0.00000   0.01289   0.01298   0.04627
   D46        0.00107  -0.00011   0.00000  -0.00295  -0.00295  -0.00188
   D47       -3.13245   0.00022   0.00000   0.01066   0.01074  -3.12170
   D48        0.00268  -0.00015   0.00000  -0.00221  -0.00221   0.00047
   D49        3.12717   0.00051   0.00000   0.01578   0.01568  -3.14033
   D50       -0.00196   0.00007   0.00000   0.00025   0.00023  -0.00173
   D51        3.13696  -0.00012   0.00000  -0.00309  -0.00304   3.13392
   D52        0.00059   0.00002   0.00000   0.00173   0.00175   0.00235
   D53        3.13405  -0.00030   0.00000  -0.01188  -0.01178   3.12227
   D54       -3.13847   0.00020   0.00000   0.00492   0.00491  -3.13356
   D55       -0.00501  -0.00012   0.00000  -0.00869  -0.00862  -0.01364
   D56       -3.12258   0.00040   0.00000   0.18454   0.18425  -2.93833
   D57       -0.99847  -0.00189   0.00000   0.15529   0.15461  -0.84386
   D58        1.03406   0.00290   0.00000   0.21747   0.21769   1.25174
   D59       -1.01557  -0.00177   0.00000   0.12207   0.12197  -0.89361
   D60        1.10853  -0.00405   0.00000   0.09282   0.09233   1.20086
   D61        3.14106   0.00073   0.00000   0.15500   0.15541  -2.98672
   D62        1.03080   0.00165   0.00000   0.16834   0.16862   1.19943
   D63       -3.12828  -0.00063   0.00000   0.13909   0.13899  -2.98929
   D64       -1.09575   0.00415   0.00000   0.20127   0.20206  -0.89369
   D65        3.13861  -0.00010   0.00000  -0.00916  -0.00914   3.12947
   D66       -1.05041   0.00001   0.00000  -0.00558  -0.00558  -1.05599
   D67        1.04631  -0.00020   0.00000  -0.00844  -0.00844   1.03788
   D68        1.02461  -0.00150   0.00000  -0.00870  -0.00846   1.01615
   D69        3.11877  -0.00140   0.00000  -0.00513  -0.00490   3.11388
   D70       -1.06769  -0.00161   0.00000  -0.00798  -0.00775  -1.07544
   D71       -1.02267   0.00159   0.00000   0.01626   0.01603  -1.00664
   D72        1.07149   0.00170   0.00000   0.01983   0.01959   1.09108
   D73       -3.11497   0.00149   0.00000   0.01697   0.01673  -3.09824
         Item               Value     Threshold  Converged?
 Maximum Force            0.018449     0.000450     NO 
 RMS     Force            0.003819     0.000300     NO 
 Maximum Displacement     0.827425     0.001800     NO 
 RMS     Displacement     0.172232     0.001200     NO 
 Predicted change in Energy=-6.696795D-03
 GradGradGradGradGradGradGradGradGradGradGradGradGradGradGradGradGradGrad

                          Input orientation:                          
 ---------------------------------------------------------------------
 Center     Atomic      Atomic             Coordinates (Angstroms)
 Number     Number       Type             X           Y           Z
 ---------------------------------------------------------------------
      1          8           0        1.340447    0.434095   -1.219085
      2          6           0        1.478514    0.364139   -0.000232
      3          7           0        0.465496    0.344342    0.884220
      4          6           0       -0.937942    0.341840    0.469797
      5          6           0       -1.730258    0.854197    1.666082
      6          8           0       -2.668471    1.741207    1.326688
      7          8           0       -1.513478    0.471255    2.796876
      8          6           0       -1.407852   -1.093011    0.091242
      9          6           0       -2.838166   -1.168808   -0.330134
     10          6           0       -3.966239   -1.593105    0.333813
     11          7           0       -5.087965   -1.448327   -0.447606
     12          6           0       -4.655521   -0.941157   -1.580210
     13          7           0       -3.301589   -0.748533   -1.566622
     14          6           0        2.896251    0.272122    0.591943
     15          6           0        3.839841    0.846704   -0.456321
     16          7           0        5.293109    0.558347   -0.120092
     17          1           0        0.626743    0.248310    1.880108
     18          1           0       -1.056304    1.010265   -0.384319
     19          1           0       -3.164228    1.971738    2.132749
     20          1           0       -1.265514   -1.734378    0.965820
     21          1           0       -0.737731   -1.451855   -0.698190
     22          1           0       -4.024290   -1.996318    1.336181
     23          1           0       -5.263687   -0.698540   -2.440403
     24          1           0       -2.744010   -0.386486   -2.325841
     25          1           0        3.122936   -0.788152    0.773140
     26          1           0        2.976380    0.794755    1.551017
     27          1           0        3.624082    0.408961   -1.431374
     28          1           0        3.744890    1.929443   -0.546911
     29          1           0        5.923548    0.937585   -0.835235
     30          1           0        5.563504    0.970378    0.779438
     31          1           0        5.467697   -0.450858   -0.059346
 ---------------------------------------------------------------------
                    Distance matrix (angstroms):
                    1          2          3          4          5
     1  O    0.000000
     2  C    1.228641   0.000000
     3  N    2.279799   1.344936   0.000000
     4  C    2.837585   2.461846   1.463349   0.000000
     5  C    4.234371   3.648695   2.385916   1.523605   0.000000
     6  O    4.925537   4.566674   3.459589   2.384789   1.334997
     7  O    4.926886   4.097231   2.755122   2.400684   1.213398
     8  C    3.406194   3.234619   2.490829   1.556572   2.525012
     9  C    4.562931   4.592656   3.831248   2.555934   3.050391
    10  C    5.889138   5.795491   4.867948   3.596260   3.572651
    11  N    6.742639   6.826699   5.985679   4.611835   4.587318
    12  C    6.162254   6.467343   5.826727   4.434976   4.724286
    13  N    4.802904   5.151796   4.625141   3.304958   3.935505
    14  C    2.393028   1.539193   2.449329   3.836771   4.785099
    15  C    2.645567   2.452907   3.665463   4.892831   5.960759
    16  N    4.104480   3.821415   4.935614   6.262654   7.252973
    17  H    3.185731   2.067512   1.013418   2.108545   2.443023
    18  H    2.602541   2.643918   2.090100   1.091016   2.163958
    19  H    5.821618   5.356215   4.169189   3.221541   1.876951
    20  H    4.033252   3.587021   2.706314   2.159635   2.721594
    21  H    2.854289   2.949020   2.679197   2.149795   3.448589
    22  H    6.420024   6.135032   5.083418   3.967764   3.673807
    23  H    6.810952   7.248517   6.705539   5.316364   5.635541
    24  H    4.310574   4.878689   4.597774   3.407042   4.301446
    25  H    2.939407   2.151744   2.890825   4.226065   5.200783
    26  H    3.237254   2.198956   2.636670   4.086084   4.708419
    27  H    2.293618   2.579464   3.916990   4.942774   6.201727
    28  H    2.910194   2.808113   3.913452   5.048078   6.002561
    29  H    4.626625   4.558991   5.753155   7.009855   8.052595
    30  H    4.702755   4.202684   5.137371   6.539093   7.348374
    31  H    4.377480   4.072014   5.152153   6.476154   7.516038
                    6          7          8          9         10
     6  O    0.000000
     7  O    2.260142   0.000000
     8  C    3.338904   3.127066   0.000000
     9  C    3.352916   3.771312   1.493017   0.000000
    10  C    3.713171   4.042808   2.618067   1.376009   0.000000
    11  N    4.378950   5.195037   3.736287   2.270138   1.374717
    12  C    4.426455   5.570119   3.655704   2.217498   2.136266
    13  N    3.869223   4.870866   2.540358   1.385747   2.183281
    14  C    5.802085   4.934278   4.543082   5.984149   7.116141
    15  C    6.807156   6.275530   5.621441   6.976675   8.216560
    16  N    8.177963   7.405802   6.904674   8.315336   9.516842
    17  H    3.659706   2.338956   3.023039   4.347297   5.184334
    18  H    2.461890   3.258763   2.184837   2.815373   3.970008
    19  H    0.973989   2.327550   4.079865   4.004390   4.072775
    20  H    3.765396   2.877337   1.093846   2.114853   2.777284
    21  H    4.245413   4.063941   1.095917   2.151141   3.392380
    22  H    3.975856   3.811394   3.035060   2.206416   1.081986
    23  H    5.184446   6.546875   4.629502   3.249236   3.190594
    24  H    4.227736   5.337804   2.850751   2.145633   3.165996
    25  H    6.343852   5.213247   4.591945   6.074278   7.148241
    26  H    5.728039   4.670722   4.991602   6.418976   7.442003
    27  H    6.998428   6.654059   5.467598   6.742605   8.045938
    28  H    6.684085   6.399817   6.007763   7.278927   8.523234
    29  H    8.896207   8.289696   7.663622   9.025500  10.275162
    30  H    8.286076   7.375829   7.302807   8.740442   9.878564
    31  H    8.539524   7.599020   6.907113   8.341232   9.510965
                   11         12         13         14         15
    11  N    0.000000
    12  C    1.314162   0.000000
    13  N    2.221047   1.367634   0.000000
    14  C    8.233366   7.951073   6.641864   0.000000
    15  C    9.218078   8.753900   7.401187   1.522946   0.000000
    16  N   10.578313  10.166400   8.813014   2.516713   1.519272
    17  H    6.399588   6.425804   5.320286   2.609713   4.017583
    18  H    4.722602   4.265275   3.087477   4.137708   4.899405
    19  H    4.696365   4.949240   4.593919   6.480138   7.551554
    20  H    4.085429   4.313191   3.395697   4.635312   5.894838
    21  H    4.357447   4.048192   2.796820   4.224022   5.127966
    22  H    2.147929   3.164990   3.241224   7.320765   8.552216
    23  H    2.136421   1.081045   2.148446   8.759103   9.444500
    24  H    3.185812   2.125442   1.009151   6.384338   6.954348
    25  H    8.327361   8.128103   6.837439   1.099272   2.167552
    26  H    8.605787   8.429940   7.177347   1.095167   2.185788
[...]
 1435,0.00001477,0.00000249,0.00000005,0.00000047,0.00000642,-0.0000194
 5,-0.00783742,0.04720856,-0.05802200,-0.00562301,0.02389659,-0.0048694
 1,-0.00103694,-0.00059752,0.00130715,-0.00000996,-0.00036721,0.0001610
 3,0.00008922,-0.00001560,-0.00002900,-0.00000458,-0.00000128,0.0000050
 1,-0.00000537,0.00000406,0.00001225,-0.00000205,0.00004538,-0.00002238
 ,-0.00000077,-0.00000050,0.00000046,0.00000051,0.00000019,0.,0.0000006
 6,0.00000565,-0.00000545,0.00858003,-0.05309254,0.05977630,-0.00700475
 ,0.00224232,-0.00395128,0.00709889,-0.01719202,-0.02569384,0.00005107,
 0.00116707,0.00164555,0.00002273,0.00009630,0.00005075,-0.00013743,-0.
 00000412,-0.00035441,0.00009117,-0.00003269,0.00009572,0.00013683,0.00
 008492,0.00022681,0.00012998,0.00001113,0.00003268,-0.00001118,0.00003
 848,-0.00000223,0.00000471,0.00001103,-0.00000465,-0.00002021,-0.00000
 592,0.00000082,0.00001469,0.,0.00000273,-0.00001226,-0.00000523,0.0000
 0621,-0.05057994,-0.00983497,-0.01019306,0.00039857,0.01230587,0.02151
 896,0.00120910,0.00035299,0.00027059,-0.00170910,-0.00057081,0.0001778
 1,0.00014418,-0.00004183,0.00002709,-0.00003551,-0.00000716,0.00000248
 ,-0.00000866,-0.00000389,0.00000873,0.00003002,0.00009005,0.00000655,-
 0.00000056,-0.00000364,0.00000123,-0.00000015,-0.00000009,0.00000003,0
 .00002900,-0.00000032,0.00000317,0.00018850,0.00381657,0.00690618,0.05
 328987,0.00047037,0.00082317,0.00088912,0.00190640,0.00021269,0.001857
 00,-0.00032355,-0.00007475,0.00031376,-0.00008617,0.00007037,0.0002189
 1,-0.00004785,-0.00000101,-0.00018221,0.00002658,-0.00001040,0.0000545
 5,0.00003797,-0.00004075,0.00012623,0.00003609,-0.00001274,-0.00002131
 ,-0.00001071,0.00001311,0.00000146,0.00000295,0.00000952,-0.00000774,-
 0.00001500,-0.00000701,0.00000125,0.00000929,0.00000225,0.00000015,-0.
 00000764,-0.00000769,0.00001146,-0.00936880,-0.12304651,-0.11966600,0.
 00104784,0.00755670,0.01419461,0.00063712,0.00010020,-0.00010480,-0.00
 062688,0.00035524,0.00006620,0.00007044,0.00000249,0.00002245,-0.00000
 209,0.00001129,-0.00000614,-0.00000564,-0.00001499,-0.00000514,0.00000
 595,0.00001311,0.00002590,-0.00000035,-0.00000109,0.00000048,0.0000001
 9,0.00000047,0.00000045,0.00001117,0.00000085,0.00000315,-0.00205612,-
 0.01473381,-0.02660999,0.00972361,0.12798732,-0.00314160,0.00010055,0.
 00021622,0.00164739,-0.00482149,-0.01121382,0.00151968,0.00071733,0.00
 115669,-0.00050148,0.00058126,-0.00004235,-0.00010217,-0.00002081,-0.0
 0002681,0.00003920,-0.00000670,0.00000287,0.00005855,0.00002453,0.0000
 1159,0.00019687,-0.00007021,0.00003809,0.00000666,0.00007558,-0.000006
 39,-0.00001954,0.00000263,0.00001430,0.00001180,-0.00001420,0.00002339
 ,0.00003497,0.00000713,-0.00000322,-0.00001459,0.00000579,-0.00001134,
 -0.00947688,-0.11790593,-0.24023545,-0.00250398,-0.01041059,-0.0183801
 0,0.00019180,0.00006866,0.00074914,-0.00012334,-0.00046333,0.00085649,
 0.00001915,-0.00005085,0.00004529,-0.00001218,-0.00000718,0.00000381,-
 0.00000713,-0.00000375,0.00000522,0.00000841,0.00003539,-0.00000142,-0
 .00000116,-0.00000154,0.00000057,0.00000128,-0.00000083,-0.00000009,0.
 00001506,-0.00000191,-0.00000760,0.00026460,0.00365224,0.00707924,0.00
 864474,0.12707081,0.26087175,-0.00165965,-0.00080984,-0.00470640,0.000
 55883,0.00058609,0.00831878,0.00098119,-0.00027845,-0.00331703,-0.0004
 8427,0.00002877,-0.00009019,-0.00023626,0.00020075,0.00025456,0.000150
 44,-0.00009010,-0.00007188,0.00014333,-0.00012144,-0.00023811,-0.00003
 399,-0.00003779,0.00002613,0.00000241,0.00001726,0.00000557,-0.0000340
 5,-0.00001882,0.00003225,0.00008515,0.00000762,0.00002806,-0.00000419,
 -0.00000093,-0.00000232,0.00002721,0.00003363,-0.00004093,0.00495171,0
 .00972132,0.01732612,-0.05295662,-0.01795407,-0.04173781,-0.01741846,-
 0.01254800,-0.03233672,0.00065906,0.00006480,0.00009506,-0.00007630,0.
 00004499,0.00004402,-0.00001611,0.00002158,0.00001123,0.00001636,-0.00
 000428,-0.00001719,-0.00001945,-0.00011311,-0.00001181,-0.00000449,-0.
 00000220,-0.00000095,0.00000217,-0.00000178,0.00000043,-0.00004632,-0.
 00000581,-0.00002810,0.00050584,-0.00033023,-0.00030069,-0.00352495,-0
 .00236375,0.00255865,0.06989833,-0.00037159,-0.00204041,-0.00017220,-0
 .00040868,0.00084156,0.00019762,0.00030182,0.00020654,-0.00024198,-0.0
 0011890,-0.00000088,-0.00012903,-0.00005747,0.00005382,0.00005565,0.00
 004895,-0.00003094,-0.00001576,0.00003325,-0.00002811,-0.00004040,-0.0
 0001255,-0.00000660,0.00001747,-0.00000303,0.00000014,-0.00001044,-0.0
 0001110,-0.00000800,0.00000849,0.00002147,-0.00000237,0.00001450,0.000
 00769,0.00000227,-0.00000101,0.00000794,-0.00000132,-0.00001079,0.0029
 2366,0.00620934,0.01177444,-0.02437612,-0.10304881,-0.10647519,0.00604
 112,0.00382914,0.01290456,0.00016101,0.00013464,0.00005711,-0.00002580
 ,0.00000049,0.00002697,-0.00000519,0.00000579,0.00000187,-0.00000262,-
 0.00000184,0.00000363,-0.00000507,-0.00000645,-0.00000949,-0.00000239,
 0.00000009,0.00000147,0.00000129,0.00000129,0.00000073,-0.00000805,0.0
 0001562,-0.00000940,0.00073699,0.00058062,0.00003546,-0.00217262,-0.00
 020849,0.00161998,0.02250688,0.10293556,-0.00347761,0.00001191,0.00145
 453,-0.00096056,-0.00068223,-0.00306746,-0.00007015,0.00004322,-0.0000
 7141,0.00001525,-0.00000048,0.00006411,0.00001739,-0.00004373,-0.00004
 884,-0.00001943,0.00001289,0.00001173,0.00000020,0.00001929,0.00003899
 ,0.00000449,0.00001402,0.00000496,0.00000332,-0.00000428,0.00001932,0.
 00000955,0.00000461,-0.00000648,-0.00000750,0.00000472,-0.00001794,-0.
 00002050,-0.00000508,0.00000149,0.00000350,-0.00000272,-0.00000101,0.0
 0093411,-0.00882894,-0.02100468,-0.05105605,-0.10257989,-0.27270627,-0
 .00096310,0.00012108,-0.00095524,-0.00002771,-0.00004820,0.00008311,0.
 00002742,-0.00000527,0.00000816,0.00000091,-0.00000026,0.00000036,-0.0
 0000161,-0.00000212,-0.00000226,0.00001537,0.00002608,0.00001126,0.000
 00128,0.00000071,-0.00000122,-0.00000231,0.00000042,0.00000003,-0.0000
 0385,-0.00000060,0.00001529,-0.00047692,0.00007258,0.00063720,0.001917
 85,0.00248538,-0.00170369,0.05256642,0.10728997,0.29123956,-0.00051993
 ,0.00064912,-0.00075188,0.00208607,-0.00069029,0.00110131,-0.00066776,
 0.00040164,0.00008088,0.00010843,-0.00005870,0.00011261,0.00006374,-0.
 00007882,-0.00002448,-0.00007024,0.00005428,0.00000601,-0.00005062,0.0
 0004987,0.00000722,-0.00001930,0.00000263,-0.00002016,0.00000267,-0.00
 000633,0.00001193,0.00001285,0.00000649,-0.00000546,-0.00001817,0.0000
 0670,-0.00001959,-0.00001927,-0.00000424,-0.00000092,-0.00000364,0.000
 00460,0.00000689,0.00278119,-0.02116822,0.00099693,-0.04907993,-0.0002
 9050,-0.00138011,-0.01290639,0.04020200,-0.00337021,0.00008378,-0.0001
 3572,-0.00005662,-0.00003940,-0.00001766,-0.00003566,-0.00000185,-0.00
 001477,0.00000217,0.00001588,0.00001181,-0.00000988,0.00000158,0.00000
 044,0.00001984,0.00000293,-0.00000037,-0.00000184,-0.00000169,-0.00000
 150,-0.00000120,0.00000327,-0.00001515,0.00000662,-0.00280580,-0.00113
 985,0.00296793,0.00064142,0.00070213,-0.00038808,0.00217533,-0.0068367
 3,0.00169267,0.06242070,-0.00022945,0.00060451,-0.00064142,0.00022247,
 -0.00008329,0.00111405,-0.00019335,-0.00004082,-0.00019001,0.00000869,
 -0.00001045,0.00003827,0.00000433,-0.00000517,0.00000003,-0.00001241,0
 .00000524,0.00000088,-0.00000573,0.00000445,-0.00000593,-0.00001002,0.
 00001342,0.00000040,-0.00000072,-0.00000420,0.00000499,0.00000435,0.00
 000052,-0.00000194,-0.00000244,0.00000277,-0.00000640,-0.00000747,-0.0
 0000167,0.00000017,0.00000072,0.00000078,0.00000032,-0.00090142,-0.007
 87331,0.00069785,0.01255882,-0.32917978,0.01478413,0.00136718,-0.00352
 787,-0.00008532,0.00002716,-0.00006040,-0.00001623,-0.00000971,0.00000
 350,-0.00001197,0.00000091,0.00000065,0.00000013,0.00000505,0.00000144
 ,-0.00000332,-0.00000040,-0.00000688,0.00000235,0.00000071,0.00000024,
 -0.00000056,-0.00000056,-0.00000009,-0.00000012,-0.00000257,-0.0000030
 8,0.00000302,-0.00113046,0.00091420,0.00091134,0.00013223,0.00103137,-
 0.00008814,0.00045249,-0.01016903,0.00178471,-0.01313550,0.34692383,-0
 .00028281,0.00073572,0.00014365,-0.00053772,0.00002953,-0.00002377,0.0
 0002258,-0.00037248,-0.00004840,0.00001977,-0.00001981,-0.00000004,0.0
 0004517,0.00001268,0.00005978,-0.00002723,0.00000524,-0.00001537,-0.00
 003019,-0.00003004,-0.00003966,0.00000366,0.00002192,-0.00000530,-0.00
 000033,-0.00001120,0.00000520,0.00000575,-0.00000003,-0.00000300,-0.00
 000178,0.00000287,-0.00000889,-0.00000914,-0.00000233,0.00000299,0.000
 00373,0.00000062,0.00000040,-0.00059101,0.02368839,-0.00155204,-0.0002
 6867,0.01099485,-0.05239498,-0.00320236,0.00875618,-0.00154367,0.00002
 130,0.00013248,-0.00000503,0.00000974,-0.00000123,0.00000733,0.0000108
 2,0.00000400,0.00000077,-0.00000607,-0.00000094,0.00000395,0.00000275,
 -0.00000289,-0.00000655,0.00000025,0.00000157,-0.00000041,-0.00000093,
 -0.00000010,0.00000001,-0.00000118,-0.00000503,0.00000641,0.00359340,0
 .00171649,-0.00237684,-0.00121590,-0.00005551,0.00092299,0.00301810,-0
 .02801728,0.00474587,0.00023565,-0.01843128,0.05168071,0.00067018,0.00
 022957,-0.00102783,0.00009604,-0.00040594,0.00357380,-0.00067079,-0.00
 003807,-0.00068570,0.00001443,0.00005120,0.00019454,-0.00009361,-0.000
 00225,-0.00007898,0.00001747,0.00000152,0.00002598,0.00003875,-0.00000
 090,0.00001584,-0.00002304,0.00001093,-0.00000143,0.00000132,-0.000013
 59,0.00000723,-0.00000196,-0.00000317,0.00000163,0.00001861,0.00000687
 ,-0.00000209,-0.00001642,-0.00000425,0.00000199,0.00001315,0.00000689,
 -0.00000846,-0.00601729,0.00220336,-0.00395573,-0.01707988,-0.01138538
 ,0.02157127,-0.18323803,-0.07922007,0.15395873,0.00001588,-0.00001962,
 -0.00003852,-0.00001830,0.00000014,-0.00000160,-0.00001558,0.00000531,
 0.00000155,-0.00000074,-0.00000157,0.00000008,0.,-0.00001370,-0.000003
 95,-0.00000198,-0.00000070,-0.00000002,-0.00000099,-0.00000061,0.00000
 023,-0.00001226,-0.00000235,-0.00000077,0.00053236,0.00011285,-0.00042
 147,0.00008333,0.00020507,0.00003130,0.00076072,-0.00103742,-0.0004617
 3,0.00118686,0.00060221,0.00048852,0.19089658,0.00014639,-0.00013875,0
 .00001875,-0.00012549,0.00064433,-0.00045973,0.00037289,-0.00003998,0.
 00002253,-0.00006101,-0.00005580,-0.00008197,-0.00006496,0.00006343,0.
 00006223,0.00006986,-0.00004626,-0.00001835,0.00004593,-0.00003393,-0.
 00002931,-0.00001209,-0.00000824,0.00000209,-0.00000335,0.00000259,-0.
 00000324,-0.00000906,-0.00000552,0.00000493,0.00002018,-0.00000350,0.0
 0001083,0.00000435,0.00000142,-0.00000010,0.00000698,-0.00000080,-0.00
 000995,0.00179004,-0.00075867,0.00141314,0.00387733,0.00424771,-0.0084
 7316,-0.07372572,-0.10792133,0.08628421,-0.00003024,0.00004820,0.00005
 487,0.00001987,0.00000653,0.00000671,-0.00000401,0.00001194,0.00000137
 ,-0.00000363,-0.00000110,0.00000392,-0.00000108,-0.00000522,-0.0000074
 3,-0.00000248,0.00000046,0.00000151,0.00000059,0.00000177,0.00000110,-
 0.00000811,0.00001018,-0.00000611,-0.00009144,0.00031544,-0.00001751,-
 0.00026635,0.00005878,0.00008164,-0.00068851,0.00008768,-0.00002283,0.
 00084357,-0.00022600,-0.00049961,0.08062610,0.10661747,-0.00026805,-0.
 00002089,-0.00006916,-0.00009444,-0.00014640,0.00062287,-0.00047320,-0
 .00001705,-0.00012653,0.00010116,0.00001714,0.00008046,0.00011312,-0.0
 0006638,0.00000271,-0.00011064,0.00005066,0.00000408,-0.00008609,0.000
 01880,-0.00001331,0.00000315,0.00004006,0.00001279,0.00000453,-0.00001
 912,0.00001273,0.00002138,0.00000384,-0.00001070,-0.00002746,0.0000053
 6,-0.00003053,-0.00002397,-0.00000506,0.00000235,-0.00000111,-0.000011
 28,0.00000703,-0.00160091,0.00086434,-0.00077001,-0.00308518,-0.005925
 88,0.00995457,0.14494658,0.08756000,-0.23675677,0.00007993,-0.00001736
 ,-0.00008502,-0.00002047,-0.00000042,-0.00000489,0.00001745,-0.0000033
 1,-0.00000093,0.00000441,0.00000075,-0.00000510,0.00000473,0.00000816,
 0.00000858,0.00000352,0.00000360,-0.00000164,-0.00000303,0.00000125,-0
 .00000022,0.00000243,0.00000348,0.00002302,0.00009114,0.00003314,-0.00
 019161,-0.00020389,0.00006294,0.00007858,-0.00079289,-0.00029995,0.000
 45086,0.00004532,-0.00003919,0.00030661,-0.15847448,-0.09543595,0.2464
 6323,-0.00030431,-0.00020768,0.00164577,-0.00192212,0.00025720,-0.0020
 6918,0.00067619,0.00005953,0.00028307,-0.00018212,-0.00001024,-0.00013
 075,-0.00017117,0.00009877,0.00004256,0.00016316,-0.00007471,-0.000019
 98,0.00013035,-0.00002885,-0.00001075,0.00000485,-0.00005360,-0.000007
 72,-0.00000265,0.00002463,-0.00000258,-0.00002948,-0.00000651,0.000019
 86,0.00005153,-0.00000153,0.00002814,0.00001181,0.00000104,0.00000067,
 0.00001301,0.00002136,-0.00002436,0.00285095,-0.00078887,-0.00046824,-
 0.00745960,-0.01394463,-0.02979003,-0.08398049,-0.04213859,-0.08786746
 ,-0.00013470,-0.00000059,0.00013189,0.00002756,0.00000194,0.00001438,-
 0.00002782,0.00000699,0.00000847,-0.00000667,-0.00000012,0.00000426,0.
 00000025,-0.00001071,-0.00001031,-0.00000524,-0.00000408,0.00000086,0.
 00000145,-0.00000131,0.00000067,-0.00001298,-0.00000529,-0.00002136,-0
 .00026356,-0.00019585,0.00012443,-0.00059039,0.00035355,0.00098944,-0.
 00564798,0.00298686,0.00071418,0.00149647,0.00023896,0.00020112,0.0086
 0791,0.01196354,0.02124077,0.08565432,0.00058109,0.00009057,-0.0000701
 0,-0.00063311,-0.00015037,0.00029015,0.00035888,-0.00008560,-0.0001847
 6,-0.00011194,0.00002459,-0.00006902,-0.00009439,0.00009346,0.00008500
 ,0.00007971,-0.00005494,-0.00002206,0.00005632,-0.00006079,-0.00005432
 ,0.00001096,-0.00001070,0.00000165,-0.00000305,0.00000783,-0.00000466,
 -0.00001379,-0.00000648,0.00000800,0.00002964,-0.00000412,0.00001508,0
 .00000605,0.00000175,0.00000035,0.00000934,0.00000388,-0.00001227,-0.0
 0006543,-0.00006679,0.00039649,0.00019723,0.00563822,0.00932348,-0.037
 14391,-0.11605140,-0.11605139,-0.00002149,0.00007313,0.00005780,0.0000
 0902,0.00000930,0.00001496,-0.00000456,0.00001784,0.00000328,-0.000005
 66,-0.00000230,0.00000367,-0.00000338,-0.00002168,-0.00001218,-0.00000
 342,0.00000061,0.00000150,0.00000086,0.00000112,0.00000120,-0.00001143
 ,0.00000627,-0.00000897,-0.00022631,-0.00042750,-0.00017627,0.00001051
 ,0.00022264,-0.00028481,0.00227476,-0.00022401,0.00012523,0.00043952,0
 .00005270,0.00094499,0.00604674,0.00707503,0.01432520,0.03970951,0.115
 45538,0.00025826,0.00005186,-0.00031136,-0.00013951,0.00004266,-0.0002
 4371,0.00043469,-0.00000733,-0.00013967,-0.00006989,-0.00002940,-0.000
 07660,-0.00000356,0.00004584,0.00017467,0.00001215,-0.00001339,-0.0000
 5008,-0.00000027,-0.00002923,-0.00012129,0.00000254,-0.00001122,0.0000
 0838,0.00000209,0.00000289,0.00000832,-0.00000438,-0.00000639,0.000010
 13,0.00002038,0.00000392,-0.00000415,-0.00001037,-0.00000268,0.0000018
 4,0.00000969,0.00000879,-0.00001679,0.00041187,0.00047929,0.00254382,-
 0.00514243,0.00044852,-0.00250287,-0.07829818,-0.11921028,-0.32813967,
 0.00006162,0.00002353,0.00009290,0.00000088,0.00000372,0.00000228,0.00
 000396,0.00000166,0.00000843,0.00000145,0.00000384,-0.00000160,-0.0000
 0319,-0.00001629,-0.00000661,-0.00000045,0.00000146,-0.00000076,-0.000
 00090,0.00000017,0.00000005,-0.00001121,-0.00000070,0.00000092,-0.0000
 4826,0.00006590,0.00011790,-0.00009530,-0.00069621,-0.00030435,-0.0001
 8455,0.00074121,0.00114238,0.00043666,0.00027720,0.00006351,-0.0089941
 5,-0.01179650,-0.02081842,0.08944096,0.12733663,0.34361985,0.00047141,
 -0.00018861,0.00044667,-0.00111540,-0.00036514,-0.00084981,0.00074330,
 -0.00001030,-0.00001365,-0.00021700,0.00007818,-0.00015150,-0.00019923
 ,0.00014372,0.00010701,0.00017597,-0.00009169,-0.00003316,0.00013557,-
 0.00006031,-0.00006303,0.00001766,-0.00006269,0.00000245,0.00000047,0.
 00002645,-0.00000814,-0.00003759,-0.00001202,0.00002629,0.00006714,-0.
 00000272,0.00003610,0.00001534,0.00000235,0.00000055,0.00001828,0.0000
 2235,-0.00003184,0.00205071,0.00143830,-0.00002746,-0.00211308,0.03468
 030,-0.00109870,-0.06227770,0.04650109,-0.00048117,-0.00007639,0.00004
 870,0.00014606,0.00002348,0.00000673,0.00002185,-0.00002533,0.00001428
 ,0.00000907,-0.00001080,-0.00000251,0.00000674,-0.00000719,-0.00002588
 ,-0.00002243,-0.00000654,-0.00000325,0.00000133,0.00000196,-0.00000098
 ,0.00000106,-0.00002002,0.00000158,-0.00002411,-0.00046756,-0.00156188
 ,0.00096026,0.00007105,-0.00033218,0.00005259,0.00124504,-0.00032361,-
 0.00037486,-0.00687915,0.00001592,-0.00150703,0.00423729,-0.02469010,-
 0.00141381,0.00105144,-0.01147828,0.00190941,0.06312688,-0.00037308,-0
 .00022157,0.00007498,0.00031005,-0.00007310,0.00031377,-0.00050933,-0.
 00005104,-0.00000546,0.00013476,0.00004752,0.00009322,0.00005828,-0.00
 004845,-0.00003951,-0.00007586,0.00002620,0.00001908,-0.00006476,-0.00
 000085,0.00001927,-0.00000294,0.00004537,0.00000911,-0.00000102,-0.000
 02371,-0.00000784,0.00001213,-0.00000060,-0.00001359,-0.00002154,-0.00
 000623,-0.00000886,-0.00000350,0.00000179,0.00000001,-0.00000150,-0.00
 002300,0.00001217,-0.00102292,0.00221584,-0.00163776,0.00565689,-0.004
 02404,0.00177606,0.03567346,-0.40008727,0.01303676,0.00004605,0.000045
 08,-0.00006993,-0.00000771,-0.00000688,-0.00000192,0.00001392,0.000009
 06,-0.00000534,-0.00000884,0.00000010,0.00001164,0.00000328,0.00002405
 ,-0.00000911,-0.00000007,0.00000509,0.00000252,-0.00000093,0.00000338,
 0.00000103,0.00000617,0.00001960,0.00001163,0.00047045,-0.00030253,-0.
 00011851,0.00005856,-0.00031231,0.00010874,-0.00059185,0.00087269,0.00
 020982,0.00021955,0.00163243,0.00040223,0.00204084,-0.00994787,-0.0009
 9048,0.00174926,-0.01160764,0.00228049,-0.04376781,0.42178889,-0.00015
 111,-0.00019366,-0.00070654,0.00081630,0.00039576,0.00061183,-0.000169
 69,0.00000703,-0.00010460,0.00007982,-0.00004087,0.00002191,0.00008760
 ,-0.00004194,0.00004922,-0.00007695,0.00003293,-0.00001105,-0.00006357
 ,0.00001780,-0.00004162,-0.00001600,0.00003130,0.00002035,0.00000347,-
 0.00001837,0.00001306,0.00001672,-0.00000067,-0.00000563,-0.00001571,0
 .00000629,-0.00002542,-0.00002318,-0.00000485,0.00000157,0.00000259,-0
 .00000897,-0.00000174,-0.00008915,-0.00169256,0.00013285,-0.00105124,0
 .00801181,-0.00016696,0.00018261,0.01489881,-0.06433802,0.00005985,-0.
 00002932,-0.00002617,-0.00001076,0.00000138,-0.00000684,0.00001358,-0.
 00000427,0.00000074,0.00000587,0.00000159,-0.00000420,0.00000188,0.000
 00944,0.00000566,0.00000279,0.00000314,-0.00000126,-0.00000260,0.00000
 170,-0.00000013,-0.00000259,0.00000837,0.00001817,0.00011528,0.0006417
 6,0.00028910,0.00016787,-0.00005123,-0.00013960,-0.00040784,0.00068181
 ,-0.00034270,-0.00166455,-0.00009804,0.00007378,-0.00571577,0.02889193
 ,0.00085436,0.00553123,-0.03598390,0.00494257,0.00237325,-0.01547421,0
 .05888727\\-0.00000218,-0.00000030,-0.00000016,0.00000096,0.00000020,-
 0.00000128,-0.00000028,-0.00000051,-0.00000091,0.00000012,0.00000015,-
 0.00000020,0.00000299,-0.00000171,0.00000067,-0.00000184,0.00000129,-0
 .00000020,-0.00000103,0.00000156,0.00000038,0.00000079,0.00000009,-0.0
 0000070,-0.00000006,0.00000013,0.00000002,0.00000071,0.00000017,0.0000
 0128,-0.00000065,0.00000030,-0.00000055,0.00000006,-0.00000020,-0.0000
 0002,-0.00000053,-0.00000066,0.00000046,0.00000020,-0.00000057,0.00000
 114,0.00000089,-0.00000050,0.00000218,0.00000077,-0.00000010,-0.000000
 57,0.00000003,0.00000100,-0.00000034,0.00000066,0.00000013,-0.00000037
 ,0.00000028,0.00000064,-0.00000095,-0.00000021,0.00000022,0.00000039,-
 0.00000049,-0.00000036,0.00000069,0.00000004,0.00000034,0.00000064,0.0
 0000019,-0.00000049,0.00000048,-0.00000005,-0.00000037,0.00000034,-0.0
 0000020,0.00000037,-0.00000111,0.00000057,0.00000136,-0.00000065,-0.00
 000097,-0.00000197,-0.00000054,-0.00000050,0.00000031,0.00000024,0.,-0
 .00000054,0.00000006,-0.00000014,-0.00000003,-0.00000045,-0.00000012,0
 .00000006,0.00000004\\\@


 THERE IS SOMETHING FASCINATING ABOUT SCIENCE.
 ONE GETS SUCH WHOLESALE CONJECTURE OUT OF SUCH TRIFLING INVESTMENTS.

                                                       -- MARK TWAIN
 Job cpu time:       0 days  1 hours 14 minutes 30.2 seconds.
 File lengths (MBytes):  RWF=    349 Int=      0 D2E=      0 Chk=     10 Scr=      1
 Normal termination of Gaussian 09 at Wed Jul 28 23:31:07 2021.
