 Entering Gaussian System, Link 0=g09
 Input=opt_freq-conf-661.com
 Output=opt_freq-conf-661.log
 Initial command:
 /aerosol/software/g09/l1.exe "/scratch/nicole/10680/Gau-86026.inp" -scrdir="/scratch/nicole/10680/"
 Entering Link 1 = /aerosol/software/g09/l1.exe PID=     86032.
  
 Copyright (c) 1988,1990,1992,1993,1995,1998,2003,2009,2013,
            Gaussian, Inc.  All Rights Reserved.
  
 This is part of the Gaussian(R) 09 program.  It is based on
 the Gaussian(R) 03 system (copyright 2003, Gaussian, Inc.),
 the Gaussian(R) 98 system (copyright 1998, Gaussian, Inc.),
 the Gaussian(R) 94 system (copyright 1995, Gaussian, Inc.),
 the Gaussian 92(TM) system (copyright 1992, Gaussian, Inc.),
 the Gaussian 90(TM) system (copyright 1990, Gaussian, Inc.),
 the Gaussian 88(TM) system (copyright 1988, Gaussian, Inc.),
 the Gaussian 86(TM) system (copyright 1986, Carnegie Mellon
 University), and the Gaussian 82(TM) system (copyright 1983,
 Carnegie Mellon University). Gaussian is a federally registered
 trademark of Gaussian, Inc.
  
 This software contains proprietary and confidential information,
 including trade secrets, belonging to Gaussian, Inc.
  
 This software is provided under written license and may be
 used, copied, transmitted, or stored only in accord with that
 written license.
  
 The following legend is applicable only to US Government
 contracts under FAR:
  
                    RESTRICTED RIGHTS LEGEND
  
 Use, reproduction and disclosure by the US Government is
 subject to restrictions as set forth in subparagraphs (a)
 and (c) of the Commercial Computer Software - Restricted
 Rights clause in FAR 52.227-19.
  
 Gaussian, Inc.
 340 Quinnipiac St., Bldg. 40, Wallingford CT 06492
  
  
 ---------------------------------------------------------------
 Warning -- This program may not be used in any manner that
 competes with the business of Gaussian, Inc. or will provide
 assistance to any competitor of Gaussian, Inc.  The licensee
 of this program is prohibited from giving any competitor of
 Gaussian, Inc. access to this program.  By using this program,
 the user acknowledges that Gaussian, Inc. is engaged in the
 business of creating and licensing software in the field of
 computational chemistry and represents and warrants to the
 licensee that it is not a competitor of Gaussian, Inc. and that
 it will not use this program in any manner prohibited above.
 ---------------------------------------------------------------
  

 Cite this work as:
 Gaussian 09, Revision D.01,
 M. J. Frisch, G. W. Trucks, H. B. Schlegel, G. E. Scuseria, 
 M. A. Robb, J. R. Cheeseman, G. Scalmani, V. Barone, B. Mennucci, 
 G. A. Petersson, H. Nakatsuji, M. Caricato, X. Li, H. P. Hratchian, 
 A. F. Izmaylov, J. Bloino, G. Zheng, J. L. Sonnenberg, M. Hada, 
 M. Ehara, K. Toyota, R. Fukuda, J. Hasegawa, M. Ishida, T. Nakajima, 
 Y. Honda, O. Kitao, H. Nakai, T. Vreven, J. A. Montgomery, Jr., 
 J. E. Peralta, F. Ogliaro, M. Bearpark, J. J. Heyd, E. Brothers, 
 K. N. Kudin, V. N. Staroverov, T. Keith, R. Kobayashi, J. Normand, 
 K. Raghavachari, A. Rendell, J. C. Burant, S. S. Iyengar, J. Tomasi, 
 M. Cossi, N. Rega, J. M. Millam, M. Klene, J. E. Knox, J. B. Cross, 
 V. Bakken, C. Adamo, J. Jaramillo, R. Gomperts, R. E. Stratmann, 
 O. Yazyev, A. J. Austin, R. Cammi, C. Pomelli, J. W. Ochterski, 
 R. L. Martin, K. Morokuma, V. G. Zakrzewski, G. A. Voth, 
 P. Salvador, J. J. Dannenberg, S. Dapprich, A. D. Daniels, 
 O. Farkas, J. B. Foresman, J. V. Ortiz, J. Cioslowski, 
 and D. J. Fox, Gaussian, Inc., Wallingford CT, 2013.
 
 ******************************************
 Gaussian 09:  ES64L-G09RevD.01 24-Apr-2013
                28-Jul-2021 
 ******************************************
 %mem=2gb
 %nproc=4
 Will use up to    4 processors via shared memory.
 %chk=conf-661.chk
 ----------------------------------------------------------------------
 # B3LYP/6-31G(d,p) opt=calcfc freq=noraman nosymm integral(ultrafinegr
 id)
 ----------------------------------------------------------------------
 1/10=4,14=-1,18=20,19=15,26=4,38=1/1,3;
 2/9=110,12=2,15=1,17=6,18=5,40=1/2;
 3/5=1,6=6,7=101,11=2,16=1,25=1,30=1,71=2,74=-5,75=-5,140=1/1,2,3;
 4//1;
 5/5=2,38=5/2;
 8/6=4,10=90,11=11/1;
 11/6=1,8=1,9=11,15=111,16=1,31=1/1,2,10;
 10/6=1,13=1,31=1/2;
 6/7=2,8=2,9=2,10=2,28=1/1;
 7/10=1,18=20,25=1,30=1/1,2,3,16;
 1/10=4,14=-1,18=20,19=15,26=4/3(2);
 2/9=110,15=1/2;
 99//99;
 2/9=110,15=1/2;
 3/5=1,6=6,7=101,11=2,16=1,25=1,30=1,71=1,74=-5,75=-5/1,2,3;
 4/5=5,16=3,69=1/1;
 5/5=2,38=5/2;
 7/30=1/1,2,3,16;
 1/14=-1,18=20,19=15,26=4/3(-5);
 2/9=110,15=1/2;
 6/7=2,8=2,9=2,10=2,19=2,28=1/1;
 99/9=1/99;
 ------------------------------------------------------------
 Candidate Structure: Conf:661 OPT and FREQ calc in gas phase
 ------------------------------------------------------------
 Symbolic Z-matrix:
 Charge =  1 Multiplicity = 1
 O                     1.32423   1.81349   0.5401 
 C                     1.12207   1.00651  -0.35344 
 N                     0.17682   0.02404  -0.25786 
 C                    -0.31161  -0.34442   1.05573 
 C                     0.59774  -1.40463   1.66885 
 O                     0.55837  -1.51997   3.00838 
 O                     1.29808  -2.13154   1.01585 
 C                    -1.74475  -0.88705   0.99962 
 C                    -2.7214    0.07774   0.39446 
 C                    -3.37941   0.07444  -0.80347 
 N                    -4.15506   1.20955  -0.94796 
 C                    -3.97043   1.8909    0.15893 
 N                    -3.11353   1.25308   1.00056 
 C                     1.92472   0.99132  -1.63242 
 C                     3.26497   0.28644  -1.39996 
 N                     3.12214  -1.17546  -1.18576 
 H                     0.26239  -0.73584  -0.91142 
 H                    -0.2515    0.56273   1.65523 
 H                    -0.03134  -0.85479   3.38157 
 H                    -2.05656  -1.16569   2.00948 
 H                    -1.75475  -1.79756   0.3993 
 H                    -3.32711  -0.68071  -1.57624 
 H                    -4.42189   2.83492   0.40909 
 H                    -2.82052   1.58386   1.90623 
 H                     2.11161   2.02859  -1.9138 
 H                     1.37537   0.49569  -2.4359 
 H                     3.74155   0.73644  -0.52457 
 H                     3.92106   0.46505  -2.25448 
 H                     4.03225  -1.62419  -1.05353 
 H                     2.55445  -1.40133  -0.36187 
 H                     2.67164  -1.61148  -1.9907 
 

 GradGradGradGradGradGradGradGradGradGradGradGradGradGradGradGradGradGrad
 Berny optimization.
 Initialization pass.
                           ----------------------------
                           !    Initial Parameters    !
                           ! (Angstroms and Degrees)  !
 --------------------------                            --------------------------
 ! Name  Definition              Value          Derivative Info.                !
 --------------------------------------------------------------------------------
 ! R1    R(1,2)                  1.2209         calculate D2E/DX2 analytically  !
 ! R2    R(2,3)                  1.3667         calculate D2E/DX2 analytically  !
 ! R3    R(2,14)                 1.5101         calculate D2E/DX2 analytically  !
 ! R4    R(3,4)                  1.4491         calculate D2E/DX2 analytically  !
 ! R5    R(3,17)                 1.0059         calculate D2E/DX2 analytically  !
 ! R6    R(4,5)                  1.5254         calculate D2E/DX2 analytically  !
 ! R7    R(4,8)                  1.5335         calculate D2E/DX2 analytically  !
 ! R8    R(4,18)                 1.089          calculate D2E/DX2 analytically  !
 ! R9    R(5,6)                  1.3451         calculate D2E/DX2 analytically  !
 ! R10   R(5,7)                  1.2022         calculate D2E/DX2 analytically  !
 ! R11   R(6,19)                 0.9641         calculate D2E/DX2 analytically  !
 ! R12   R(8,9)                  1.5003         calculate D2E/DX2 analytically  !
 ! R13   R(8,20)                 1.093          calculate D2E/DX2 analytically  !
 ! R14   R(8,21)                 1.0907         calculate D2E/DX2 analytically  !
 ! R15   R(9,10)                 1.3668         calculate D2E/DX2 analytically  !
 ! R16   R(9,13)                 1.3793         calculate D2E/DX2 analytically  !
 ! R17   R(10,11)                1.3824         calculate D2E/DX2 analytically  !
 ! R18   R(10,22)                1.0817         calculate D2E/DX2 analytically  !
 ! R19   R(11,12)                1.3128         calculate D2E/DX2 analytically  !
 ! R20   R(12,13)                1.3599         calculate D2E/DX2 analytically  !
 ! R21   R(12,23)                1.0759         calculate D2E/DX2 analytically  !
 ! R22   R(13,24)                1.0077         calculate D2E/DX2 analytically  !
 ! R23   R(14,15)                1.532          calculate D2E/DX2 analytically  !
 ! R24   R(14,25)                1.0909         calculate D2E/DX2 analytically  !
 ! R25   R(14,26)                1.0923         calculate D2E/DX2 analytically  !
 ! R26   R(15,16)                1.4844         calculate D2E/DX2 analytically  !
 ! R27   R(15,27)                1.0936         calculate D2E/DX2 analytically  !
 ! R28   R(15,28)                1.092          calculate D2E/DX2 analytically  !
 ! R29   R(16,29)                1.0233         calculate D2E/DX2 analytically  !
 ! R30   R(16,30)                1.0257         calculate D2E/DX2 analytically  !
 ! R31   R(16,31)                1.0203         calculate D2E/DX2 analytically  !
 ! A1    A(1,2,3)              122.5816         calculate D2E/DX2 analytically  !
 ! A2    A(1,2,14)             122.584          calculate D2E/DX2 analytically  !
 ! A3    A(3,2,14)             114.8107         calculate D2E/DX2 analytically  !
 ! A4    A(2,3,4)              118.6396         calculate D2E/DX2 analytically  !
 ! A5    A(2,3,17)             116.0248         calculate D2E/DX2 analytically  !
 ! A6    A(4,3,17)             115.1862         calculate D2E/DX2 analytically  !
 ! A7    A(3,4,5)              109.886          calculate D2E/DX2 analytically  !
 ! A8    A(3,4,8)              111.8279         calculate D2E/DX2 analytically  !
 ! A9    A(3,4,18)             105.582          calculate D2E/DX2 analytically  !
 ! A10   A(5,4,8)              109.0202         calculate D2E/DX2 analytically  !
 ! A11   A(5,4,18)             108.9531         calculate D2E/DX2 analytically  !
 ! A12   A(8,4,18)             111.4993         calculate D2E/DX2 analytically  !
 ! A13   A(4,5,6)              116.2593         calculate D2E/DX2 analytically  !
 ! A14   A(4,5,7)              123.3129         calculate D2E/DX2 analytically  !
 ! A15   A(6,5,7)              120.4069         calculate D2E/DX2 analytically  !
 ! A16   A(5,6,19)             110.1352         calculate D2E/DX2 analytically  !
 ! A17   A(4,8,9)              113.3029         calculate D2E/DX2 analytically  !
 ! A18   A(4,8,20)             108.8461         calculate D2E/DX2 analytically  !
 ! A19   A(4,8,21)             108.9124         calculate D2E/DX2 analytically  !
 ! A20   A(9,8,20)             110.5424         calculate D2E/DX2 analytically  !
 ! A21   A(9,8,21)             107.9907         calculate D2E/DX2 analytically  !
 ! A22   A(20,8,21)            107.044          calculate D2E/DX2 analytically  !
 ! A23   A(8,9,10)             131.712          calculate D2E/DX2 analytically  !
 ! A24   A(8,9,13)             123.7646         calculate D2E/DX2 analytically  !
 ! A25   A(10,9,13)            104.4972         calculate D2E/DX2 analytically  !
 ! A26   A(9,10,11)            111.0856         calculate D2E/DX2 analytically  !
 ! A27   A(9,10,22)            127.1963         calculate D2E/DX2 analytically  !
 ! A28   A(11,10,22)           121.7136         calculate D2E/DX2 analytically  !
 ! A29   A(10,11,12)           105.0176         calculate D2E/DX2 analytically  !
 ! A30   A(11,12,13)           111.5303         calculate D2E/DX2 analytically  !
 ! A31   A(11,12,23)           126.3273         calculate D2E/DX2 analytically  !
 ! A32   A(13,12,23)           122.1422         calculate D2E/DX2 analytically  !
 ! A33   A(9,13,12)            107.8687         calculate D2E/DX2 analytically  !
 ! A34   A(9,13,24)            126.2962         calculate D2E/DX2 analytically  !
 ! A35   A(12,13,24)           125.8351         calculate D2E/DX2 analytically  !
 ! A36   A(2,14,15)            109.9447         calculate D2E/DX2 analytically  !
 ! A37   A(2,14,25)            107.4551         calculate D2E/DX2 analytically  !
 ! A38   A(2,14,26)            111.1172         calculate D2E/DX2 analytically  !
 ! A39   A(15,14,25)           109.0712         calculate D2E/DX2 analytically  !
 ! A40   A(15,14,26)           110.0499         calculate D2E/DX2 analytically  !
 ! A41   A(25,14,26)           109.1402         calculate D2E/DX2 analytically  !
 ! A42   A(14,15,16)           113.0066         calculate D2E/DX2 analytically  !
 ! A43   A(14,15,27)           108.2627         calculate D2E/DX2 analytically  !
 ! A44   A(14,15,28)           109.3657         calculate D2E/DX2 analytically  !
 ! A45   A(16,15,27)           109.3707         calculate D2E/DX2 analytically  !
 ! A46   A(16,15,28)           109.3779         calculate D2E/DX2 analytically  !
 ! A47   A(27,15,28)           107.2924         calculate D2E/DX2 analytically  !
 ! A48   A(15,16,29)           111.4043         calculate D2E/DX2 analytically  !
 ! A49   A(15,16,30)           112.7081         calculate D2E/DX2 analytically  !
 ! A50   A(15,16,31)           110.4579         calculate D2E/DX2 analytically  !
 ! A51   A(29,16,30)           106.9705         calculate D2E/DX2 analytically  !
 ! A52   A(29,16,31)           107.8933         calculate D2E/DX2 analytically  !
 ! A53   A(30,16,31)           107.1698         calculate D2E/DX2 analytically  !
 ! D1    D(1,2,3,4)            -19.3676         calculate D2E/DX2 analytically  !
 ! D2    D(1,2,3,17)          -163.0987         calculate D2E/DX2 analytically  !
 ! D3    D(14,2,3,4)           158.905          calculate D2E/DX2 analytically  !
 ! D4    D(14,2,3,17)           15.1739         calculate D2E/DX2 analytically  !
 ! D5    D(1,2,14,15)           80.1502         calculate D2E/DX2 analytically  !
 ! D6    D(1,2,14,25)          -38.4355         calculate D2E/DX2 analytically  !
 ! D7    D(1,2,14,26)         -157.7689         calculate D2E/DX2 analytically  !
 ! D8    D(3,2,14,15)          -98.1224         calculate D2E/DX2 analytically  !
 ! D9    D(3,2,14,25)          143.292          calculate D2E/DX2 analytically  !
 ! D10   D(3,2,14,26)           23.9586         calculate D2E/DX2 analytically  !
 ! D11   D(2,3,4,5)            -86.6939         calculate D2E/DX2 analytically  !
 ! D12   D(2,3,4,8)            152.0936         calculate D2E/DX2 analytically  !
 ! D13   D(2,3,4,18)            30.657          calculate D2E/DX2 analytically  !
 ! D14   D(17,3,4,5)            57.3305         calculate D2E/DX2 analytically  !
 ! D15   D(17,3,4,8)           -63.882          calculate D2E/DX2 analytically  !
 ! D16   D(17,3,4,18)          174.6814         calculate D2E/DX2 analytically  !
 ! D17   D(3,4,5,6)            158.3706         calculate D2E/DX2 analytically  !
 ! D18   D(3,4,5,7)            -23.2929         calculate D2E/DX2 analytically  !
 ! D19   D(8,4,5,6)            -78.7465         calculate D2E/DX2 analytically  !
 ! D20   D(8,4,5,7)             99.59           calculate D2E/DX2 analytically  !
 ! D21   D(18,4,5,6)            43.1413         calculate D2E/DX2 analytically  !
 ! D22   D(18,4,5,7)          -138.5222         calculate D2E/DX2 analytically  !
 ! D23   D(3,4,8,9)            -57.6001         calculate D2E/DX2 analytically  !
 ! D24   D(3,4,8,20)           178.9828         calculate D2E/DX2 analytically  !
 ! D25   D(3,4,8,21)            62.6025         calculate D2E/DX2 analytically  !
 ! D26   D(5,4,8,9)           -179.3124         calculate D2E/DX2 analytically  !
 ! D27   D(5,4,8,20)            57.2706         calculate D2E/DX2 analytically  !
 ! D28   D(5,4,8,21)           -59.1097         calculate D2E/DX2 analytically  !
 ! D29   D(18,4,8,9)            60.3545         calculate D2E/DX2 analytically  !
 ! D30   D(18,4,8,20)          -63.0626         calculate D2E/DX2 analytically  !
 ! D31   D(18,4,8,21)         -179.4429         calculate D2E/DX2 analytically  !
 ! D32   D(4,5,6,19)            -2.9337         calculate D2E/DX2 analytically  !
 ! D33   D(7,5,6,19)           178.6781         calculate D2E/DX2 analytically  !
 ! D34   D(4,8,9,10)           108.6852         calculate D2E/DX2 analytically  !
 ! D35   D(4,8,9,13)           -69.1483         calculate D2E/DX2 analytically  !
 ! D36   D(20,8,9,10)         -128.8347         calculate D2E/DX2 analytically  !
 ! D37   D(20,8,9,13)           53.3319         calculate D2E/DX2 analytically  !
 ! D38   D(21,8,9,10)          -12.0404         calculate D2E/DX2 analytically  !
 ! D39   D(21,8,9,13)          170.1262         calculate D2E/DX2 analytically  !
 ! D40   D(8,9,10,11)         -177.9618         calculate D2E/DX2 analytically  !
 ! D41   D(8,9,10,22)            1.267          calculate D2E/DX2 analytically  !
 ! D42   D(13,9,10,11)           0.1779         calculate D2E/DX2 analytically  !
 ! D43   D(13,9,10,22)         179.4068         calculate D2E/DX2 analytically  !
 ! D44   D(8,9,13,12)          178.3006         calculate D2E/DX2 analytically  !
 ! D45   D(8,9,13,24)           -1.761          calculate D2E/DX2 analytically  !
 ! D46   D(10,9,13,12)          -0.0291         calculate D2E/DX2 analytically  !
 ! D47   D(10,9,13,24)         179.9094         calculate D2E/DX2 analytically  !
 ! D48   D(9,10,11,12)          -0.2599         calculate D2E/DX2 analytically  !
 ! D49   D(22,10,11,12)       -179.5378         calculate D2E/DX2 analytically  !
 ! D50   D(10,11,12,13)          0.239          calculate D2E/DX2 analytically  !
 ! D51   D(10,11,12,23)       -179.5856         calculate D2E/DX2 analytically  !
 ! D52   D(11,12,13,9)          -0.1372         calculate D2E/DX2 analytically  !
 ! D53   D(11,12,13,24)        179.9239         calculate D2E/DX2 analytically  !
 ! D54   D(23,12,13,9)         179.6958         calculate D2E/DX2 analytically  !
 ! D55   D(23,12,13,24)         -0.243          calculate D2E/DX2 analytically  !
 ! D56   D(2,14,15,16)          69.9412         calculate D2E/DX2 analytically  !
 ! D57   D(2,14,15,27)         -51.3624         calculate D2E/DX2 analytically  !
 ! D58   D(2,14,15,28)        -167.9634         calculate D2E/DX2 analytically  !
 ! D59   D(25,14,15,16)       -172.4727         calculate D2E/DX2 analytically  !
 ! D60   D(25,14,15,27)         66.2237         calculate D2E/DX2 analytically  !
 ! D61   D(25,14,15,28)        -50.3773         calculate D2E/DX2 analytically  !
 ! D62   D(26,14,15,16)        -52.7714         calculate D2E/DX2 analytically  !
 ! D63   D(26,14,15,27)       -174.075          calculate D2E/DX2 analytically  !
 ! D64   D(26,14,15,28)         69.324          calculate D2E/DX2 analytically  !
 ! D65   D(14,15,16,29)        178.7588         calculate D2E/DX2 analytically  !
 ! D66   D(14,15,16,30)        -60.9842         calculate D2E/DX2 analytically  !
 ! D67   D(14,15,16,31)         58.8614         calculate D2E/DX2 analytically  !
 ! D68   D(27,15,16,29)        -60.5662         calculate D2E/DX2 analytically  !
 ! D69   D(27,15,16,30)         59.6908         calculate D2E/DX2 analytically  !
 ! D70   D(27,15,16,31)        179.5363         calculate D2E/DX2 analytically  !
 ! D71   D(28,15,16,29)         56.6703         calculate D2E/DX2 analytically  !
 ! D72   D(28,15,16,30)        176.9273         calculate D2E/DX2 analytically  !
 ! D73   D(28,15,16,31)        -63.2272         calculate D2E/DX2 analytically  !
 --------------------------------------------------------------------------------
 Trust Radius=3.00D-01 FncErr=1.00D-07 GrdErr=1.00D-06
 Number of steps in this run=    167 maximum allowed number of steps=    186.
 GradGradGradGradGradGradGradGradGradGradGradGradGradGradGradGradGradGrad

                          Input orientation:                          
 ---------------------------------------------------------------------
 Center     Atomic      Atomic             Coordinates (Angstroms)
 Number     Number       Type             X           Y           Z
 ---------------------------------------------------------------------
      1          8           0        1.324230    1.813489    0.540098
      2          6           0        1.122074    1.006515   -0.353441
      3          7           0        0.176817    0.024036   -0.257862
      4          6           0       -0.311607   -0.344423    1.055726
      5          6           0        0.597744   -1.404631    1.668846
      6          8           0        0.558372   -1.519972    3.008380
      7          8           0        1.298083   -2.131538    1.015852
      8          6           0       -1.744746   -0.887049    0.999625
      9          6           0       -2.721402    0.077743    0.394459
     10          6           0       -3.379410    0.074437   -0.803466
     11          7           0       -4.155064    1.209552   -0.947962
     12          6           0       -3.970433    1.890901    0.158934
     13          7           0       -3.113529    1.253076    1.000558
     14          6           0        1.924723    0.991316   -1.632417
     15          6           0        3.264969    0.286443   -1.399957
     16          7           0        3.122144   -1.175457   -1.185759
     17          1           0        0.262385   -0.735838   -0.911425
     18          1           0       -0.251500    0.562729    1.655229
     19          1           0       -0.031336   -0.854794    3.381571
     20          1           0       -2.056564   -1.165693    2.009484
     21          1           0       -1.754749   -1.797564    0.399302
     22          1           0       -3.327112   -0.680712   -1.576235
     23          1           0       -4.421885    2.834916    0.409089
     24          1           0       -2.820524    1.583857    1.906229
     25          1           0        2.111610    2.028590   -1.913800
     26          1           0        1.375365    0.495690   -2.435900
     27          1           0        3.741549    0.736445   -0.524567
     28          1           0        3.921059    0.465053   -2.254483
     29          1           0        4.032249   -1.624195   -1.053526
     30          1           0        2.554447   -1.401334   -0.361874
     31          1           0        2.671637   -1.611483   -1.990702
 ---------------------------------------------------------------------
                    Distance matrix (angstroms):
                    1          2          3          4          5
     1  O    0.000000
     2  C    1.220855   0.000000
     3  N    2.270560   1.366716   0.000000
     4  C    2.756524   2.422030   1.449081   0.000000
     5  C    3.486854   3.190327   2.435256   1.525410   0.000000
     6  O    4.217928   4.242963   3.632888   2.439597   1.345067
     7  O    3.973697   3.428311   2.743371   2.405509   1.202193
     8  C    4.113719   3.692564   2.470577   1.533453   2.490584
     9  C    4.404675   4.024212   2.971209   2.534287   3.852042
    10  C    5.191695   4.618945   3.598190   3.611572   4.910980
    11  N    5.709792   5.314402   4.543884   4.604538   6.022527
    12  C    5.308930   5.194064   4.567120   4.380401   5.831690
    13  N    4.496642   4.453587   3.731024   3.225804   4.613412
    14  C    2.399246   1.510051   2.424914   3.743192   4.289495
    15  C    3.140406   2.491124   3.303017   4.384093   4.403563
    16  N    3.891642   3.074741   3.312812   4.183960   3.817575
    17  H    3.119856   2.021436   1.005919   2.086230   2.686549
    18  H    2.300184   2.473542   2.033117   1.089010   2.142874
    19  H    4.126895   4.329566   3.749819   2.397620   1.905647
    20  H    4.739662   4.517261   3.397691   2.151514   2.686723
    21  H    4.747593   4.087247   2.735148   2.150621   2.701918
    22  H    5.686377   4.912964   3.809500   4.016663   5.143841
    23  H    5.837663   5.887274   5.430832   5.236480   6.690099
    24  H    4.370129   4.580776   4.012528   3.276626   4.546643
    25  H    2.586087   2.111525   3.240955   4.507911   5.187884
    26  H    3.255115   2.159105   2.530381   3.967760   4.589646
    27  H    2.852537   2.638915   3.644993   4.482598   4.390760
    28  H    4.046169   3.426581   4.266186   5.433986   5.471073
    29  H    4.657325   3.984955   4.267798   4.995583   4.388090
    30  H    3.558381   2.801695   2.774099   3.367628   2.820021
    31  H    4.466642   3.454806   3.449896   4.448136   4.211426
                    6          7          8          9         10
     6  O    0.000000
     7  O    2.211640   0.000000
     8  C    3.120904   3.287526   0.000000
     9  C    4.488005   4.628533   1.500302   0.000000
    10  C    5.707752   5.482261   2.616814   1.366751   0.000000
    11  N    6.731970   6.690013   3.741452   2.266820   1.382391
    12  C    6.345350   6.683681   3.657519   2.214292   2.138940
    13  N    5.020358   5.560411   2.540414   1.379322   2.171264
    14  C    5.450731   4.142248   4.890900   5.150662   5.446251
    15  C    5.479255   3.943527   5.677352   6.253010   6.674468
    16  N    4.927719   3.014694   5.342817   6.181798   6.631635
    17  H    4.008408   2.595197   2.775527   3.357117   3.732408
    18  H    2.612384   3.173183   2.182076   2.815168   4.008420
    19  H    0.964100   2.999009   2.934362   4.126611   5.439449
    20  H    2.821559   3.629576   1.093019   2.143933   3.346720
    21  H    3.497838   3.132324   1.090654   2.109791   2.755098
    22  H    6.067951   5.496930   3.030101   2.196764   1.081738
    23  H    7.108046   7.599465   4.622643   3.239423   3.190186
    24  H    4.718625   5.617816   2.843343   2.136271   3.151690
    25  H    6.263600   5.152800   5.644508   5.700164   5.933199
    26  H    5.862640   4.338536   4.842509   4.996911   5.044817
    27  H    5.263625   4.070472   5.921008   6.561116   7.157101
    28  H    6.553298   4.931266   6.672237   7.161647   7.453514
    29  H    5.345817   3.466322   6.175151   7.113723   7.607928
    30  H    3.918801   2.002443   4.538858   5.531211   6.130544
    31  H    5.428175   3.346113   5.382500   6.134114   6.392732
                   11         12         13         14         15
    11  N    0.000000
    12  C    1.312839   0.000000
    13  N    2.209847   1.359939   0.000000
    14  C    6.122084   6.226641   5.690787   0.000000
    15  C    7.490883   7.573340   6.883465   1.532039   0.000000
    16  N    7.661760   7.843175   7.039984   2.515596   1.484396
    17  H    4.826980   5.095309   4.359846   2.503249   3.209242
    18  H    4.736328   4.222961   3.016021   3.965886   4.666482
    19  H    6.325466   5.782794   4.428572   5.689847   5.918704
    20  H    4.334972   4.053418   2.825872   5.810919   6.484729
    21  H    4.076688   4.309502   3.393258   5.044229   5.725206
    22  H    2.157158   3.168259   3.228780   5.511860   6.664983
    23  H    2.134149   1.075896   2.136317   6.917083   8.297897
    24  H    3.172934   2.114144   1.007724   5.948990   7.046089
    25  H    6.393346   6.427008   6.032991   1.090890   2.151592
    26  H    5.771413   6.103879   5.703775   1.092256   2.165079
    27  H    7.922096   7.827810   7.041663   2.143163   1.093589
    28  H    8.214928   8.374561   7.791130   2.156218   1.092048
    29  H    8.664489   8.824334   7.972459   3.408471   2.087886
    30  H    7.223418   7.326944   6.405316   2.781295   2.105005
    31  H    7.459853   7.810552   7.114878   2.731449   2.074403
                   16         17         18         19         20
    16  N    0.000000
    17  H    2.906328   0.000000
    18  H    4.740673   2.921997   0.000000
    19  H    5.559475   4.304675   2.244571   0.000000
    20  H    6.085121   3.754199   2.524123   2.465934   0.000000
    21  H    5.165609   2.629467   3.067262   3.571119   1.755859
    22  H    6.479980   3.650959   4.631187   5.955861   3.834955
    23  H    8.691318   6.036259   4.909970   6.459607   4.915372
    24  H    7.244963   4.777497   2.775893   3.987884   2.855577
    25  H    3.437606   3.473679   4.524490   6.398990   6.555096
    26  H    2.721547   2.253755   4.403241   6.135600   5.856601
    27  H    2.115705   3.797612   4.552597   5.659030   6.607395
    28  H    2.114642   4.078215   5.718885   7.009174   7.521485
    29  H    1.023300   3.875725   5.520009   6.064222   6.831245
    30  H    1.025712   2.449171   3.974870   4.582397   5.190404
    31  H    1.020298   2.781383   5.154100   6.061349   6.209356
                   21         22         23         24         25
    21  H    0.000000
    22  H    2.760875   0.000000
    23  H    5.345427   4.183262   0.000000
    24  H    3.852365   4.184789   2.524071   0.000000
    25  H    5.910890   6.085554   6.980869   6.254306   0.000000
    26  H    4.805726   4.923031   6.868337   6.135444   1.778884
    27  H    6.122420   7.285623   8.480387   7.048949   2.501261
    28  H    6.661592   7.369449   9.072794   8.000761   2.415537
    29  H    5.969096   7.437982   9.669297   8.124791   4.215657
    30  H    4.393809   6.048695   8.198135   6.553317   3.790640
    31  H    5.033849   6.084662   8.709049   7.453865   3.683705
                   26         27         28         29         30
    26  H    0.000000
    27  H    3.051226   0.000000
    28  H    2.552333   1.760251   0.000000
    29  H    3.669319   2.436580   2.412388   0.000000
    30  H    3.048035   2.450669   2.988812   1.646799   0.000000
    31  H    2.513703   2.967664   2.437753   1.652188   1.646504
                   31
    31  H    0.000000
 Symmetry turned off by external request.
 Stoichiometry    C9H15N4O3(1+)
 Framework group  C1[X(C9H15N4O3)]
 Deg. of freedom    87
 Full point group                 C1      NOp   1
 Rotational constants (GHZ):      0.7596368      0.3268271      0.2692534
 Standard basis: 6-31G(d,p) (6D, 7F)
   315 basis functions,   553 primitive gaussians,   315 cartesian basis functions
    60 alpha electrons       60 beta electrons
       nuclear repulsion energy      1156.3936016042 Hartrees.
 NAtoms=   31 NActive=   31 NUniq=   31 SFac= 1.00D+00 NAtFMM=   60 NAOKFM=F Big=F
 Integral buffers will be    131072 words long.
 Raffenetti 2 integral format.
 Two-electron integral symmetry is turned off.
 One-electron integrals computed using PRISM.
 NBasis=   315 RedAO= T EigKep=  1.14D-03  NBF=   315
 NBsUse=   315 1.00D-06 EigRej= -1.00D+00 NBFU=   315
 ExpMin= 1.61D-01 ExpMax= 5.48D+03 ExpMxC= 8.25D+02 IAcc=3 IRadAn=         5 AccDes= 0.00D+00
 Harris functional with IExCor=  402 and IRadAn=       5 diagonalized for initial guess.
 HarFok:  IExCor=  402 AccDes= 0.00D+00 IRadAn=         5 IDoV= 1 UseB2=F ITyADJ=14
 ICtDFT=  3500011 ScaDFX=  1.000000  1.000000  1.000000  1.000000
 FoFCou: FMM=F IPFlag=           0 FMFlag=      100000 FMFlg1=           0
         NFxFlg=           0 DoJE=T BraDBF=F KetDBF=T FulRan=T
         wScrn=  0.000000 ICntrl=     500 IOpCl=  0 I1Cent=   200000004 NGrid=           0
         NMat0=    1 NMatS0=      1 NMatT0=    0 NMatD0=    1 NMtDS0=    0 NMtDT0=    0
 Symmetry not used in FoFCou.
 Requested convergence on RMS density matrix=1.00D-08 within 128 cycles.
 Requested convergence on MAX density matrix=1.00D-06.
 Requested convergence on             energy=1.00D-06.
 No special actions if energy rises.
 Integral accuracy reduced to 1.0D-05 until final iterations.
 Initial convergence to 1.0D-05 achieved.  Increase integral accuracy.
 SCF Done:  E(RB3LYP) =  -796.475265633     A.U. after   14 cycles
            NFock= 14  Conv=0.86D-08     -V/T= 2.0088
 DoSCS=F DFT=T ScalE2(SS,OS)=  1.000000  1.000000
 Range of M.O.s used for correlation:     1   315
 NBasis=   315 NAE=    60 NBE=    60 NFC=     0 NFV=     0
 NROrb=    315 NOA=    60 NOB=    60 NVA=   255 NVB=   255
 Symmetrizing basis deriv contribution to polar:
 IMax=3 JMax=2 DiffMx= 0.00D+00
 G2DrvN: will do    32 centers at a time, making    1 passes.
 Calling FoFCou, ICntrl=  3107 FMM=F I1Cent=   0 AccDes= 0.00D+00.
 End of G2Drv F.D. properties file   721 does not exist.
 End of G2Drv F.D. properties file   722 does not exist.
 End of G2Drv F.D. properties file   788 does not exist.
          IDoAtm=1111111111111111111111111111111
          Differentiating once with respect to nuclear coordinates.
          There are    96 degrees of freedom in the 1st order CPHF.  IDoFFX=6 NUNeed=     0.
     90 vectors produced by pass  0 Test12= 1.59D-14 1.04D-09 XBig12= 1.50D-01 7.24D-02.
 AX will form    90 AO Fock derivatives at one time.
     90 vectors produced by pass  1 Test12= 1.59D-14 1.04D-09 XBig12= 1.37D-02 2.23D-02.
     90 vectors produced by pass  2 Test12= 1.59D-14 1.04D-09 XBig12= 1.60D-04 2.89D-03.
     90 vectors produced by pass  3 Test12= 1.59D-14 1.04D-09 XBig12= 5.85D-07 8.23D-05.
     90 vectors produced by pass  4 Test12= 1.59D-14 1.04D-09 XBig12= 8.93D-10 3.15D-06.
     72 vectors produced by pass  5 Test12= 1.59D-14 1.04D-09 XBig12= 8.69D-13 9.58D-08.
     12 vectors produced by pass  6 Test12= 1.59D-14 1.04D-09 XBig12= 7.16D-16 2.66D-09.
 InvSVY:  IOpt=1 It=  1 EMax= 6.66D-16
 Solved reduced A of dimension   534 with    96 vectors.
 End of Minotr F.D. properties file   721 does not exist.
 End of Minotr F.D. properties file   722 does not exist.
 End of Minotr F.D. properties file   788 does not exist.

 **********************************************************************

            Population analysis using the SCF density.

 **********************************************************************

 Alpha  occ. eigenvalues --  -19.34355 -19.29871 -19.26536 -14.65090 -14.51369
 Alpha  occ. eigenvalues --  -14.48553 -14.39884 -10.47374 -10.43927 -10.43241
 Alpha  occ. eigenvalues --  -10.38488 -10.36942 -10.33773 -10.32819 -10.31863
 Alpha  occ. eigenvalues --  -10.29013  -1.25734  -1.20356  -1.18843  -1.17933
 Alpha  occ. eigenvalues --   -1.10857  -1.08347  -0.97114  -0.96137  -0.93045
 Alpha  occ. eigenvalues --   -0.86370  -0.83925  -0.78907  -0.78272  -0.77815
 Alpha  occ. eigenvalues --   -0.76308  -0.74078  -0.71002  -0.70639  -0.68590
 Alpha  occ. eigenvalues --   -0.68332  -0.65570  -0.63969  -0.63235  -0.60763
 Alpha  occ. eigenvalues --   -0.59993  -0.59486  -0.58038  -0.56977  -0.55521
 Alpha  occ. eigenvalues --   -0.54637  -0.53706  -0.53496  -0.52542  -0.51283
 Alpha  occ. eigenvalues --   -0.50717  -0.50312  -0.49531  -0.47146  -0.43829
 Alpha  occ. eigenvalues --   -0.41541  -0.39876  -0.36975  -0.35192  -0.32137
 Alpha virt. eigenvalues --   -0.15795  -0.14483  -0.13215  -0.09621  -0.08400
 Alpha virt. eigenvalues --   -0.06606  -0.06047  -0.04758  -0.04284  -0.02751
 Alpha virt. eigenvalues --   -0.02359  -0.02197  -0.00455   0.00013   0.00963
 Alpha virt. eigenvalues --    0.02011   0.02734   0.03600   0.05456   0.06303
 Alpha virt. eigenvalues --    0.07248   0.07939   0.08586   0.10083   0.10984
 Alpha virt. eigenvalues --    0.12828   0.14423   0.17833   0.18768   0.20685
 Alpha virt. eigenvalues --    0.22843   0.24483   0.25564   0.29195   0.30862
 Alpha virt. eigenvalues --    0.33022   0.34042   0.34680   0.37282   0.38244
 Alpha virt. eigenvalues --    0.38933   0.40031   0.41353   0.42536   0.43998
 Alpha virt. eigenvalues --    0.44626   0.46836   0.47752   0.48456   0.49812
 Alpha virt. eigenvalues --    0.50612   0.51042   0.52168   0.54126   0.54421
 Alpha virt. eigenvalues --    0.54991   0.55418   0.56691   0.58286   0.58690
 Alpha virt. eigenvalues --    0.59623   0.59712   0.60266   0.60607   0.63872
 Alpha virt. eigenvalues --    0.65149   0.65907   0.66976   0.67611   0.68473
 Alpha virt. eigenvalues --    0.69728   0.70554   0.70973   0.71386   0.72287
 Alpha virt. eigenvalues --    0.72886   0.73912   0.74877   0.75743   0.76230
 Alpha virt. eigenvalues --    0.76455   0.76857   0.79068   0.80425   0.81794
 Alpha virt. eigenvalues --    0.82633   0.85233   0.86319   0.87326   0.88906
 Alpha virt. eigenvalues --    0.89959   0.91530   0.92187   0.93552   0.96350
 Alpha virt. eigenvalues --    0.99003   1.00133   1.01469   1.04840   1.06090
 Alpha virt. eigenvalues --    1.08750   1.12174   1.14030   1.16038   1.16562
 Alpha virt. eigenvalues --    1.18541   1.20536   1.21090   1.23110   1.24980
 Alpha virt. eigenvalues --    1.25918   1.28516   1.30874   1.32119   1.33290
 Alpha virt. eigenvalues --    1.36124   1.37018   1.38754   1.40526   1.40927
 Alpha virt. eigenvalues --    1.43005   1.44215   1.45864   1.48567   1.51892
 Alpha virt. eigenvalues --    1.52971   1.57071   1.59563   1.61439   1.62047
 Alpha virt. eigenvalues --    1.62708   1.63692   1.65017   1.66556   1.68217
 Alpha virt. eigenvalues --    1.69123   1.71691   1.73019   1.73388   1.74226
 Alpha virt. eigenvalues --    1.75733   1.76159   1.78355   1.78795   1.80761
 Alpha virt. eigenvalues --    1.80978   1.82094   1.84469   1.85542   1.86591
 Alpha virt. eigenvalues --    1.87633   1.89672   1.91730   1.93465   1.93972
 Alpha virt. eigenvalues --    1.95110   1.96348   1.98224   1.99510   2.00555
 Alpha virt. eigenvalues --    2.02923   2.03684   2.04824   2.05277   2.06362
 Alpha virt. eigenvalues --    2.07836   2.09411   2.12048   2.12346   2.13564
 Alpha virt. eigenvalues --    2.14014   2.14540   2.18693   2.19466   2.20788
 Alpha virt. eigenvalues --    2.21183   2.22422   2.24843   2.26062   2.27753
 Alpha virt. eigenvalues --    2.30549   2.33043   2.35870   2.36294   2.36560
 Alpha virt. eigenvalues --    2.38693   2.40604   2.40870   2.43576   2.43976
 Alpha virt. eigenvalues --    2.45817   2.47778   2.48189   2.49883   2.50551
 Alpha virt. eigenvalues --    2.53017   2.54063   2.54725   2.56170   2.57123
 Alpha virt. eigenvalues --    2.57968   2.58683   2.60898   2.63645   2.64651
 Alpha virt. eigenvalues --    2.66591   2.68719   2.69084   2.71592   2.72814
 Alpha virt. eigenvalues --    2.73557   2.75446   2.75500   2.78083   2.80489
 Alpha virt. eigenvalues --    2.82726   2.83245   2.85852   2.86644   2.93346
 Alpha virt. eigenvalues --    2.94472   2.96561   3.00459   3.04649   3.09891
 Alpha virt. eigenvalues --    3.11727   3.13699   3.15002   3.18818   3.19299
 Alpha virt. eigenvalues --    3.21215   3.25539   3.30298   3.33252   3.34462
 Alpha virt. eigenvalues --    3.37702   3.40126   3.46622   3.58515   3.83617
 Alpha virt. eigenvalues --    3.90044   3.90920   4.01780   4.03636   4.08766
 Alpha virt. eigenvalues --    4.10282   4.17486   4.23547   4.29670   4.32666
 Alpha virt. eigenvalues --    4.35798   4.44925   4.53942   4.59207   4.66474
          Condensed to atoms (all electrons):
               1          2          3          4          5          6
     1  O    8.040767   0.580559  -0.100342  -0.005943   0.000797  -0.000052
     2  C    0.580559   4.433757   0.240033  -0.029660   0.003389  -0.000098
     3  N   -0.100342   0.240033   7.033419   0.218201  -0.044693   0.003554
     4  C   -0.005943  -0.029660   0.218201   5.306786   0.278524  -0.086676
     5  C    0.000797   0.003389  -0.044693   0.278524   4.413332   0.275669
     6  O   -0.000052  -0.000098   0.003554  -0.086676   0.275669   8.026913
     7  O   -0.000055   0.001356  -0.007805  -0.081784   0.535923  -0.073083
     8  C    0.000477   0.003982  -0.045788   0.284413  -0.035724  -0.000017
     9  C   -0.000060   0.000812  -0.001590  -0.053716   0.003377   0.000070
    10  C   -0.000001   0.000092   0.002678  -0.003700  -0.000065   0.000000
    11  N    0.000000  -0.000002  -0.000044  -0.000086   0.000000   0.000000
    12  C   -0.000001   0.000002   0.000066   0.000260   0.000002   0.000000
    13  N   -0.000017   0.000142  -0.001002   0.000842   0.000035   0.000001
    14  C   -0.075593   0.313178  -0.115298   0.007686  -0.000580  -0.000002
    15  C   -0.003446  -0.036977  -0.004535  -0.000007   0.000110   0.000000
    16  N   -0.000065  -0.002567   0.000875   0.000165   0.000172  -0.000007
    17  H    0.003572  -0.021780   0.329351  -0.043753  -0.002927   0.000176
    18  H    0.023973  -0.004972  -0.045397   0.367631  -0.032425   0.001577
    19  H   -0.000037  -0.000003   0.000389   0.003958  -0.026280   0.289355
    20  H   -0.000001  -0.000021   0.004793  -0.053493  -0.000125   0.003263
    21  H   -0.000010  -0.000142  -0.006264  -0.035838  -0.004662   0.000049
    22  H    0.000000   0.000003  -0.000034   0.000040   0.000003   0.000000
    23  H    0.000000   0.000000   0.000001  -0.000002   0.000000   0.000000
    24  H    0.000000  -0.000001   0.000024   0.000406  -0.000048   0.000001
    25  H    0.002823  -0.019663   0.003634  -0.000193  -0.000001   0.000000
    26  H    0.002754  -0.034287   0.005811   0.000000   0.000030   0.000000
    27  H    0.007257  -0.003028   0.000850  -0.000006   0.000058   0.000000
    28  H   -0.000017   0.003498  -0.000164   0.000010  -0.000002   0.000000
    29  H   -0.000014  -0.000071   0.000109  -0.000019   0.000020   0.000000
    30  H   -0.000072   0.005651   0.004192  -0.002339  -0.000884   0.000239
    31  H    0.000005  -0.000676   0.000477  -0.000035   0.000024   0.000000
               7          8          9         10         11         12
     1  O   -0.000055   0.000477  -0.000060  -0.000001   0.000000  -0.000001
     2  C    0.001356   0.003982   0.000812   0.000092  -0.000002   0.000002
     3  N   -0.007805  -0.045788  -0.001590   0.002678  -0.000044   0.000066
     4  C   -0.081784   0.284413  -0.053716  -0.003700  -0.000086   0.000260
     5  C    0.535923  -0.035724   0.003377  -0.000065   0.000000   0.000002
     6  O   -0.073083  -0.000017   0.000070   0.000000   0.000000   0.000000
     7  O    8.048740  -0.002902  -0.000086   0.000000   0.000000   0.000000
     8  C   -0.002902   5.121834   0.337441  -0.048999   0.006931   0.006153
     9  C   -0.000086   0.337441   4.799513   0.560616  -0.047471  -0.091021
    10  C    0.000000  -0.048999   0.560616   4.850330   0.427877  -0.115357
    11  N    0.000000   0.006931  -0.047471   0.427877   6.658421   0.535523
    12  C    0.000000   0.006153  -0.091021  -0.115357   0.535523   4.659638
    13  N    0.000000  -0.073608   0.339701  -0.071028  -0.082893   0.350061
    14  C   -0.000184  -0.000237  -0.000029  -0.000013   0.000000   0.000001
    15  C    0.000267  -0.000007   0.000000   0.000000   0.000000   0.000000
    16  N   -0.017752  -0.000007   0.000000   0.000000   0.000000   0.000000
    17  H    0.010683  -0.000691  -0.000010   0.000506   0.000000  -0.000007
    18  H    0.002122  -0.029461  -0.007782  -0.000078   0.000005  -0.000003
    19  H    0.004368  -0.000353  -0.000059   0.000001   0.000000   0.000000
    20  H   -0.000078   0.367177  -0.022910   0.001161  -0.000150   0.000106
    21  H    0.002165   0.382596  -0.032861  -0.002443   0.000041  -0.000054
    22  H    0.000000  -0.001540  -0.061806   0.393558  -0.039373   0.007212
    23  H    0.000000  -0.000163   0.003004   0.007125  -0.035270   0.394314
    24  H    0.000000  -0.002640  -0.033307   0.009028   0.005147  -0.022640
    25  H   -0.000001   0.000005   0.000000   0.000000   0.000000   0.000000
    26  H   -0.000007  -0.000005   0.000008   0.000010   0.000000   0.000000
    27  H    0.000031   0.000000   0.000000   0.000000   0.000000   0.000000
    28  H   -0.000006   0.000000   0.000000   0.000000   0.000000   0.000000
    29  H    0.000181   0.000000   0.000000   0.000000   0.000000   0.000000
    30  H    0.063273   0.000114   0.000002   0.000000   0.000000   0.000000
    31  H    0.000257   0.000001   0.000000   0.000000   0.000000   0.000000
              13         14         15         16         17         18
     1  O   -0.000017  -0.075593  -0.003446  -0.000065   0.003572   0.023973
     2  C    0.000142   0.313178  -0.036977  -0.002567  -0.021780  -0.004972
     3  N   -0.001002  -0.115298  -0.004535   0.000875   0.329351  -0.045397
     4  C    0.000842   0.007686  -0.000007   0.000165  -0.043753   0.367631
     5  C    0.000035  -0.000580   0.000110   0.000172  -0.002927  -0.032425
     6  O    0.000001  -0.000002   0.000000  -0.000007   0.000176   0.001577
     7  O    0.000000  -0.000184   0.000267  -0.017752   0.010683   0.002122
     8  C   -0.073608  -0.000237  -0.000007  -0.000007  -0.000691  -0.029461
     9  C    0.339701  -0.000029   0.000000   0.000000  -0.000010  -0.007782
    10  C   -0.071028  -0.000013   0.000000   0.000000   0.000506  -0.000078
    11  N   -0.082893   0.000000   0.000000   0.000000   0.000000   0.000005
    12  C    0.350061   0.000001   0.000000   0.000000  -0.000007  -0.000003
    13  N    6.781587   0.000002   0.000000   0.000000  -0.000009   0.002708
    14  C    0.000002   5.199798   0.346562  -0.049473   0.000460   0.001302
    15  C    0.000000   0.346562   4.992256   0.194325  -0.001432  -0.000033
    16  N    0.000000  -0.049473   0.194325   6.553104  -0.000004   0.000005
    17  H   -0.000009   0.000460  -0.001432  -0.000004   0.464074   0.006484
    18  H    0.002708   0.001302  -0.000033   0.000005   0.006484   0.545993
    19  H   -0.000005   0.000000   0.000000   0.000002  -0.000014   0.001258
    20  H   -0.002151   0.000004   0.000000   0.000000  -0.000069  -0.003585
    21  H    0.003357  -0.000007   0.000000   0.000000   0.004047   0.004818
    22  H    0.004804  -0.000001   0.000000   0.000000   0.000090   0.000006
    23  H   -0.055307   0.000000   0.000000   0.000000   0.000000   0.000005
    24  H    0.338407   0.000000   0.000000   0.000000   0.000002   0.000734
    25  H    0.000000   0.374648  -0.022882   0.003203   0.000090   0.000000
    26  H    0.000000   0.359792  -0.038485  -0.004811   0.000575  -0.000088
    27  H    0.000000  -0.040218   0.386177  -0.030601  -0.000091  -0.000040
    28  H    0.000000  -0.030865   0.396456  -0.034128  -0.000025   0.000001
    29  H    0.000000   0.003843  -0.019482   0.335181   0.000061   0.000000
    30  H    0.000000  -0.003571  -0.018585   0.267320   0.001161  -0.000039
    31  H    0.000000  -0.000601  -0.025096   0.333059   0.000742   0.000000
              19         20         21         22         23         24
     1  O   -0.000037  -0.000001  -0.000010   0.000000   0.000000   0.000000
     2  C   -0.000003  -0.000021  -0.000142   0.000003   0.000000  -0.000001
     3  N    0.000389   0.004793  -0.006264  -0.000034   0.000001   0.000024
     4  C    0.003958  -0.053493  -0.035838   0.000040  -0.000002   0.000406
     5  C   -0.026280  -0.000125  -0.004662   0.000003   0.000000  -0.000048
     6  O    0.289355   0.003263   0.000049   0.000000   0.000000   0.000001
     7  O    0.004368  -0.000078   0.002165   0.000000   0.000000   0.000000
     8  C   -0.000353   0.367177   0.382596  -0.001540  -0.000163  -0.002640
     9  C   -0.000059  -0.022910  -0.032861  -0.061806   0.003004  -0.033307
    10  C    0.000001   0.001161  -0.002443   0.393558   0.007125   0.009028
    11  N    0.000000  -0.000150   0.000041  -0.039373  -0.035270   0.005147
    12  C    0.000000   0.000106  -0.000054   0.007212   0.394314  -0.022640
    13  N   -0.000005  -0.002151   0.003357   0.004804  -0.055307   0.338407
    14  C    0.000000   0.000004  -0.000007  -0.000001   0.000000   0.000000
    15  C    0.000000   0.000000   0.000000   0.000000   0.000000   0.000000
    16  N    0.000002   0.000000   0.000000   0.000000   0.000000   0.000000
    17  H   -0.000014  -0.000069   0.004047   0.000090   0.000000   0.000002
    18  H    0.001258  -0.003585   0.004818   0.000006   0.000005   0.000734
    19  H    0.379065   0.002593  -0.000055   0.000000   0.000000   0.000010
    20  H    0.002593   0.594187  -0.025463  -0.000026  -0.000003   0.001261
    21  H   -0.000055  -0.025463   0.564358   0.002890   0.000004  -0.000059
    22  H    0.000000  -0.000026   0.002890   0.600147  -0.000151  -0.000092
    23  H    0.000000  -0.000003   0.000004  -0.000151   0.547875   0.000298
    24  H    0.000010   0.001261  -0.000059  -0.000092   0.000298   0.438674
    25  H    0.000000   0.000000   0.000000   0.000000   0.000000   0.000000
    26  H    0.000000   0.000000   0.000001   0.000001   0.000000   0.000000
    27  H    0.000000   0.000000   0.000000   0.000000   0.000000   0.000000
    28  H    0.000000   0.000000   0.000000   0.000000   0.000000   0.000000
    29  H    0.000000   0.000000   0.000000   0.000000   0.000000   0.000000
    30  H   -0.000034   0.000001  -0.000007   0.000000   0.000000   0.000000
    31  H    0.000000   0.000000   0.000001   0.000000   0.000000   0.000000
              25         26         27         28         29         30
     1  O    0.002823   0.002754   0.007257  -0.000017  -0.000014  -0.000072
     2  C   -0.019663  -0.034287  -0.003028   0.003498  -0.000071   0.005651
     3  N    0.003634   0.005811   0.000850  -0.000164   0.000109   0.004192
     4  C   -0.000193   0.000000  -0.000006   0.000010  -0.000019  -0.002339
     5  C   -0.000001   0.000030   0.000058  -0.000002   0.000020  -0.000884
     6  O    0.000000   0.000000   0.000000   0.000000   0.000000   0.000239
     7  O   -0.000001  -0.000007   0.000031  -0.000006   0.000181   0.063273
     8  C    0.000005  -0.000005   0.000000   0.000000   0.000000   0.000114
     9  C    0.000000   0.000008   0.000000   0.000000   0.000000   0.000002
    10  C    0.000000   0.000010   0.000000   0.000000   0.000000   0.000000
    11  N    0.000000   0.000000   0.000000   0.000000   0.000000   0.000000
    12  C    0.000000   0.000000   0.000000   0.000000   0.000000   0.000000
    13  N    0.000000   0.000000   0.000000   0.000000   0.000000   0.000000
    14  C    0.374648   0.359792  -0.040218  -0.030865   0.003843  -0.003571
    15  C   -0.022882  -0.038485   0.386177   0.396456  -0.019482  -0.018585
    16  N    0.003203  -0.004811  -0.030601  -0.034128   0.335181   0.267320
    17  H    0.000090   0.000575  -0.000091  -0.000025   0.000061   0.001161
    18  H    0.000000  -0.000088  -0.000040   0.000001   0.000000  -0.000039
    19  H    0.000000   0.000000   0.000000   0.000000   0.000000  -0.000034
    20  H    0.000000   0.000000   0.000000   0.000000   0.000000   0.000001
    21  H    0.000000   0.000001   0.000000   0.000000   0.000000  -0.000007
    22  H    0.000000   0.000001   0.000000   0.000000   0.000000   0.000000
    23  H    0.000000   0.000000   0.000000   0.000000   0.000000   0.000000
    24  H    0.000000   0.000000   0.000000   0.000000   0.000000   0.000000
    25  H    0.475357  -0.017701  -0.000669  -0.004598  -0.000077   0.000057
    26  H   -0.017701   0.577974   0.005268  -0.003085  -0.000039  -0.000433
    27  H   -0.000669   0.005268   0.489375  -0.025281  -0.002321  -0.002982
    28  H   -0.004598  -0.003085  -0.025281   0.506381  -0.002907   0.003054
    29  H   -0.000077  -0.000039  -0.002321  -0.002907   0.339995  -0.011653
    30  H    0.000057  -0.000433  -0.002982   0.003054  -0.011653   0.335177
    31  H   -0.000024   0.005005   0.003966  -0.003548  -0.014423  -0.014180
              31
     1  O    0.000005
     2  C   -0.000676
     3  N    0.000477
     4  C   -0.000035
     5  C    0.000024
     6  O    0.000000
     7  O    0.000257
     8  C    0.000001
     9  C    0.000000
    10  C    0.000000
    11  N    0.000000
    12  C    0.000000
    13  N    0.000000
    14  C   -0.000601
    15  C   -0.025096
    16  N    0.333059
    17  H    0.000742
    18  H    0.000000
    19  H    0.000000
    20  H    0.000000
    21  H    0.000001
    22  H    0.000000
    23  H    0.000000
    24  H    0.000000
    25  H   -0.000024
    26  H    0.005005
    27  H    0.003966
    28  H   -0.003548
    29  H   -0.014423
    30  H   -0.014180
    31  H    0.359674
 Mulliken charges:
               1
     1  O   -0.477260
     2  C    0.567494
     3  N   -0.475501
     4  C   -0.071674
     5  C    0.636950
     6  O   -0.440932
     7  O   -0.485621
     8  C   -0.268982
     9  C    0.308162
    10  C   -0.011298
    11  N   -0.428658
    12  C    0.275745
    13  N   -0.535627
    14  C   -0.290601
    15  C   -0.145184
    16  N   -0.547995
    17  H    0.248741
    18  H    0.165284
    19  H    0.345843
    20  H    0.133528
    21  H    0.143539
    22  H    0.094269
    23  H    0.138271
    24  H    0.264796
    25  H    0.205992
    26  H    0.141712
    27  H    0.212255
    28  H    0.195227
    29  H    0.371614
    30  H    0.374540
    31  H    0.355371
 Sum of Mulliken charges =   1.00000
 Mulliken charges with hydrogens summed into heavy atoms:
               1
     1  O   -0.477260
     2  C    0.567494
     3  N   -0.226760
     4  C    0.093610
     5  C    0.636950
     6  O   -0.095089
     7  O   -0.485621
     8  C    0.008085
     9  C    0.308162
    10  C    0.082971
    11  N   -0.428658
    12  C    0.414016
    13  N   -0.270831
    14  C    0.057103
    15  C    0.262298
    16  N    0.553530
 APT charges:
               1
     1  O   -0.100403
     2  C    0.008089
     3  N   -0.500758
     4  C   -0.346012
     5  C   -0.094296
     6  O   -0.151205
     7  O   -0.166432
     8  C   -0.981287
     9  C   -0.390424
    10  C   -0.243197
    11  N    0.023589
    12  C   -0.380109
    13  N   -0.731035
    14  C   -0.725780
    15  C   -1.143037
    16  N   -1.075019
    17  H    0.417859
    18  H    0.358937
    19  H    0.511780
    20  H    0.546581
    21  H    0.354683
    22  H    0.386067
    23  H    0.940880
    24  H    0.515812
    25  H    0.633996
    26  H    0.267950
    27  H    0.441280
    28  H    0.853314
    29  H    1.145282
    30  H    0.099162
    31  H    0.523732
 Sum of APT charges =   1.00000
 APT charges with hydrogens summed into heavy atoms:
               1
     1  O   -0.100403
     2  C    0.008089
     3  N   -0.082899
     4  C    0.012926
     5  C   -0.094296
     6  O    0.360575
     7  O   -0.166432
     8  C   -0.080023
     9  C   -0.390424
    10  C    0.142870
    11  N    0.023589
    12  C    0.560771
    13  N   -0.215223
    14  C    0.176166
    15  C    0.151557
    16  N    0.693158
 Electronic spatial extent (au):  <R**2>=           4188.6174
 Charge=              1.0000 electrons
 Dipole moment (field-independent basis, Debye):
    X=             10.4825    Y=             -3.2945    Z=             -1.9212  Tot=             11.1547
 Quadrupole moment (field-independent basis, Debye-Ang):
   XX=            -55.2394   YY=            -86.9541   ZZ=            -68.7330
   XY=            -11.3177   XZ=            -36.1881   YZ=             11.2535
 Traceless Quadrupole moment (field-independent basis, Debye-Ang):
   XX=             15.0695   YY=            -16.6453   ZZ=              1.5758
   XY=            -11.3177   XZ=            -36.1881   YZ=             11.2535
 Octapole moment (field-independent basis, Debye-Ang**2):
  XXX=            300.7570  YYY=             -6.0863  ZZZ=            -25.9857  XYY=             22.3535
  XXY=            -38.2347  XXZ=            -35.6577  XZZ=             47.2695  YZZ=             -6.6706
  YYZ=            -34.5980  XYZ=             -5.8383
 Hexadecapole moment (field-independent basis, Debye-Ang**3):
 XXXX=          -3070.9747 YYYY=           -892.0637 ZZZZ=           -820.2533 XXXY=            107.9544
 XXXZ=           -222.5195 YYYX=            207.1005 YYYZ=            203.8621 ZZZX=             34.9490
 ZZZY=            203.0158 XXYY=           -562.4918 XXZZ=           -656.2957 YYZZ=           -307.9827
 XXYZ=            188.9518 YYXZ=            -48.6403 ZZXY=             98.3836
 N-N= 1.156393601604D+03 E-N=-4.152802627918D+03  KE= 7.895162461543D+02
  Exact polarizability:   0.000   0.000   0.000   0.000   0.000   0.000
 Approx polarizability: 166.748 -19.266 181.867  12.500  19.594 194.265
 Calling FoFJK, ICntrl=    100147 FMM=F ISym2X=0 I1Cent= 0 IOpClX= 0 NMat=1 NMatS=1 NMatT=0.
 -------------------------------------------------------------------
 Center     Atomic                   Forces (Hartrees/Bohr)
 Number     Number              X              Y              Z
 -------------------------------------------------------------------
      1        8           0.005243826    0.000550801   -0.001002543
      2        6          -0.006359811    0.007852458    0.007921415
      3        7           0.003050818   -0.005905990    0.004889535
      4        6           0.001665254    0.001800505   -0.001975526
      5        6          -0.010688238    0.015532862    0.024736189
      6        8           0.001673621   -0.004811430   -0.011423110
      7        8           0.022998914   -0.012920774   -0.019192538
      8        6          -0.013944387    0.006473616   -0.003731861
      9        6           0.005496252   -0.005018254    0.004196713
     10        6          -0.004498801    0.004238417   -0.007735602
     11        7           0.001381372   -0.005529335   -0.002131438
     12        6          -0.001100089   -0.001795750   -0.004510020
     13        7           0.004882855    0.001797194    0.009411954
     14        6           0.000792955   -0.006212834   -0.002146959
     15        6           0.005739327    0.031042873   -0.003791407
     16        7           0.005645992   -0.005696781   -0.002166032
     17        1          -0.007282573   -0.003725464   -0.004595742
     18        1          -0.000947595    0.002851353    0.001783213
     19        1          -0.002588017    0.002682480    0.005052597
     20        1          -0.000380112   -0.002785301    0.002597704
     21        1          -0.000574250   -0.003518172   -0.000257372
     22        1          -0.001476122    0.000046088   -0.000355290
     23        1          -0.001989539    0.003374041    0.000339665
     24        1          -0.000945243    0.001085624    0.001617632
     25        1           0.002383029   -0.000581804   -0.001984549
     26        1          -0.001534779    0.001921657   -0.004767731
     27        1           0.001117934   -0.005294945    0.001680154
     28        1           0.001081947   -0.006002716   -0.000408713
     29        1           0.001771187   -0.001593237   -0.000509803
     30        1          -0.010317473   -0.005560195    0.011520043
     31        1          -0.000298254   -0.004296990   -0.003060576
 -------------------------------------------------------------------
 Cartesian Forces:  Max     0.031042873 RMS     0.007172275
 FormGI is forming the generalized inverse of G from B-inverse, IUseBI=4.

 GradGradGradGradGradGradGradGradGradGradGradGradGradGradGradGradGradGrad
 Berny optimization.
 Internal  Forces:  Max     0.031635319 RMS     0.005140245
 Search for a local minimum.
 Step number   1 out of a maximum of  167
 All quantities printed in internal units (Hartrees-Bohrs-Radians)
 Mixed Optimization -- RFO/linear search
 Second derivative matrix not updated -- analytic derivatives used.
 ITU=  0
     Eigenvalues ---   -0.00078   0.00146   0.00276   0.00296   0.00355
     Eigenvalues ---    0.00421   0.00603   0.00698   0.00904   0.01114
     Eigenvalues ---    0.01232   0.02074   0.02601   0.03148   0.03761
     Eigenvalues ---    0.04010   0.04040   0.04122   0.04186   0.04376
     Eigenvalues ---    0.04576   0.04942   0.05048   0.05191   0.05317
     Eigenvalues ---    0.05718   0.05850   0.06107   0.06392   0.07643
     Eigenvalues ---    0.07890   0.08220   0.10392   0.10894   0.11101
     Eigenvalues ---    0.11173   0.11896   0.12036   0.12998   0.13597
     Eigenvalues ---    0.14645   0.14991   0.16610   0.16727   0.17282
     Eigenvalues ---    0.18881   0.20067   0.20812   0.21556   0.22983
     Eigenvalues ---    0.23432   0.23972   0.24329   0.24757   0.25590
     Eigenvalues ---    0.26924   0.28679   0.30923   0.32298   0.33262
     Eigenvalues ---    0.33996   0.34036   0.34259   0.34465   0.34504
     Eigenvalues ---    0.34990   0.35007   0.35137   0.35287   0.37377
     Eigenvalues ---    0.38128   0.38524   0.39658   0.41908   0.43663
     Eigenvalues ---    0.44366   0.44587   0.45099   0.46155   0.48035
     Eigenvalues ---    0.48252   0.48914   0.53842   0.55296   0.59052
     Eigenvalues ---    0.85373   0.94317
 RFO step:  Lambda=-1.99274988D-02 EMin=-7.75382071D-04
 Linear search not attempted -- first point.
 Iteration  1 RMS(Cart)=  0.16600931 RMS(Int)=  0.03973557
 Iteration  2 RMS(Cart)=  0.14920988 RMS(Int)=  0.00636202
 Iteration  3 RMS(Cart)=  0.02555771 RMS(Int)=  0.00061173
 Iteration  4 RMS(Cart)=  0.00035735 RMS(Int)=  0.00060224
 Iteration  5 RMS(Cart)=  0.00000027 RMS(Int)=  0.00060224
 Variable       Old X    -DE/DX   Delta X   Delta X   Delta X     New X
                                 (Linear)    (Quad)   (Total)
    R1        2.30708   0.00050   0.00000   0.00047   0.00047   2.30755
    R2        2.58272   0.00796   0.00000   0.02121   0.02121   2.60393
    R3        2.85358   0.00819   0.00000   0.02699   0.02699   2.88058
    R4        2.73837  -0.00197   0.00000   0.00485   0.00485   2.74321
    R5        1.90091   0.00518   0.00000   0.01086   0.01086   1.91177
    R6        2.88261   0.00613   0.00000   0.02714   0.02714   2.90974
    R7        2.89781   0.01289   0.00000   0.03723   0.03723   2.93504
    R8        2.05793   0.00330   0.00000   0.00671   0.00671   2.06464
    R9        2.54181  -0.00613   0.00000  -0.04509  -0.04509   2.49672
   R10        2.27182   0.03164   0.00000   0.04876   0.04876   2.32058
   R11        1.82188   0.00539   0.00000   0.01137   0.01137   1.83325
   R12        2.83516  -0.00264   0.00000  -0.01567  -0.01567   2.81949
   R13        2.06551   0.00322   0.00000   0.00935   0.00935   2.07486
   R14        2.06104   0.00308   0.00000   0.00979   0.00979   2.07083
   R15        2.58279   0.00848   0.00000   0.01632   0.01631   2.59909
   R16        2.60654   0.00534   0.00000   0.01155   0.01158   2.61812
   R17        2.61234  -0.00552   0.00000  -0.01839  -0.01843   2.59391
   R18        2.04419   0.00015   0.00000   0.00104   0.00104   2.04523
   R19        2.48091   0.00251   0.00000   0.00187   0.00185   2.48276
   R20        2.56991   0.00723   0.00000   0.01549   0.01551   2.58543
   R21        2.03315   0.00387   0.00000   0.00948   0.00948   2.04263
   R22        1.90432   0.00154   0.00000   0.00266   0.00266   1.90698
   R23        2.89513   0.00345   0.00000   0.00559   0.00559   2.90072
   R24        2.06148   0.00037   0.00000   0.00276   0.00276   2.06424
   R25        2.06407   0.00341   0.00000   0.00721   0.00721   2.07127
   R26        2.80510   0.01803   0.00000   0.05309   0.05309   2.85819
   R27        2.06658  -0.00035   0.00000  -0.00294  -0.00294   2.06364
   R28        2.06367  -0.00001   0.00000  -0.00100  -0.00100   2.06267
   R29        1.93376   0.00221   0.00000   0.00133   0.00133   1.93508
   R30        1.93832   0.01619   0.00000   0.07302   0.07302   2.01133
   R31        1.92808   0.00438   0.00000   0.00590   0.00590   1.93399
    A1        2.13945   0.00811   0.00000   0.00142   0.00020   2.13966
    A2        2.13949  -0.00269   0.00000  -0.03509  -0.03614   2.10335
    A3        2.00383  -0.00561   0.00000   0.03129   0.03017   2.03399
    A4        2.07065   0.00142   0.00000  -0.07592  -0.07912   1.99154
    A5        2.02501   0.00184   0.00000  -0.00872  -0.01232   2.01269
    A6        2.01038  -0.00499   0.00000   0.00526   0.00131   2.01169
    A7        1.91787  -0.01572   0.00000  -0.02855  -0.02863   1.88924
    A8        1.95177   0.00189   0.00000  -0.00461  -0.00439   1.94738
    A9        1.84275   0.00558   0.00000   0.02968   0.02933   1.87208
   A10        1.90276   0.01236   0.00000   0.04215   0.04230   1.94506
   A11        1.90159  -0.00045   0.00000  -0.03403  -0.03388   1.86771
   A12        1.94603  -0.00446   0.00000  -0.00745  -0.00724   1.93879
   A13        2.02911   0.00815   0.00000   0.03843   0.03842   2.06753
   A14        2.15222  -0.00733   0.00000  -0.00744  -0.00746   2.14476
   A15        2.10150  -0.00077   0.00000  -0.03075  -0.03077   2.07073
   A16        1.92222   0.00586   0.00000   0.03527   0.03527   1.95750
   A17        1.97751   0.00114   0.00000   0.00711   0.00706   1.98457
   A18        1.89972  -0.00039   0.00000  -0.00606  -0.00620   1.89352
   A19        1.90088  -0.00009   0.00000  -0.00058  -0.00060   1.90028
   A20        1.92933   0.00083   0.00000   0.01855   0.01854   1.94787
   A21        1.88479  -0.00066   0.00000  -0.00278  -0.00275   1.88204
   A22        1.86827  -0.00095   0.00000  -0.01795  -0.01796   1.85031
   A23        2.29881  -0.00226   0.00000  -0.01629  -0.01633   2.28248
   A24        2.16010   0.00193   0.00000   0.01552   0.01548   2.17558
   A25        1.82382   0.00033   0.00000   0.00094   0.00099   1.82481
   A26        1.93881   0.00093   0.00000   0.00270   0.00264   1.94145
   A27        2.21999   0.00073   0.00000   0.00372   0.00368   2.22367
   A28        2.12430  -0.00165   0.00000  -0.00620  -0.00625   2.11805
   A29        1.83290   0.00115   0.00000   0.00347   0.00344   1.83634
   A30        1.94657   0.00217   0.00000   0.00541   0.00545   1.95202
   A31        2.20483  -0.00176   0.00000  -0.00593  -0.00595   2.19887
   A32        2.13178  -0.00041   0.00000   0.00050   0.00048   2.13226
   A33        1.88266  -0.00458   0.00000  -0.01250  -0.01252   1.87014
   A34        2.20428   0.00347   0.00000   0.01575   0.01557   2.21986
   A35        2.19624   0.00111   0.00000  -0.00328  -0.00343   2.19280
   A36        1.91890  -0.01294   0.00000  -0.05091  -0.05096   1.86794
   A37        1.87545   0.00635   0.00000   0.02018   0.01884   1.89429
   A38        1.93936   0.00382   0.00000   0.03787   0.03808   1.97744
   A39        1.90365   0.00073   0.00000  -0.02505  -0.02511   1.87854
   A40        1.92073   0.00508   0.00000   0.03084   0.03145   1.95219
   A41        1.90486  -0.00302   0.00000  -0.01429  -0.01447   1.89038
   A42        1.97234  -0.00450   0.00000  -0.01339  -0.01334   1.95900
   A43        1.88954   0.00378   0.00000   0.01080   0.00991   1.89945
   A44        1.90879   0.00502   0.00000   0.04256   0.04226   1.95105
   A45        1.90888  -0.00294   0.00000  -0.03766  -0.03779   1.87109
   A46        1.90900  -0.00154   0.00000  -0.02596  -0.02577   1.88323
   A47        1.87261   0.00046   0.00000   0.02612   0.02490   1.89750
   A48        1.94437  -0.00028   0.00000  -0.01268  -0.01267   1.93170
   A49        1.96713   0.00245   0.00000   0.02453   0.02444   1.99157
   A50        1.92785   0.00237   0.00000   0.00734   0.00721   1.93506
   A51        1.86699  -0.00053   0.00000   0.00227   0.00231   1.86930
   A52        1.88309  -0.00204   0.00000  -0.01632  -0.01636   1.86674
   A53        1.87047  -0.00230   0.00000  -0.00675  -0.00695   1.86351
    D1       -0.33803  -0.00384   0.00000  -0.07231  -0.07088  -0.40891
    D2       -2.84661   0.00067   0.00000   0.05052   0.05019  -2.79641
    D3        2.77341  -0.01064   0.00000  -0.15991  -0.15958   2.61384
    D4        0.26483  -0.00612   0.00000  -0.03707  -0.03850   0.22633
    D5        1.39888  -0.00378   0.00000  -0.25598  -0.25557   1.14332
    D6       -0.67083  -0.00117   0.00000  -0.20941  -0.20867  -0.87950
    D7       -2.75359  -0.00364   0.00000  -0.22638  -0.22628  -2.97987
    D8       -1.71256   0.00280   0.00000  -0.16908  -0.16950  -1.88206
    D9        2.50092   0.00542   0.00000  -0.12251  -0.12261   2.37831
   D10        0.41816   0.00295   0.00000  -0.13949  -0.14022   0.27794
   D11       -1.51309   0.00849   0.00000   0.46786   0.46772  -1.04538
   D12        2.65453   0.00239   0.00000   0.43718   0.43691   3.09144
   D13        0.53507   0.00317   0.00000   0.42991   0.42935   0.96442
   D14        1.00061   0.00638   0.00000   0.34145   0.34196   1.34257
   D15       -1.11495   0.00028   0.00000   0.31077   0.31115  -0.80380
   D16        3.04877   0.00106   0.00000   0.30351   0.30360  -2.93082
   D17        2.76409   0.00151   0.00000   0.05577   0.05614   2.82023
   D18       -0.40654   0.00354   0.00000   0.06461   0.06501  -0.34153
   D19       -1.37439   0.00181   0.00000   0.05919   0.05921  -1.31518
   D20        1.73817   0.00384   0.00000   0.06803   0.06807   1.80625
   D21        0.75296   0.00372   0.00000   0.05506   0.05462   0.80758
   D22       -2.41767   0.00575   0.00000   0.06389   0.06349  -2.35418
   D23       -1.00531  -0.00425   0.00000   0.00584   0.00590  -0.99941
   D24        3.12384  -0.00582   0.00000  -0.01854  -0.01843   3.10541
   D25        1.09262  -0.00441   0.00000   0.00651   0.00657   1.09919
   D26       -3.12959   0.00586   0.00000   0.01599   0.01598  -3.11361
   D27        0.99956   0.00429   0.00000  -0.00839  -0.00835   0.99121
   D28       -1.03166   0.00570   0.00000   0.01666   0.01666  -1.01500
   D29        1.05338   0.00109   0.00000   0.03534   0.03523   1.08861
   D30       -1.10065  -0.00048   0.00000   0.01096   0.01090  -1.08975
   D31       -3.13187   0.00093   0.00000   0.03601   0.03590  -3.09597
   D32       -0.05120   0.00083   0.00000  -0.00762  -0.00767  -0.05887
   D33        3.11852  -0.00102   0.00000  -0.01655  -0.01650   3.10202
   D34        1.89691  -0.00031   0.00000  -0.01568  -0.01572   1.88119
   D35       -1.20687  -0.00054   0.00000  -0.02235  -0.02242  -1.22929
   D36       -2.24859   0.00061   0.00000  -0.00457  -0.00448  -2.25307
   D37        0.93082   0.00039   0.00000  -0.01124  -0.01118   0.91963
   D38       -0.21014  -0.00046   0.00000  -0.01752  -0.01752  -0.22767
   D39        2.96926  -0.00069   0.00000  -0.02419  -0.02423   2.94504
   D40       -3.10602  -0.00040   0.00000  -0.00981  -0.00982  -3.11584
   D41        0.02211   0.00042   0.00000   0.00836   0.00842   0.03053
   D42        0.00311  -0.00017   0.00000  -0.00376  -0.00379  -0.00069
   D43        3.13124   0.00065   0.00000   0.01442   0.01444  -3.13751
   D44        3.11193   0.00015   0.00000   0.00749   0.00759   3.11952
   D45       -0.03073  -0.00026   0.00000  -0.01994  -0.02004  -0.05078
   D46       -0.00051   0.00004   0.00000   0.00278   0.00277   0.00227
   D47        3.14001  -0.00037   0.00000  -0.02465  -0.02486   3.11515
   D48       -0.00454   0.00025   0.00000   0.00329   0.00331  -0.00122
   D49       -3.13352  -0.00054   0.00000  -0.01381  -0.01373   3.13593
   D50        0.00417  -0.00022   0.00000  -0.00142  -0.00143   0.00274
   D51       -3.13436   0.00011   0.00000   0.00338   0.00329  -3.13107
   D52       -0.00240   0.00013   0.00000  -0.00085  -0.00085  -0.00325
   D53        3.14027   0.00053   0.00000   0.02641   0.02622  -3.11670
   D54        3.13628  -0.00019   0.00000  -0.00543  -0.00538   3.13090
   D55       -0.00424   0.00022   0.00000   0.02182   0.02169   0.01745
   D56        1.22070  -0.00197   0.00000  -0.02578  -0.02619   1.19451
   D57       -0.89644   0.00201   0.00000   0.02288   0.02279  -0.87366
   D58       -2.93151  -0.00339   0.00000  -0.03748  -0.03823  -2.96975
   D59       -3.01022  -0.00135   0.00000  -0.04563  -0.04519  -3.05541
   D60        1.15582   0.00262   0.00000   0.00304   0.00379   1.15961
   D61       -0.87925  -0.00277   0.00000  -0.05732  -0.05723  -0.93648
   D62       -0.92104  -0.00152   0.00000  -0.05991  -0.05990  -0.98094
   D63       -3.03818   0.00246   0.00000  -0.01124  -0.01092  -3.04911
   D64        1.20993  -0.00294   0.00000  -0.07160  -0.07194   1.13799
   D65        3.11993   0.00071   0.00000   0.03062   0.03050  -3.13275
   D66       -1.06437   0.00154   0.00000   0.04163   0.04142  -1.02295
   D67        1.02732   0.00189   0.00000   0.05458   0.05448   1.08181
   D68       -1.05708   0.00048   0.00000   0.00907   0.00915  -1.04793
   D69        1.04180   0.00130   0.00000   0.02007   0.02007   1.06187
   D70        3.13350   0.00166   0.00000   0.03303   0.03313  -3.11655
   D71        0.98908  -0.00154   0.00000   0.00390   0.00400   0.99308
   D72        3.08796  -0.00072   0.00000   0.01491   0.01492   3.10288
   D73       -1.10352  -0.00037   0.00000   0.02786   0.02798  -1.07554
         Item               Value     Threshold  Converged?
 Maximum Force            0.031635     0.000450     NO 
 RMS     Force            0.005140     0.000300     NO 
 Maximum Displacement     1.018248     0.001800     NO 
 RMS     Displacement     0.278290     0.001200     NO 
 Predicted change in Energy=-1.729191D-02
 GradGradGradGradGradGradGradGradGradGradGradGradGradGradGradGradGradGrad

                          Input orientation:                          
 ---------------------------------------------------------------------
 Center     Atomic      Atomic             Coordinates (Angstroms)
 Number     Number       Type             X           Y           Z
 ---------------------------------------------------------------------
      1          8           0        1.742288    1.608875    0.661036
      2          6           0        1.290528    1.067076   -0.335690
      3          7           0        0.096304    0.379673   -0.330110
      4          6           0       -0.301611   -0.106919    0.978388
      5          6           0        0.794051   -1.058861    1.492412
      6          8           0        0.837514   -1.329348    2.784905
      7          8           0        1.614913   -1.592705    0.751351
      8          6           0       -1.686434   -0.808499    0.930010
      9          6           0       -2.780058    0.058522    0.402421
     10          6           0       -3.453252    0.025622   -0.796496
     11          7           0       -4.372289    1.041863   -0.878732
     12          6           0       -4.268356    1.693505    0.257350
     13          7           0       -3.317200    1.145008    1.073614
     14          6           0        2.115023    0.989577   -1.615457
     15          6           0        3.326572    0.095847   -1.316106
     16          7           0        2.932659   -1.347798   -1.096223
     17          1           0       -0.029479   -0.275239   -1.090860
     18          1           0       -0.319930    0.752896    1.652237
     19          1           0        0.171834   -0.831852    3.285394
     20          1           0       -1.919825   -1.187907    1.933559
     21          1           0       -1.614990   -1.689805    0.282665
     22          1           0       -3.323886   -0.683393   -1.603908
     23          1           0       -4.850160    2.556093    0.550305
     24          1           0       -3.081152    1.466955    2.000424
     25          1           0        2.490301    1.988785   -1.847786
     26          1           0        1.543847    0.627118   -2.477866
     27          1           0        3.803104    0.444186   -0.397350
     28          1           0        4.060279    0.124146   -2.123748
     29          1           0        3.756507   -1.920097   -0.890486
     30          1           0        2.243106   -1.493658   -0.298674
     31          1           0        2.499388   -1.739561   -1.936574
 ---------------------------------------------------------------------
                    Distance matrix (angstroms):
                    1          2          3          4          5
     1  O    0.000000
     2  C    1.221104   0.000000
     3  N    2.280914   1.377942   0.000000
     4  C    2.687412   2.374863   1.451646   0.000000
     5  C    2.950788   2.847465   2.424421   1.539770   0.000000
     6  O    3.736655   3.960579   3.629527   2.460781   1.321208
     7  O    3.205385   2.891594   2.714038   2.435604   1.227996
     8  C    4.203829   3.739263   2.485521   1.553155   2.555736
     9  C    4.787702   4.258129   2.985498   2.549864   3.900113
    10  C    5.623586   4.878568   3.597530   3.619478   4.945179
    11  N    6.330911   5.688852   4.550584   4.619417   6.060235
    12  C    6.024779   5.625416   4.595816   4.415483   5.893120
    13  N    5.097432   4.819064   3.769376   3.266522   4.683463
    14  C    2.388489   1.524336   2.469681   3.710857   3.949673
    15  C    2.950983   2.459670   3.389303   4.297619   3.954085
    16  N    3.639623   3.017717   3.408224   4.037858   3.370187
    17  H    3.123809   2.028425   1.011667   2.093842   2.822332
    18  H    2.442933   2.577623   2.059672   1.092561   2.132830
    19  H    3.912892   4.239063   3.813840   2.464134   1.911406
    20  H    4.780416   4.532197   3.412665   2.167834   2.752525
    21  H    4.721839   4.052751   2.754407   2.171295   2.768584
    22  H    6.004213   5.095619   3.801364   4.016805   5.165809
    23  H    6.661069   6.380455   5.475348   5.288117   6.768499
    24  H    5.007961   4.972818   4.087762   3.353727   4.653496
    25  H    2.645381   2.139027   3.259417   4.491548   4.829320
    26  H    3.294834   2.201511   2.601819   3.986254   4.378107
    27  H    2.592999   2.589369   3.707971   4.364065   3.858076
    28  H    3.915678   3.428964   4.358386   5.357493   5.014416
    29  H    4.349476   3.913062   4.358904   4.821683   3.898214
    30  H    3.285966   2.732422   2.849406   3.166942   2.344525
    31  H    4.304974   3.449838   3.584228   4.359830   3.889662
                    6          7          8          9         10
     6  O    0.000000
     7  O    2.192954   0.000000
     8  C    3.175253   3.397910   0.000000
     9  C    4.548543   4.707873   1.492008   0.000000
    10  C    5.750918   5.540858   2.607341   1.375382   0.000000
    11  N    6.796097   6.741269   3.729505   2.267932   1.372639
    12  C    6.449503   6.756927   3.657706   2.215682   2.134671
    13  N    5.129582   5.650192   2.548767   1.385451   2.183769
    14  C    5.135429   3.538371   4.915644   5.375920   5.710131
    15  C    5.004486   3.171019   5.567146   6.343947   6.800070
    16  N    4.410570   2.282535   5.072720   6.071145   6.538806
    17  H    4.109060   2.798836   2.667168   3.147533   3.449549
    18  H    2.637869   3.171286   2.197020   2.845422   4.042639
    19  H    0.970115   3.013760   3.000257   4.221134   5.526151
    20  H    2.889242   3.749113   1.097967   2.153594   3.358162
    21  H    3.522202   3.265175   1.095837   2.104369   2.736145
    22  H    6.082449   5.546695   3.019543   2.207157   1.082290
    23  H    7.241527   7.684406   4.633984   3.247314   3.188809
    24  H    4.877568   5.742362   2.875537   2.151268   3.168384
    25  H    5.933256   4.510974   5.743350   6.046985   6.347050
    26  H    5.658924   3.919248   4.910126   5.226424   5.306582
    27  H    4.697541   3.202596   5.784993   6.642770   7.279370
    28  H    6.049276   4.146516   6.574191   7.292191   7.630496
    29  H    4.730540   2.718316   5.845979   6.950772   7.468286
    30  H    3.392808   1.227596   4.173775   5.304053   5.916464
    31  H    5.022197   2.833514   5.158032   6.047855   6.312652
                   11         12         13         14         15
    11  N    0.000000
    12  C    1.313820   0.000000
    13  N    2.221600   1.368149   0.000000
    14  C    6.529220   6.689577   6.063358   0.000000
    15  C    7.769087   7.919041   7.138012   1.534998   0.000000
    16  N    7.688956   7.933240   7.069867   2.530110   1.512490
    17  H    4.543100   4.864329   4.184633   2.544376   3.384010
    18  H    4.786535   4.291913   3.077692   4.082014   4.747605
    19  H    6.442035   5.938162   4.579663   5.577807   5.655688
    20  H    4.346888   4.077721   2.852132   5.798013   6.303415
    21  H    4.051364   4.299742   3.399895   4.969402   5.492145
    22  H    2.145119   3.163218   3.242255   5.690404   6.702137
    23  H    2.136211   1.080914   2.148249   7.460447   8.740437
    24  H    3.183909   2.121104   1.009131   6.348442   7.344265
    25  H    6.995061   7.085071   6.555426   1.092349   2.136644
    26  H    6.142468   6.511551   6.042434   1.096069   2.193181
[...]
 302,-0.00004274,0.00002421,-0.00003065,-0.00000742,-0.00002416,-0.0000
 3545,0.00002127,-0.00002880,0.00000784,0.00001880,-0.00000715,0.000030
 95,-0.00001925,0.00002669,0.00001801,0.00942133,0.03191530,-0.05232192
 ,-0.00203244,-0.00206802,-0.00083200,0.00087571,-0.00067702,0.00075648
 ,0.00003327,0.00017089,-0.00017726,0.00012507,0.00013307,-0.00015797,0
 .00002388,-0.00001063,0.00005143,0.00009349,0.00006612,0.00003207,0.00
 000693,0.00000517,0.00000855,0.00001133,0.00000951,-0.00000210,0.00000
 301,0.00000066,0.00000361,-0.00000276,0.00001650,0.00000103,-0.0135031
 3,-0.03422281,0.05320790,0.00021476,-0.00050439,0.00515265,0.01119939,
 0.00345602,0.00736425,-0.00065226,-0.00008808,0.00019453,0.00035763,0.
 00038246,-0.00037218,0.00004845,0.00017920,-0.00001965,0.00000153,-0.0
 0003354,-0.00002055,0.00010824,-0.00010411,-0.00005735,-0.00001325,-0.
 00001501,-0.00005766,0.00001751,0.00001180,0.00005173,0.00003427,0.000
 00663,-0.00004045,-0.00000863,0.00002695,-0.00000253,-0.00001276,-0.00
 000116,-0.00001272,0.00000714,-0.00002992,-0.00001100,-0.16871683,-0.0
 3530101,-0.12529479,-0.01907928,-0.00683083,-0.01906148,0.00166508,-0.
 00049440,0.00044403,-0.00014216,-0.00035910,0.00109052,0.00005950,0.00
 002408,0.00003435,0.00000651,0.00001384,-0.00001160,0.00000912,0.00001
 471,0.00000451,-0.00000050,0.00000626,-0.00000454,-0.00001400,-0.00002
 132,0.00000415,-0.00000031,0.00000048,-0.00000170,0.00000492,0.0000003
 3,0.00000274,-0.00641931,-0.00112187,-0.00690376,0.18364672,0.00023180
 ,0.00233167,0.00033988,0.00150889,-0.00292008,0.00228071,0.00028628,-0
 .00009806,-0.00006711,0.00018162,0.00002058,0.00001520,-0.00005865,-0.
 00000705,0.00017637,0.00000085,0.00001407,-0.00010169,0.00005778,0.000
 01387,-0.00014128,-0.00008297,0.00002505,-0.00004162,0.00000835,0.0000
 1157,0.00000575,-0.00003632,0.00004915,-0.00001342,0.00001275,-0.00007
 089,0.00003471,0.00002282,-0.00003397,-0.00002611,0.00000288,0.0000058
 8,0.00002662,-0.03584384,-0.06045488,-0.03741331,0.01558051,0.00293137
 ,0.01643430,-0.00041573,0.00219367,0.00054018,-0.00023562,0.00055922,0
 .00024777,0.00001569,0.00003295,-0.00004624,-0.00000557,-0.00000677,0.
 00002093,0.00002697,-0.00000024,0.00000476,0.00000575,-0.00001279,0.00
 000661,-0.00001489,-0.00000243,-0.00001386,0.00000620,0.00000071,-0.00
 000479,-0.00000260,0.00001061,-0.00000480,-0.01951856,-0.00325098,-0.0
 2210025,0.03602516,0.06060233,0.00339133,0.00182110,-0.00866778,-0.026
 47210,-0.00905415,-0.01346159,0.00112390,0.00082756,0.00233584,0.00014
 766,0.00016566,0.00023934,-0.00026817,-0.00035827,0.00001069,0.0000514
 4,-0.00000743,0.00010552,0.00003977,0.00022542,0.00021505,-0.00010014,
 0.00000297,0.00003768,0.00002888,-0.00004053,-0.00007768,-0.00005708,-
 0.00003005,0.00001539,0.00000424,-0.00005735,0.00002928,0.00002630,0.0
 0000197,0.00001768,-0.00002033,0.00007344,0.00004766,-0.12361597,-0.03
 611384,-0.18601208,0.00414830,0.00174685,0.00424447,0.00001352,0.00015
 718,0.00010947,0.00177559,0.00012513,-0.00102836,-0.00016032,-0.000042
 86,0.00019335,-0.00004785,-0.00003284,-0.00000555,-0.00000674,-0.00000
 916,0.00000526,0.00002681,0.00002513,-0.00000600,0.00003893,0.00004498
 ,0.00000827,0.00000264,0.00000138,0.00000301,-0.00001230,-0.00000233,-
 0.00001497,0.00359427,0.00031285,0.00354553,0.13598424,0.04032548,0.19
 766092,0.00313178,-0.00029298,0.00100520,-0.00300922,-0.00173870,-0.00
 459234,0.00083253,0.00078456,0.00050081,-0.00000661,-0.00008228,0.0002
 5248,-0.00011279,-0.00018329,0.00029586,-0.00001528,0.00006725,-0.0001
 5050,0.00008757,0.00017109,0.00001539,-0.00010597,-0.00001333,-0.00002
 255,0.00003221,0.00001605,0.00000128,-0.00000754,0.00000235,-0.0000596
 0,0.00002851,-0.00004020,0.00002421,0.00000738,-0.00001359,0.00000643,
 0.00000428,0.00004286,0.00003363,-0.01895757,-0.00304022,-0.01696983,-
 0.16965519,-0.04381453,-0.12873275,-0.00578083,-0.00414573,-0.00514032
 ,0.00014260,0.00008953,-0.00015320,-0.00005676,-0.00000768,-0.00000971
 ,-0.00001912,-0.00002575,0.00005342,0.00002550,0.00000212,0.00000037,0
 .00001518,0.00000262,0.00000464,-0.00000008,0.00000416,-0.00000603,-0.
 00000131,0.00000025,0.00000054,-0.00002188,0.00000511,0.00000611,0.001
 10040,-0.00027638,0.00010627,-0.00281787,0.00331818,0.00106960,0.18220
 238,-0.00123040,-0.00077380,-0.00064757,0.00063373,0.00058425,0.002143
 60,-0.00034263,0.00008654,-0.00039511,-0.00005685,0.00004472,-0.000025
 30,0.00009650,-0.00005171,-0.00012198,-0.00003378,0.00003284,0.0000579
 7,-0.00006887,0.00005152,0.00035853,0.00002304,-0.00001827,-0.00001934
 ,-0.00000148,0.00000933,0.00002381,0.00002324,-0.00000216,-0.00001063,
 -0.00000035,0.00002641,-0.00001636,-0.00001107,0.00000857,0.00000601,0
 .00000202,-0.00001553,-0.00001988,0.01580105,0.00488174,0.01522400,-0.
 03809559,-0.06140753,-0.03827257,-0.02604653,-0.01874164,-0.02463264,-
 0.00023835,-0.00018278,0.00015701,0.00002015,0.00000758,-0.00002939,0.
 00000568,0.00000510,0.00001526,0.00000155,0.00000771,-0.00000152,-0.00
 000129,0.00000195,-0.00000067,-0.00000636,-0.00001579,0.00000579,-0.00
 000175,-0.00000038,0.00000054,0.00000103,-0.00000079,0.00000532,-0.000
 31942,0.00080697,0.00045939,0.00404212,-0.00216953,-0.00145800,0.04552
 645,0.07962483,0.00009761,-0.00013592,-0.00095632,0.00215273,0.0008940
 9,0.00117391,-0.00080913,-0.00074306,-0.00043091,0.00007948,0.00007674
 ,-0.00022204,-0.00004850,0.00024386,0.00000813,0.00003065,-0.00007575,
 -0.00001976,0.00008575,-0.00020393,-0.00025816,0.00006653,0.00001903,0
 .00003089,-0.00002626,-0.00001569,-0.00000737,-0.00000567,0.00000073,0
 .00004819,-0.00002093,0.00001491,-0.00001308,0.00000150,0.00000585,-0.
 00000430,-0.00000531,-0.00002860,-0.00001756,0.00105146,0.00161759,0.0
 0228349,-0.13570290,-0.04820810,-0.20000962,0.00819889,0.00503986,0.00
 746323,-0.00003421,-0.00003711,0.00016094,0.00004286,-0.00000366,0.000
 03353,0.00001848,0.00002680,-0.00004223,-0.00002191,-0.00000445,0.0000
 0084,-0.00001095,-0.00000238,-0.00000578,0.00000292,0.00000379,0.00000
 159,0.00000236,0.00000005,-0.00000037,0.00001766,-0.00000156,-0.000005
 92,-0.00053933,0.00031619,0.00035825,0.00125965,-0.00020014,0.00049003
 ,0.14158959,0.04611271,0.20469030,0.00144350,-0.00077926,0.00060723,-0
 .00361735,0.00384285,-0.00290347,-0.00000106,-0.00040383,0.00093987,-0
 .00004408,-0.00026224,-0.00022738,-0.00007031,0.00000491,-0.00010054,0
 .00001587,-0.00004412,0.00010056,-0.00007235,-0.00001969,0.00030811,0.
 00006681,-0.00000944,0.00011227,-0.00001161,-0.00000903,-0.00000190,0.
 00000542,0.00000857,0.00005185,-0.00001864,0.00002393,-0.00002491,-0.0
 0000342,0.00000998,-0.00000107,-0.00000197,-0.00003356,-0.00003472,-0.
 01146645,0.00115130,0.02294180,-0.10273977,-0.00337194,0.10552257,-0.0
 0482852,-0.00360953,0.00859134,0.00008025,0.00010321,0.00013145,0.0000
 2125,0.00000860,0.00001126,-0.00000773,0.00000969,-0.00002971,-0.00004
 225,-0.00001263,-0.00000458,-0.00000214,-0.00000125,-0.00000275,-0.000
 00189,-0.00000525,0.00000762,0.00000050,-0.00000077,-0.00000048,0.0000
 1267,-0.00000418,-0.00000305,0.00095270,-0.00024337,-0.00030363,0.0007
 7917,-0.00101076,-0.00023067,0.01212880,0.00200970,-0.01862898,0.10698
 760,0.00033947,0.00060142,-0.00061920,0.00268198,-0.00333285,0.0018373
 9,0.00077143,0.00098953,-0.00127253,0.00000778,0.00005445,0.00052328,0
 .00092527,-0.00122758,-0.00060664,-0.00030240,0.00025913,0.00048198,-0
 .00166731,0.00076299,0.00192485,-0.00005506,0.00007266,-0.00016608,0.0
 0001586,0.00001216,0.00002407,0.00002113,0.00000664,-0.00006150,0.0000
 1678,0.00000188,0.00000967,-0.00001009,-0.00000813,-0.00000449,0.00000
 651,0.00002770,0.00001101,0.00799111,0.00140828,-0.01946174,0.00067712
 ,-0.04911345,-0.00442238,-0.02005898,-0.01206825,0.03679347,-0.0001240
 0,-0.00011409,-0.00012848,-0.00005453,0.00004358,-0.00007698,0.0000255
 2,-0.00003701,0.00010770,0.00007135,0.00002882,0.00000280,0.00003529,0
 .00000899,0.00001688,-0.00000845,-0.00001066,-0.00000089,-0.00000328,0
 .00000037,-0.00000079,-0.00001896,-0.00000200,0.00001130,-0.00058340,0
 .00058503,-0.00005042,-0.00037121,0.00058040,0.00063130,0.00464763,0.0
 0143919,-0.00614793,0.00384435,0.06182116,0.00141921,-0.00015508,0.000
 69741,-0.00134520,0.00014557,-0.00092753,0.00026320,-0.00013681,0.0001
 9460,0.00000610,-0.00009650,0.00003960,-0.00011052,-0.00003048,0.00010
 953,0.00001036,0.00001482,-0.00005907,0.00003879,-0.00000018,0.0000394
 1,-0.00002616,-0.00000908,0.00000955,0.00001179,0.00000604,0.00000916,
 0.00000174,0.00000564,-0.00001493,0.00000892,-0.00000795,-0.00000046,0
 .00000047,-0.00000190,0.00000396,0.00000188,0.00000354,0.00000088,-0.0
 0209675,-0.00023581,0.00244082,0.10751490,0.00606511,-0.27869415,-0.00
 012144,0.00016748,-0.00065326,-0.00000111,0.00002823,-0.00000045,-0.00
 000657,0.00000422,-0.00000196,-0.00000938,-0.00000214,0.00001554,-0.00
 000192,0.00000047,0.00000085,0.00000229,0.00000055,0.00000199,-0.00000
 322,-0.00000313,-0.00000057,-0.00000071,-0.00000014,-0.00000008,-0.000
 00526,0.00000139,0.00000289,0.00041644,-0.00039690,0.00005205,0.000217
 55,-0.00015354,0.00056571,0.01064988,0.00074246,-0.01650302,-0.1167676
 7,-0.00665565,0.29158634,0.00008936,-0.00007045,-0.00029315,-0.0006701
 8,-0.00006866,0.00066415,0.00019122,0.00025797,-0.00011302,0.00009095,
 -0.00000276,0.00003983,-0.00042026,0.00039442,0.00080944,0.00010239,0.
 00000781,-0.00054686,0.00091164,-0.00076067,-0.00045778,-0.00007778,-0
 .00003619,-0.00000913,0.00001994,0.00002953,0.00001860,-0.00000285,0.0
 0002267,-0.00004631,0.00004290,-0.00004305,0.00000177,0.00000439,-0.00
 000739,0.00001671,0.00001435,0.00000840,0.00000889,-0.00091607,-0.0027
 6330,0.00038783,0.01352768,-0.00582449,0.00008741,-0.29228556,0.164421
 59,-0.01762458,-0.00007313,-0.00002426,-0.00001063,0.00000886,-0.00002
 440,-0.00000400,-0.00001628,0.00000352,0.00005028,0.00001234,-0.000000
 28,-0.00000240,-0.00001727,-0.00000618,0.00000048,-0.00001281,-0.00000
 781,-0.00000770,-0.00000301,-0.00000129,0.00000024,-0.00002070,0.00000
 938,0.00001432,0.00069260,-0.00064639,-0.00002854,0.00000847,0.0000427
 1,0.00007960,0.00062161,-0.00052828,-0.00015178,0.00030668,-0.00025622
 ,0.00025416,0.30725184,-0.00032751,0.00021888,-0.00020781,-0.00048817,
 -0.00006246,0.00091542,-0.00022306,0.00031893,0.00017512,0.00008103,0.
 00000500,-0.00015771,0.00033737,-0.00022730,-0.00061882,-0.00006094,-0
 .00002285,0.00042015,-0.00068023,-0.00042199,0.00117584,0.00007060,0.0
 0003635,0.00001723,-0.00002756,-0.00003064,-0.00002603,-0.00001281,-0.
 00002186,0.00004460,-0.00003056,0.00001836,-0.00000178,-0.00000042,0.0
 0001132,-0.00000568,-0.00001197,-0.00000975,-0.00000355,-0.00417129,-0
 .00568110,0.00101098,0.02608010,-0.01734508,0.00055012,0.16983234,-0.1
 7621885,0.00995351,0.00015780,-0.00012629,-0.00000238,-0.00001932,0.00
 000271,0.00005019,0.00003271,0.00002596,-0.00001541,-0.00001697,0.0000
 0547,0.00000882,0.00000771,0.00002010,-0.00001446,0.00002127,0.0000178
 9,0.00000431,0.00000331,0.00000180,0.00000024,0.00001772,-0.00000181,-
 0.00001033,0.00167498,-0.00081815,-0.00017819,-0.00020513,0.00027420,0
 .00019380,0.00017592,0.00091191,-0.00110357,0.00016418,0.00111945,0.00
 055404,-0.17676010,0.18482475,-0.00026212,0.00017772,-0.00024664,0.000
 54739,0.00028183,0.00058331,-0.00013154,-0.00038191,-0.00021695,-0.000
 09078,0.00008761,0.00017514,0.00030043,-0.00025117,-0.00006893,-0.0001
 4385,-0.00002869,-0.00003903,-0.00055861,0.00133345,-0.00153965,0.0000
 5172,0.00003180,-0.00001787,-0.00000695,0.,0.00000530,0.00001069,0.000
 00492,0.00001683,-0.00001519,0.00002219,-0.00001822,-0.00000333,0.0000
 0173,0.00000099,-0.00000383,-0.00001375,-0.00002464,0.00074447,0.00086
 636,-0.00030676,-0.00468141,0.00348911,-0.00085205,-0.01236766,0.00602
 495,-0.06016427,-0.00004098,0.00002230,-0.00002913,0.00000756,0.000028
 66,-0.00005080,0.00004121,-0.00001537,-0.00003395,0.00001447,0.0000024
 5,-0.00000830,0.00000771,-0.00000679,0.00001117,0.00000032,-0.00000317
 ,0.00000526,0.00000021,-0.00000025,0.00000007,0.00000708,-0.00000450,0
 .00000363,-0.00018785,0.00014041,0.00034917,0.00022706,-0.00021082,0.0
 0004823,0.00008756,-0.00115189,0.00042512,-0.00036682,0.00046213,-0.00
 050741,0.01751891,-0.00986523,0.05442456,-0.00309228,-0.00045759,0.000
 38868,0.00704668,0.00449123,-0.00118955,-0.00264129,-0.00374382,0.0009
 6052,0.00084772,0.00102671,-0.00105818,-0.01157997,0.01080556,0.010438
 87,0.00271504,-0.00151919,-0.00736305,0.00792331,-0.00625645,-0.012508
 15,-0.00064150,-0.00064355,0.00014921,0.00016253,0.00021181,-0.0000157
 9,-0.00011494,-0.00001026,-0.00034663,0.00027619,-0.00039121,0.0001582
 3,0.00009256,-0.00006601,0.00012224,0.00004053,0.00016743,0.00024539,0
 .00096889,0.00128098,-0.00035326,-0.00267134,-0.00744516,0.00307164,-0
 .12051043,-0.00662087,0.09227435,-0.00034493,0.00034684,-0.00010313,0.
 00047536,-0.00042099,0.00027017,-0.00000950,0.00029946,-0.00040986,-0.
 00003987,-0.00005887,0.00002801,-0.00019568,-0.00009631,-0.00004086,-0
 .00001812,0.00001528,-0.00006547,0.00000215,-0.00000118,0.00000931,-0.
 00011494,0.00009117,0.00003089,-0.00072084,0.00022710,0.00021541,-0.00
 022553,0.00000707,0.00004114,-0.00038962,0.00017390,0.00000012,0.00035
 474,0.00116221,-0.00045916,-0.01333365,-0.00258827,0.02418043,0.119936
 24,-0.00166844,0.00059177,-0.00048839,0.00389392,-0.00346765,0.0006547
 8,-0.00096216,-0.00044159,0.00004181,0.00076026,-0.00019411,-0.0016618
 4,-0.00226794,0.00366634,-0.00155508,0.00198067,-0.00063946,-0.0020792
 0,0.00234917,-0.01065725,0.00056821,-0.00008645,-0.00002544,0.00015418
 ,-0.00007363,-0.00003001,-0.00007145,-0.00009758,-0.00002068,0.0000804
 2,0.00002228,-0.00010524,0.00002438,0.00004186,0.00001044,0.00002720,-
 0.00000774,-0.00002725,0.00004518,0.00028308,0.00111658,0.00077166,-0.
 01510946,-0.00093114,0.02717732,-0.01234544,-0.06726943,0.02047628,0.0
 0028786,0.00003875,0.00039267,0.00011765,-0.00027089,0.00040123,0.0001
 4283,0.00034589,-0.00028208,-0.00011015,-0.00004321,0.00002474,-0.0001
 1522,0.00000588,-0.00006461,0.00002760,0.00004299,-0.00001670,0.000011
 41,0.00000169,0.00000211,0.00001742,0.00003067,-0.00002299,-0.00028869
 ,0.00031743,-0.00019471,0.00015526,-0.00017040,-0.00003644,-0.00019126
 ,0.00091784,-0.00018648,-0.00146109,-0.00559947,-0.00012232,0.00979245
 ,0.00330518,-0.02071168,0.00642060,0.07809980,0.00075079,0.00238905,-0
 .00369939,-0.00243830,-0.00224941,0.00755843,0.00188629,0.00135064,-0.
 00304650,-0.00240018,-0.00182501,0.00282308,0.01584284,-0.01872921,-0.
 01695013,-0.00380460,0.00273385,0.01170011,-0.02232216,0.01007782,0.01
 132409,0.00105822,0.00156063,-0.00031236,-0.00035396,-0.00025441,0.000
 07529,0.00023508,0.00013942,0.00053660,-0.00038353,0.00062539,-0.00027
 653,-0.00016495,0.00005569,-0.00025081,-0.00000856,-0.00036065,-0.0004
 2762,-0.00054603,-0.00147246,-0.00071341,-0.00033801,0.01267013,0.0029
 7342,0.09166486,0.01083907,-0.22440085,-0.00052769,0.00056468,0.000142
 15,-0.00049098,0.00071701,-0.00072332,0.00109965,0.00003511,0.00050497
 ,0.00016301,0.00002481,-0.00011011,0.00030446,0.00000219,0.00016560,-0
 .00006428,-0.00008790,0.00005451,-0.00000330,-0.00000068,-0.00002128,0
 .00015891,-0.00013194,-0.00000171,0.00065912,-0.00041507,-0.00026414,0
 .00012408,0.00028030,-0.00052997,-0.00063029,-0.00110479,0.00107899,-0
 .00043229,-0.00366903,0.00099026,-0.00267254,-0.00285694,0.00828680,-0
 .08720453,-0.01243059,0.22215939,-0.00069737,0.00022355,-0.00047225,0.
 00127356,0.00051128,0.00047770,-0.00039690,-0.00097905,-0.00038252,-0.
 00020713,-0.00010025,0.00024825,0.00055835,-0.00062323,-0.00026045,-0.
 00011579,0.00017134,0.00026703,-0.00218589,-0.00044129,0.00100036,0.00
 006011,0.00016741,0.00003917,-0.00003273,0.00003059,0.00006527,0.00000
 882,0.00013066,0.00006773,0.00002403,-0.00001872,-0.00005507,-0.000001
 15,-0.00002077,-0.00002104,0.00002972,-0.00010208,-0.00007988,0.001846
 98,0.00064361,0.00133112,-0.00532497,-0.00491435,-0.00505768,-0.174793
 05,-0.06183706,-0.14798058,-0.00028322,0.00048482,0.00023341,-0.000006
 29,0.00002615,-0.00008220,0.00008372,0.00002764,0.00006717,0.00000790,
 -0.00003457,-0.00003773,-0.00002468,-0.00006357,0.00003807,-0.00006979
 ,-0.00004015,-0.00002038,-0.00000003,-0.00000349,-0.00000855,0.0000065
 3,0.00000673,0.00001932,-0.00042154,0.00012334,-0.00011909,-0.00006572
 ,-0.00011674,-0.00059648,0.00059691,-0.00137718,0.00130761,-0.00022642
 ,0.00027312,0.00013738,-0.01604768,-0.01303273,-0.02488632,0.01580248,
 0.00848095,0.01083886,0.18060124,0.00029895,-0.00002239,0.00070664,0.0
 0003543,-0.00025538,-0.00120116,-0.00027483,0.00021633,0.00044321,0.00
 009998,0.00015410,-0.00028791,0.00000233,0.00006082,-0.00030153,0.0000
 2732,-0.00007337,0.00025017,-0.00066923,-0.00051938,0.00048492,0.00009
 181,0.00007704,0.00006987,-0.00005069,-0.00004098,-0.00004744,-0.00004
 886,-0.00000041,0.00009388,-0.00003234,-0.00001709,-0.00000335,0.00001
 346,0.00000708,-0.00000709,-0.00001304,-0.00002790,-0.00000656,-0.0005
 3173,0.00125728,-0.00090034,-0.02015565,-0.01015775,-0.02601739,-0.068
 30128,-0.09870091,-0.09225459,0.00034868,-0.00013155,-0.00007177,-0.00
 001861,-0.00002669,0.00010009,0.00003038,0.00004374,-0.00004457,-0.000
 03218,-0.00001586,0.00000285,-0.00001150,0.00000970,-0.00000883,0.0000
 2631,0.00004039,-0.00000474,0.00000770,0.00000216,-0.00000158,0.000026
 46,0.00000419,-0.00001458,0.00004675,0.00030621,0.00055459,0.00113578,
 -0.00045922,0.00056105,-0.00099023,-0.00606910,0.00272614,0.00010066,0
 .00168965,0.00026803,0.01284173,0.00986987,0.01966762,0.00359239,0.001
 40197,0.00152227,0.07240404,0.10137745,0.00025796,0.00004568,0.0002400
 4,-0.00083811,-0.00078905,-0.00053756,-0.00000107,0.00090763,0.0004237
 8,0.00004056,0.00005981,-0.00022235,0.00056131,-0.00024281,-0.00073373
 ,-0.00016477,-0.00008003,0.00043683,0.00105147,0.00101629,0.00048363,0
 .00011787,-0.00003202,0.00001773,-0.00000679,-0.00003051,0.00000252,0.
 00000383,0.00000268,0.00009148,-0.00005228,0.00005323,-0.00004668,-0.0
 0001040,0.00002731,0.00000617,-0.00002123,-0.00003852,-0.00007149,0.00
 086110,-0.00025416,0.00022933,0.00614406,0.00116934,0.00907638,-0.1538
 4836,-0.08728677,-0.25601237,0.00029229,-0.00028897,0.00004761,-0.0000
 3662,0.00001080,0.00006581,-0.00003263,-0.00003804,-0.00004900,-0.0000
 2704,0.00001699,0.00000312,0.00004008,0.00003539,-0.00000129,0.0000146
 3,0.00000067,0.00003543,0.00000198,0.,-0.00000106,0.00002696,-0.000012
 60,-0.00000928,-0.00006388,0.00004813,-0.00005639,-0.00028406,-0.00020
 062,-0.00012440,0.00076383,0.00259522,0.00024902,0.00073870,0.00050691
 ,0.00060233,0.00201582,-0.00000648,-0.00021099,-0.02146698,-0.01091761
 ,-0.01864558,0.16392177,0.09372212,0.26471095\\0.00000473,-0.00000474,
 0.00000919,-0.00002447,0.00000277,-0.00001213,0.00001006,0.00000566,0.
 00000319,0.00001687,0.00000074,-0.00001224,0.00000718,0.00001068,0.000
 00548,-0.00000089,-0.00000266,0.00000253,-0.00000266,0.00000079,-0.000
 00925,-0.00000318,-0.00001035,0.00000041,-0.00000313,-0.00000004,0.000
 00348,0.00000365,-0.00000111,-0.00000209,-0.00000386,0.00000588,0.0000
 0218,-0.00000285,-0.00000021,0.00000043,-0.00000060,-0.00000374,-0.000
 00413,0.00000662,-0.00000502,0.00000246,-0.00000085,-0.00000572,0.0000
 0107,-0.00000813,0.00000458,0.00000270,-0.00000896,-0.00000570,0.00000
 046,0.00000380,0.00000016,0.00000389,0.00000154,-0.00000217,-0.0000031
 0,-0.00000217,0.00000237,-0.00000202,-0.00000135,0.00000243,0.00000198
 ,-0.00000046,-0.00000095,0.00000099,0.00000073,-0.00000185,0.00000093,
 0.00000015,-0.00000078,0.00000013,0.00000080,0.00000058,0.00000146,0.0
 0000008,0.00000311,0.00000283,-0.00000076,0.00000151,-0.00000011,-0.00
 000067,0.00000381,-0.00000033,-0.00000179,0.00000115,0.00000189,0.0000
 0675,-0.00000189,-0.00000159,0.00000380,0.00000069,-0.00000072\\\@


 ONE BIG VICE IN A MAN IS APT TO KEEP OUT MANY SMALLER ONES.

                           -- BRET HARTE
 Job cpu time:       0 days  1 hours 28 minutes 33.3 seconds.
 File lengths (MBytes):  RWF=    349 Int=      0 D2E=      0 Chk=     10 Scr=      1
 Normal termination of Gaussian 09 at Wed Jul 28 23:18:27 2021.
