 Entering Gaussian System, Link 0=g09
 Input=opt_freq-conf-885.com
 Output=opt_freq-conf-885.log
 Initial command:
 /aerosol/software/g09/l1.exe "/scratch/nicole/10681/Gau-86025.inp" -scrdir="/scratch/nicole/10681/"
 Entering Link 1 = /aerosol/software/g09/l1.exe PID=     86033.
  
 Copyright (c) 1988,1990,1992,1993,1995,1998,2003,2009,2013,
            Gaussian, Inc.  All Rights Reserved.
  
 This is part of the Gaussian(R) 09 program.  It is based on
 the Gaussian(R) 03 system (copyright 2003, Gaussian, Inc.),
 the Gaussian(R) 98 system (copyright 1998, Gaussian, Inc.),
 the Gaussian(R) 94 system (copyright 1995, Gaussian, Inc.),
 the Gaussian 92(TM) system (copyright 1992, Gaussian, Inc.),
 the Gaussian 90(TM) system (copyright 1990, Gaussian, Inc.),
 the Gaussian 88(TM) system (copyright 1988, Gaussian, Inc.),
 the Gaussian 86(TM) system (copyright 1986, Carnegie Mellon
 University), and the Gaussian 82(TM) system (copyright 1983,
 Carnegie Mellon University). Gaussian is a federally registered
 trademark of Gaussian, Inc.
  
 This software contains proprietary and confidential information,
 including trade secrets, belonging to Gaussian, Inc.
  
 This software is provided under written license and may be
 used, copied, transmitted, or stored only in accord with that
 written license.
  
 The following legend is applicable only to US Government
 contracts under FAR:
  
                    RESTRICTED RIGHTS LEGEND
  
 Use, reproduction and disclosure by the US Government is
 subject to restrictions as set forth in subparagraphs (a)
 and (c) of the Commercial Computer Software - Restricted
 Rights clause in FAR 52.227-19.
  
 Gaussian, Inc.
 340 Quinnipiac St., Bldg. 40, Wallingford CT 06492
  
  
 ---------------------------------------------------------------
 Warning -- This program may not be used in any manner that
 competes with the business of Gaussian, Inc. or will provide
 assistance to any competitor of Gaussian, Inc.  The licensee
 of this program is prohibited from giving any competitor of
 Gaussian, Inc. access to this program.  By using this program,
 the user acknowledges that Gaussian, Inc. is engaged in the
 business of creating and licensing software in the field of
 computational chemistry and represents and warrants to the
 licensee that it is not a competitor of Gaussian, Inc. and that
 it will not use this program in any manner prohibited above.
 ---------------------------------------------------------------
  

 Cite this work as:
 Gaussian 09, Revision D.01,
 M. J. Frisch, G. W. Trucks, H. B. Schlegel, G. E. Scuseria, 
 M. A. Robb, J. R. Cheeseman, G. Scalmani, V. Barone, B. Mennucci, 
 G. A. Petersson, H. Nakatsuji, M. Caricato, X. Li, H. P. Hratchian, 
 A. F. Izmaylov, J. Bloino, G. Zheng, J. L. Sonnenberg, M. Hada, 
 M. Ehara, K. Toyota, R. Fukuda, J. Hasegawa, M. Ishida, T. Nakajima, 
 Y. Honda, O. Kitao, H. Nakai, T. Vreven, J. A. Montgomery, Jr., 
 J. E. Peralta, F. Ogliaro, M. Bearpark, J. J. Heyd, E. Brothers, 
 K. N. Kudin, V. N. Staroverov, T. Keith, R. Kobayashi, J. Normand, 
 K. Raghavachari, A. Rendell, J. C. Burant, S. S. Iyengar, J. Tomasi, 
 M. Cossi, N. Rega, J. M. Millam, M. Klene, J. E. Knox, J. B. Cross, 
 V. Bakken, C. Adamo, J. Jaramillo, R. Gomperts, R. E. Stratmann, 
 O. Yazyev, A. J. Austin, R. Cammi, C. Pomelli, J. W. Ochterski, 
 R. L. Martin, K. Morokuma, V. G. Zakrzewski, G. A. Voth, 
 P. Salvador, J. J. Dannenberg, S. Dapprich, A. D. Daniels, 
 O. Farkas, J. B. Foresman, J. V. Ortiz, J. Cioslowski, 
 and D. J. Fox, Gaussian, Inc., Wallingford CT, 2013.
 
 ******************************************
 Gaussian 09:  ES64L-G09RevD.01 24-Apr-2013
                28-Jul-2021 
 ******************************************
 %mem=2gb
 %nproc=4
 Will use up to    4 processors via shared memory.
 %chk=conf-885.chk
 ----------------------------------------------------------------------
 # B3LYP/6-31G(d,p) opt=calcfc freq=noraman nosymm integral(ultrafinegr
 id)
 ----------------------------------------------------------------------
 1/10=4,14=-1,18=20,19=15,26=4,38=1/1,3;
 2/9=110,12=2,15=1,17=6,18=5,40=1/2;
 3/5=1,6=6,7=101,11=2,16=1,25=1,30=1,71=2,74=-5,75=-5,140=1/1,2,3;
 4//1;
 5/5=2,38=5/2;
 8/6=4,10=90,11=11/1;
 11/6=1,8=1,9=11,15=111,16=1,31=1/1,2,10;
 10/6=1,13=1,31=1/2;
 6/7=2,8=2,9=2,10=2,28=1/1;
 7/10=1,18=20,25=1,30=1/1,2,3,16;
 1/10=4,14=-1,18=20,19=15,26=4/3(2);
 2/9=110,15=1/2;
 99//99;
 2/9=110,15=1/2;
 3/5=1,6=6,7=101,11=2,16=1,25=1,30=1,71=1,74=-5,75=-5/1,2,3;
 4/5=5,16=3,69=1/1;
 5/5=2,38=5/2;
 7/30=1/1,2,3,16;
 1/14=-1,18=20,19=15,26=4/3(-5);
 2/9=110,15=1/2;
 6/7=2,8=2,9=2,10=2,19=2,28=1/1;
 99/9=1/99;
 ------------------------------------------------------------
 Candidate Structure: Conf:885 OPT and FREQ calc in gas phase
 ------------------------------------------------------------
 Symbolic Z-matrix:
 Charge =  1 Multiplicity = 1
 O                    -1.53818   0.57137  -0.33869 
 C                    -1.47554  -0.58604   0.06799 
 N                    -0.33365  -1.08817   0.5939 
 C                     0.82432  -0.23497   0.84341 
 C                     0.46092   0.81771   1.87913 
 O                     1.1605    1.96328   1.73747 
 O                    -0.33418   0.64265   2.76341 
 C                     1.41772   0.3368   -0.46374 
 C                     2.89502   0.58328  -0.40144 
 C                     3.66779   1.61256   0.05406 
 N                     5.01245   1.34801  -0.13655 
 C                     5.05197   0.16407  -0.69755 
 N                     3.80291  -0.34078  -0.88151 
 C                    -2.64265  -1.55339  -0.03225 
 C                    -3.97464  -0.88997   0.28999 
 N                    -4.25956   0.20384  -0.66934 
 H                    -0.37283  -1.95635   1.09943 
 H                     1.55463  -0.89271   1.33001 
 H                     0.86184   2.54627   2.44771 
 H                     1.23317  -0.38449  -1.26056 
 H                     0.88831   1.24414  -0.73456 
 H                     3.33952   2.5325    0.5093 
 H                     5.93702  -0.37237  -0.9914 
 H                     3.57006  -1.22406  -1.30015 
 H                    -2.66526  -1.93206  -1.05777 
 H                    -2.46599  -2.40279   0.62929 
 H                    -4.77649  -1.62938   0.25892 
 H                    -3.94437  -0.48179   1.3025 
 H                    -4.47322  -0.16443  -1.59548 
 H                    -5.02282   0.80563  -0.36245 
 H                    -3.39869   0.76171  -0.75108 
 

 GradGradGradGradGradGradGradGradGradGradGradGradGradGradGradGradGradGrad
 Berny optimization.
 Initialization pass.
                           ----------------------------
                           !    Initial Parameters    !
                           ! (Angstroms and Degrees)  !
 --------------------------                            --------------------------
 ! Name  Definition              Value          Derivative Info.                !
 --------------------------------------------------------------------------------
 ! R1    R(1,2)                  1.2284         calculate D2E/DX2 analytically  !
 ! R2    R(2,3)                  1.3538         calculate D2E/DX2 analytically  !
 ! R3    R(2,14)                 1.5192         calculate D2E/DX2 analytically  !
 ! R4    R(3,4)                  1.4598         calculate D2E/DX2 analytically  !
 ! R5    R(3,17)                 1.0054         calculate D2E/DX2 analytically  !
 ! R6    R(4,5)                  1.5208         calculate D2E/DX2 analytically  !
 ! R7    R(4,8)                  1.5452         calculate D2E/DX2 analytically  !
 ! R8    R(4,18)                 1.0967         calculate D2E/DX2 analytically  !
 ! R9    R(5,6)                  1.3497         calculate D2E/DX2 analytically  !
 ! R10   R(5,7)                  1.202          calculate D2E/DX2 analytically  !
 ! R11   R(6,19)                 0.9662         calculate D2E/DX2 analytically  !
 ! R12   R(8,9)                  1.499          calculate D2E/DX2 analytically  !
 ! R13   R(8,20)                 1.0905         calculate D2E/DX2 analytically  !
 ! R14   R(8,21)                 1.0848         calculate D2E/DX2 analytically  !
 ! R15   R(9,10)                 1.3653         calculate D2E/DX2 analytically  !
 ! R16   R(9,13)                 1.3815         calculate D2E/DX2 analytically  !
 ! R17   R(10,11)                1.3836         calculate D2E/DX2 analytically  !
 ! R18   R(10,22)                1.0776         calculate D2E/DX2 analytically  !
 ! R19   R(11,12)                1.3107         calculate D2E/DX2 analytically  !
 ! R20   R(12,13)                1.3597         calculate D2E/DX2 analytically  !
 ! R21   R(12,23)                1.0758         calculate D2E/DX2 analytically  !
 ! R22   R(13,24)                1.0048         calculate D2E/DX2 analytically  !
 ! R23   R(14,15)                1.5226         calculate D2E/DX2 analytically  !
 ! R24   R(14,25)                1.0934         calculate D2E/DX2 analytically  !
 ! R25   R(14,26)                1.091          calculate D2E/DX2 analytically  !
 ! R26   R(15,16)                1.4825         calculate D2E/DX2 analytically  !
 ! R27   R(15,27)                1.0912         calculate D2E/DX2 analytically  !
 ! R28   R(15,28)                1.0921         calculate D2E/DX2 analytically  !
 ! R29   R(16,29)                1.0193         calculate D2E/DX2 analytically  !
 ! R30   R(16,30)                1.0193         calculate D2E/DX2 analytically  !
 ! R31   R(16,31)                1.0291         calculate D2E/DX2 analytically  !
 ! A1    A(1,2,3)              121.407          calculate D2E/DX2 analytically  !
 ! A2    A(1,2,14)             122.6121         calculate D2E/DX2 analytically  !
 ! A3    A(3,2,14)             115.9422         calculate D2E/DX2 analytically  !
 ! A4    A(2,3,4)              121.2453         calculate D2E/DX2 analytically  !
 ! A5    A(2,3,17)             118.8653         calculate D2E/DX2 analytically  !
 ! A6    A(4,3,17)             116.7217         calculate D2E/DX2 analytically  !
 ! A7    A(3,4,5)              109.3542         calculate D2E/DX2 analytically  !
 ! A8    A(3,4,8)              112.1043         calculate D2E/DX2 analytically  !
 ! A9    A(3,4,18)             104.6867         calculate D2E/DX2 analytically  !
 ! A10   A(5,4,8)              114.314          calculate D2E/DX2 analytically  !
 ! A11   A(5,4,18)             105.7881         calculate D2E/DX2 analytically  !
 ! A12   A(8,4,18)             109.9704         calculate D2E/DX2 analytically  !
 ! A13   A(4,5,6)              113.0883         calculate D2E/DX2 analytically  !
 ! A14   A(4,5,7)              123.9356         calculate D2E/DX2 analytically  !
 ! A15   A(6,5,7)              122.9345         calculate D2E/DX2 analytically  !
 ! A16   A(5,6,19)             105.9471         calculate D2E/DX2 analytically  !
 ! A17   A(4,8,9)              113.8375         calculate D2E/DX2 analytically  !
 ! A18   A(4,8,20)             107.961          calculate D2E/DX2 analytically  !
 ! A19   A(4,8,21)             109.4665         calculate D2E/DX2 analytically  !
 ! A20   A(9,8,20)             107.8126         calculate D2E/DX2 analytically  !
 ! A21   A(9,8,21)             110.7195         calculate D2E/DX2 analytically  !
 ! A22   A(20,8,21)            106.7503         calculate D2E/DX2 analytically  !
 ! A23   A(8,9,10)             134.0777         calculate D2E/DX2 analytically  !
 ! A24   A(8,9,13)             121.5484         calculate D2E/DX2 analytically  !
 ! A25   A(10,9,13)            104.3721         calculate D2E/DX2 analytically  !
 ! A26   A(9,10,11)            111.0979         calculate D2E/DX2 analytically  !
 ! A27   A(9,10,22)            127.74           calculate D2E/DX2 analytically  !
 ! A28   A(11,10,22)           121.1621         calculate D2E/DX2 analytically  !
 ! A29   A(10,11,12)           105.1277         calculate D2E/DX2 analytically  !
 ! A30   A(11,12,13)           111.4432         calculate D2E/DX2 analytically  !
 ! A31   A(11,12,23)           126.3059         calculate D2E/DX2 analytically  !
 ! A32   A(13,12,23)           122.2508         calculate D2E/DX2 analytically  !
 ! A33   A(9,13,12)            107.9583         calculate D2E/DX2 analytically  !
 ! A34   A(9,13,24)            125.4832         calculate D2E/DX2 analytically  !
 ! A35   A(12,13,24)           126.5558         calculate D2E/DX2 analytically  !
 ! A36   A(2,14,15)            112.3751         calculate D2E/DX2 analytically  !
 ! A37   A(2,14,25)            107.3548         calculate D2E/DX2 analytically  !
 ! A38   A(2,14,26)            109.3497         calculate D2E/DX2 analytically  !
 ! A39   A(15,14,25)           109.3478         calculate D2E/DX2 analytically  !
 ! A40   A(15,14,26)           110.6441         calculate D2E/DX2 analytically  !
 ! A41   A(25,14,26)           107.6032         calculate D2E/DX2 analytically  !
 ! A42   A(14,15,16)           110.6503         calculate D2E/DX2 analytically  !
 ! A43   A(14,15,27)           109.9734         calculate D2E/DX2 analytically  !
 ! A44   A(14,15,28)           109.5618         calculate D2E/DX2 analytically  !
 ! A45   A(16,15,27)           109.8954         calculate D2E/DX2 analytically  !
 ! A46   A(16,15,28)           109.2385         calculate D2E/DX2 analytically  !
 ! A47   A(27,15,28)           107.459          calculate D2E/DX2 analytically  !
 ! A48   A(15,16,29)           111.2021         calculate D2E/DX2 analytically  !
 ! A49   A(15,16,30)           112.6245         calculate D2E/DX2 analytically  !
 ! A50   A(15,16,31)           106.8938         calculate D2E/DX2 analytically  !
 ! A51   A(29,16,30)           109.2634         calculate D2E/DX2 analytically  !
 ! A52   A(29,16,31)           107.3997         calculate D2E/DX2 analytically  !
 ! A53   A(30,16,31)           109.2859         calculate D2E/DX2 analytically  !
 ! D1    D(1,2,3,4)              7.1885         calculate D2E/DX2 analytically  !
 ! D2    D(1,2,3,17)           166.4159         calculate D2E/DX2 analytically  !
 ! D3    D(14,2,3,4)          -175.0172         calculate D2E/DX2 analytically  !
 ! D4    D(14,2,3,17)          -15.7898         calculate D2E/DX2 analytically  !
 ! D5    D(1,2,14,15)          -40.7302         calculate D2E/DX2 analytically  !
 ! D6    D(1,2,14,25)           79.5357         calculate D2E/DX2 analytically  !
 ! D7    D(1,2,14,26)         -164.005          calculate D2E/DX2 analytically  !
 ! D8    D(3,2,14,15)          141.5048         calculate D2E/DX2 analytically  !
 ! D9    D(3,2,14,25)          -98.2293         calculate D2E/DX2 analytically  !
 ! D10   D(3,2,14,26)           18.2299         calculate D2E/DX2 analytically  !
 ! D11   D(2,3,4,5)             63.0455         calculate D2E/DX2 analytically  !
 ! D12   D(2,3,4,8)            -64.8105         calculate D2E/DX2 analytically  !
 ! D13   D(2,3,4,18)           176.0112         calculate D2E/DX2 analytically  !
 ! D14   D(17,3,4,5)           -96.6058         calculate D2E/DX2 analytically  !
 ! D15   D(17,3,4,8)           135.5382         calculate D2E/DX2 analytically  !
 ! D16   D(17,3,4,18)           16.36           calculate D2E/DX2 analytically  !
 ! D17   D(3,4,5,6)           -151.0244         calculate D2E/DX2 analytically  !
 ! D18   D(3,4,5,7)             31.2652         calculate D2E/DX2 analytically  !
 ! D19   D(8,4,5,6)            -24.4154         calculate D2E/DX2 analytically  !
 ! D20   D(8,4,5,7)            157.8743         calculate D2E/DX2 analytically  !
 ! D21   D(18,4,5,6)            96.7304         calculate D2E/DX2 analytically  !
 ! D22   D(18,4,5,7)           -80.98           calculate D2E/DX2 analytically  !
 ! D23   D(3,4,8,9)           -149.8559         calculate D2E/DX2 analytically  !
 ! D24   D(3,4,8,20)           -30.1997         calculate D2E/DX2 analytically  !
 ! D25   D(3,4,8,21)            85.6439         calculate D2E/DX2 analytically  !
 ! D26   D(5,4,8,9)             84.9736         calculate D2E/DX2 analytically  !
 ! D27   D(5,4,8,20)          -155.3702         calculate D2E/DX2 analytically  !
 ! D28   D(5,4,8,21)           -39.5266         calculate D2E/DX2 analytically  !
 ! D29   D(18,4,8,9)           -33.8324         calculate D2E/DX2 analytically  !
 ! D30   D(18,4,8,20)           85.8239         calculate D2E/DX2 analytically  !
 ! D31   D(18,4,8,21)         -158.3326         calculate D2E/DX2 analytically  !
 ! D32   D(4,5,6,19)          -179.1045         calculate D2E/DX2 analytically  !
 ! D33   D(7,5,6,19)            -1.3678         calculate D2E/DX2 analytically  !
 ! D34   D(4,8,9,10)           -84.1443         calculate D2E/DX2 analytically  !
 ! D35   D(4,8,9,13)            96.4351         calculate D2E/DX2 analytically  !
 ! D36   D(20,8,9,10)          156.1155         calculate D2E/DX2 analytically  !
 ! D37   D(20,8,9,13)          -23.3051         calculate D2E/DX2 analytically  !
 ! D38   D(21,8,9,10)           39.6805         calculate D2E/DX2 analytically  !
 ! D39   D(21,8,9,13)         -139.7401         calculate D2E/DX2 analytically  !
 ! D40   D(8,9,10,11)         -179.2905         calculate D2E/DX2 analytically  !
 ! D41   D(8,9,10,22)            0.6845         calculate D2E/DX2 analytically  !
 ! D42   D(13,9,10,11)           0.1998         calculate D2E/DX2 analytically  !
 ! D43   D(13,9,10,22)        -179.8253         calculate D2E/DX2 analytically  !
 ! D44   D(8,9,13,12)          179.5376         calculate D2E/DX2 analytically  !
 ! D45   D(8,9,13,24)            0.1163         calculate D2E/DX2 analytically  !
 ! D46   D(10,9,13,12)          -0.0327         calculate D2E/DX2 analytically  !
 ! D47   D(10,9,13,24)        -179.454          calculate D2E/DX2 analytically  !
 ! D48   D(9,10,11,12)          -0.2927         calculate D2E/DX2 analytically  !
 ! D49   D(22,10,11,12)        179.7304         calculate D2E/DX2 analytically  !
 ! D50   D(10,11,12,13)          0.2688         calculate D2E/DX2 analytically  !
 ! D51   D(10,11,12,23)       -179.839          calculate D2E/DX2 analytically  !
 ! D52   D(11,12,13,9)          -0.1545         calculate D2E/DX2 analytically  !
 ! D53   D(11,12,13,24)        179.2589         calculate D2E/DX2 analytically  !
 ! D54   D(23,12,13,9)         179.9482         calculate D2E/DX2 analytically  !
 ! D55   D(23,12,13,24)         -0.6384         calculate D2E/DX2 analytically  !
 ! D56   D(2,14,15,16)          61.4384         calculate D2E/DX2 analytically  !
 ! D57   D(2,14,15,27)        -176.9661         calculate D2E/DX2 analytically  !
 ! D58   D(2,14,15,28)         -59.0665         calculate D2E/DX2 analytically  !
 ! D59   D(25,14,15,16)        -57.6677         calculate D2E/DX2 analytically  !
 ! D60   D(25,14,15,27)         63.9278         calculate D2E/DX2 analytically  !
 ! D61   D(25,14,15,28)       -178.1726         calculate D2E/DX2 analytically  !
 ! D62   D(26,14,15,16)       -176.0146         calculate D2E/DX2 analytically  !
 ! D63   D(26,14,15,27)        -54.4191         calculate D2E/DX2 analytically  !
 ! D64   D(26,14,15,28)         63.4805         calculate D2E/DX2 analytically  !
 ! D65   D(14,15,16,29)         70.3138         calculate D2E/DX2 analytically  !
 ! D66   D(14,15,16,30)       -166.6591         calculate D2E/DX2 analytically  !
 ! D67   D(14,15,16,31)        -46.6241         calculate D2E/DX2 analytically  !
 ! D68   D(27,15,16,29)        -51.3276         calculate D2E/DX2 analytically  !
 ! D69   D(27,15,16,30)         71.6994         calculate D2E/DX2 analytically  !
 ! D70   D(27,15,16,31)       -168.2656         calculate D2E/DX2 analytically  !
 ! D71   D(28,15,16,29)       -168.9888         calculate D2E/DX2 analytically  !
 ! D72   D(28,15,16,30)        -45.9617         calculate D2E/DX2 analytically  !
 ! D73   D(28,15,16,31)         74.0733         calculate D2E/DX2 analytically  !
 --------------------------------------------------------------------------------
 Trust Radius=3.00D-01 FncErr=1.00D-07 GrdErr=1.00D-06
 Number of steps in this run=    167 maximum allowed number of steps=    186.
 GradGradGradGradGradGradGradGradGradGradGradGradGradGradGradGradGradGrad

                          Input orientation:                          
 ---------------------------------------------------------------------
 Center     Atomic      Atomic             Coordinates (Angstroms)
 Number     Number       Type             X           Y           Z
 ---------------------------------------------------------------------
      1          8           0       -1.538177    0.571365   -0.338685
      2          6           0       -1.475544   -0.586038    0.067993
      3          7           0       -0.333646   -1.088170    0.593896
      4          6           0        0.824321   -0.234971    0.843410
      5          6           0        0.460921    0.817714    1.879128
      6          8           0        1.160504    1.963284    1.737470
      7          8           0       -0.334184    0.642647    2.763409
      8          6           0        1.417721    0.336804   -0.463742
      9          6           0        2.895018    0.583283   -0.401438
     10          6           0        3.667793    1.612560    0.054059
     11          7           0        5.012447    1.348006   -0.136547
     12          6           0        5.051966    0.164069   -0.697549
     13          7           0        3.802905   -0.340777   -0.881507
     14          6           0       -2.642649   -1.553390   -0.032247
     15          6           0       -3.974637   -0.889965    0.289986
     16          7           0       -4.259556    0.203843   -0.669340
     17          1           0       -0.372831   -1.956352    1.099430
     18          1           0        1.554627   -0.892708    1.330011
     19          1           0        0.861839    2.546274    2.447712
     20          1           0        1.233170   -0.384492   -1.260563
     21          1           0        0.888307    1.244140   -0.734564
     22          1           0        3.339524    2.532496    0.509303
     23          1           0        5.937025   -0.372368   -0.991397
     24          1           0        3.570064   -1.224065   -1.300151
     25          1           0       -2.665263   -1.932058   -1.057774
     26          1           0       -2.465988   -2.402790    0.629291
     27          1           0       -4.776490   -1.629383    0.258918
     28          1           0       -3.944371   -0.481792    1.302504
     29          1           0       -4.473217   -0.164428   -1.595482
     30          1           0       -5.022815    0.805627   -0.362453
     31          1           0       -3.398692    0.761715   -0.751084
 ---------------------------------------------------------------------
                    Distance matrix (angstroms):
                    1          2          3          4          5
     1  O    0.000000
     2  C    1.228370   0.000000
     3  N    2.252700   1.353751   0.000000
     4  C    2.762051   2.452325   1.459826   0.000000
     5  C    2.995960   3.000104   2.432191   1.520828   0.000000
     6  O    3.678415   4.029261   3.584915   2.396808   1.349745
     7  O    3.328313   3.174529   2.775340   2.408058   1.201995
     8  C    2.967827   3.083077   2.493278   1.545217   2.576002
     9  C    4.433655   4.548570   3.769445   2.550876   3.343766
    10  C    5.323576   5.593562   4.857662   3.481634   3.774478
    11  N    6.599600   6.773212   5.920238   4.583288   5.006052
    12  C    6.612463   6.614915   5.678094   4.517385   5.305113
    13  N    5.445532   5.368773   4.454937   3.443616   4.486877
    14  C    2.414196   1.519194   2.437207   3.811152   4.348291
    15  C    2.909820   2.527275   3.659025   4.874966   5.011558
    16  N    2.765919   2.986351   4.321786   5.322290   5.399484
    17  H    3.132979   2.039019   1.005406   2.112314   2.999752
    18  H    3.807032   3.296767   2.036086   1.096697   2.103156
    19  H    4.174249   4.575784   4.251471   3.211000   1.863315
    20  H    3.073091   3.023708   2.527665   2.148538   3.449540
    21  H    2.548955   3.095390   2.949177   2.163762   2.682515
    22  H    5.325137   5.753685   5.158348   3.754563   3.619842
    23  H    7.562758   7.490937   6.507445   5.433703   6.296342
    24  H    5.499283   5.266598   4.341063   3.621086   4.893205
    25  H    2.838052   2.120036   2.979363   4.321088   5.095063
    26  H    3.262424   2.143974   2.505267   3.946064   4.527752
    27  H    3.960694   3.467170   4.488205   5.801302   6.003652
    28  H    3.097162   2.762244   3.729230   4.797095   4.629018
    29  H    3.276490   3.454121   4.773125   5.832416   6.114183
    30  H    3.492584   3.834729   5.146783   6.060194   5.924204
    31  H    1.915155   2.487131   3.824336   4.622730   4.670949
                    6          7          8          9         10
     6  O    0.000000
     7  O    2.242927   0.000000
     8  C    2.748988   3.684727   0.000000
     9  C    3.080238   4.521894   1.499013   0.000000
    10  C    3.040293   4.929211   2.637896   1.365309   0.000000
    11  N    4.327583   6.123213   3.748552   2.266821   1.383624
    12  C    4.930515   6.420115   3.645852   2.217172   2.139855
    13  N    4.376074   5.600717   2.514507   1.381526   2.170038
    14  C    5.473834   4.238783   4.499514   5.947052   7.060620
    15  C    6.050282   4.660432   5.581272   7.059794   8.045187
    16  N    6.185904   5.233055   5.682555   7.169635   8.083975
    17  H    4.256965   3.086279   3.302749   4.402407   5.491500
    18  H    2.911708   2.824809   2.178989   2.640666   3.517086
    19  H    0.966190   2.270227   3.696935   4.013079   3.804573
    20  H    3.808613   4.438914   1.090527   2.106282   3.412306
    21  H    2.588863   3.753944   1.084843   2.138830   2.912594
    22  H    2.565254   4.706236   3.075907   2.196921   1.077631
    23  H    5.976382   7.379490   4.604938   3.242704   3.190977
    24  H    5.019195   5.936353   2.787197   2.128352   3.144818
    25  H    6.133806   5.163766   4.708649   6.137951   7.342213
    26  H    5.782915   4.286460   4.876812   6.222493   7.353720
    27  H    7.095158   5.582892   6.538837   8.011491   9.047545
    28  H    5.676913   4.053648   5.704539   7.128467   7.993120
    29  H    6.882916   6.064890   6.019570   7.501713   8.494393
    30  H    6.631989   5.637450   6.458371   7.921050   8.737922
    31  H    5.331316   4.664445   4.843650   6.305939   7.162918
                   11         12         13         14         15
    11  N    0.000000
    12  C    1.310722   0.000000
    13  N    2.206795   1.359729   0.000000
    14  C    8.187153   7.911978   6.613383   0.000000
    15  C    9.271361   9.141432   7.884426   1.522550   0.000000
    16  N    9.357512   9.311650   8.083620   2.471466   1.482532
    17  H    6.437985   6.095387   4.896015   2.568101   3.842576
    18  H    4.373570   4.178417   3.201593   4.461992   5.626226
    19  H    5.034063   5.755410   5.297984   5.936234   6.313084
    20  H    4.306727   3.898860   2.597909   4.230491   5.457194
    21  H    4.168567   4.301626   3.320909   4.559284   5.408543
    22  H    2.149141   3.162024   3.225642   7.264581   8.078261
    23  H    2.131971   1.075844   2.137181   8.713529  10.007542
    24  H    3.170173   2.118037   1.004826   6.349317   7.717686
    25  H    8.399686   8.004945   6.663366   1.093438   2.148692
    26  H    8.401308   8.054124   6.770039   1.091019   2.163282
    27  H   10.239362  10.036426   8.750263   2.154955   1.091179
    28  H    9.254384   9.238584   8.050471   2.150433   1.092114
    29  H    9.715646   9.573051   8.308734   2.779190   2.080860
    30  H   10.052447  10.100748   8.914987   3.367371   2.097471
    31  H    8.453914   8.471934   7.286666   2.539298   2.035581
                   16         17         18         19         20
    16  N    0.000000
    17  H    4.785564   0.000000
    18  H    6.245362   2.213504   0.000000
    19  H    6.436745   4.859621   3.681821   0.000000
    20  H    5.555693   3.258765   2.659453   4.741158   0.000000
    21  H    5.252329   3.898352   3.045090   3.438479   1.745866
    22  H    8.034790   5.854877   3.948600   3.145878   4.009734
    23  H   10.217926   6.833363   4.986492   6.789953   4.711565
    24  H    7.983720   4.673399   3.330096   5.966274   2.483450
    25  H    2.693459   3.147914   4.958754   6.692111   4.199270
    26  H    3.420214   2.191266   4.351632   6.234928   4.618316
    27  H    2.118868   4.495062   6.463201   7.349672   6.322546
    28  H    2.111304   3.869298   5.514398   5.794855   5.778037
    29  H    1.019320   5.223668   6.739718   7.222060   5.720442
    30  H    1.019258   5.602497   7.000822   6.749521   6.431200
    31  H    1.029073   4.468570   5.621693   5.618636   4.798698
                   21         22         23         24         25
    21  H    0.000000
    22  H    3.035710   0.000000
    23  H    5.307412   4.175804   0.000000
    24  H    3.688326   4.176005   2.534408   0.000000
    25  H    4.777087   7.644962   8.742792   6.280072   0.000000
    26  H    5.139212   7.620723   8.795446   6.445624   1.762806
    27  H    6.429157   9.124342  10.859226   8.500585   2.506506
    28  H    5.521165   7.922767  10.144750   7.986959   3.051279
    29  H    5.609918   8.528918  10.429827   8.118154   2.585023
    30  H    5.939034   8.583167  11.040894   8.878992   3.679190
    31  H    4.314089   7.080099   9.407417   7.266935   2.808628
                   26         27         28         29         30
    26  H    0.000000
    27  H    2.464499   0.000000
    28  H    2.515764   1.760243   0.000000
    29  H    3.740167   2.382618   2.962890   0.000000
    30  H    4.220765   2.525084   2.364862   1.662355   0.000000
    31  H    3.576236   2.938670   2.461971   1.650864   1.670550
                   31
    31  H    0.000000
 Symmetry turned off by external request.
 Stoichiometry    C9H15N4O3(1+)
 Framework group  C1[X(C9H15N4O3)]
 Deg. of freedom    87
 Full point group                 C1      NOp   1
 Rotational constants (GHZ):      1.1693117      0.2438321      0.2245456
 Standard basis: 6-31G(d,p) (6D, 7F)
   315 basis functions,   553 primitive gaussians,   315 cartesian basis functions
    60 alpha electrons       60 beta electrons
       nuclear repulsion energy      1139.5684606199 Hartrees.
 NAtoms=   31 NActive=   31 NUniq=   31 SFac= 1.00D+00 NAtFMM=   60 NAOKFM=F Big=F
 Integral buffers will be    131072 words long.
 Raffenetti 2 integral format.
 Two-electron integral symmetry is turned off.
 One-electron integrals computed using PRISM.
 NBasis=   315 RedAO= T EigKep=  1.12D-03  NBF=   315
 NBsUse=   315 1.00D-06 EigRej= -1.00D+00 NBFU=   315
 ExpMin= 1.61D-01 ExpMax= 5.48D+03 ExpMxC= 8.25D+02 IAcc=3 IRadAn=         5 AccDes= 0.00D+00
 Harris functional with IExCor=  402 and IRadAn=       5 diagonalized for initial guess.
 HarFok:  IExCor=  402 AccDes= 0.00D+00 IRadAn=         5 IDoV= 1 UseB2=F ITyADJ=14
 ICtDFT=  3500011 ScaDFX=  1.000000  1.000000  1.000000  1.000000
 FoFCou: FMM=F IPFlag=           0 FMFlag=      100000 FMFlg1=           0
         NFxFlg=           0 DoJE=T BraDBF=F KetDBF=T FulRan=T
         wScrn=  0.000000 ICntrl=     500 IOpCl=  0 I1Cent=   200000004 NGrid=           0
         NMat0=    1 NMatS0=      1 NMatT0=    0 NMatD0=    1 NMtDS0=    0 NMtDT0=    0
 Symmetry not used in FoFCou.
 Requested convergence on RMS density matrix=1.00D-08 within 128 cycles.
 Requested convergence on MAX density matrix=1.00D-06.
 Requested convergence on             energy=1.00D-06.
 No special actions if energy rises.
 Integral accuracy reduced to 1.0D-05 until final iterations.
 Initial convergence to 1.0D-05 achieved.  Increase integral accuracy.
 SCF Done:  E(RB3LYP) =  -796.486653402     A.U. after   14 cycles
            NFock= 14  Conv=0.46D-08     -V/T= 2.0088
 DoSCS=F DFT=T ScalE2(SS,OS)=  1.000000  1.000000
 Range of M.O.s used for correlation:     1   315
 NBasis=   315 NAE=    60 NBE=    60 NFC=     0 NFV=     0
 NROrb=    315 NOA=    60 NOB=    60 NVA=   255 NVB=   255
 Symmetrizing basis deriv contribution to polar:
 IMax=3 JMax=2 DiffMx= 0.00D+00
 G2DrvN: will do    32 centers at a time, making    1 passes.
 Calling FoFCou, ICntrl=  3107 FMM=F I1Cent=   0 AccDes= 0.00D+00.
 End of G2Drv F.D. properties file   721 does not exist.
 End of G2Drv F.D. properties file   722 does not exist.
 End of G2Drv F.D. properties file   788 does not exist.
          IDoAtm=1111111111111111111111111111111
          Differentiating once with respect to nuclear coordinates.
          There are    96 degrees of freedom in the 1st order CPHF.  IDoFFX=6 NUNeed=     0.
     90 vectors produced by pass  0 Test12= 1.59D-14 1.04D-09 XBig12= 1.57D-01 1.15D-01.
 AX will form    90 AO Fock derivatives at one time.
     90 vectors produced by pass  1 Test12= 1.59D-14 1.04D-09 XBig12= 2.72D-02 4.25D-02.
     90 vectors produced by pass  2 Test12= 1.59D-14 1.04D-09 XBig12= 2.14D-04 1.74D-03.
     90 vectors produced by pass  3 Test12= 1.59D-14 1.04D-09 XBig12= 7.67D-07 1.12D-04.
     90 vectors produced by pass  4 Test12= 1.59D-14 1.04D-09 XBig12= 1.12D-09 2.99D-06.
     72 vectors produced by pass  5 Test12= 1.59D-14 1.04D-09 XBig12= 1.04D-12 1.21D-07.
     14 vectors produced by pass  6 Test12= 1.59D-14 1.04D-09 XBig12= 8.55D-16 2.64D-09.
 InvSVY:  IOpt=1 It=  1 EMax= 5.00D-16
 Solved reduced A of dimension   536 with    96 vectors.
 End of Minotr F.D. properties file   721 does not exist.
 End of Minotr F.D. properties file   722 does not exist.
 End of Minotr F.D. properties file   788 does not exist.

 **********************************************************************

            Population analysis using the SCF density.

 **********************************************************************

 Alpha  occ. eigenvalues --  -19.30253 -19.28536 -19.24920 -14.64253 -14.51226
 Alpha  occ. eigenvalues --  -14.46375 -14.37673 -10.45205 -10.43376 -10.43194
 Alpha  occ. eigenvalues --  -10.37971 -10.36603 -10.30628 -10.30442 -10.29366
 Alpha  occ. eigenvalues --  -10.26370  -1.21866  -1.20940  -1.19101  -1.12881
 Alpha  occ. eigenvalues --   -1.08667  -1.07685  -0.97208  -0.94060  -0.91026
 Alpha  occ. eigenvalues --   -0.85505  -0.82689  -0.78102  -0.77697  -0.76882
 Alpha  occ. eigenvalues --   -0.75159  -0.70959  -0.69554  -0.68597  -0.67044
 Alpha  occ. eigenvalues --   -0.66091  -0.63176  -0.62157  -0.61413  -0.60022
 Alpha  occ. eigenvalues --   -0.58979  -0.58219  -0.56936  -0.56395  -0.54852
 Alpha  occ. eigenvalues --   -0.53333  -0.52835  -0.51132  -0.50649  -0.49309
 Alpha  occ. eigenvalues --   -0.48677  -0.47882  -0.46946  -0.42944  -0.42163
 Alpha  occ. eigenvalues --   -0.41416  -0.38619  -0.34805  -0.33025  -0.29791
 Alpha virt. eigenvalues --   -0.14873  -0.13661  -0.10387  -0.08969  -0.06895
 Alpha virt. eigenvalues --   -0.05741  -0.04704  -0.03157  -0.02450  -0.02017
 Alpha virt. eigenvalues --   -0.01398  -0.00620  -0.00208  -0.00128   0.00631
 Alpha virt. eigenvalues --    0.03103   0.04290   0.05587   0.06323   0.06658
 Alpha virt. eigenvalues --    0.08314   0.09880   0.10971   0.12169   0.14484
 Alpha virt. eigenvalues --    0.14904   0.16672   0.19539   0.20978   0.22636
 Alpha virt. eigenvalues --    0.24517   0.24715   0.26026   0.31151   0.31508
 Alpha virt. eigenvalues --    0.32590   0.34854   0.36905   0.38466   0.39954
 Alpha virt. eigenvalues --    0.40748   0.41609   0.43451   0.44738   0.45500
 Alpha virt. eigenvalues --    0.46575   0.47359   0.48481   0.48677   0.49388
 Alpha virt. eigenvalues --    0.51379   0.52078   0.54055   0.55387   0.55797
 Alpha virt. eigenvalues --    0.56644   0.57526   0.58759   0.59711   0.60236
 Alpha virt. eigenvalues --    0.60764   0.61312   0.61668   0.63281   0.64947
 Alpha virt. eigenvalues --    0.66007   0.66150   0.67395   0.68273   0.69350
 Alpha virt. eigenvalues --    0.70382   0.71157   0.72008   0.73536   0.73625
 Alpha virt. eigenvalues --    0.74126   0.75016   0.76086   0.76579   0.77251
 Alpha virt. eigenvalues --    0.78070   0.78235   0.79212   0.79764   0.80885
 Alpha virt. eigenvalues --    0.81772   0.83312   0.84378   0.86668   0.87685
 Alpha virt. eigenvalues --    0.90329   0.91765   0.95542   0.97994   1.00602
 Alpha virt. eigenvalues --    1.01475   1.03850   1.05414   1.06776   1.08356
 Alpha virt. eigenvalues --    1.10163   1.11965   1.14878   1.17396   1.18206
 Alpha virt. eigenvalues --    1.19715   1.21747   1.24921   1.25182   1.27728
 Alpha virt. eigenvalues --    1.28705   1.30706   1.32985   1.35170   1.35951
 Alpha virt. eigenvalues --    1.38048   1.38602   1.39938   1.42184   1.44256
 Alpha virt. eigenvalues --    1.45421   1.46321   1.46666   1.49996   1.53634
 Alpha virt. eigenvalues --    1.55921   1.59195   1.60378   1.61097   1.62942
 Alpha virt. eigenvalues --    1.64207   1.64668   1.66085   1.66336   1.67481
 Alpha virt. eigenvalues --    1.70475   1.71006   1.71595   1.73148   1.74760
 Alpha virt. eigenvalues --    1.76679   1.76954   1.78823   1.79851   1.81379
 Alpha virt. eigenvalues --    1.82034   1.82938   1.84109   1.87479   1.88702
 Alpha virt. eigenvalues --    1.90099   1.90494   1.92297   1.94717   1.95927
 Alpha virt. eigenvalues --    1.97624   1.98374   1.99314   2.00917   2.02338
 Alpha virt. eigenvalues --    2.03476   2.03726   2.06338   2.07886   2.10295
 Alpha virt. eigenvalues --    2.11554   2.12998   2.13248   2.14489   2.15691
 Alpha virt. eigenvalues --    2.17552   2.19137   2.20959   2.22152   2.23332
 Alpha virt. eigenvalues --    2.23847   2.25924   2.27673   2.28599   2.29619
 Alpha virt. eigenvalues --    2.31890   2.35006   2.36171   2.37188   2.37935
 Alpha virt. eigenvalues --    2.39656   2.41260   2.42362   2.44040   2.44112
 Alpha virt. eigenvalues --    2.46069   2.48888   2.49171   2.51278   2.51767
 Alpha virt. eigenvalues --    2.53313   2.55082   2.55847   2.57055   2.58762
 Alpha virt. eigenvalues --    2.60373   2.62093   2.62400   2.64060   2.66051
 Alpha virt. eigenvalues --    2.67302   2.67914   2.71065   2.72253   2.73355
 Alpha virt. eigenvalues --    2.75089   2.76874   2.77365   2.79134   2.80684
 Alpha virt. eigenvalues --    2.85506   2.87217   2.88373   2.90199   2.93725
 Alpha virt. eigenvalues --    2.97237   2.97808   2.98301   3.08848   3.11119
 Alpha virt. eigenvalues --    3.12202   3.15892   3.16159   3.19051   3.20188
 Alpha virt. eigenvalues --    3.22875   3.27252   3.29235   3.33004   3.35495
 Alpha virt. eigenvalues --    3.37063   3.43853   3.50080   3.60921   3.83568
 Alpha virt. eigenvalues --    3.88222   3.93225   4.01509   4.03141   4.07031
 Alpha virt. eigenvalues --    4.15218   4.20239   4.22740   4.32645   4.35985
 Alpha virt. eigenvalues --    4.37366   4.43633   4.51448   4.66917   4.70074
          Condensed to atoms (all electrons):
               1          2          3          4          5          6
     1  O    8.157277   0.487311  -0.091317   0.002548   0.007101  -0.000379
     2  C    0.487311   4.371361   0.320027  -0.042832   0.001185  -0.000249
     3  N   -0.091317   0.320027   6.942829   0.222145  -0.057858   0.002093
     4  C    0.002548  -0.042832   0.222145   5.172567   0.299133  -0.094546
     5  C    0.007101   0.001185  -0.057858   0.299133   4.364147   0.280457
     6  O   -0.000379  -0.000249   0.002093  -0.094546   0.280457   8.075958
     7  O   -0.001959   0.008238  -0.002845  -0.080938   0.569620  -0.084592
     8  C    0.001073  -0.004305  -0.047768   0.306088  -0.034599   0.001970
     9  C    0.000535   0.000356   0.002203  -0.041498  -0.001524  -0.001411
    10  C    0.000002  -0.000003   0.000008  -0.001514   0.000841  -0.002045
    11  N    0.000000   0.000000   0.000000   0.000014  -0.000006   0.000029
    12  C    0.000000   0.000000  -0.000001   0.000096  -0.000003  -0.000004
    13  N   -0.000001  -0.000003  -0.000039  -0.001594   0.000087   0.000030
    14  C   -0.081922   0.320147  -0.095126   0.005877  -0.000242  -0.000006
    15  C    0.003390  -0.030865   0.000657  -0.000163   0.000067   0.000000
    16  N   -0.033168  -0.003960  -0.000188   0.000009  -0.000002   0.000000
    17  H    0.003211  -0.024158   0.343432  -0.021772   0.001561  -0.000028
    18  H    0.000180   0.006048  -0.030956   0.379464  -0.032011   0.001259
    19  H    0.000008  -0.000049  -0.000214   0.010683  -0.010938   0.276490
    20  H   -0.000657   0.000200  -0.000326  -0.043062   0.003750   0.000180
    21  H    0.004530   0.002424  -0.000695  -0.042473  -0.006230   0.003071
    22  H    0.000000   0.000000  -0.000004   0.000012   0.000377   0.005962
    23  H    0.000000   0.000000   0.000000   0.000000   0.000000   0.000000
    24  H    0.000000  -0.000001  -0.000025   0.000248   0.000010   0.000000
    25  H    0.000675  -0.028748  -0.001581  -0.000146  -0.000008   0.000000
    26  H    0.002537  -0.025591   0.001891   0.000112  -0.000007   0.000000
    27  H    0.000035   0.003387  -0.000094   0.000002   0.000000   0.000000
    28  H    0.000819  -0.003357   0.000423  -0.000040   0.000031   0.000000
    29  H    0.001008  -0.000190   0.000012  -0.000001   0.000000   0.000000
    30  H    0.000710   0.000145   0.000009   0.000000   0.000000   0.000000
    31  H    0.078243   0.000640   0.001435  -0.000041  -0.000005   0.000001
               7          8          9         10         11         12
     1  O   -0.001959   0.001073   0.000535   0.000002   0.000000   0.000000
     2  C    0.008238  -0.004305   0.000356  -0.000003   0.000000   0.000000
     3  N   -0.002845  -0.047768   0.002203   0.000008   0.000000  -0.000001
     4  C   -0.080938   0.306088  -0.041498  -0.001514   0.000014   0.000096
     5  C    0.569620  -0.034599  -0.001524   0.000841  -0.000006  -0.000003
     6  O   -0.084592   0.001970  -0.001411  -0.002045   0.000029  -0.000004
     7  O    8.048317   0.002240  -0.000009  -0.000003   0.000000   0.000000
     8  C    0.002240   5.090560   0.319930  -0.059548   0.006884   0.006624
     9  C   -0.000009   0.319930   4.827425   0.568658  -0.046920  -0.094038
    10  C   -0.000003  -0.059548   0.568658   4.842298   0.420806  -0.114768
    11  N    0.000000   0.006884  -0.046920   0.420806   6.676128   0.534081
    12  C    0.000000   0.006624  -0.094038  -0.114768   0.534081   4.670703
    13  N    0.000000  -0.061484   0.341678  -0.073304  -0.084424   0.350785
    14  C   -0.000207  -0.000103   0.000010   0.000000   0.000000   0.000000
    15  C   -0.000014  -0.000013   0.000000   0.000000   0.000000   0.000000
    16  N    0.000000   0.000001   0.000000   0.000000   0.000000   0.000000
    17  H    0.001338   0.003700  -0.000044   0.000001   0.000000   0.000000
    18  H   -0.001128  -0.032896  -0.000411   0.000322  -0.000059  -0.000121
    19  H    0.007347  -0.000500   0.000155   0.000239  -0.000003   0.000000
    20  H   -0.000079   0.361497  -0.023403   0.003822  -0.000196   0.000039
    21  H    0.000084   0.389653  -0.025196  -0.003436   0.000058  -0.000014
    22  H    0.000016  -0.001063  -0.058416   0.395194  -0.041317   0.007149
    23  H    0.000000  -0.000144   0.003309   0.006823  -0.035733   0.393331
    24  H    0.000000  -0.003490  -0.032318   0.009388   0.005374  -0.023316
    25  H    0.000000   0.000039  -0.000001   0.000000   0.000000   0.000000
    26  H    0.000016  -0.000007   0.000000   0.000000   0.000000   0.000000
    27  H    0.000000   0.000000   0.000000   0.000000   0.000000   0.000000
    28  H    0.000124   0.000000   0.000000   0.000000   0.000000   0.000000
    29  H    0.000000   0.000000   0.000000   0.000000   0.000000   0.000000
    30  H    0.000000   0.000000   0.000000   0.000000   0.000000   0.000000
    31  H    0.000004   0.000000   0.000000   0.000000   0.000000   0.000000
              13         14         15         16         17         18
     1  O   -0.000001  -0.081922   0.003390  -0.033168   0.003211   0.000180
     2  C   -0.000003   0.320147  -0.030865  -0.003960  -0.024158   0.006048
     3  N   -0.000039  -0.095126   0.000657  -0.000188   0.343432  -0.030956
     4  C   -0.001594   0.005877  -0.000163   0.000009  -0.021772   0.379464
     5  C    0.000087  -0.000242   0.000067  -0.000002   0.001561  -0.032011
     6  O    0.000030  -0.000006   0.000000   0.000000  -0.000028   0.001259
     7  O    0.000000  -0.000207  -0.000014   0.000000   0.001338  -0.001128
     8  C   -0.061484  -0.000103  -0.000013   0.000001   0.003700  -0.032896
     9  C    0.341678   0.000010   0.000000   0.000000  -0.000044  -0.000411
    10  C   -0.073304   0.000000   0.000000   0.000000   0.000001   0.000322
    11  N   -0.084424   0.000000   0.000000   0.000000   0.000000  -0.000059
    12  C    0.350785   0.000000   0.000000   0.000000   0.000000  -0.000121
    13  N    6.773885   0.000000   0.000000   0.000000  -0.000005   0.002588
    14  C    0.000000   5.201162   0.325337  -0.039693  -0.001563  -0.000212
    15  C    0.000000   0.325337   4.973254   0.206524  -0.000058   0.000002
    16  N    0.000000  -0.039693   0.206524   6.532852   0.000018   0.000000
    17  H   -0.000005  -0.001563  -0.000058   0.000018   0.409534  -0.007423
    18  H    0.002588  -0.000212   0.000002   0.000000  -0.007423   0.542092
    19  H   -0.000001   0.000000   0.000000   0.000000   0.000003  -0.000268
    20  H   -0.006449  -0.000113   0.000005   0.000000   0.000355  -0.000548
    21  H    0.002534   0.000078   0.000002  -0.000001  -0.000192   0.004459
    22  H    0.004661   0.000000   0.000000   0.000000   0.000000   0.000052
    23  H   -0.056464   0.000000   0.000000   0.000000   0.000000   0.000004
    24  H    0.336437   0.000000   0.000000   0.000000   0.000002   0.000085
    25  H    0.000000   0.377729  -0.040848  -0.004287   0.000195   0.000006
    26  H    0.000000   0.375151  -0.027932   0.003265   0.002661  -0.000030
    27  H    0.000000  -0.032883   0.399797  -0.033753  -0.000009   0.000000
    28  H    0.000000  -0.033708   0.394690  -0.032762   0.000014   0.000001
    29  H    0.000000  -0.000951  -0.023505   0.331521  -0.000001   0.000000
    30  H    0.000000   0.003611  -0.021037   0.333578   0.000000   0.000000
    31  H    0.000000  -0.015553  -0.022564   0.267432  -0.000070   0.000000
              19         20         21         22         23         24
     1  O    0.000008  -0.000657   0.004530   0.000000   0.000000   0.000000
     2  C   -0.000049   0.000200   0.002424   0.000000   0.000000  -0.000001
     3  N   -0.000214  -0.000326  -0.000695  -0.000004   0.000000  -0.000025
     4  C    0.010683  -0.043062  -0.042473   0.000012   0.000000   0.000248
     5  C   -0.010938   0.003750  -0.006230   0.000377   0.000000   0.000010
     6  O    0.276490   0.000180   0.003071   0.005962   0.000000   0.000000
     7  O    0.007347  -0.000079   0.000084   0.000016   0.000000   0.000000
     8  C   -0.000500   0.361497   0.389653  -0.001063  -0.000144  -0.003490
     9  C    0.000155  -0.023403  -0.025196  -0.058416   0.003309  -0.032318
    10  C    0.000239   0.003822  -0.003436   0.395194   0.006823   0.009388
    11  N   -0.000003  -0.000196   0.000058  -0.041317  -0.035733   0.005374
    12  C    0.000000   0.000039  -0.000014   0.007149   0.393331  -0.023316
    13  N   -0.000001  -0.006449   0.002534   0.004661  -0.056464   0.336437
    14  C    0.000000  -0.000113   0.000078   0.000000   0.000000   0.000000
    15  C    0.000000   0.000005   0.000002   0.000000   0.000000   0.000000
    16  N    0.000000   0.000000  -0.000001   0.000000   0.000000   0.000000
    17  H    0.000003   0.000355  -0.000192   0.000000   0.000000   0.000002
    18  H   -0.000268  -0.000548   0.004459   0.000052   0.000004   0.000085
    19  H    0.377295   0.000010  -0.000191  -0.000031   0.000000   0.000000
    20  H    0.000010   0.622659  -0.028446  -0.000029  -0.000013   0.003570
    21  H   -0.000191  -0.028446   0.534124   0.001107   0.000004  -0.000078
    22  H   -0.000031  -0.000029   0.001107   0.587474  -0.000154  -0.000099
    23  H    0.000000  -0.000013   0.000004  -0.000154   0.560892   0.000307
    24  H    0.000000   0.003570  -0.000078  -0.000099   0.000307   0.446017
    25  H    0.000000   0.000000  -0.000004   0.000000   0.000000   0.000000
    26  H    0.000000   0.000000  -0.000004   0.000000   0.000000   0.000000
    27  H    0.000000   0.000000   0.000000   0.000000   0.000000   0.000000
    28  H    0.000000   0.000000   0.000000   0.000000   0.000000   0.000000
    29  H    0.000000   0.000000   0.000000   0.000000   0.000000   0.000000
    30  H    0.000000   0.000000   0.000000   0.000000   0.000000   0.000000
    31  H    0.000000   0.000001   0.000009   0.000000   0.000000   0.000000
              25         26         27         28         29         30
     1  O    0.000675   0.002537   0.000035   0.000819   0.001008   0.000710
     2  C   -0.028748  -0.025591   0.003387  -0.003357  -0.000190   0.000145
     3  N   -0.001581   0.001891  -0.000094   0.000423   0.000012   0.000009
     4  C   -0.000146   0.000112   0.000002  -0.000040  -0.000001   0.000000
     5  C   -0.000008  -0.000007   0.000000   0.000031   0.000000   0.000000
     6  O    0.000000   0.000000   0.000000   0.000000   0.000000   0.000000
     7  O    0.000000   0.000016   0.000000   0.000124   0.000000   0.000000
     8  C    0.000039  -0.000007   0.000000   0.000000   0.000000   0.000000
     9  C   -0.000001   0.000000   0.000000   0.000000   0.000000   0.000000
    10  C    0.000000   0.000000   0.000000   0.000000   0.000000   0.000000
    11  N    0.000000   0.000000   0.000000   0.000000   0.000000   0.000000
    12  C    0.000000   0.000000   0.000000   0.000000   0.000000   0.000000
    13  N    0.000000   0.000000   0.000000   0.000000   0.000000   0.000000
    14  C    0.377729   0.375151  -0.032883  -0.033708  -0.000951   0.003611
    15  C   -0.040848  -0.027932   0.399797   0.394690  -0.023505  -0.021037
    16  N   -0.004287   0.003265  -0.033753  -0.032762   0.331521   0.333578
    17  H    0.000195   0.002661  -0.000009   0.000014  -0.000001   0.000000
    18  H    0.000006  -0.000030   0.000000   0.000001   0.000000   0.000000
    19  H    0.000000   0.000000   0.000000   0.000000   0.000000   0.000000
    20  H    0.000000   0.000000   0.000000   0.000000   0.000000   0.000000
    21  H   -0.000004  -0.000004   0.000000   0.000000   0.000000   0.000000
    22  H    0.000000   0.000000   0.000000   0.000000   0.000000   0.000000
    23  H    0.000000   0.000000   0.000000   0.000000   0.000000   0.000000
    24  H    0.000000   0.000000   0.000000   0.000000   0.000000   0.000000
    25  H    0.537355  -0.018059  -0.003563   0.004426   0.003919   0.000029
    26  H   -0.018059   0.521392  -0.003139  -0.001316  -0.000035  -0.000085
    27  H   -0.003563  -0.003139   0.505926  -0.025703  -0.004602  -0.001384
    28  H    0.004426  -0.001316  -0.025703   0.487583   0.003838  -0.003051
    29  H    0.003919  -0.000035  -0.004602   0.003838   0.355601  -0.014280
    30  H    0.000029  -0.000085  -0.001384  -0.003051  -0.014280   0.343649
    31  H    0.000679   0.000286   0.003213  -0.000765  -0.010334  -0.008201
              31
     1  O    0.078243
     2  C    0.000640
     3  N    0.001435
     4  C   -0.000041
     5  C   -0.000005
     6  O    0.000001
     7  O    0.000004
     8  C    0.000000
     9  C    0.000000
    10  C    0.000000
    11  N    0.000000
    12  C    0.000000
    13  N    0.000000
    14  C   -0.015553
    15  C   -0.022564
    16  N    0.267432
    17  H   -0.000070
    18  H    0.000000
    19  H    0.000000
    20  H    0.000001
    21  H    0.000009
    22  H    0.000000
    23  H    0.000000
    24  H    0.000000
    25  H    0.000679
    26  H    0.000286
    27  H    0.003213
    28  H   -0.000765
    29  H   -0.010334
    30  H   -0.008201
    31  H    0.335684
 Mulliken charges:
               1
     1  O   -0.541794
     2  C    0.642842
     3  N   -0.508128
     4  C   -0.028378
     5  C    0.615067
     6  O   -0.464240
     7  O   -0.465567
     8  C   -0.244338
     9  C    0.260929
    10  C    0.006218
    11  N   -0.434715
    12  C    0.269457
    13  N   -0.528916
    14  C   -0.306819
    15  C   -0.136722
    16  N   -0.527387
    17  H    0.289299
    18  H    0.169504
    19  H    0.339965
    20  H    0.107233
    21  H    0.164825
    22  H    0.099109
    23  H    0.127838
    24  H    0.257890
    25  H    0.172194
    26  H    0.168895
    27  H    0.192771
    28  H    0.208754
    29  H    0.357999
    30  H    0.366309
    31  H    0.369908
 Sum of Mulliken charges =   1.00000
 Mulliken charges with hydrogens summed into heavy atoms:
               1
     1  O   -0.541794
     2  C    0.642842
     3  N   -0.218829
     4  C    0.141126
     5  C    0.615067
     6  O   -0.124275
     7  O   -0.465567
     8  C    0.027720
     9  C    0.260929
    10  C    0.105327
    11  N   -0.434715
    12  C    0.397295
    13  N   -0.271026
    14  C    0.034270
    15  C    0.264803
    16  N    0.566829
 APT charges:
               1
     1  O   -0.538881
     2  C    0.404202
     3  N   -0.787874
     4  C   -0.489146
     5  C   -0.202750
     6  O   -0.761961
     7  O    0.117711
     8  C   -0.650991
     9  C   -0.659637
    10  C   -0.169818
    11  N    0.293319
    12  C   -0.527478
    13  N   -0.680798
    14  C   -0.703888
    15  C   -1.029126
    16  N   -1.190472
    17  H    0.697848
    18  H    0.504710
    19  H    0.928605
    20  H    0.284344
    21  H    0.302429
    22  H    0.396544
    23  H    1.090819
    24  H    0.383827
    25  H    0.417584
    26  H    0.432135
    27  H    0.904813
    28  H    0.340672
    29  H    0.779080
    30  H    1.122111
    31  H   -0.007933
 Sum of APT charges =   1.00000
 APT charges with hydrogens summed into heavy atoms:
               1
     1  O   -0.538881
     2  C    0.404202
     3  N   -0.090026
     4  C    0.015564
     5  C   -0.202750
     6  O    0.166644
     7  O    0.117711
     8  C   -0.064219
     9  C   -0.659637
    10  C    0.226726
    11  N    0.293319
    12  C    0.563341
    13  N   -0.296971
    14  C    0.145831
    15  C    0.216360
    16  N    0.702786
 Electronic spatial extent (au):  <R**2>=           4945.5222
 Charge=              1.0000 electrons
 Dipole moment (field-independent basis, Debye):
    X=            -16.9192    Y=             -5.1945    Z=             -2.2926  Tot=             17.8466
 Quadrupole moment (field-independent basis, Debye-Ang):
   XX=            -21.9063   YY=            -76.6844   ZZ=            -86.0367
   XY=            -10.4664   XZ=              7.3962   YZ=              4.2785
 Traceless Quadrupole moment (field-independent basis, Debye-Ang):
   XX=             39.6362   YY=            -15.1419   ZZ=            -24.4943
   XY=            -10.4664   XZ=              7.3962   YZ=              4.2785
 Octapole moment (field-independent basis, Debye-Ang**2):
  XXX=           -567.6306  YYY=            -50.2978  ZZZ=            -86.5631  XYY=            -73.2214
  XXY=            -97.4385  XXZ=            -95.5890  XZZ=            -53.4354  YZZ=            -13.0256
  YYZ=              0.1572  XYZ=             18.5630
 Hexadecapole moment (field-independent basis, Debye-Ang**3):
 XXXX=          -3602.2825 YYYY=           -577.1891 ZZZZ=           -726.1005 XXXY=           -875.7365
 XXXZ=            114.7791 YYYX=           -401.1995 YYYZ=            -35.5357 ZZZX=            138.8291
 ZZZY=            -47.0526 XXYY=           -924.1240 XXZZ=           -828.3492 YYZZ=           -163.6629
 XXYZ=              2.7544 YYXZ=             37.8086 ZZXY=           -127.2747
 N-N= 1.139568460620D+03 E-N=-4.121127463743D+03  KE= 7.895041081146D+02
  Exact polarizability:   0.000   0.000   0.000   0.000   0.000   0.000
 Approx polarizability: 204.954   6.242 186.121  -2.963  10.324 140.060
 Calling FoFJK, ICntrl=    100147 FMM=F ISym2X=0 I1Cent= 0 IOpClX= 0 NMat=1 NMatS=1 NMatT=0.
 -------------------------------------------------------------------
 Center     Atomic                   Forces (Hartrees/Bohr)
 Number     Number              X              Y              Z
 -------------------------------------------------------------------
      1        8          -0.017010695    0.016225724   -0.008672185
      2        6           0.017091684   -0.014557138    0.011565446
      3        7          -0.009618178    0.002499552   -0.001439710
      4        6           0.004468596   -0.004216392   -0.004844317
      5        6           0.009327563    0.013820531    0.000082862
      6        8          -0.003039382   -0.009245254   -0.005222074
      7        8          -0.012547329   -0.004521056    0.008065858
      8        6           0.010107660   -0.000769576   -0.001014680
      9        6          -0.006649178   -0.001792755   -0.001582938
     10        6           0.011412322    0.006864312    0.001312885
     11        7          -0.003762158    0.004482431    0.003343155
     12        6           0.000897521    0.001799279    0.000566306
     13        7          -0.002901069   -0.006503215   -0.001140319
     14        6           0.004591495    0.000658654   -0.004846900
     15        6           0.003067374   -0.018010115    0.018288588
     16        7          -0.005060150    0.003809835   -0.003665622
     17        1          -0.001052833   -0.003907603    0.001064094
     18        1           0.002215591    0.002388317   -0.001947787
     19        1          -0.000019496    0.004890434    0.005644896
     20        1          -0.002829358   -0.002703748   -0.001817272
     21        1          -0.001362807    0.002914511   -0.000504764
     22        1          -0.000186274    0.000903843    0.000111963
     23        1           0.003613427   -0.001510076   -0.001228473
     24        1           0.000591874   -0.003532879   -0.002512167
     25        1           0.000743594   -0.004198070   -0.002297949
     26        1          -0.006054226   -0.001940871    0.000073382
     27        1          -0.002767575    0.002525511   -0.002207875
     28        1          -0.001773677    0.005232146   -0.001632182
     29        1          -0.003253821   -0.000120521   -0.004292022
     30        1          -0.004431352    0.001619599   -0.000209823
     31        1           0.016190856    0.006894591    0.000959624
 -------------------------------------------------------------------
 Cartesian Forces:  Max     0.018288588 RMS     0.006478839
 FormGI is forming the generalized inverse of G from B-inverse, IUseBI=4.

 GradGradGradGradGradGradGradGradGradGradGradGradGradGradGradGradGradGrad
 Berny optimization.
 Internal  Forces:  Max     0.024194967 RMS     0.005325386
 Search for a local minimum.
 Step number   1 out of a maximum of  167
 All quantities printed in internal units (Hartrees-Bohrs-Radians)
 Mixed Optimization -- RFO/linear search
 Second derivative matrix not updated -- analytic derivatives used.
 ITU=  0
     Eigenvalues ---    0.00013   0.00025   0.00263   0.00321   0.00383
     Eigenvalues ---    0.00416   0.00519   0.00872   0.00958   0.01089
     Eigenvalues ---    0.01954   0.02074   0.02174   0.02612   0.03402
     Eigenvalues ---    0.03901   0.04016   0.04089   0.04248   0.04504
     Eigenvalues ---    0.04766   0.04879   0.04989   0.05047   0.05201
     Eigenvalues ---    0.05545   0.06061   0.06131   0.06503   0.07782
     Eigenvalues ---    0.08129   0.08340   0.10326   0.11041   0.11058
     Eigenvalues ---    0.11599   0.11917   0.12360   0.13003   0.13359
     Eigenvalues ---    0.15061   0.15229   0.16045   0.16169   0.17928
     Eigenvalues ---    0.19328   0.20687   0.22329   0.22557   0.23221
     Eigenvalues ---    0.23691   0.24270   0.24799   0.25757   0.26143
     Eigenvalues ---    0.26783   0.29831   0.32326   0.32635   0.33214
     Eigenvalues ---    0.33927   0.34248   0.34404   0.34470   0.34653
     Eigenvalues ---    0.34956   0.35343   0.36116   0.36591   0.38146
     Eigenvalues ---    0.38501   0.40168   0.40917   0.41972   0.42224
     Eigenvalues ---    0.44634   0.44829   0.45381   0.46399   0.48553
     Eigenvalues ---    0.48952   0.49481   0.53100   0.53504   0.59546
     Eigenvalues ---    0.83286   0.94299
 RFO step:  Lambda=-1.60253049D-02 EMin= 1.28911626D-04
 Linear search not attempted -- first point.
 Iteration  1 RMS(Cart)=  0.11997442 RMS(Int)=  0.00471343
 Iteration  2 RMS(Cart)=  0.01349261 RMS(Int)=  0.00035733
 Iteration  3 RMS(Cart)=  0.00012260 RMS(Int)=  0.00034657
 Iteration  4 RMS(Cart)=  0.00000013 RMS(Int)=  0.00034657
 Variable       Old X    -DE/DX   Delta X   Delta X   Delta X     New X
                                 (Linear)    (Quad)   (Total)
    R1        2.32128   0.01903   0.00000   0.04003   0.04003   2.36131
    R2        2.55822  -0.00301   0.00000  -0.03505  -0.03505   2.52317
    R3        2.87086   0.00127   0.00000   0.01454   0.01454   2.88540
    R4        2.75867   0.00886   0.00000   0.02425   0.02425   2.78292
    R5        1.89994   0.00395   0.00000   0.00892   0.00892   1.90886
    R6        2.87395   0.01076   0.00000   0.03671   0.03671   2.91066
    R7        2.92004   0.00727   0.00000   0.01862   0.01862   2.93865
    R8        2.07246  -0.00082   0.00000  -0.00356  -0.00356   2.06890
    R9        2.55065  -0.00533   0.00000  -0.02446  -0.02446   2.52619
   R10        2.27144   0.01489   0.00000   0.01566   0.01566   2.28710
   R11        1.82583   0.00711   0.00000   0.01328   0.01328   1.83911
   R12        2.83272   0.00304   0.00000  -0.00051  -0.00051   2.83221
   R13        2.06080   0.00359   0.00000   0.00994   0.00994   2.07074
   R14        2.05006   0.00323   0.00000   0.01113   0.01113   2.06118
   R15        2.58006   0.01104   0.00000   0.02031   0.02030   2.60036
   R16        2.61071   0.00649   0.00000   0.01348   0.01350   2.62421
   R17        2.61467  -0.00451   0.00000  -0.01743  -0.01746   2.59721
   R18        2.03643   0.00088   0.00000   0.00375   0.00375   2.04018
   R19        2.47691   0.00444   0.00000   0.00654   0.00653   2.48343
   R20        2.56952   0.00646   0.00000   0.01244   0.01246   2.58198
   R21        2.03305   0.00406   0.00000   0.00981   0.00981   2.04286
   R22        1.89885   0.00402   0.00000   0.00774   0.00774   1.90658
   R23        2.87720   0.00066   0.00000   0.01901   0.01901   2.89622
   R24        2.06630   0.00359   0.00000   0.00760   0.00760   2.07390
   R25        2.06173   0.00058   0.00000   0.00301   0.00301   2.06474
   R26        2.80158   0.01300   0.00000   0.04851   0.04851   2.85009
   R27        2.06203   0.00039   0.00000  -0.00080  -0.00080   2.06122
   R28        2.06380   0.00039   0.00000   0.00032   0.00032   2.06412
   R29        1.92624   0.00462   0.00000   0.00696   0.00696   1.93320
   R30        1.92612   0.00421   0.00000   0.00584   0.00584   1.93196
   R31        1.94467   0.01721   0.00000   0.07287   0.07287   2.01753
    A1        2.11895   0.01383   0.00000   0.02240   0.02232   2.14127
    A2        2.13999  -0.02358   0.00000  -0.06865  -0.06875   2.07124
    A3        2.02357   0.00979   0.00000   0.04710   0.04701   2.07059
    A4        2.11613   0.00392   0.00000   0.01366   0.01366   2.12979
    A5        2.07459  -0.00335   0.00000  -0.02237  -0.02237   2.05222
    A6        2.03718  -0.00064   0.00000   0.00625   0.00625   2.04342
    A7        1.90859  -0.00955   0.00000  -0.03763  -0.03783   1.87076
    A8        1.95659   0.00513   0.00000   0.01900   0.01920   1.97579
    A9        1.82713   0.00161   0.00000   0.00922   0.00932   1.83644
   A10        1.99515   0.00669   0.00000   0.02900   0.02917   2.02433
   A11        1.84635   0.00100   0.00000   0.00587   0.00603   1.85238
   A12        1.91935  -0.00558   0.00000  -0.02808  -0.02809   1.89126
   A13        1.97376   0.00085   0.00000  -0.00503  -0.00505   1.96871
   A14        2.16308  -0.00450   0.00000  -0.01790  -0.01792   2.14516
   A15        2.14561   0.00368   0.00000   0.02336   0.02334   2.16895
   A16        1.84913   0.00303   0.00000   0.02577   0.02577   1.87489
   A17        1.98684   0.00305   0.00000   0.00582   0.00584   1.99267
   A18        1.88427  -0.00283   0.00000  -0.01923  -0.01930   1.86498
   A19        1.91055  -0.00038   0.00000  -0.00217  -0.00220   1.90835
   A20        1.88168   0.00063   0.00000   0.02056   0.02061   1.90230
   A21        1.93242  -0.00108   0.00000  -0.00327  -0.00326   1.92916
   A22        1.86314   0.00042   0.00000  -0.00231  -0.00242   1.86073
   A23        2.34010   0.00029   0.00000  -0.00956  -0.00957   2.33052
   A24        2.12142   0.00039   0.00000   0.01153   0.01151   2.13293
   A25        1.82164  -0.00068   0.00000  -0.00194  -0.00192   1.81972
   A26        1.93902   0.00078   0.00000   0.00343   0.00341   1.94243
   A27        2.22948  -0.00029   0.00000  -0.00662  -0.00661   2.22288
   A28        2.11468  -0.00049   0.00000   0.00319   0.00320   2.11787
   A29        1.83483   0.00132   0.00000   0.00323   0.00319   1.83802
   A30        1.94505   0.00173   0.00000   0.00410   0.00412   1.94917
   A31        2.20445  -0.00138   0.00000  -0.00500  -0.00501   2.19944
   A32        2.13368  -0.00035   0.00000   0.00090   0.00089   2.13456
   A33        1.88423  -0.00315   0.00000  -0.00879  -0.00879   1.87544
   A34        2.19009   0.00308   0.00000   0.01777   0.01769   2.20778
   A35        2.20881   0.00006   0.00000  -0.00915  -0.00921   2.19960
   A36        1.96132  -0.02419   0.00000  -0.06760  -0.06734   1.89397
   A37        1.87369   0.00466   0.00000   0.01330   0.01297   1.88667
   A38        1.90851   0.01463   0.00000   0.06159   0.06079   1.96930
   A39        1.90848   0.00765   0.00000   0.01939   0.01951   1.92799
   A40        1.93110   0.00214   0.00000  -0.01607  -0.01511   1.91600
   A41        1.87803  -0.00407   0.00000  -0.00751  -0.00817   1.86986
   A42        1.93121  -0.01380   0.00000  -0.04402  -0.04426   1.88695
   A43        1.91940   0.00640   0.00000   0.04661   0.04627   1.96567
   A44        1.91221   0.00675   0.00000   0.01733   0.01492   1.92714
   A45        1.91804   0.00425   0.00000   0.00478   0.00564   1.92367
   A46        1.90657  -0.00195   0.00000  -0.04500  -0.04524   1.86134
   A47        1.87551  -0.00128   0.00000   0.02174   0.02081   1.89632
   A48        1.94084   0.00279   0.00000   0.01715   0.01717   1.95801
   A49        1.96567   0.00099   0.00000   0.00561   0.00553   1.97120
   A50        1.86565  -0.00537   0.00000  -0.07412  -0.07412   1.79152
   A51        1.90701  -0.00232   0.00000  -0.01367  -0.01372   1.89329
   A52        1.87448   0.00162   0.00000   0.02357   0.02368   1.89816
   A53        1.90740   0.00234   0.00000   0.04252   0.04241   1.94981
    D1        0.12546   0.00003   0.00000   0.02593   0.02549   0.15096
    D2        2.90451  -0.00038   0.00000   0.01925   0.01885   2.92335
    D3       -3.05463   0.00067   0.00000   0.04856   0.04896  -3.00566
    D4       -0.27558   0.00026   0.00000   0.04188   0.04232  -0.23327
    D5       -0.71088   0.00095   0.00000   0.01878   0.01789  -0.69299
    D6        1.38816  -0.00109   0.00000   0.01085   0.01023   1.39839
    D7       -2.86243   0.00432   0.00000   0.04152   0.04215  -2.82028
    D8        2.46972  -0.00063   0.00000  -0.00640  -0.00670   2.46302
    D9       -1.71443  -0.00266   0.00000  -0.01433  -0.01436  -1.72879
   D10        0.31817   0.00274   0.00000   0.01635   0.01756   0.33573
   D11        1.10035   0.00087   0.00000  -0.03007  -0.03018   1.07017
   D12       -1.13116  -0.00435   0.00000  -0.05318  -0.05306  -1.18422
   D13        3.07198  -0.00133   0.00000  -0.03512  -0.03516   3.03681
   D14       -1.68609   0.00183   0.00000  -0.01781  -0.01790  -1.70398
   D15        2.36559  -0.00338   0.00000  -0.04092  -0.04077   2.32482
   D16        0.28554  -0.00037   0.00000  -0.02285  -0.02288   0.26266
   D17       -2.63587  -0.00226   0.00000  -0.04693  -0.04681  -2.68268
   D18        0.54568  -0.00325   0.00000  -0.05909  -0.05890   0.48678
   D19       -0.42613   0.00193   0.00000  -0.02999  -0.03024  -0.45637
   D20        2.75543   0.00095   0.00000  -0.04216  -0.04233   2.71310
   D21        1.68826  -0.00032   0.00000  -0.04355  -0.04354   1.64472
   D22       -1.41337  -0.00130   0.00000  -0.05572  -0.05563  -1.46899
   D23       -2.61548  -0.00129   0.00000  -0.00810  -0.00789  -2.62337
   D24       -0.52708  -0.00055   0.00000   0.00810   0.00823  -0.51885
   D25        1.49477  -0.00181   0.00000  -0.00637  -0.00615   1.48862
   D26        1.48307   0.00200   0.00000   0.00376   0.00358   1.48665
   D27       -2.71172   0.00274   0.00000   0.01996   0.01970  -2.69202
   D28       -0.68987   0.00149   0.00000   0.00549   0.00532  -0.68455
   D29       -0.59049   0.00027   0.00000  -0.00291  -0.00287  -0.59335
   D30        1.49791   0.00101   0.00000   0.01329   0.01325   1.51116
   D31       -2.76343  -0.00024   0.00000  -0.00118  -0.00113  -2.76455
   D32       -3.12596   0.00102   0.00000   0.03196   0.03184  -3.09412
   D33       -0.02387   0.00177   0.00000   0.04291   0.04303   0.01915
   D34       -1.46860  -0.00113   0.00000  -0.01761  -0.01758  -1.48618
   D35        1.68311  -0.00106   0.00000  -0.02146  -0.02142   1.66169
   D36        2.72473   0.00009   0.00000  -0.01127  -0.01131   2.71342
   D37       -0.40675   0.00016   0.00000  -0.01513  -0.01514  -0.42190
   D38        0.69256  -0.00019   0.00000  -0.01868  -0.01869   0.67386
   D39       -2.43892  -0.00012   0.00000  -0.02253  -0.02252  -2.46145
   D40       -3.12921  -0.00025   0.00000  -0.00624  -0.00617  -3.13538
   D41        0.01195  -0.00008   0.00000  -0.00461  -0.00459   0.00736
   D42        0.00349  -0.00031   0.00000  -0.00279  -0.00276   0.00073
   D43       -3.13854  -0.00014   0.00000  -0.00115  -0.00117  -3.13972
   D44        3.13352   0.00003   0.00000   0.00192   0.00191   3.13543
   D45        0.00203   0.00039   0.00000   0.01926   0.01941   0.02144
   D46       -0.00057   0.00008   0.00000  -0.00087  -0.00089  -0.00146
   D47       -3.13206   0.00044   0.00000   0.01647   0.01661  -3.11546
   D48       -0.00511   0.00042   0.00000   0.00546   0.00543   0.00032
   D49        3.13689   0.00027   0.00000   0.00395   0.00396   3.14084
   D50        0.00469  -0.00036   0.00000  -0.00598  -0.00599  -0.00130
   D51       -3.13878  -0.00040   0.00000  -0.00927  -0.00921   3.13519
   D52       -0.00270   0.00020   0.00000   0.00451   0.00449   0.00179
   D53        3.12866  -0.00015   0.00000  -0.01288  -0.01271   3.11595
   D54        3.14069   0.00023   0.00000   0.00764   0.00758  -3.13491
   D55       -0.01114  -0.00011   0.00000  -0.00974  -0.00962  -0.02076
   D56        1.07230  -0.00681   0.00000  -0.07678  -0.07707   0.99524
   D57       -3.08864  -0.00630   0.00000  -0.06872  -0.06959   3.12495
   D58       -1.03091   0.00000   0.00000  -0.00413  -0.00402  -1.03492
   D59       -1.00649  -0.00247   0.00000  -0.06370  -0.06365  -1.07014
   D60        1.11575  -0.00196   0.00000  -0.05565  -0.05618   1.05957
   D61       -3.10970   0.00434   0.00000   0.00895   0.00939  -3.10030
   D62       -3.07203  -0.00349   0.00000  -0.05679  -0.05637  -3.12841
   D63       -0.94979  -0.00298   0.00000  -0.04874  -0.04890  -0.99869
   D64        1.10794   0.00332   0.00000   0.01585   0.01667   1.12462
   D65        1.22721   0.00135   0.00000   0.03827   0.03768   1.26489
   D66       -2.90875   0.00113   0.00000   0.03734   0.03678  -2.87197
   D67       -0.81374   0.00107   0.00000   0.04446   0.04398  -0.76976
   D68       -0.89584  -0.00044   0.00000   0.00554   0.00540  -0.89044
   D69        1.25139  -0.00066   0.00000   0.00462   0.00450   1.25589
   D70       -2.93679  -0.00072   0.00000   0.01173   0.01170  -2.92509
   D71       -2.94941  -0.00022   0.00000   0.00300   0.00360  -2.94581
   D72       -0.80218  -0.00044   0.00000   0.00208   0.00270  -0.79948
   D73        1.29282  -0.00050   0.00000   0.00920   0.00990   1.30272
         Item               Value     Threshold  Converged?
 Maximum Force            0.024195     0.000450     NO 
 RMS     Force            0.005325     0.000300     NO 
 Maximum Displacement     0.590014     0.001800     NO 
 RMS     Displacement     0.129646     0.001200     NO 
 Predicted change in Energy=-8.973326D-03
 GradGradGradGradGradGradGradGradGradGradGradGradGradGradGradGradGradGrad

                          Input orientation:                          
 ---------------------------------------------------------------------
 Center     Atomic      Atomic             Coordinates (Angstroms)
 Number     Number       Type             X           Y           Z
 ---------------------------------------------------------------------
      1          8           0       -1.642005    0.465640   -0.386301
      2          6           0       -1.503222   -0.698401    0.046280
      3          7           0       -0.347264   -1.152375    0.536627
      4          6           0        0.801597   -0.263248    0.778082
      5          6           0        0.357578    0.781627    1.818981
      6          8           0        1.039384    1.927711    1.725868
      7          8           0       -0.497729    0.562764    2.646826
      8          6           0        1.425544    0.300605   -0.529969
      9          6           0        2.893714    0.586713   -0.435902
     10          6           0        3.622325    1.666640    0.007271
     11          7           0        4.972540    1.443944   -0.120222
     12          6           0        5.078449    0.240180   -0.636746
     13          7           0        3.853922   -0.327884   -0.848115
     14          6           0       -2.698888   -1.646606   -0.005428
     15          6           0       -3.961240   -0.858567    0.361124
     16          7           0       -4.084640    0.300770   -0.595634
     17          1           0       -0.364205   -2.028544    1.039017
     18          1           0        1.549836   -0.889015    1.275247
     19          1           0        0.729081    2.510316    2.441013
     20          1           0        1.257674   -0.449367   -1.311064
     21          1           0        0.880207    1.194950   -0.834020
     22          1           0        3.241553    2.592123    0.412323
     23          1           0        6.000850   -0.267542   -0.881760
     24          1           0        3.682933   -1.235602   -1.253988
     25          1           0       -2.776374   -2.042216   -1.026167
     26          1           0       -2.590136   -2.502993    0.664333
     27          1           0       -4.862808   -1.471650    0.328743
     28          1           0       -3.865932   -0.430065    1.361318
     29          1           0       -4.361382   -0.000065   -1.533425
     30          1           0       -4.744803    1.012870   -0.275798
     31          1           0       -3.086470    0.677366   -0.636514
 ---------------------------------------------------------------------
                    Distance matrix (angstroms):
                    1          2          3          4          5
     1  O    0.000000
     2  C    1.249551   0.000000
     3  N    2.268507   1.335205   0.000000
     4  C    2.803258   2.457047   1.472660   0.000000
     5  C    2.993567   2.965725   2.425200   1.540255   0.000000
     6  O    3.713322   4.022726   3.581064   2.398988   1.336802
     7  O    3.243249   3.060129   2.723469   2.421311   1.210281
     8  C    3.075343   3.147657   2.528167   1.555069   2.624785
     9  C    4.537606   4.606198   3.804494   2.563815   3.399188
    10  C    5.413915   5.645013   4.897418   3.503588   3.837202
    11  N    6.691792   6.822965   5.955891   4.595457   5.049460
    12  C    6.728898   6.683252   5.723144   4.532841   5.348868
    13  N    5.572089   5.443916   4.499696   3.459102   4.535289
    14  C    2.392416   1.526887   2.463376   3.844601   4.308917
    15  C    2.773269   2.483271   3.630144   4.817974   4.844354
    16  N    2.457126   2.841499   4.166728   5.106909   5.078867
    17  H    3.144083   2.012999   1.010126   2.131537   3.004392
    18  H    3.844956   3.296643   2.052780   1.094815   2.123245
    19  H    4.218584   4.584079   4.266205   3.234695   1.874381
    20  H    3.178138   3.086575   2.546371   2.146434   3.481767
    21  H    2.663438   3.168665   2.982498   2.175177   2.735396
    22  H    5.385988   5.785709   5.188095   3.773634   3.684277
    23  H    7.693911   7.573506   6.564548   5.457777   6.343601
    24  H    5.657037   5.373591   4.410863   3.657442   4.956848
    25  H    2.825874   2.139368   3.022369   4.384280   5.088281
    26  H    3.288703   2.195433   2.621250   4.066109   4.561902
    27  H    3.825957   3.458976   4.531588   5.809270   5.877966
    28  H    2.966869   2.717301   3.685495   4.706784   4.417656
    29  H    2.987941   3.339494   4.661124   5.662922   5.841083
    30  H    3.152623   3.679678   4.968568   5.788065   5.520495
    31  H    1.481186   2.205814   3.496778   4.242982   4.231051
                    6          7          8          9         10
     6  O    0.000000
     7  O    2.252546   0.000000
     8  C    2.808094   3.722866   0.000000
     9  C    3.148026   4.583195   1.498742   0.000000
    10  C    3.113409   5.016039   2.642068   1.376053   0.000000
    11  N    4.371704   6.193293   3.749173   2.270687   1.374383
    12  C    4.974309   6.479172   3.654965   2.221146   2.137719
    13  N    4.431109   5.651968   2.528485   1.388671   2.182533
    14  C    5.454155   4.094004   4.591047   6.037402   7.136911
    15  C    5.884906   4.386402   5.581682   7.050850   8.000772
    16  N    5.855932   4.842326   5.510575   6.986036   7.850249
    17  H    4.253678   3.052500   3.330143   4.430461   5.532749
    18  H    2.897855   2.860317   2.165514   2.629032   3.526237
    19  H    0.973216   2.310927   3.767574   4.081976   3.873726
    20  H    3.862785   4.446431   1.095787   2.125088   3.436142
    21  H    2.667453   3.796664   1.090730   2.140715   2.906798
    22  H    2.648847   4.805574   3.071947   2.205028   1.079617
    23  H    6.019551   7.441227   4.623848   3.253127   3.191993
    24  H    5.086692   5.994031   2.824879   2.147781   3.165037
    25  H    6.155812   5.046684   4.836438   6.277704   7.467727
    26  H    5.825067   4.208005   5.041052   6.389789   7.510809
    27  H    6.952948   5.344741   6.589510   8.061338   9.052607
    28  H    5.454735   3.739389   5.666618   7.068002   7.893263
    29  H    6.596029   5.720061   5.880973   7.361066   8.300075
    30  H    6.188734   5.175130   6.216519   7.652071   8.397403
    31  H    4.915983   4.182707   4.528970   5.984235   6.811832
                   11         12         13         14         15
    11  N    0.000000
    12  C    1.314176   0.000000
    13  N    2.218222   1.366324   0.000000
    14  C    8.271366   8.027796   6.737097   0.000000
    15  C    9.238273   9.160730   7.925948   1.532611   0.000000
    16  N    9.141410   9.163382   7.967416   2.461895   1.508203
    17  H    6.471696   6.130072   4.924034   2.586017   3.842791
    18  H    4.370919   4.169162   3.183135   4.501747   5.586458
    19  H    5.069913   5.791642   5.351484   5.917435   6.137949
    20  H    4.336239   3.940623   2.639998   4.335026   5.495518
    21  H    4.161574   4.309958   3.340989   4.644452   5.393043
    22  H    2.144350   3.163284   3.238849   7.309595   7.986871
    23  H    2.136948   1.081035   2.148039   8.851848  10.056704
    24  H    3.182527   2.122826   1.008921   6.515786   7.822028
    25  H    8.545157   8.188970   6.850654   1.097461   2.174743
    26  H    8.566674   8.247727   6.967387   1.092613   2.162405
    27  H   10.268219  10.133663   8.869869   2.196549   1.090753
[...]
 057,0.00000908,0.00000538,0.00000395,-0.06168529,-0.08748381,-0.253323
 89,-0.00211338,-0.00332124,-0.00969953,-0.00004501,0.00059087,0.001549
 83,0.00024494,-0.00025824,-0.00006991,0.00001775,-0.00000077,0.0000038
 0,0.00001132,0.00000772,0.00000003,0.00000018,0.00000202,0.00001488,-0
 .00002607,-0.00002076,0.00001181,-0.00000019,-0.00000052,-0.00000105,0
 .00000048,0.00000035,-0.00000062,-0.00000196,-0.00000226,-0.00000198,0
 .06660252,0.09806707,0.27239652,-0.00549108,-0.00719005,0.00092764,0.0
 0999981,-0.01938205,0.01971580,0.00011915,0.00102988,-0.00023573,0.000
 22998,-0.00014900,-0.00015720,0.00003432,-0.00003681,0.00001637,0.0000
 0777,0.00000668,0.00001927,-0.00002052,0.00009615,-0.00011234,0.000080
 06,-0.00003703,0.00011718,0.00003401,0.00004155,-0.00005376,0.00000473
 ,-0.00000055,0.00000219,-0.00000404,0.00000402,0.00000003,-0.00001327,
 0.00000145,0.00000031,-0.00001914,0.00000053,-0.00002192,-0.05320511,0
 .01934390,-0.01609601,-0.00110202,0.01533527,-0.01684533,-0.00270061,0
 .00570396,0.00201608,-0.00210113,-0.00051221,-0.00015935,0.00001601,0.
 00005077,0.00000483,-0.00000174,-0.00001017,0.00000820,0.00000612,0.00
 000495,-0.00000849,0.00008614,0.00009154,-0.00004532,0.00000145,0.0000
 0443,-0.00000031,-0.00000235,-0.00000112,0.00000311,-0.00000472,-0.000
 00577,0.00000851,-0.00102352,0.00678684,-0.00515097,0.05721797,-0.0036
 8207,-0.00108230,0.00083215,0.00544682,-0.01218016,0.00913579,0.001260
 87,0.00110490,-0.00039929,-0.00012384,-0.00018565,-0.00056920,-0.00026
 965,-0.00006180,0.00005306,0.00012206,0.00003674,0.00005012,0.00015708
 ,0.00017681,-0.00017583,0.00007449,-0.00001539,0.00014945,0.00001481,0
 .00008007,-0.00007069,0.00000100,-0.00003004,-0.00001121,0.00002391,-0
 .00000306,0.00000780,0.00000727,0.00002157,0.00000253,-0.00003305,0.00
 000473,-0.00001601,0.01719227,-0.20155730,0.13331453,0.00127847,-0.014
 38202,0.01287797,0.00268732,-0.00199868,-0.00205506,-0.00091369,0.0011
 1921,-0.00007085,-0.00000271,0.00000517,0.00001257,-0.00001568,-0.0000
 3007,-0.00000024,0.00001035,0.00000090,-0.00000435,0.00006254,0.000063
 44,-0.00003933,0.00000004,0.00000116,0.00000283,-0.00000120,-0.0000006
 7,0.00000194,-0.00000650,0.00000360,0.00000991,-0.00126693,0.01120701,
 -0.00836816,-0.02120292,0.21668902,0.00064825,0.00046849,0.00206003,-0
 .00258353,0.00013081,-0.00345968,-0.00011475,-0.00084301,-0.00002892,0
 .00016728,-0.00003004,0.00029722,-0.00023640,0.00001762,0.00004448,0.0
 0008402,0.00001610,0.00000781,0.00015625,-0.00000644,-0.00002029,-0.00
 005380,-0.00001464,-0.00004406,-0.00000785,-0.00003086,0.00002326,-0.0
 0000710,0.00000084,0.00000003,0.00000669,-0.00000586,-0.00000337,0.000
 00826,-0.00000002,0.00000112,0.00001309,0.00000363,0.00000051,-0.01501
 599,0.13586737,-0.16459895,0.00000524,-0.00805373,0.00700033,0.0019786
 5,-0.00332510,0.00060060,0.00026622,-0.00003953,0.00092984,0.00001874,
 0.00002042,0.00001721,-0.00001426,-0.00001408,-0.00000913,0.00000149,0
 .00000906,-0.00001870,-0.00002245,-0.00002998,0.00002285,-0.00000106,-
 0.00000438,0.00000184,0.00000123,0.00000083,0.00000060,-0.00000039,0.0
 0000893,0.00000370,-0.00239433,0.02166997,-0.01694669,0.01669443,-0.14
 513008,0.17314907,0.00108746,-0.00109519,0.00015962,-0.00035957,0.0050
 9084,0.00079742,-0.00113301,-0.00094162,0.00009726,0.00022861,0.000183
 46,-0.00021894,-0.00003240,0.00011674,0.00015405,-0.00008112,-0.000123
 23,-0.00012161,-0.00006222,-0.00005915,-0.00007624,0.00005071,0.000031
 62,-0.00006271,0.00000384,-0.00001075,0.00002040,0.00000746,0.00003150
 ,0.00000690,-0.00004328,-0.00000487,-0.00000718,-0.00001251,-0.0000095
 1,-0.00000175,0.00000740,-0.00002591,0.00000915,-0.01807527,-0.0088336
 6,0.00154161,-0.27238716,-0.11589100,0.02270108,0.00995295,0.00586416,
 -0.00290682,0.00001774,-0.00007189,0.00010943,-0.00007022,-0.00005979,
 -0.00003527,-0.00000024,0.00001093,0.00001659,0.00000301,-0.00000443,-
 0.00000043,0.00001350,0.00000384,0.00000337,0.00000234,0.00000399,-0.0
 0000194,-0.00000123,-0.00000052,-0.00000069,0.00001599,-0.00000704,-0.
 00000692,0.00113706,-0.00035593,0.00009880,0.00028749,0.00006927,-0.00
 030382,0.28534301,-0.00136023,0.00236636,-0.00072900,0.00142898,-0.005
 97359,-0.00102482,0.00137265,0.00138576,0.00007015,-0.00020205,-0.0002
 7259,0.00028568,0.00024380,-0.00018680,-0.00022652,-0.00003460,0.00010
 521,0.00010843,-0.00017187,0.00012393,0.00011594,-0.00003996,-0.000018
 43,0.00007011,-0.00000227,0.00000974,-0.00002347,-0.00000264,-0.000032
 50,-0.00000523,0.00003965,0.00000733,0.00000717,0.00001045,0.00000981,
 0.00000122,-0.00001029,0.00002776,-0.00001026,0.02090722,0.01212466,-0
 .00304022,-0.10819586,-0.10641113,0.01030261,-0.02325724,-0.01675984,0
 .00777231,-0.00001987,0.00006041,-0.00014407,0.00009696,0.00008270,0.0
 0004879,0.00001261,0.00000068,0.00000327,-0.00000988,0.00000418,0.0000
 0848,-0.00000806,-0.00000546,-0.00000931,-0.00000126,-0.00000133,0.000
 00105,0.00000100,0.00000091,0.00000086,-0.00001521,0.00000530,0.000007
 83,-0.00079072,0.00083209,0.00017269,-0.00054732,0.00066231,0.00042282
 ,0.11769405,0.11864021,0.00000280,-0.00060908,0.00019577,0.00139380,-0
 .00216293,0.00001444,0.00081361,0.00040484,0.00034137,-0.00010876,-0.0
 0016692,0.00007703,0.00051374,-0.00014378,-0.00019466,-0.00026356,-0.0
 0003241,-0.00001697,-0.00056002,0.00005567,0.00012831,0.00001942,0.000
 04737,-0.00000649,-0.00000190,-0.00000642,-0.00000382,0.00000195,0.000
 00514,0.00000381,-0.00000068,0.00000017,0.00000228,0.00000071,0.000000
 59,-0.00000116,0.00000116,-0.00000065,0.00000182,0.01082601,0.00423338
 ,-0.00127972,0.01574272,0.00637119,-0.05404018,0.02185408,0.01719132,-
 0.00809395,0.00001176,-0.00002651,-0.00003138,0.00003640,0.00004625,0.
 00002596,0.00002998,0.00003227,0.00002797,-0.00001105,-0.00000073,0.00
 001542,0.00000110,-0.00000485,-0.00000982,0.00000033,0.00000189,-0.000
 00343,0.00000034,0.00000041,-0.00000017,0.00000105,-0.00000096,-0.0000
 0035,-0.00024136,0.00089654,0.00028511,-0.00050374,0.00008007,0.000464
 08,-0.02317883,-0.01677563,0.05666269,-0.00044828,-0.00048366,-0.00038
 712,0.00205585,0.00103530,0.00198567,-0.00024143,0.00006143,-0.0005107
 2,0.00018670,0.00014641,0.00003693,-0.00160202,0.00055645,0.00064690,0
 .00100506,0.00018699,0.00017257,0.00138272,-0.00042330,-0.00083909,-0.
 00009815,-0.00013120,0.00007918,0.00000133,0.00002111,-0.00001574,-0.0
 0001844,-0.00004268,-0.00002161,0.00004709,-0.00000264,-0.00000081,0.0
 0001533,0.00001109,0.00000620,-0.00000908,0.00002511,-0.00002051,0.005
 56517,0.01029783,0.02272492,-0.07518436,-0.03393197,-0.06862249,-0.001
 59625,0.00008851,-0.00325900,-0.00001999,0.00016208,0.00011313,0.00000
 276,-0.00004653,-0.00003378,-0.00010011,-0.00013620,-0.00012239,0.0000
 3812,0.00000595,-0.00005464,0.00000583,0.00001109,0.00001412,-0.000004
 18,-0.00001115,0.00001274,0.00000046,-0.00000067,0.00000288,-0.0000175
 6,0.00001397,0.00001781,-0.00360657,0.00330112,0.00173499,0.00081133,-
 0.00062184,-0.00056832,-0.00542067,-0.01045500,-0.02471979,0.07571968,
 -0.00048671,0.00096378,-0.00033150,-0.00147162,-0.00069681,0.00072832,
 0.00040575,0.00017980,0.00012621,0.00004011,-0.00008739,-0.00003478,-0
 .00002129,0.00000664,0.00005746,0.00006300,0.00005667,-0.00001908,-0.0
 0004998,-0.00040701,-0.00000057,0.00000909,-0.00000651,0.00000128,-0.0
 0000116,0.00000510,-0.00000114,-0.00000243,-0.00000553,-0.00000186,0.0
 0001116,0.00000133,0.00000045,0.00000178,0.00000124,0.00000060,-0.0000
 0054,0.00000452,0.00000050,-0.00399226,-0.00831444,-0.01836184,-0.0368
 7144,-0.09843985,-0.10545092,0.01094501,0.00569078,0.03325357,0.000012
 03,-0.00004855,-0.00015036,0.00002617,0.00000630,-0.00000660,-0.000017
 19,0.00000251,-0.00001616,-0.00000343,0.00000351,0.00000537,-0.0000042
 5,-0.00000211,0.00000575,-0.00000096,-0.00000147,0.00000221,0.00000043
 ,-0.00000015,-0.00000019,-0.00000446,0.00000073,-0.00000240,0.00371221
 ,-0.00167659,-0.00069137,-0.00033379,0.00035863,0.00014591,-0.00256558
 ,-0.00424365,-0.01272136,0.02924632,0.10877890,0.00043937,0.00042796,0
 .00019055,-0.00027071,-0.00068596,-0.00011674,0.00010686,-0.00001228,0
 .00006344,0.00005783,-0.00001810,-0.00007205,0.00036131,-0.00005359,-0
 .00012050,-0.00024079,-0.00010813,-0.00003753,-0.00059624,0.00006884,-
 0.00018062,0.00003418,0.00002582,-0.00001973,0.00000434,-0.00000358,0.
 00000352,0.00000654,0.00001346,0.00000555,-0.00002094,-0.00000083,-0.0
 0000237,-0.00000709,-0.00000305,-0.00000147,0.00000106,-0.00001090,0.0
 0000309,-0.00044070,-0.00487498,-0.00663620,-0.06556308,-0.09317832,-0
 .25728222,-0.00748973,-0.00366355,-0.02182266,-0.00000331,-0.00003007,
 0.00001775,-0.00001123,0.00000537,0.00000447,0.00001361,0.00002429,0.0
 0003952,-0.00000455,-0.00000093,0.00000656,0.00000885,0.00000252,-0.00
 000850,0.00000202,0.00000387,-0.00000274,-0.00000076,0.00000008,-0.000
 00010,0.00000744,-0.00000413,-0.00000272,0.00091571,-0.00088121,0.0008
 9788,0.00009886,-0.00005337,0.00044397,0.00114699,0.00144888,0.0062139
 8,0.07208546,0.09899598,0.27930431,-0.00206719,0.00191359,0.00243571,-
 0.00083411,-0.00040162,0.00011289,0.00025250,-0.00000221,-0.00019842,-
 0.00010136,-0.00004534,-0.00003001,-0.00014286,-0.00007680,-0.00010387
 ,0.00010142,0.00007913,0.00008440,0.00010172,0.00003962,0.00005689,-0.
 00000956,-0.00001300,0.00003670,-0.00000841,0.00000832,-0.00000672,-0.
 00001536,-0.00002228,-0.00000333,0.00005062,0.00000485,0.00000829,0.00
 001017,0.00000329,0.00000064,0.00000312,0.00002368,-0.00000327,-0.0006
 3832,-0.00026637,-0.00046351,0.00057282,0.00105812,0.00241665,-0.16685
 011,-0.04941958,-0.16412399,-0.00002531,0.00001087,-0.00009242,0.00001
 561,0.00000837,0.00001167,-0.00001535,-0.00001495,-0.00002508,-0.00000
 895,0.00001426,0.00000433,-0.00002620,-0.00001652,-0.00000933,-0.00000
 432,-0.00000867,-0.00000137,0.00000130,-0.00000060,0.00000039,-0.00001
 759,0.00000707,0.00000048,0.00006259,0.00059639,0.00013114,0.00013688,
 0.00009851,0.00023518,0.00078715,-0.00030713,0.00106931,0.00063884,-0.
 00076400,0.00094976,0.16529993,-0.00017779,0.00001065,0.00039440,0.000
 33494,0.00022682,0.00009423,-0.00024313,-0.00010991,-0.00005223,0.0000
 6539,0.00007488,0.00004122,-0.00003196,0.00007688,0.00008648,0.0000040
 5,-0.00004400,-0.00002912,0.00005218,-0.00000500,-0.00007766,-0.000012
 05,0.00000261,-0.00001881,-0.00000441,0.00000329,0.00000513,-0.0000055
 3,0.00002242,0.00000183,-0.00001589,-0.00001422,-0.00000118,-0.0000004
 3,0.00000262,-0.00000067,0.00000533,-0.00002504,0.00000416,-0.00023684
 ,0.00085385,0.00097558,0.01607792,0.01112792,0.02276870,-0.04406879,-0
 .08464237,-0.07474913,0.00001686,-0.00001721,0.00002105,-0.00001659,-0
 .00001449,-0.00000476,-0.00000255,0.00000641,0.00000016,0.00000838,-0.
 00000599,-0.00000906,0.00000633,0.00001388,-0.00000683,0.00000089,-0.0
 0000064,-0.00000257,0.00000015,-0.00000055,-0.00000021,0.00000712,0.00
 000262,-0.00000089,0.00027456,-0.00060911,-0.00080889,-0.00022023,-0.0
 0023844,-0.00042571,-0.00035311,0.00112410,-0.00005487,0.00066189,-0.0
 0460047,0.00328795,0.05088665,0.08455411,0.00275497,-0.00205014,-0.000
 80230,-0.00047479,0.00097884,-0.00090892,0.00064865,-0.00035292,0.0003
 7730,-0.00022676,-0.00008066,-0.00002098,-0.00022753,-0.00004217,-0.00
 007825,0.00014514,0.00011359,0.00009059,0.00019147,-0.00003015,0.00006
 999,-0.00003272,0.00000539,0.00006878,0.00000076,0.00000107,-0.0000226
 3,-0.00000905,-0.00003378,-0.00001508,0.00004652,0.00000439,0.00000079
 ,0.00001572,0.00000867,0.00000401,-0.00000235,0.00002952,-0.00001561,0
 .00017180,0.00022462,0.00122807,-0.01038253,-0.00474227,-0.01760727,-0
 .15291741,-0.07701079,-0.28041898,0.00003468,0.00009051,0.00007784,0.0
 0002308,0.00001228,0.00000978,-0.00001954,-0.00001907,-0.00001588,0.00
 000600,-0.00001006,0.00000373,-0.00001977,-0.00001740,0.00002784,-0.00
 000425,-0.00000432,0.00001003,0.00000121,0.00000064,0.00000299,-0.0000
 1666,0.00000638,0.00001746,-0.00036459,0.00012274,0.00007501,0.0001683
 9,-0.00021019,-0.00006393,0.00079832,-0.00088259,0.00119004,-0.0000238
 6,0.00423431,-0.00098614,0.16948608,0.07789987,0.29584777,-0.00467007,
 -0.00032805,-0.00109754,0.00012588,-0.00087386,0.00068132,-0.00003428,
 -0.00000370,-0.00012880,0.00011856,0.00003372,-0.00001248,-0.00066725,
 0.00017184,0.00017841,0.00029924,0.00005819,0.00005296,0.00054626,-0.0
 0031295,-0.00003069,-0.00008288,-0.00005733,0.00001594,-0.00000985,0.0
 0003225,-0.00000469,-0.00002845,0.00000591,-0.00001265,0.00003441,-0.0
 0001364,0.00000026,0.00000890,0.00000418,0.00000267,0.00000508,-0.0000
 0952,-0.00000380,0.00031957,0.00040285,-0.00039563,-0.00155713,-0.0002
 9526,-0.00064201,-0.11733008,0.12429118,0.06501302,0.00004877,0.000141
 90,-0.00002153,-0.00000045,-0.00002140,-0.00001204,-0.00005944,-0.0000
 1660,-0.00006358,0.00002115,-0.00000492,-0.00001831,-0.00000747,0.0000
 3736,0.00000434,-0.00000766,-0.00001322,0.00000777,0.00000070,-0.00000
 275,0.00000118,-0.00001001,0.00000960,0.00000531,0.00012807,0.00005955
 ,-0.00006784,-0.00013356,-0.00002963,0.00018764,0.00009098,-0.00103979
 ,0.00004099,0.00049781,0.00053562,-0.00046636,0.01093590,-0.02085611,-
 0.00985889,0.11262831,-0.00381058,0.00132880,-0.00097425,0.00055237,-0
 .00158288,0.00125488,-0.00063094,0.00048678,-0.00035469,0.00029946,0.0
 0009768,0.00001232,0.00009322,0.00019911,0.00020391,-0.00012639,-0.000
 16804,-0.00012043,-0.00011056,-0.00019900,-0.00010875,0.00000626,-0.00
 000927,-0.00005211,-0.00000232,0.00002150,0.00000758,-0.00000806,0.000
 06276,0.00000259,-0.00004881,-0.00002951,-0.00000927,-0.00001089,0.000
 00103,-0.00000119,0.00000719,-0.00006507,0.00000926,-0.00089537,-0.002
 62153,0.00416508,0.00991057,-0.01706738,-0.01036215,0.11522808,-0.2871
 4283,-0.12957442,-0.00009793,-0.00003758,-0.00006947,-0.00002203,-0.00
 001748,-0.00001535,-0.00000993,0.00005445,0.00000102,0.00001571,-0.000
 01765,-0.00001293,0.00002874,0.00005571,-0.00000566,0.00000095,0.00000
 201,0.00000139,-0.00000085,-0.00000225,-0.00000003,0.00002010,-0.00000
 126,-0.00000533,-0.00035877,0.00020532,0.00007969,0.00107370,-0.000281
 96,-0.00055533,-0.00022545,-0.00033621,-0.00033185,0.00018129,0.002189
 51,-0.00044143,0.00407016,-0.00539684,-0.00220431,-0.12851977,0.301111
 42,0.00070234,-0.00014912,0.00049550,0.00086307,0.00077634,-0.00016686
 ,-0.00025793,-0.00015014,-0.00010266,0.00015911,0.00008195,-0.00000156
 ,-0.00040287,0.00017293,0.00023759,0.00015417,-0.00001635,-0.00004371,
 0.00034710,-0.00022540,-0.00017105,-0.00001472,-0.00003964,-0.00000368
 ,0.00000588,-0.00000009,0.00000221,0.00000201,0.00000059,-0.00000675,-
 0.00001241,-0.00000491,-0.00001169,-0.00000151,0.00000135,0.00000267,-
 0.00000117,-0.00000655,-0.00000686,0.00000726,0.00384995,-0.00419885,-
 0.01165587,0.01834867,0.01391270,0.05947958,-0.12876508,-0.12871686,0.
 00008166,-0.00002416,0.00006305,-0.00001582,-0.00002261,-0.00001748,-0
 .00004456,-0.00000681,0.00000041,0.00001384,-0.00000259,-0.00002163,0.
 00001092,0.00000252,0.00001808,0.00000069,0.00000063,0.00001058,-0.000
 00079,0.00000012,0.00000237,0.00000373,0.00000132,0.00000733,0.0001880
 8,-0.00010718,0.00009518,-0.00114920,0.00096670,0.00061804,0.00018532,
 0.00038995,-0.00017349,-0.00076243,0.00044620,0.00044008,0.01586477,-0
 .02353175,-0.01086815,-0.06449417,0.13528308,0.13291067,0.01501547,-0.
 04031320,0.01256209,0.00333144,0.04594499,-0.02669058,0.00869789,-0.01
 405637,0.00874073,-0.00440635,-0.00075509,-0.00075234,-0.00043405,-0.0
 0190938,-0.00297610,0.00083621,0.00155138,0.00141218,0.00000322,0.0009
 9910,0.00237636,-0.00014560,0.00061133,0.00048072,-0.00011736,-0.00024
 970,-0.00008649,-0.00012612,-0.00050207,-0.00008606,0.00074573,0.00011
 865,0.00012018,0.00025307,0.00008471,0.00002260,0.00006652,0.00052051,
 -0.00005159,-0.00158026,-0.00161068,-0.00065623,0.00982585,-0.01630113
 ,0.01085892,-0.18057199,-0.03157346,0.03729954,0.00213471,0.00076949,0
 .00156545,0.00019784,0.00009772,0.00019033,0.00000317,-0.00017857,-0.0
 0022164,-0.00015170,0.00007686,0.00019068,-0.00052856,-0.00073184,0.00
 026991,-0.00004946,-0.00008026,0.00001526,0.00003068,0.00001680,0.0000
 0295,-0.00024740,0.00010256,0.00006783,-0.00029275,-0.00093434,0.00037
 285,-0.00325040,-0.00033737,0.00085138,-0.00135780,0.00466389,-0.00277
 158,0.00039303,0.00158239,-0.00112470,-0.00820556,-0.00215721,0.000087
 92,-0.00121103,0.00339086,0.00074391,0.16114154,-0.01469046,-0.0078163
 6,-0.00155605,0.01129947,-0.01275286,0.00621752,-0.00232503,0.00118870
 ,-0.00052609,0.00100402,0.00017276,0.00014989,-0.00021274,0.00061804,0
 .00080206,-0.00009584,-0.00036417,-0.00030587,0.00019005,-0.00057820,-
 0.00045002,-0.00018121,-0.00018580,-0.00013775,-0.00000614,0.00013974,
 0.00002015,-0.00001676,0.00016740,0.00000980,-0.00014833,-0.00006752,-
 0.00002277,-0.00004421,-0.00000825,-0.00000423,-0.00000912,-0.00017946
 ,0.00002072,0.00009913,-0.00111240,0.00043228,-0.02413943,-0.00982901,
 0.01086147,-0.04299848,-0.06930763,0.00578188,-0.00010472,0.00017415,0
 .00022497,-0.00006174,-0.00004573,-0.00005457,-0.00003406,0.00006857,-
 0.00001465,0.00006518,-0.00004498,-0.00004606,0.00013831,0.00032733,-0
 .00011934,-0.00000049,-0.00000219,-0.00000281,-0.00000581,-0.00000912,
 -0.00000128,0.00005706,-0.00001032,-0.00001591,0.00004679,-0.00049401,
 -0.00030154,0.00005341,0.00051230,-0.00027401,0.00153825,-0.00333190,0
 .00367186,0.00027290,0.00028060,-0.00028062,-0.00746380,-0.00237877,0.
 00395797,0.02661436,0.00916066,-0.00726993,0.05115946,0.09570844,0.000
 43713,0.00324179,-0.01565301,-0.00741143,-0.00075101,0.00048040,0.0001
 1816,0.00262597,-0.00020628,0.00050070,-0.00002345,0.00011074,-0.00090
 811,0.00033141,0.00062361,0.00041180,0.00005408,-0.00004746,0.00093308
 ,-0.00044148,-0.00027176,-0.00012118,-0.00012436,0.00002475,0.00002447
 ,0.00005673,-0.00001286,0.00000519,0.00000340,-0.00002049,-0.00003692,
 -0.00001177,-0.00001837,-0.00001187,0.00000743,0.00000500,-0.00002765,
 -0.00002807,-0.00001787,0.00042919,0.00026088,0.00078378,0.01835490,0.
 01143799,-0.00866050,0.04753280,0.00445019,-0.07877568,-0.00069255,0.0
 0051814,0.00042296,0.00000755,-0.00002132,-0.00003553,-0.00006217,-0.0
 0004218,-0.00002584,0.00004024,-0.00002025,-0.00003856,0.00009380,0.00
 008918,0.00000288,0.00000124,0.00000597,0.00002180,-0.00000339,-0.0000
 0164,0.00000309,0.00001026,-0.00000418,0.00001968,-0.00025007,-0.00031
 348,-0.00004042,0.00073847,-0.00032355,-0.00049287,-0.00092317,0.00163
 289,-0.00179448,0.00032878,-0.00021398,-0.00034237,-0.02784397,-0.0058
 0641,0.01272210,0.01113920,0.00417815,-0.00430519,-0.04281448,-0.02076
 706,0.09553875\\0.00000015,-0.00000243,-0.00000451,0.00000334,0.000004
 54,-0.00000386,-0.00000867,-0.00000253,0.00000376,0.00000033,-0.000001
 65,0.00000543,-0.00000226,0.00000161,-0.00000537,0.00000547,-0.0000042
 0,-0.00000644,0.00000296,-0.00000262,-0.00000400,0.00000576,0.00000672
 ,0.00001054,0.00000098,-0.00000170,0.00000106,0.00000047,0.00000393,-0
 .00000060,-0.00000087,0.00000156,0.00000065,-0.00000158,-0.00000315,0.
 00000101,0.00000238,-0.00000278,-0.00000090,0.00000383,-0.00000233,-0.
 00000375,-0.00000170,-0.00000962,0.00000760,0.00003420,0.00001262,-0.0
 0001247,-0.00000087,-0.00000124,0.00000032,-0.00000030,-0.00000075,0.0
 0000023,0.00000124,0.00000293,0.00000162,-0.00000086,0.00000116,-0.000
 00134,-0.00000231,0.00000340,-0.00000019,-0.00000161,-0.00000004,0.000
 00065,0.00000104,-0.00000084,0.00000026,0.00000039,-0.00000137,0.00000
 047,-0.00000008,-0.00000048,-0.00000026,-0.00000315,-0.00000007,0.0000
 0077,-0.00000089,0.00000185,-0.00000201,-0.00000123,0.00000251,-0.0000
 0131,-0.00000040,0.00000079,-0.00000173,0.00000244,0.00000292,-0.00000
 024,-0.00003820,-0.00000873,0.00001462\\\@


 THERE IS SOMETHING FASCINATING ABOUT SCIENCE.
 ONE GETS SUCH WHOLESALE CONJECTURE OUT OF SUCH TRIFLING INVESTMENTS.

                                                       -- MARK TWAIN
 Job cpu time:       0 days  1 hours 23 minutes  3.8 seconds.
 File lengths (MBytes):  RWF=    349 Int=      0 D2E=      0 Chk=     10 Scr=      1
 Normal termination of Gaussian 09 at Wed Jul 28 23:08:17 2021.
