 Entering Gaussian System, Link 0=g09
 Input=opt_freq-conf-342.com
 Output=opt_freq-conf-342.log
 Initial command:
 /aerosol/software/g09/l1.exe "/scratch/nicole/10677/Gau-83220.inp" -scrdir="/scratch/nicole/10677/"
 Entering Link 1 = /aerosol/software/g09/l1.exe PID=     83225.
  
 Copyright (c) 1988,1990,1992,1993,1995,1998,2003,2009,2013,
            Gaussian, Inc.  All Rights Reserved.
  
 This is part of the Gaussian(R) 09 program.  It is based on
 the Gaussian(R) 03 system (copyright 2003, Gaussian, Inc.),
 the Gaussian(R) 98 system (copyright 1998, Gaussian, Inc.),
 the Gaussian(R) 94 system (copyright 1995, Gaussian, Inc.),
 the Gaussian 92(TM) system (copyright 1992, Gaussian, Inc.),
 the Gaussian 90(TM) system (copyright 1990, Gaussian, Inc.),
 the Gaussian 88(TM) system (copyright 1988, Gaussian, Inc.),
 the Gaussian 86(TM) system (copyright 1986, Carnegie Mellon
 University), and the Gaussian 82(TM) system (copyright 1983,
 Carnegie Mellon University). Gaussian is a federally registered
 trademark of Gaussian, Inc.
  
 This software contains proprietary and confidential information,
 including trade secrets, belonging to Gaussian, Inc.
  
 This software is provided under written license and may be
 used, copied, transmitted, or stored only in accord with that
 written license.
  
 The following legend is applicable only to US Government
 contracts under FAR:
  
                    RESTRICTED RIGHTS LEGEND
  
 Use, reproduction and disclosure by the US Government is
 subject to restrictions as set forth in subparagraphs (a)
 and (c) of the Commercial Computer Software - Restricted
 Rights clause in FAR 52.227-19.
  
 Gaussian, Inc.
 340 Quinnipiac St., Bldg. 40, Wallingford CT 06492
  
  
 ---------------------------------------------------------------
 Warning -- This program may not be used in any manner that
 competes with the business of Gaussian, Inc. or will provide
 assistance to any competitor of Gaussian, Inc.  The licensee
 of this program is prohibited from giving any competitor of
 Gaussian, Inc. access to this program.  By using this program,
 the user acknowledges that Gaussian, Inc. is engaged in the
 business of creating and licensing software in the field of
 computational chemistry and represents and warrants to the
 licensee that it is not a competitor of Gaussian, Inc. and that
 it will not use this program in any manner prohibited above.
 ---------------------------------------------------------------
  

 Cite this work as:
 Gaussian 09, Revision D.01,
 M. J. Frisch, G. W. Trucks, H. B. Schlegel, G. E. Scuseria, 
 M. A. Robb, J. R. Cheeseman, G. Scalmani, V. Barone, B. Mennucci, 
 G. A. Petersson, H. Nakatsuji, M. Caricato, X. Li, H. P. Hratchian, 
 A. F. Izmaylov, J. Bloino, G. Zheng, J. L. Sonnenberg, M. Hada, 
 M. Ehara, K. Toyota, R. Fukuda, J. Hasegawa, M. Ishida, T. Nakajima, 
 Y. Honda, O. Kitao, H. Nakai, T. Vreven, J. A. Montgomery, Jr., 
 J. E. Peralta, F. Ogliaro, M. Bearpark, J. J. Heyd, E. Brothers, 
 K. N. Kudin, V. N. Staroverov, T. Keith, R. Kobayashi, J. Normand, 
 K. Raghavachari, A. Rendell, J. C. Burant, S. S. Iyengar, J. Tomasi, 
 M. Cossi, N. Rega, J. M. Millam, M. Klene, J. E. Knox, J. B. Cross, 
 V. Bakken, C. Adamo, J. Jaramillo, R. Gomperts, R. E. Stratmann, 
 O. Yazyev, A. J. Austin, R. Cammi, C. Pomelli, J. W. Ochterski, 
 R. L. Martin, K. Morokuma, V. G. Zakrzewski, G. A. Voth, 
 P. Salvador, J. J. Dannenberg, S. Dapprich, A. D. Daniels, 
 O. Farkas, J. B. Foresman, J. V. Ortiz, J. Cioslowski, 
 and D. J. Fox, Gaussian, Inc., Wallingford CT, 2013.
 
 ******************************************
 Gaussian 09:  ES64L-G09RevD.01 24-Apr-2013
                28-Jul-2021 
 ******************************************
 %mem=2gb
 %nproc=4
 Will use up to    4 processors via shared memory.
 %chk=conf-342.chk
 ----------------------------------------------------------------------
 # B3LYP/6-31G(d,p) opt=calcfc freq=noraman nosymm integral(ultrafinegr
 id)
 ----------------------------------------------------------------------
 1/10=4,14=-1,18=20,19=15,26=4,38=1/1,3;
 2/9=110,12=2,15=1,17=6,18=5,40=1/2;
 3/5=1,6=6,7=101,11=2,16=1,25=1,30=1,71=2,74=-5,75=-5,140=1/1,2,3;
 4//1;
 5/5=2,38=5/2;
 8/6=4,10=90,11=11/1;
 11/6=1,8=1,9=11,15=111,16=1,31=1/1,2,10;
 10/6=1,13=1,31=1/2;
 6/7=2,8=2,9=2,10=2,28=1/1;
 7/10=1,18=20,25=1,30=1/1,2,3,16;
 1/10=4,14=-1,18=20,19=15,26=4/3(2);
 2/9=110,15=1/2;
 99//99;
 2/9=110,15=1/2;
 3/5=1,6=6,7=101,11=2,16=1,25=1,30=1,71=1,74=-5,75=-5/1,2,3;
 4/5=5,16=3,69=1/1;
 5/5=2,38=5/2;
 7/30=1/1,2,3,16;
 1/14=-1,18=20,19=15,26=4/3(-5);
 2/9=110,15=1/2;
 6/7=2,8=2,9=2,10=2,19=2,28=1/1;
 99/9=1/99;
 ------------------------------------------------------------
 Candidate Structure: Conf:342 OPT and FREQ calc in gas phase
 ------------------------------------------------------------
 Symbolic Z-matrix:
 Charge =  1 Multiplicity = 1
 O                     0.48802  -1.04421  -0.1281 
 C                     1.12385  -0.01749  -0.37361 
 N                     0.49047   1.13594  -0.6784 
 C                    -0.95233   1.1798   -0.7779 
 C                    -1.31346   2.46054  -1.51699 
 O                    -2.62801   2.61896  -1.77297 
 O                    -0.51      3.28466  -1.8519 
 C                    -1.63884   1.09438   0.62074 
 C                    -2.6427   -0.01018   0.70235 
 C                    -3.98987  -0.02168   0.90501 
 N                    -4.47679  -1.31734   0.86655 
 C                    -3.42519  -2.06674   0.63906 
 N                    -2.29364  -1.32744   0.53059 
 C                     2.63954   0.02136  -0.38261 
 C                     3.23439  -0.9979    0.57318 
 N                     4.72017  -1.02743   0.50222 
 H                     0.98137   1.94095  -1.03734 
 H                    -1.27896   0.34084  -1.40351 
 H                    -3.11555   1.84612  -1.4643 
 H                    -2.13152   2.03418   0.87054 
 H                    -0.86367   0.94257   1.36936 
 H                    -4.64492   0.82058   1.07669 
 H                    -3.41306  -3.13835   0.54534 
 H                    -1.35254  -1.64532   0.35214 
 H                     2.98248   1.02797  -0.1359 
 H                     2.97543  -0.20079  -1.39969 
 H                     2.83034  -1.97896   0.32785 
 H                     2.92493  -0.76764   1.59206 
 H                     5.03857  -1.26512  -0.43712 
 H                     5.12401  -0.12292   0.74615 
 H                     5.11721  -1.71841   1.14051 
 

 GradGradGradGradGradGradGradGradGradGradGradGradGradGradGradGradGradGrad
 Berny optimization.
 Initialization pass.
                           ----------------------------
                           !    Initial Parameters    !
                           ! (Angstroms and Degrees)  !
 --------------------------                            --------------------------
 ! Name  Definition              Value          Derivative Info.                !
 --------------------------------------------------------------------------------
 ! R1    R(1,2)                  1.2324         calculate D2E/DX2 analytically  !
 ! R2    R(2,3)                  1.3507         calculate D2E/DX2 analytically  !
 ! R3    R(2,14)                 1.5162         calculate D2E/DX2 analytically  !
 ! R4    R(3,4)                  1.4469         calculate D2E/DX2 analytically  !
 ! R5    R(3,17)                 1.0089         calculate D2E/DX2 analytically  !
 ! R6    R(4,5)                  1.5222         calculate D2E/DX2 analytically  !
 ! R7    R(4,8)                  1.5604         calculate D2E/DX2 analytically  !
 ! R8    R(4,18)                 1.0963         calculate D2E/DX2 analytically  !
 ! R9    R(5,6)                  1.3486         calculate D2E/DX2 analytically  !
 ! R10   R(5,7)                  1.1987         calculate D2E/DX2 analytically  !
 ! R11   R(6,19)                 0.9645         calculate D2E/DX2 analytically  !
 ! R12   R(8,9)                  1.4948         calculate D2E/DX2 analytically  !
 ! R13   R(8,20)                 1.0901         calculate D2E/DX2 analytically  !
 ! R14   R(8,21)                 1.0883         calculate D2E/DX2 analytically  !
 ! R15   R(9,10)                 1.3624         calculate D2E/DX2 analytically  !
 ! R16   R(9,13)                 1.3735         calculate D2E/DX2 analytically  !
 ! R17   R(10,11)                1.3847         calculate D2E/DX2 analytically  !
 ! R18   R(10,22)                1.0807         calculate D2E/DX2 analytically  !
 ! R19   R(11,12)                1.3112         calculate D2E/DX2 analytically  !
 ! R20   R(12,13)                1.356          calculate D2E/DX2 analytically  !
 ! R21   R(12,23)                1.0758         calculate D2E/DX2 analytically  !
 ! R22   R(13,24)                1.0092         calculate D2E/DX2 analytically  !
 ! R23   R(14,15)                1.5186         calculate D2E/DX2 analytically  !
 ! R24   R(14,25)                1.0917         calculate D2E/DX2 analytically  !
 ! R25   R(14,26)                1.0939         calculate D2E/DX2 analytically  !
 ! R26   R(15,16)                1.4878         calculate D2E/DX2 analytically  !
 ! R27   R(15,27)                1.089          calculate D2E/DX2 analytically  !
 ! R28   R(15,28)                1.0895         calculate D2E/DX2 analytically  !
 ! R29   R(16,29)                1.0199         calculate D2E/DX2 analytically  !
 ! R30   R(16,30)                1.0202         calculate D2E/DX2 analytically  !
 ! R31   R(16,31)                1.021          calculate D2E/DX2 analytically  !
 ! A1    A(1,2,3)              120.9619         calculate D2E/DX2 analytically  !
 ! A2    A(1,2,14)             122.5677         calculate D2E/DX2 analytically  !
 ! A3    A(3,2,14)             116.457          calculate D2E/DX2 analytically  !
 ! A4    A(2,3,4)              120.5963         calculate D2E/DX2 analytically  !
 ! A5    A(2,3,17)             122.2413         calculate D2E/DX2 analytically  !
 ! A6    A(4,3,17)             115.884          calculate D2E/DX2 analytically  !
 ! A7    A(3,4,5)              107.1857         calculate D2E/DX2 analytically  !
 ! A8    A(3,4,8)              112.0505         calculate D2E/DX2 analytically  !
 ! A9    A(3,4,18)             108.2482         calculate D2E/DX2 analytically  !
 ! A10   A(5,4,8)              112.142          calculate D2E/DX2 analytically  !
 ! A11   A(5,4,18)             107.2244         calculate D2E/DX2 analytically  !
 ! A12   A(8,4,18)             109.7869         calculate D2E/DX2 analytically  !
 ! A13   A(4,5,6)              114.9777         calculate D2E/DX2 analytically  !
 ! A14   A(4,5,7)              123.7188         calculate D2E/DX2 analytically  !
 ! A15   A(6,5,7)              121.3027         calculate D2E/DX2 analytically  !
 ! A16   A(5,6,19)             109.7462         calculate D2E/DX2 analytically  !
 ! A17   A(4,8,9)              112.6345         calculate D2E/DX2 analytically  !
 ! A18   A(4,8,20)             110.9184         calculate D2E/DX2 analytically  !
 ! A19   A(4,8,21)             108.1098         calculate D2E/DX2 analytically  !
 ! A20   A(9,8,20)             108.7249         calculate D2E/DX2 analytically  !
 ! A21   A(9,8,21)             109.7374         calculate D2E/DX2 analytically  !
 ! A22   A(20,8,21)            106.5321         calculate D2E/DX2 analytically  !
 ! A23   A(8,9,10)             132.7209         calculate D2E/DX2 analytically  !
 ! A24   A(8,9,13)             122.0847         calculate D2E/DX2 analytically  !
 ! A25   A(10,9,13)            105.1775         calculate D2E/DX2 analytically  !
 ! A26   A(9,10,11)            110.5788         calculate D2E/DX2 analytically  !
 ! A27   A(9,10,22)            128.0541         calculate D2E/DX2 analytically  !
 ! A28   A(11,10,22)           121.3671         calculate D2E/DX2 analytically  !
 ! A29   A(10,11,12)           104.9269         calculate D2E/DX2 analytically  !
 ! A30   A(11,12,13)           111.8108         calculate D2E/DX2 analytically  !
 ! A31   A(11,12,23)           126.4054         calculate D2E/DX2 analytically  !
 ! A32   A(13,12,23)           121.7836         calculate D2E/DX2 analytically  !
 ! A33   A(9,13,12)            107.5055         calculate D2E/DX2 analytically  !
 ! A34   A(9,13,24)            124.1364         calculate D2E/DX2 analytically  !
 ! A35   A(12,13,24)           128.3572         calculate D2E/DX2 analytically  !
 ! A36   A(2,14,15)            111.7542         calculate D2E/DX2 analytically  !
 ! A37   A(2,14,25)            109.6529         calculate D2E/DX2 analytically  !
 ! A38   A(2,14,26)            107.8944         calculate D2E/DX2 analytically  !
 ! A39   A(15,14,25)           110.7074         calculate D2E/DX2 analytically  !
 ! A40   A(15,14,26)           109.1835         calculate D2E/DX2 analytically  !
 ! A41   A(25,14,26)           107.513          calculate D2E/DX2 analytically  !
 ! A42   A(14,15,16)           111.9921         calculate D2E/DX2 analytically  !
 ! A43   A(14,15,27)           108.5138         calculate D2E/DX2 analytically  !
 ! A44   A(14,15,28)           109.6021         calculate D2E/DX2 analytically  !
 ! A45   A(16,15,27)           109.9929         calculate D2E/DX2 analytically  !
 ! A46   A(16,15,28)           109.4185         calculate D2E/DX2 analytically  !
 ! A47   A(27,15,28)           107.1997         calculate D2E/DX2 analytically  !
 ! A48   A(15,16,29)           111.1194         calculate D2E/DX2 analytically  !
 ! A49   A(15,16,30)           111.4892         calculate D2E/DX2 analytically  !
 ! A50   A(15,16,31)           111.8363         calculate D2E/DX2 analytically  !
 ! A51   A(29,16,30)           107.6538         calculate D2E/DX2 analytically  !
 ! A52   A(29,16,31)           107.2566         calculate D2E/DX2 analytically  !
 ! A53   A(30,16,31)           107.2547         calculate D2E/DX2 analytically  !
 ! D1    D(1,2,3,4)             -2.5603         calculate D2E/DX2 analytically  !
 ! D2    D(1,2,3,17)          -169.1118         calculate D2E/DX2 analytically  !
 ! D3    D(14,2,3,4)           176.1388         calculate D2E/DX2 analytically  !
 ! D4    D(14,2,3,17)            9.5873         calculate D2E/DX2 analytically  !
 ! D5    D(1,2,14,15)          -29.3941         calculate D2E/DX2 analytically  !
 ! D6    D(1,2,14,25)         -152.5395         calculate D2E/DX2 analytically  !
 ! D7    D(1,2,14,26)           90.647          calculate D2E/DX2 analytically  !
 ! D8    D(3,2,14,15)          151.9296         calculate D2E/DX2 analytically  !
 ! D9    D(3,2,14,25)           28.7842         calculate D2E/DX2 analytically  !
 ! D10   D(3,2,14,26)          -88.0293         calculate D2E/DX2 analytically  !
 ! D11   D(2,3,4,5)           -163.6093         calculate D2E/DX2 analytically  !
 ! D12   D(2,3,4,8)             72.96           calculate D2E/DX2 analytically  !
 ! D13   D(2,3,4,18)           -48.247          calculate D2E/DX2 analytically  !
 ! D14   D(17,3,4,5)             3.7612         calculate D2E/DX2 analytically  !
 ! D15   D(17,3,4,8)          -119.6694         calculate D2E/DX2 analytically  !
 ! D16   D(17,3,4,18)          119.1235         calculate D2E/DX2 analytically  !
 ! D17   D(3,4,5,6)            175.9687         calculate D2E/DX2 analytically  !
 ! D18   D(3,4,5,7)             -4.3549         calculate D2E/DX2 analytically  !
 ! D19   D(8,4,5,6)            -60.6569         calculate D2E/DX2 analytically  !
 ! D20   D(8,4,5,7)            119.0194         calculate D2E/DX2 analytically  !
 ! D21   D(18,4,5,6)            59.9261         calculate D2E/DX2 analytically  !
 ! D22   D(18,4,5,7)          -120.3976         calculate D2E/DX2 analytically  !
 ! D23   D(3,4,8,9)           -125.686          calculate D2E/DX2 analytically  !
 ! D24   D(3,4,8,20)           112.1914         calculate D2E/DX2 analytically  !
 ! D25   D(3,4,8,21)            -4.2648         calculate D2E/DX2 analytically  !
 ! D26   D(5,4,8,9)            113.7174         calculate D2E/DX2 analytically  !
 ! D27   D(5,4,8,20)            -8.4053         calculate D2E/DX2 analytically  !
 ! D28   D(5,4,8,21)          -124.8614         calculate D2E/DX2 analytically  !
 ! D29   D(18,4,8,9)            -5.37           calculate D2E/DX2 analytically  !
 ! D30   D(18,4,8,20)         -127.4926         calculate D2E/DX2 analytically  !
 ! D31   D(18,4,8,21)          116.0512         calculate D2E/DX2 analytically  !
 ! D32   D(4,5,6,19)            -2.5335         calculate D2E/DX2 analytically  !
 ! D33   D(7,5,6,19)           177.7816         calculate D2E/DX2 analytically  !
 ! D34   D(4,8,9,10)          -116.9921         calculate D2E/DX2 analytically  !
 ! D35   D(4,8,9,13)            61.2759         calculate D2E/DX2 analytically  !
 ! D36   D(20,8,9,10)            6.3605         calculate D2E/DX2 analytically  !
 ! D37   D(20,8,9,13)         -175.3716         calculate D2E/DX2 analytically  !
 ! D38   D(21,8,9,10)          122.517          calculate D2E/DX2 analytically  !
 ! D39   D(21,8,9,13)          -59.215          calculate D2E/DX2 analytically  !
 ! D40   D(8,9,10,11)          178.6945         calculate D2E/DX2 analytically  !
 ! D41   D(8,9,10,22)           -1.2916         calculate D2E/DX2 analytically  !
 ! D42   D(13,9,10,11)           0.2149         calculate D2E/DX2 analytically  !
 ! D43   D(13,9,10,22)        -179.7711         calculate D2E/DX2 analytically  !
 ! D44   D(8,9,13,12)         -178.8625         calculate D2E/DX2 analytically  !
 ! D45   D(8,9,13,24)            0.8159         calculate D2E/DX2 analytically  !
 ! D46   D(10,9,13,12)          -0.1809         calculate D2E/DX2 analytically  !
 ! D47   D(10,9,13,24)         179.4975         calculate D2E/DX2 analytically  !
 ! D48   D(9,10,11,12)          -0.1645         calculate D2E/DX2 analytically  !
 ! D49   D(22,10,11,12)        179.8226         calculate D2E/DX2 analytically  !
 ! D50   D(10,11,12,13)          0.0452         calculate D2E/DX2 analytically  !
 ! D51   D(10,11,12,23)        179.8721         calculate D2E/DX2 analytically  !
 ! D52   D(11,12,13,9)           0.0867         calculate D2E/DX2 analytically  !
 ! D53   D(11,12,13,24)       -179.5738         calculate D2E/DX2 analytically  !
 ! D54   D(23,12,13,9)        -179.7494         calculate D2E/DX2 analytically  !
 ! D55   D(23,12,13,24)          0.5901         calculate D2E/DX2 analytically  !
 ! D56   D(2,14,15,16)         176.1956         calculate D2E/DX2 analytically  !
 ! D57   D(2,14,15,27)          54.588          calculate D2E/DX2 analytically  !
 ! D58   D(2,14,15,28)         -62.1737         calculate D2E/DX2 analytically  !
 ! D59   D(25,14,15,16)        -61.2594         calculate D2E/DX2 analytically  !
 ! D60   D(25,14,15,27)        177.133          calculate D2E/DX2 analytically  !
 ! D61   D(25,14,15,28)         60.3713         calculate D2E/DX2 analytically  !
 ! D62   D(26,14,15,16)         56.9136         calculate D2E/DX2 analytically  !
 ! D63   D(26,14,15,27)        -64.694          calculate D2E/DX2 analytically  !
 ! D64   D(26,14,15,28)        178.5443         calculate D2E/DX2 analytically  !
 ! D65   D(14,15,16,29)        -59.739          calculate D2E/DX2 analytically  !
 ! D66   D(14,15,16,30)         60.3573         calculate D2E/DX2 analytically  !
 ! D67   D(14,15,16,31)       -179.565          calculate D2E/DX2 analytically  !
 ! D68   D(27,15,16,29)         61.0149         calculate D2E/DX2 analytically  !
 ! D69   D(27,15,16,30)       -178.8888         calculate D2E/DX2 analytically  !
 ! D70   D(27,15,16,31)        -58.8111         calculate D2E/DX2 analytically  !
 ! D71   D(28,15,16,29)        178.5249         calculate D2E/DX2 analytically  !
 ! D72   D(28,15,16,30)        -61.3788         calculate D2E/DX2 analytically  !
 ! D73   D(28,15,16,31)         58.6989         calculate D2E/DX2 analytically  !
 --------------------------------------------------------------------------------
 Trust Radius=3.00D-01 FncErr=1.00D-07 GrdErr=1.00D-06
 Number of steps in this run=    167 maximum allowed number of steps=    186.
 GradGradGradGradGradGradGradGradGradGradGradGradGradGradGradGradGradGrad

                          Input orientation:                          
 ---------------------------------------------------------------------
 Center     Atomic      Atomic             Coordinates (Angstroms)
 Number     Number       Type             X           Y           Z
 ---------------------------------------------------------------------
      1          8           0        0.488024   -1.044212   -0.128100
      2          6           0        1.123845   -0.017492   -0.373609
      3          7           0        0.490472    1.135943   -0.678403
      4          6           0       -0.952331    1.179802   -0.777899
      5          6           0       -1.313456    2.460537   -1.516985
      6          8           0       -2.628012    2.618957   -1.772967
      7          8           0       -0.510003    3.284664   -1.851898
      8          6           0       -1.638845    1.094382    0.620743
      9          6           0       -2.642701   -0.010178    0.702351
     10          6           0       -3.989868   -0.021681    0.905013
     11          7           0       -4.476793   -1.317343    0.866546
     12          6           0       -3.425194   -2.066739    0.639055
     13          7           0       -2.293636   -1.327439    0.530588
     14          6           0        2.639540    0.021364   -0.382610
     15          6           0        3.234388   -0.997902    0.573178
     16          7           0        4.720173   -1.027433    0.502220
     17          1           0        0.981373    1.940946   -1.037338
     18          1           0       -1.278962    0.340841   -1.403513
     19          1           0       -3.115548    1.846115   -1.464303
     20          1           0       -2.131516    2.034185    0.870539
     21          1           0       -0.863674    0.942566    1.369359
     22          1           0       -4.644919    0.820583    1.076687
     23          1           0       -3.413057   -3.138350    0.545338
     24          1           0       -1.352539   -1.645316    0.352137
     25          1           0        2.982476    1.027973   -0.135904
     26          1           0        2.975428   -0.200789   -1.399690
     27          1           0        2.830344   -1.978956    0.327855
     28          1           0        2.924933   -0.767636    1.592065
     29          1           0        5.038567   -1.265120   -0.437119
     30          1           0        5.124010   -0.122922    0.746146
     31          1           0        5.117207   -1.718407    1.140508
 ---------------------------------------------------------------------
                    Distance matrix (angstroms):
                    1          2          3          4          5
     1  O    0.000000
     2  C    1.232354   0.000000
     3  N    2.248537   1.350731   0.000000
     4  C    2.728204   2.430528   1.446894   0.000000
     5  C    4.178230   3.659013   2.389964   1.522151   0.000000
     6  O    5.082723   4.794319   3.622478   2.422651   1.348584
     7  O    4.765156   3.969765   2.644815   2.404075   1.198704
     8  C    3.107719   3.139658   2.494694   1.560384   2.557761
     9  C    3.400046   3.917220   3.610658   2.542547   3.577259
    10  C    4.707909   5.271143   4.890884   3.674559   4.380715
    11  N    5.070831   5.881729   5.751453   4.621879   5.473600
    12  C    4.116718   5.091037   5.227362   4.320050   5.440972
    13  N    2.872580   3.769975   3.909114   3.130095   4.416115
    14  C    2.414384   1.516220   2.438908   3.794702   4.781480
    15  C    2.834863   2.512369   3.694431   4.908809   6.083787
    16  N    4.278863   3.836747   4.895348   6.219959   7.255881
    17  H    3.159316   2.072755   1.008884   2.094244   2.401308
    18  H    2.582110   2.638672   2.070959   1.096328   2.123011
    19  H    4.808863   4.757636   3.758373   2.365298   1.904685
    20  H    4.163628   4.044089   3.175040   2.199499   2.559545
    21  H    2.831388   2.812451   2.462608   2.162142   3.292040
    22  H    5.592502   6.007027   5.436179   4.147739   4.529374
    23  H    4.478545   5.582804   5.916475   5.143206   6.325270
    24  H    1.994900   3.051065   3.492006   3.068947   4.511449
    25  H    3.242885   2.145696   2.552655   3.989726   4.734413
    26  H    2.918130   2.124806   2.912407   4.209506   5.048856
    27  H    2.562831   2.692866   4.023699   5.050650   6.346938
    28  H    2.995661   2.769568   3.834741   4.943927   6.168569
    29  H    4.566370   4.109216   5.148639   6.479555   7.442771
    30  H    4.806813   4.155272   5.008368   6.398572   7.296369
    31  H    4.846983   4.597021   5.732576   6.994225   8.116605
                    6          7          8          9         10
     6  O    0.000000
     7  O    2.221567   0.000000
     8  C    3.005433   3.490785   0.000000
     9  C    3.611062   4.682796   1.494804   0.000000
    10  C    3.999900   5.535516   2.617960   1.362374   0.000000
    11  N    5.087188   6.656113   3.732397   2.258215   1.384672
    12  C    5.330018   6.583366   3.630986   2.201305   2.138189
    13  N    4.581727   5.488997   2.510398   1.373509   2.173109
    14  C    6.035535   4.767343   4.523567   5.392607   6.753434
    15  C    7.276935   6.183997   5.303612   5.960910   7.297465
    16  N    8.512841   7.175709   6.704718   7.435508   8.777163
    17  H    3.745465   2.166400   3.214256   4.468480   5.686639
    18  H    2.673246   3.075458   2.189737   2.533310   3.579067
    19  H    0.964495   3.001420   2.663301   2.892023   3.141139
    20  H    2.752561   3.406562   1.090116   2.114005   2.771506
    21  H    3.974593   3.998376   1.088285   2.125455   3.304312
    22  H    3.927161   5.634345   3.052759   2.199811   1.080728
    23  H    6.255991   7.445105   4.590156   3.225455   3.189938
    24  H    4.932232   5.465559   2.767681   2.112070   3.146007
    25  H    6.057127   4.498300   4.683325   5.781267   7.127332
    26  H    6.284015   4.949859   5.201070   6.001524   7.338875
    27  H    7.439617   6.604161   5.431835   5.828426   7.118941
    28  H    7.323090   6.330940   5.023807   5.688926   6.988774
    29  H    8.697527   7.313601   7.160597   7.866076   9.211954
    30  H    8.599865   7.078388   6.872682   7.767653   9.115825
    31  H    9.342884   8.102513   7.336632   7.957776   9.266777
                   11         12         13         14         15
    11  N    0.000000
    12  C    1.311184   0.000000
    13  N    2.208878   1.356006   0.000000
    14  C    7.348110   6.494996   5.195135   0.000000
    15  C    7.723368   6.745130   5.538001   1.518643   0.000000
    16  N    9.208744   8.212544   7.020279   2.492375   1.487772
    17  H    6.635721   6.187864   4.885327   2.619729   4.038151
    18  H    4.257800   3.817700   2.748357   4.061892   5.105866
    19  H    4.158523   4.453136   3.837522   6.133581   7.249927
    20  H    4.090609   4.306363   3.382657   5.327739   6.170486
    21  H    4.291228   4.018786   2.810917   4.023744   4.603632
    22  H    2.154798   3.164787   3.231216   7.472058   8.102091
    23  H    2.133254   1.075771   2.129019   6.890487   6.983611
    24  H    3.183259   2.134436   1.009234   4.387980   4.637662
    25  H    7.883280   7.157936   5.816316   1.091664   2.161117
    26  H    7.868807   6.971816   5.723491   1.093903   2.143515
    27  H    7.356776   6.263889   5.169211   2.131302   1.088992
    28  H    7.457486   6.551336   5.354771   2.145533   1.089456
    29  H    9.604392   8.569481   7.396049   2.722746   2.084987
    30  H    9.675565   8.768055   7.517899   2.732673   2.089541
    31  H    9.606287   8.564194   7.446170   3.389031   2.094278
                   16         17         18         19         20
    16  N    0.000000
    17  H    5.015988   0.000000
    18  H    6.441554   2.793480   0.000000
    19  H    8.574556   4.120201   2.375414   0.000000
    20  H    7.513641   3.652227   2.960670   2.540704   0.000000
    21  H    5.984327   3.192671   2.867639   3.730547   1.745817
    22  H    9.562956   6.113876   4.208469   3.138044   2.798664
    23  H    8.402813   6.900372   4.522959   5.382570   5.338841
    24  H    6.105910   4.498784   2.651893   4.312510   3.796613
    25  H    2.766132   2.377082   4.498760   6.294434   5.308324
    26  H    2.710118   2.948658   4.288731   6.426040   6.019130
    27  H    2.123030   4.544015   5.026479   7.293602   6.404675
    28  H    2.116163   4.245892   5.279672   7.256755   5.825674
    29  H    1.019915   5.205761   6.589705   8.787746   8.000342
    30  H    1.020159   4.960021   6.770093   8.755199   7.570419
    31  H    1.021026   5.936245   7.184952   9.341794   8.166934
                   21         22         23         24         25
    21  H    0.000000
    22  H    3.794517   0.000000
    23  H    4.881828   4.180068   0.000000
    24  H    2.823271   4.176768   2.551904   0.000000
    25  H    4.131099   7.725966   7.663236   5.116348   0.000000
    26  H    4.869661   8.077459   7.295557   4.887418   1.762686
    27  H    4.823462   8.017339   6.353861   4.196238   3.046283
    28  H    4.162683   7.751820   6.847338   4.539219   2.492670
    29  H    6.555432  10.020563   8.712300   6.450869   3.094595
    30  H    6.113593   9.819951   9.056194   6.664730   2.586260
    31  H    6.550121  10.087104   8.668095   6.518013   3.705254
                   26         27         28         29         30
    26  H    0.000000
    27  H    2.483413   0.000000
    28  H    3.045401   1.753416   0.000000
    29  H    2.513143   2.443562   2.971957   0.000000
    30  H    3.037611   2.980057   2.442781   1.646825   0.000000
    31  H    3.652806   2.440909   2.431858   1.643339   1.643515
                   31
    31  H    0.000000
 Symmetry turned off by external request.
 Stoichiometry    C9H15N4O3(1+)
 Framework group  C1[X(C9H15N4O3)]
 Deg. of freedom    87
 Full point group                 C1      NOp   1
 Rotational constants (GHZ):      0.6579548      0.3092405      0.2195217
 Standard basis: 6-31G(d,p) (6D, 7F)
   315 basis functions,   553 primitive gaussians,   315 cartesian basis functions
    60 alpha electrons       60 beta electrons
       nuclear repulsion energy      1130.0178159133 Hartrees.
 NAtoms=   31 NActive=   31 NUniq=   31 SFac= 1.00D+00 NAtFMM=   60 NAOKFM=F Big=F
 Integral buffers will be    131072 words long.
 Raffenetti 2 integral format.
 Two-electron integral symmetry is turned off.
 One-electron integrals computed using PRISM.
 NBasis=   315 RedAO= T EigKep=  1.21D-03  NBF=   315
 NBsUse=   315 1.00D-06 EigRej= -1.00D+00 NBFU=   315
 ExpMin= 1.61D-01 ExpMax= 5.48D+03 ExpMxC= 8.25D+02 IAcc=3 IRadAn=         5 AccDes= 0.00D+00
 Harris functional with IExCor=  402 and IRadAn=       5 diagonalized for initial guess.
 HarFok:  IExCor=  402 AccDes= 0.00D+00 IRadAn=         5 IDoV= 1 UseB2=F ITyADJ=14
 ICtDFT=  3500011 ScaDFX=  1.000000  1.000000  1.000000  1.000000
 FoFCou: FMM=F IPFlag=           0 FMFlag=      100000 FMFlg1=           0
         NFxFlg=           0 DoJE=T BraDBF=F KetDBF=T FulRan=T
         wScrn=  0.000000 ICntrl=     500 IOpCl=  0 I1Cent=   200000004 NGrid=           0
         NMat0=    1 NMatS0=      1 NMatT0=    0 NMatD0=    1 NMtDS0=    0 NMtDT0=    0
 Symmetry not used in FoFCou.
 Requested convergence on RMS density matrix=1.00D-08 within 128 cycles.
 Requested convergence on MAX density matrix=1.00D-06.
 Requested convergence on             energy=1.00D-06.
 No special actions if energy rises.
 Integral accuracy reduced to 1.0D-05 until final iterations.
 EnCoef did     2 forward-backward iterations
 Initial convergence to 1.0D-05 achieved.  Increase integral accuracy.
 SCF Done:  E(RB3LYP) =  -796.467694606     A.U. after   17 cycles
            NFock= 17  Conv=0.33D-08     -V/T= 2.0088
 DoSCS=F DFT=T ScalE2(SS,OS)=  1.000000  1.000000
 Range of M.O.s used for correlation:     1   315
 NBasis=   315 NAE=    60 NBE=    60 NFC=     0 NFV=     0
 NROrb=    315 NOA=    60 NOB=    60 NVA=   255 NVB=   255
 Symmetrizing basis deriv contribution to polar:
 IMax=3 JMax=2 DiffMx= 0.00D+00
 G2DrvN: will do    32 centers at a time, making    1 passes.
 Calling FoFCou, ICntrl=  3107 FMM=F I1Cent=   0 AccDes= 0.00D+00.
 End of G2Drv F.D. properties file   721 does not exist.
 End of G2Drv F.D. properties file   722 does not exist.
 End of G2Drv F.D. properties file   788 does not exist.
          IDoAtm=1111111111111111111111111111111
          Differentiating once with respect to nuclear coordinates.
          There are    96 degrees of freedom in the 1st order CPHF.  IDoFFX=6 NUNeed=     0.
     90 vectors produced by pass  0 Test12= 1.59D-14 1.04D-09 XBig12= 1.74D-01 1.07D-01.
 AX will form    90 AO Fock derivatives at one time.
     90 vectors produced by pass  1 Test12= 1.59D-14 1.04D-09 XBig12= 3.86D-02 5.44D-02.
     90 vectors produced by pass  2 Test12= 1.59D-14 1.04D-09 XBig12= 3.07D-04 2.59D-03.
     90 vectors produced by pass  3 Test12= 1.59D-14 1.04D-09 XBig12= 1.14D-06 1.11D-04.
     90 vectors produced by pass  4 Test12= 1.59D-14 1.04D-09 XBig12= 1.80D-09 3.62D-06.
     73 vectors produced by pass  5 Test12= 1.59D-14 1.04D-09 XBig12= 1.65D-12 1.25D-07.
     16 vectors produced by pass  6 Test12= 1.59D-14 1.04D-09 XBig12= 1.39D-15 4.15D-09.
 InvSVY:  IOpt=1 It=  1 EMax= 6.11D-16
 Solved reduced A of dimension   539 with    96 vectors.
 End of Minotr F.D. properties file   721 does not exist.
 End of Minotr F.D. properties file   722 does not exist.
 End of Minotr F.D. properties file   788 does not exist.

 **********************************************************************

            Population analysis using the SCF density.

 **********************************************************************

 Alpha  occ. eigenvalues --  -19.29764 -19.26952 -19.24782 -14.68390 -14.50114
 Alpha  occ. eigenvalues --  -14.45860 -14.38073 -10.44688 -10.44589 -10.42921
 Alpha  occ. eigenvalues --  -10.38710 -10.36155 -10.31109 -10.30996 -10.29809
 Alpha  occ. eigenvalues --  -10.27251  -1.23064  -1.21069  -1.18947  -1.13335
 Alpha  occ. eigenvalues --   -1.09048  -1.06747  -0.98497  -0.94354  -0.90937
 Alpha  occ. eigenvalues --   -0.86740  -0.83205  -0.81129  -0.80310  -0.77177
 Alpha  occ. eigenvalues --   -0.73220  -0.71483  -0.71243  -0.69194  -0.67759
 Alpha  occ. eigenvalues --   -0.66678  -0.65948  -0.63665  -0.61414  -0.59856
 Alpha  occ. eigenvalues --   -0.58727  -0.58014  -0.56658  -0.55667  -0.54439
 Alpha  occ. eigenvalues --   -0.54064  -0.52416  -0.50594  -0.49715  -0.48956
 Alpha  occ. eigenvalues --   -0.48691  -0.48130  -0.47748  -0.42293  -0.41414
 Alpha  occ. eigenvalues --   -0.39967  -0.38635  -0.35066  -0.33413  -0.30577
 Alpha virt. eigenvalues --   -0.17926  -0.13718  -0.11346  -0.11092  -0.09713
 Alpha virt. eigenvalues --   -0.07762  -0.05568  -0.04057  -0.03450  -0.02839
 Alpha virt. eigenvalues --   -0.01839  -0.00718  -0.00331   0.00730   0.01416
 Alpha virt. eigenvalues --    0.02340   0.04139   0.04664   0.05634   0.07035
 Alpha virt. eigenvalues --    0.08698   0.09824   0.11680   0.12332   0.13584
 Alpha virt. eigenvalues --    0.15282   0.15736   0.19921   0.20559   0.22463
 Alpha virt. eigenvalues --    0.24070   0.26431   0.27254   0.30755   0.32026
 Alpha virt. eigenvalues --    0.32691   0.33569   0.36311   0.36497   0.40315
 Alpha virt. eigenvalues --    0.41998   0.42897   0.44273   0.45596   0.45791
 Alpha virt. eigenvalues --    0.46418   0.47284   0.47722   0.49281   0.49423
 Alpha virt. eigenvalues --    0.51228   0.51569   0.54130   0.54518   0.55783
 Alpha virt. eigenvalues --    0.56551   0.56728   0.57593   0.58191   0.58418
 Alpha virt. eigenvalues --    0.59084   0.59932   0.61693   0.62686   0.63745
 Alpha virt. eigenvalues --    0.64368   0.65845   0.66466   0.67349   0.68564
 Alpha virt. eigenvalues --    0.69440   0.70868   0.71364   0.71880   0.72687
 Alpha virt. eigenvalues --    0.73809   0.74438   0.74828   0.75688   0.76697
 Alpha virt. eigenvalues --    0.77008   0.78528   0.79191   0.79542   0.81836
 Alpha virt. eigenvalues --    0.84302   0.86504   0.87558   0.87877   0.90625
 Alpha virt. eigenvalues --    0.92413   0.93579   0.94398   0.96636   0.98331
 Alpha virt. eigenvalues --    0.98886   1.01501   1.03516   1.07122   1.07590
 Alpha virt. eigenvalues --    1.09195   1.12611   1.15140   1.18179   1.20717
 Alpha virt. eigenvalues --    1.22973   1.23904   1.25658   1.27215   1.28007
 Alpha virt. eigenvalues --    1.28484   1.30525   1.32526   1.33837   1.35295
 Alpha virt. eigenvalues --    1.36850   1.37416   1.38473   1.41659   1.43000
 Alpha virt. eigenvalues --    1.45104   1.45251   1.46362   1.49036   1.52983
 Alpha virt. eigenvalues --    1.54900   1.57364   1.59021   1.60673   1.62937
 Alpha virt. eigenvalues --    1.64236   1.65197   1.66685   1.67457   1.68710
 Alpha virt. eigenvalues --    1.69144   1.70363   1.71440   1.73089   1.73674
 Alpha virt. eigenvalues --    1.75544   1.76942   1.77475   1.79196   1.80038
 Alpha virt. eigenvalues --    1.81287   1.84050   1.84275   1.85861   1.86990
 Alpha virt. eigenvalues --    1.87451   1.89366   1.93104   1.93744   1.95321
 Alpha virt. eigenvalues --    1.96214   1.97122   1.98090   2.00402   2.01343
 Alpha virt. eigenvalues --    2.02407   2.03611   2.04886   2.05760   2.06940
 Alpha virt. eigenvalues --    2.07827   2.11506   2.12632   2.14513   2.15983
 Alpha virt. eigenvalues --    2.18147   2.18383   2.19486   2.22810   2.23236
 Alpha virt. eigenvalues --    2.24440   2.26811   2.27441   2.28689   2.32324
 Alpha virt. eigenvalues --    2.33506   2.34434   2.36848   2.37759   2.38575
 Alpha virt. eigenvalues --    2.40001   2.41130   2.44163   2.44759   2.46891
 Alpha virt. eigenvalues --    2.47610   2.49077   2.50459   2.51273   2.52785
 Alpha virt. eigenvalues --    2.53127   2.53356   2.54798   2.56054   2.57917
 Alpha virt. eigenvalues --    2.58493   2.62024   2.63088   2.64881   2.66002
 Alpha virt. eigenvalues --    2.66707   2.67679   2.68887   2.70532   2.71202
 Alpha virt. eigenvalues --    2.72979   2.74576   2.76752   2.78390   2.82602
 Alpha virt. eigenvalues --    2.85327   2.86993   2.89844   2.90814   2.93170
 Alpha virt. eigenvalues --    2.95339   2.96154   2.97541   3.07073   3.08740
 Alpha virt. eigenvalues --    3.10260   3.12182   3.17193   3.20404   3.21411
 Alpha virt. eigenvalues --    3.22999   3.25201   3.26771   3.35689   3.36995
 Alpha virt. eigenvalues --    3.39106   3.43893   3.49306   3.62766   3.84748
 Alpha virt. eigenvalues --    3.92273   3.93613   3.99913   4.03345   4.07896
 Alpha virt. eigenvalues --    4.13285   4.14471   4.16331   4.29456   4.34355
 Alpha virt. eigenvalues --    4.36236   4.41447   4.49721   4.61814   4.68347
          Condensed to atoms (all electrons):
               1          2          3          4          5          6
     1  O    8.138622   0.528110  -0.097373   0.005112   0.000486  -0.000001
     2  C    0.528110   4.326651   0.318951  -0.028361   0.005199  -0.000049
     3  N   -0.097373   0.318951   7.033085   0.187891  -0.018539   0.002646
     4  C    0.005112  -0.028361   0.187891   5.279978   0.275157  -0.098511
     5  C    0.000486   0.005199  -0.018539   0.275157   4.348882   0.281884
     6  O   -0.000001  -0.000049   0.002646  -0.098511   0.281884   8.066136
     7  O   -0.000006   0.000740  -0.014152  -0.089353   0.585604  -0.074562
     8  C    0.003196  -0.004416  -0.045133   0.280276  -0.022433   0.003563
     9  C   -0.003045   0.000091   0.002700  -0.034970  -0.001087  -0.002293
    10  C    0.000026   0.000006  -0.000047  -0.000385  -0.000132  -0.000512
    11  N   -0.000008   0.000000   0.000001  -0.000073  -0.000001   0.000001
    12  C    0.000313   0.000016  -0.000010   0.000227   0.000004   0.000005
    13  N   -0.012356   0.000767   0.000255  -0.004119   0.000204   0.000026
    14  C   -0.089107   0.300085  -0.114435   0.006668  -0.000128   0.000000
    15  C    0.002357  -0.019596   0.002770  -0.000109  -0.000001   0.000000
    16  N    0.000267   0.002102  -0.000027   0.000000   0.000000   0.000000
    17  H    0.002581  -0.020245   0.323170  -0.047192  -0.004173   0.000912
    18  H    0.005900  -0.002132  -0.047651   0.390108  -0.028050   0.000946
    19  H    0.000002  -0.000005   0.000450  -0.000566  -0.023821   0.276411
    20  H    0.000095   0.000177   0.002553  -0.044889  -0.003032   0.002919
    21  H    0.000453   0.003358  -0.006557  -0.050809   0.001273   0.000140
    22  H    0.000000   0.000000   0.000000  -0.000038  -0.000007  -0.000024
    23  H   -0.000009   0.000001   0.000000   0.000000   0.000000   0.000000
    24  H    0.031711  -0.002141  -0.000164   0.000293   0.000013   0.000000
    25  H    0.002121  -0.019933   0.004446   0.000157  -0.000020   0.000000
    26  H    0.000266  -0.015967  -0.002436  -0.000147   0.000002   0.000000
    27  H    0.013767   0.000300   0.000592  -0.000006   0.000000   0.000000
    28  H    0.001262  -0.000656   0.000304  -0.000018   0.000000   0.000000
    29  H    0.000019  -0.000004   0.000001   0.000000   0.000000   0.000000
    30  H    0.000002  -0.000046   0.000000   0.000000   0.000000   0.000000
    31  H    0.000011   0.000004   0.000001   0.000000   0.000000   0.000000
               7          8          9         10         11         12
     1  O   -0.000006   0.003196  -0.003045   0.000026  -0.000008   0.000313
     2  C    0.000740  -0.004416   0.000091   0.000006   0.000000   0.000016
     3  N   -0.014152  -0.045133   0.002700  -0.000047   0.000001  -0.000010
     4  C   -0.089353   0.280276  -0.034970  -0.000385  -0.000073   0.000227
     5  C    0.585604  -0.022433  -0.001087  -0.000132  -0.000001   0.000004
     6  O   -0.074562   0.003563  -0.002293  -0.000512   0.000001   0.000005
     7  O    7.987947   0.000306   0.000035   0.000000   0.000000   0.000000
     8  C    0.000306   5.150987   0.312979  -0.054297   0.006994   0.006669
     9  C    0.000035   0.312979   4.824129   0.560565  -0.049194  -0.094663
    10  C    0.000000  -0.054297   0.560565   4.872960   0.425953  -0.117661
    11  N    0.000000   0.006994  -0.049194   0.425953   6.669933   0.534409
    12  C    0.000000   0.006669  -0.094663  -0.117661   0.534409   4.667797
    13  N   -0.000001  -0.072426   0.361867  -0.076198  -0.085094   0.355376
    14  C   -0.000071  -0.000292   0.000002   0.000000   0.000000   0.000001
    15  C    0.000000   0.000040  -0.000002   0.000000   0.000000   0.000000
    16  N    0.000000   0.000000   0.000000   0.000000   0.000000   0.000000
    17  H    0.039246   0.003360  -0.000133   0.000002   0.000000   0.000000
    18  H    0.000876  -0.056069   0.000734   0.000400  -0.000131  -0.000096
    19  H    0.004166  -0.000706   0.010506   0.005629  -0.000078  -0.000169
    20  H    0.000080   0.384953  -0.030190  -0.002569   0.000011  -0.000052
    21  H   -0.000136   0.376378  -0.028049   0.000672  -0.000153   0.000179
    22  H    0.000000  -0.000935  -0.060390   0.394614  -0.038605   0.007165
    23  H    0.000000  -0.000187   0.003303   0.007361  -0.036510   0.393273
    24  H    0.000000  -0.003375  -0.028443   0.008399   0.004273  -0.020568
    25  H   -0.000010  -0.000009   0.000001   0.000000   0.000000   0.000000
    26  H    0.000000  -0.000011   0.000000   0.000000   0.000000   0.000000
    27  H    0.000000   0.000000   0.000001   0.000000   0.000000   0.000000
    28  H    0.000000  -0.000003   0.000000   0.000000   0.000000   0.000000
    29  H    0.000000   0.000000   0.000000   0.000000   0.000000   0.000000
    30  H    0.000000   0.000000   0.000000   0.000000   0.000000   0.000000
    31  H    0.000000   0.000000   0.000000   0.000000   0.000000   0.000000
              13         14         15         16         17         18
     1  O   -0.012356  -0.089107   0.002357   0.000267   0.002581   0.005900
     2  C    0.000767   0.300085  -0.019596   0.002102  -0.020245  -0.002132
     3  N    0.000255  -0.114435   0.002770  -0.000027   0.323170  -0.047651
     4  C   -0.004119   0.006668  -0.000109   0.000000  -0.047192   0.390108
     5  C    0.000204  -0.000128  -0.000001   0.000000  -0.004173  -0.028050
     6  O    0.000026   0.000000   0.000000   0.000000   0.000912   0.000946
     7  O   -0.000001  -0.000071   0.000000   0.000000   0.039246   0.000876
     8  C   -0.072426  -0.000292   0.000040   0.000000   0.003360  -0.056069
     9  C    0.361867   0.000002  -0.000002   0.000000  -0.000133   0.000734
    10  C   -0.076198   0.000000   0.000000   0.000000   0.000002   0.000400
    11  N   -0.085094   0.000000   0.000000   0.000000   0.000000  -0.000131
    12  C    0.355376   0.000001   0.000000   0.000000   0.000000  -0.000096
    13  N    6.784043  -0.000023  -0.000001   0.000000  -0.000002   0.004810
    14  C   -0.000023   5.260595   0.315924  -0.042771  -0.000640   0.000234
    15  C   -0.000001   0.315924   5.039533   0.162886   0.000023  -0.000024
    16  N    0.000000  -0.042771   0.162886   6.474455  -0.000005   0.000000
    17  H   -0.000002  -0.000640   0.000023  -0.000005   0.406630   0.004075
    18  H    0.004810   0.000234  -0.000024   0.000000   0.004075   0.549031
    19  H   -0.000289   0.000000   0.000000   0.000000  -0.000117   0.000701
    20  H    0.003515   0.000010   0.000000   0.000000   0.000075   0.003814
    21  H   -0.002881  -0.000324   0.000004   0.000000   0.000105   0.002423
    22  H    0.004603   0.000000   0.000000   0.000000   0.000000   0.000033
    23  H   -0.056873   0.000000   0.000000   0.000000   0.000000   0.000014
    24  H    0.321500   0.000286   0.000006   0.000000  -0.000015   0.000076
    25  H    0.000000   0.366553  -0.039979  -0.002298   0.000757   0.000010
    26  H    0.000000   0.374691  -0.040224  -0.002911   0.000299   0.000059
    27  H    0.000000  -0.040788   0.387899  -0.030132  -0.000017  -0.000002
    28  H    0.000000  -0.035344   0.395454  -0.032024  -0.000005   0.000002
    29  H    0.000000  -0.000724  -0.023460   0.333045   0.000000   0.000000
    30  H    0.000000  -0.001673  -0.019764   0.332572   0.000000   0.000000
    31  H    0.000000   0.003476  -0.021525   0.337410   0.000000   0.000000
              19         20         21         22         23         24
     1  O    0.000002   0.000095   0.000453   0.000000  -0.000009   0.031711
     2  C   -0.000005   0.000177   0.003358   0.000000   0.000001  -0.002141
     3  N    0.000450   0.002553  -0.006557   0.000000   0.000000  -0.000164
     4  C   -0.000566  -0.044889  -0.050809  -0.000038   0.000000   0.000293
     5  C   -0.023821  -0.003032   0.001273  -0.000007   0.000000   0.000013
     6  O    0.276411   0.002919   0.000140  -0.000024   0.000000   0.000000
     7  O    0.004166   0.000080  -0.000136   0.000000   0.000000   0.000000
     8  C   -0.000706   0.384953   0.376378  -0.000935  -0.000187  -0.003375
     9  C    0.010506  -0.030190  -0.028049  -0.060390   0.003303  -0.028443
    10  C    0.005629  -0.002569   0.000672   0.394614   0.007361   0.008399
    11  N   -0.000078   0.000011  -0.000153  -0.038605  -0.036510   0.004273
    12  C   -0.000169  -0.000052   0.000179   0.007165   0.393273  -0.020568
    13  N   -0.000289   0.003515  -0.002881   0.004603  -0.056873   0.321500
    14  C    0.000000   0.000010  -0.000324   0.000000   0.000000   0.000286
    15  C    0.000000   0.000000   0.000004   0.000000   0.000000   0.000006
    16  N    0.000000   0.000000   0.000000   0.000000   0.000000   0.000000
    17  H   -0.000117   0.000075   0.000105   0.000000   0.000000  -0.000015
    18  H    0.000701   0.003814   0.002423   0.000033   0.000014   0.000076
    19  H    0.393510  -0.000102   0.000366   0.000338   0.000000   0.000000
    20  H   -0.000102   0.548392  -0.023137   0.002597   0.000004  -0.000035
    21  H    0.000366  -0.023137   0.591967  -0.000035  -0.000003   0.000671
    22  H    0.000338   0.002597  -0.000035   0.586625  -0.000151  -0.000104
    23  H    0.000000   0.000004  -0.000003  -0.000151   0.565582   0.000208
    24  H    0.000000  -0.000035   0.000671  -0.000104   0.000208   0.400866
    25  H    0.000000  -0.000002   0.000007   0.000000   0.000000  -0.000006
    26  H    0.000000   0.000000   0.000006   0.000000   0.000000  -0.000004
    27  H    0.000000   0.000000   0.000000   0.000000   0.000000   0.000002
    28  H    0.000000   0.000000   0.000041   0.000000   0.000000   0.000000
    29  H    0.000000   0.000000   0.000000   0.000000   0.000000   0.000000
    30  H    0.000000   0.000000   0.000000   0.000000   0.000000   0.000000
    31  H    0.000000   0.000000   0.000000   0.000000   0.000000   0.000000
              25         26         27         28         29         30
     1  O    0.002121   0.000266   0.013767   0.001262   0.000019   0.000002
     2  C   -0.019933  -0.015967   0.000300  -0.000656  -0.000004  -0.000046
     3  N    0.004446  -0.002436   0.000592   0.000304   0.000001   0.000000
     4  C    0.000157  -0.000147  -0.000006  -0.000018   0.000000   0.000000
     5  C   -0.000020   0.000002   0.000000   0.000000   0.000000   0.000000
     6  O    0.000000   0.000000   0.000000   0.000000   0.000000   0.000000
     7  O   -0.000010   0.000000   0.000000   0.000000   0.000000   0.000000
     8  C   -0.000009  -0.000011   0.000000  -0.000003   0.000000   0.000000
     9  C    0.000001   0.000000   0.000001   0.000000   0.000000   0.000000
    10  C    0.000000   0.000000   0.000000   0.000000   0.000000   0.000000
    11  N    0.000000   0.000000   0.000000   0.000000   0.000000   0.000000
    12  C    0.000000   0.000000   0.000000   0.000000   0.000000   0.000000
    13  N    0.000000   0.000000   0.000000   0.000000   0.000000   0.000000
    14  C    0.366553   0.374691  -0.040788  -0.035344  -0.000724  -0.001673
    15  C   -0.039979  -0.040224   0.387899   0.395454  -0.023460  -0.019764
    16  N   -0.002298  -0.002911  -0.030132  -0.032024   0.333045   0.332572
    17  H    0.000757   0.000299  -0.000017  -0.000005   0.000000   0.000000
    18  H    0.000010   0.000059  -0.000002   0.000002   0.000000   0.000000
    19  H    0.000000   0.000000   0.000000   0.000000   0.000000   0.000000
    20  H   -0.000002   0.000000   0.000000   0.000000   0.000000   0.000000
    21  H    0.000007   0.000006   0.000000   0.000041   0.000000   0.000000
    22  H    0.000000   0.000000   0.000000   0.000000   0.000000   0.000000
    23  H    0.000000   0.000000   0.000000   0.000000   0.000000   0.000000
    24  H   -0.000006  -0.000004   0.000002   0.000000   0.000000   0.000000
    25  H    0.559854  -0.027180   0.004710  -0.004386  -0.000279   0.003945
    26  H   -0.027180   0.536664  -0.004068   0.004460   0.004983  -0.000441
    27  H    0.004710  -0.004068   0.470269  -0.022630  -0.002941   0.003525
    28  H   -0.004386   0.004460  -0.022630   0.489722   0.003893  -0.003316
    29  H   -0.000279   0.004983  -0.002941   0.003893   0.344509  -0.016360
    30  H    0.003945  -0.000441   0.003525  -0.003316  -0.016360   0.344847
    31  H   -0.000015  -0.000004  -0.001581  -0.002024  -0.014291  -0.015106
              31
     1  O    0.000011
     2  C    0.000004
     3  N    0.000001
     4  C    0.000000
     5  C    0.000000
     6  O    0.000000
     7  O    0.000000
     8  C    0.000000
     9  C    0.000000
    10  C    0.000000
    11  N    0.000000
    12  C    0.000000
    13  N    0.000000
    14  C    0.003476
    15  C   -0.021525
    16  N    0.337410
    17  H    0.000000
    18  H    0.000000
    19  H    0.000000
    20  H    0.000000
    21  H    0.000000
    22  H    0.000000
    23  H    0.000000
    24  H    0.000000
    25  H   -0.000015
    26  H   -0.000004
    27  H   -0.001581
    28  H   -0.002024
    29  H   -0.014291
    30  H   -0.015106
    31  H    0.334340
 Mulliken charges:
               1
     1  O   -0.534777
     2  C    0.626994
     3  N   -0.533294
     4  C   -0.026320
     5  C    0.602717
     6  O   -0.459637
     7  O   -0.440711
     8  C   -0.269410
     9  C    0.255545
    10  C   -0.024785
    11  N   -0.431729
    12  C    0.267784
    13  N   -0.526704
    14  C   -0.302204
    15  C   -0.142212
    16  N   -0.532569
    17  H    0.291309
    18  H    0.169911
    19  H    0.333774
    20  H    0.154813
    21  H    0.134042
    22  H    0.104314
    23  H    0.123988
    24  H    0.286549
    25  H    0.151556
    26  H    0.171963
    27  H    0.221098
    28  H    0.205268
    29  H    0.371610
    30  H    0.371814
    31  H    0.379303
 Sum of Mulliken charges =   1.00000
 Mulliken charges with hydrogens summed into heavy atoms:
               1
     1  O   -0.534777
     2  C    0.626994
     3  N   -0.241985
     4  C    0.143591
     5  C    0.602717
     6  O   -0.125863
     7  O   -0.440711
     8  C    0.019445
     9  C    0.255545
    10  C    0.079529
    11  N   -0.431729
    12  C    0.391772
    13  N   -0.240155
    14  C    0.021315
    15  C    0.284154
    16  N    0.590158
 APT charges:
               1
     1  O   -0.546118
     2  C    0.309639
     3  N   -0.727686
     4  C   -0.306724
     5  C   -0.446992
     6  O    0.089880
     7  O    0.255996
     8  C   -0.854590
     9  C   -0.603106
    10  C   -0.247472
    11  N    0.444802
    12  C   -0.546309
    13  N   -0.515277
    14  C   -0.794400
    15  C   -0.063160
    16  N   -1.955089
    17  H    0.654458
    18  H    0.316332
    19  H    0.275762
    20  H    0.594893
    21  H    0.202448
    22  H    0.776444
    23  H    0.684691
    24  H    0.073538
    25  H    0.406878
    26  H    0.493629
    27  H    0.266682
    28  H    0.223533
    29  H    0.748561
    30  H    0.713966
    31  H    1.074791
 Sum of APT charges =   1.00000
 APT charges with hydrogens summed into heavy atoms:
               1
     1  O   -0.546118
     2  C    0.309639
     3  N   -0.073228
     4  C    0.009608
     5  C   -0.446992
     6  O    0.365642
     7  O    0.255996
     8  C   -0.057248
     9  C   -0.603106
    10  C    0.528972
    11  N    0.444802
    12  C    0.138382
    13  N   -0.441739
    14  C    0.106107
    15  C    0.427056
    16  N    0.582228
 Electronic spatial extent (au):  <R**2>=           4905.4595
 Charge=              1.0000 electrons
 Dipole moment (field-independent basis, Debye):
    X=             22.4396    Y=             -4.2583    Z=              1.8942  Tot=             22.9185
 Quadrupole moment (field-independent basis, Debye-Ang):
   XX=             -2.0275   YY=            -91.3034   ZZ=            -90.3731
   XY=            -24.5461   XZ=             13.1390   YZ=              5.5039
 Traceless Quadrupole moment (field-independent basis, Debye-Ang):
   XX=             59.2071   YY=            -30.0688   ZZ=            -29.1384
   XY=            -24.5461   XZ=             13.1390   YZ=              5.5039
 Octapole moment (field-independent basis, Debye-Ang**2):
  XXX=            753.0695  YYY=           -136.4417  ZZZ=             35.6857  XYY=             93.7978
  XXY=            -79.0990  XXZ=             34.2673  XZZ=             86.1475  YZZ=            -37.2408
  YYZ=             46.3647  XYZ=            -26.2455
 Hexadecapole moment (field-independent basis, Debye-Ang**3):
 XXXX=          -2225.5115 YYYY=          -1515.9756 ZZZZ=           -590.5019 XXXY=           -614.5701
 XXXZ=            409.2449 YYYX=            163.8606 YYYZ=            418.8623 ZZZX=             75.6042
 ZZZY=            352.6356 XXYY=           -764.1384 XXZZ=           -727.4489 YYZZ=           -393.7551
 XXYZ=            106.6874 YYXZ=              2.4764 ZZXY=             21.4334
 N-N= 1.130017815913D+03 E-N=-4.101669181636D+03  KE= 7.895171725810D+02
  Exact polarizability:   0.000   0.000   0.000   0.000   0.000   0.000
 Approx polarizability: 211.616  11.963 205.175 -10.810 -13.402 122.092
 Calling FoFJK, ICntrl=    100147 FMM=F ISym2X=0 I1Cent= 0 IOpClX= 0 NMat=1 NMatS=1 NMatT=0.
 -------------------------------------------------------------------
 Center     Atomic                   Forces (Hartrees/Bohr)
 Number     Number              X              Y              Z
 -------------------------------------------------------------------
      1        8           0.013911689   -0.009486711    0.005095383
      2        6          -0.023101060    0.006453819   -0.004481632
      3        7           0.013198958   -0.006699248    0.001087823
      4        6           0.002045107   -0.000112888   -0.002198374
      5        6          -0.017687484   -0.002330503   -0.001155853
      6        8           0.008891892    0.001017234    0.000714962
      7        8           0.014113497    0.009211153   -0.002970611
      8        6          -0.007621688   -0.006481017    0.001450992
      9        6           0.009218338    0.009675334   -0.002469876
     10        6          -0.015310975   -0.005868194    0.000288814
     11        7          -0.005044367    0.006070253    0.001011624
     12        6          -0.002808741   -0.000208359    0.000975893
     13        7           0.008019135   -0.004095332   -0.000792549
     14        6           0.012161270    0.005020926   -0.004054964
     15        6          -0.028892885   -0.000529615    0.002279221
     16        7           0.005121388   -0.001670256    0.001297542
     17        1           0.001397219    0.007619584   -0.001114707
     18        1          -0.000999649   -0.001633926    0.001966369
     19        1          -0.007618645   -0.004674997    0.002118015
     20        1          -0.000551955    0.002395172    0.000326555
     21        1           0.004402455    0.001156170    0.002087609
     22        1          -0.000712568    0.000506477    0.001055035
     23        1          -0.001555220   -0.004300075   -0.000151808
     24        1           0.002106359   -0.000623091   -0.000792256
     25        1           0.001109249    0.003212125   -0.000233082
     26        1          -0.000120907    0.000770109   -0.004197425
     27        1           0.003867973   -0.003943146    0.000453955
     28        1           0.005531062   -0.001009100    0.003971385
     29        1           0.002640939   -0.000796821   -0.005566660
     30        1           0.002777104    0.005007639    0.000662516
     31        1           0.001512508   -0.003652715    0.003336102
 -------------------------------------------------------------------
 Cartesian Forces:  Max     0.028892885 RMS     0.006571952
 FormGI is forming the generalized inverse of G from B-inverse, IUseBI=4.

 GradGradGradGradGradGradGradGradGradGradGradGradGradGradGradGradGradGrad
 Berny optimization.
 Internal  Forces:  Max     0.023549151 RMS     0.004920715
 Search for a local minimum.
 Step number   1 out of a maximum of  167
 All quantities printed in internal units (Hartrees-Bohrs-Radians)
 Mixed Optimization -- RFO/linear search
 Second derivative matrix not updated -- analytic derivatives used.
 ITU=  0
     Eigenvalues ---    0.00077   0.00155   0.00192   0.00212   0.00393
     Eigenvalues ---    0.00509   0.00579   0.00856   0.01023   0.01294
     Eigenvalues ---    0.01632   0.02133   0.02461   0.02818   0.03406
     Eigenvalues ---    0.03830   0.03998   0.04148   0.04253   0.04266
     Eigenvalues ---    0.04384   0.04530   0.04986   0.05080   0.05325
     Eigenvalues ---    0.05395   0.06078   0.06149   0.06288   0.07457
     Eigenvalues ---    0.07915   0.08368   0.10598   0.10663   0.11098
     Eigenvalues ---    0.11400   0.11904   0.12568   0.13129   0.13335
     Eigenvalues ---    0.13782   0.15752   0.15919   0.17170   0.17441
     Eigenvalues ---    0.17987   0.19573   0.20098   0.20577   0.22527
     Eigenvalues ---    0.23178   0.23232   0.24120   0.24417   0.25276
     Eigenvalues ---    0.27255   0.29794   0.30253   0.31985   0.32718
     Eigenvalues ---    0.33423   0.34026   0.34612   0.34680   0.34979
     Eigenvalues ---    0.35104   0.35382   0.35833   0.35993   0.37426
     Eigenvalues ---    0.37668   0.38511   0.42840   0.44127   0.44315
     Eigenvalues ---    0.44841   0.45186   0.45589   0.47328   0.47366
     Eigenvalues ---    0.48555   0.49906   0.53126   0.59940   0.71017
     Eigenvalues ---    0.81969   0.95690
 RFO step:  Lambda=-1.13951598D-02 EMin= 7.72425469D-04
 Linear search not attempted -- first point.
 Iteration  1 RMS(Cart)=  0.07854772 RMS(Int)=  0.00193832
 Iteration  2 RMS(Cart)=  0.00304348 RMS(Int)=  0.00027064
 Iteration  3 RMS(Cart)=  0.00000749 RMS(Int)=  0.00027061
 Iteration  4 RMS(Cart)=  0.00000000 RMS(Int)=  0.00027061
 Variable       Old X    -DE/DX   Delta X   Delta X   Delta X     New X
                                 (Linear)    (Quad)   (Total)
    R1        2.32881   0.00174   0.00000   0.00490   0.00490   2.33372
    R2        2.55251  -0.00142   0.00000  -0.02000  -0.02000   2.53251
    R3        2.86524   0.00578   0.00000   0.03779   0.03779   2.90303
    R4        2.73423   0.01097   0.00000   0.01486   0.01486   2.74910
    R5        1.90651   0.00716   0.00000   0.01608   0.01608   1.92260
    R6        2.87645   0.00389   0.00000   0.01452   0.01452   2.89097
    R7        2.94870   0.00712   0.00000   0.01789   0.01789   2.96658
    R8        2.07176   0.00043   0.00000   0.00023   0.00023   2.07199
    R9        2.54845  -0.00221   0.00000  -0.01966  -0.01966   2.52879
   R10        2.26522   0.01662   0.00000   0.01967   0.01967   2.28490
   R11        1.82263   0.00827   0.00000   0.01559   0.01559   1.83822
   R12        2.82477   0.00318   0.00000  -0.00726  -0.00726   2.81751
   R13        2.06002   0.00239   0.00000   0.00692   0.00692   2.06694
   R14        2.05656   0.00441   0.00000   0.01219   0.01219   2.06875
   R15        2.57451   0.01574   0.00000   0.02736   0.02737   2.60188
   R16        2.59556   0.00768   0.00000   0.01807   0.01809   2.61365
   R17        2.61665  -0.00457   0.00000  -0.01585  -0.01587   2.60078
   R18        2.04228   0.00099   0.00000   0.00311   0.00311   2.04539
   R19        2.47778   0.00521   0.00000   0.00740   0.00738   2.48516
   R20        2.56248   0.01000   0.00000   0.01949   0.01950   2.58198
   R21        2.03291   0.00428   0.00000   0.01020   0.01020   2.04311
   R22        1.90717   0.00230   0.00000   0.00835   0.00835   1.91553
   R23        2.86982   0.00556   0.00000   0.00913   0.00913   2.87895
   R24        2.06295   0.00326   0.00000   0.00687   0.00687   2.06982
   R25        2.06718   0.00371   0.00000   0.00826   0.00826   2.07544
   R26        2.81148   0.01207   0.00000   0.05881   0.05881   2.87029
   R27        2.05790   0.00201   0.00000   0.00261   0.00261   2.06051
   R28        2.05877   0.00193   0.00000   0.00368   0.00368   2.06245
   R29        1.92736   0.00614   0.00000   0.01196   0.01196   1.93932
   R30        1.92782   0.00570   0.00000   0.01098   0.01098   1.93881
   R31        1.92946   0.00515   0.00000   0.00976   0.00976   1.93922
    A1        2.11118   0.02355   0.00000   0.06404   0.06399   2.17518
    A2        2.13921  -0.01680   0.00000  -0.05873  -0.05878   2.08043
    A3        2.03256  -0.00674   0.00000  -0.00493  -0.00499   2.02757
    A4        2.10480   0.01617   0.00000   0.01870   0.01865   2.12345
    A5        2.13351  -0.00559   0.00000   0.01372   0.01371   2.14722
    A6        2.02256  -0.01035   0.00000  -0.02901  -0.02909   1.99347
    A7        1.87074  -0.00761   0.00000  -0.00921  -0.00919   1.86156
    A8        1.95565   0.01087   0.00000   0.02730   0.02737   1.98302
    A9        1.88929   0.00053   0.00000   0.00427   0.00445   1.89373
   A10        1.95725  -0.00377   0.00000  -0.00693  -0.00697   1.95028
   A11        1.87142   0.00304   0.00000   0.01139   0.01125   1.88267
   A12        1.91614  -0.00326   0.00000  -0.02655  -0.02657   1.88957
   A13        2.00674   0.00064   0.00000   0.00942   0.00941   2.01615
   A14        2.15930  -0.00492   0.00000  -0.02382  -0.02383   2.13547
   A15        2.11713   0.00428   0.00000   0.01437   0.01437   2.13150
   A16        1.91543   0.00713   0.00000   0.03378   0.03378   1.94921
   A17        1.96584   0.00615   0.00000  -0.01750  -0.01751   1.94834
   A18        1.93589  -0.00233   0.00000  -0.00699  -0.00706   1.92883
   A19        1.88687  -0.00285   0.00000  -0.00374  -0.00362   1.88325
   A20        1.89761  -0.00461   0.00000   0.00329   0.00308   1.90069
   A21        1.91528   0.00279   0.00000   0.02921   0.02919   1.94447
   A22        1.85934   0.00067   0.00000  -0.00296  -0.00311   1.85623
   A23        2.31642  -0.00442   0.00000   0.00991   0.00989   2.32630
   A24        2.13078   0.00684   0.00000  -0.00580  -0.00582   2.12496
   A25        1.83569  -0.00242   0.00000  -0.00425  -0.00422   1.83148
   A26        1.92996   0.00247   0.00000   0.00440   0.00435   1.93432
   A27        2.23497  -0.00092   0.00000  -0.00471  -0.00475   2.23022
   A28        2.11826  -0.00155   0.00000   0.00031   0.00027   2.11853
   A29        1.83132   0.00049   0.00000   0.00473   0.00469   1.83601
   A30        1.95147   0.00261   0.00000   0.00341   0.00341   1.95488
   A31        2.20619  -0.00295   0.00000  -0.01269  -0.01269   2.19350
   A32        2.12552   0.00034   0.00000   0.00929   0.00929   2.13481
   A33        1.87633  -0.00315   0.00000  -0.00828  -0.00824   1.86808
   A34        2.16659   0.00151   0.00000   0.00130   0.00128   2.16786
   A35        2.24026   0.00164   0.00000   0.00700   0.00698   2.24724
   A36        1.95048  -0.01308   0.00000  -0.07345  -0.07342   1.87706
   A37        1.91380   0.00469   0.00000   0.03034   0.03067   1.94447
   A38        1.88311   0.00219   0.00000  -0.00150  -0.00168   1.88143
   A39        1.93221   0.00419   0.00000   0.02286   0.02304   1.95525
   A40        1.90561   0.00475   0.00000   0.02072   0.01985   1.92546
   A41        1.87646  -0.00239   0.00000   0.00324   0.00272   1.87918
   A42        1.95463  -0.00192   0.00000  -0.00777  -0.00738   1.94725
   A43        1.89392   0.00332   0.00000   0.02925   0.02860   1.92253
   A44        1.91292   0.00430   0.00000   0.04258   0.04201   1.95493
   A45        1.91974  -0.00267   0.00000  -0.03762  -0.03763   1.88211
   A46        1.90971  -0.00327   0.00000  -0.04406  -0.04399   1.86572
   A47        1.87099   0.00041   0.00000   0.01969   0.01741   1.88839
   A48        1.93940   0.00095   0.00000   0.00310   0.00310   1.94250
   A49        1.94585   0.00071   0.00000   0.00344   0.00344   1.94929
   A50        1.95191  -0.00091   0.00000  -0.00841  -0.00841   1.94350
   A51        1.87891  -0.00101   0.00000  -0.00545  -0.00545   1.87347
   A52        1.87198   0.00004   0.00000   0.00335   0.00336   1.87534
   A53        1.87195   0.00017   0.00000   0.00406   0.00407   1.87602
    D1       -0.04469  -0.00137   0.00000  -0.04982  -0.05010  -0.09478
    D2       -2.95156  -0.00131   0.00000  -0.06369  -0.06424  -3.01580
    D3        3.07420  -0.00096   0.00000  -0.03212  -0.03156   3.04264
    D4        0.16733  -0.00090   0.00000  -0.04599  -0.04571   0.12162
    D5       -0.51302   0.00086   0.00000   0.03101   0.03028  -0.48274
    D6       -2.66232   0.00117   0.00000   0.03074   0.03060  -2.63172
    D7        1.58209   0.00024   0.00000   0.01127   0.01124   1.59333
    D8        2.65167  -0.00014   0.00000   0.01124   0.01111   2.66278
    D9        0.50238   0.00017   0.00000   0.01098   0.01143   0.51381
   D10       -1.53640  -0.00075   0.00000  -0.00850  -0.00793  -1.54433
   D11       -2.85552  -0.00039   0.00000  -0.01410  -0.01398  -2.86951
   D12        1.27339   0.00265   0.00000  -0.01648  -0.01631   1.25708
   D13       -0.84207  -0.00048   0.00000  -0.00340  -0.00340  -0.84547
   D14        0.06565  -0.00011   0.00000   0.00400   0.00392   0.06957
   D15       -2.08863   0.00293   0.00000   0.00161   0.00159  -2.08703
   D16        2.07910  -0.00020   0.00000   0.01469   0.01451   2.09361
   D17        3.07123  -0.00192   0.00000   0.01505   0.01504   3.08628
   D18       -0.07601  -0.00230   0.00000   0.00921   0.00924  -0.06676
   D19       -1.05866   0.00404   0.00000   0.03851   0.03854  -1.02012
   D20        2.07728   0.00366   0.00000   0.03267   0.03274   2.11002
   D21        1.04591  -0.00026   0.00000   0.00902   0.00894   1.05484
   D22       -2.10133  -0.00065   0.00000   0.00318   0.00314  -2.09820
   D23       -2.19363  -0.00861   0.00000  -0.04925  -0.04915  -2.24278
   D24        1.95811  -0.00531   0.00000  -0.03593  -0.03589   1.92222
   D25       -0.07443  -0.00315   0.00000  -0.02627  -0.02619  -0.10062
   D26        1.98474  -0.00383   0.00000  -0.05187  -0.05177   1.93297
   D27       -0.14670  -0.00053   0.00000  -0.03854  -0.03851  -0.18521
   D28       -2.17924   0.00164   0.00000  -0.02888  -0.02881  -2.20805
   D29       -0.09372  -0.00306   0.00000  -0.04406  -0.04417  -0.13789
   D30       -2.22517   0.00024   0.00000  -0.03073  -0.03091  -2.25608
   D31        2.02548   0.00241   0.00000  -0.02107  -0.02121   2.00427
   D32       -0.04422   0.00048   0.00000   0.01943   0.01937  -0.02484
   D33        3.10287   0.00088   0.00000   0.02524   0.02529   3.12817
   D34       -2.04190   0.00152   0.00000   0.02400   0.02396  -2.01794
   D35        1.06947   0.00163   0.00000   0.01695   0.01689   1.08636
   D36        0.11101  -0.00060   0.00000   0.00553   0.00548   0.11649
   D37       -3.06081  -0.00050   0.00000  -0.00152  -0.00159  -3.06240
   D38        2.13833  -0.00087   0.00000   0.02003   0.02014   2.15847
   D39       -1.03350  -0.00077   0.00000   0.01297   0.01308  -1.02042
   D40        3.11881   0.00026   0.00000  -0.00663  -0.00666   3.11214
   D41       -0.02254  -0.00033   0.00000  -0.02364  -0.02364  -0.04618
   D42        0.00375   0.00003   0.00000  -0.00038  -0.00038   0.00337
   D43       -3.13760  -0.00056   0.00000  -0.01738  -0.01735   3.12824
   D44       -3.12174  -0.00008   0.00000   0.00442   0.00439  -3.11735
   D45        0.01424  -0.00016   0.00000   0.00833   0.00829   0.02253
   D46       -0.00316  -0.00008   0.00000  -0.00071  -0.00070  -0.00385
   D47        3.13282  -0.00016   0.00000   0.00320   0.00320   3.13603
   D48       -0.00287   0.00004   0.00000   0.00137   0.00136  -0.00151
   D49        3.13850   0.00059   0.00000   0.01705   0.01707  -3.12761
   D50        0.00079  -0.00010   0.00000  -0.00185  -0.00185  -0.00106
   D51        3.13936   0.00007   0.00000  -0.00104  -0.00106   3.13830
   D52        0.00151   0.00013   0.00000   0.00169   0.00167   0.00318
   D53       -3.13415   0.00022   0.00000  -0.00241  -0.00244  -3.13659
   D54       -3.13722  -0.00003   0.00000   0.00097   0.00096  -3.13626
   D55        0.01030   0.00006   0.00000  -0.00313  -0.00315   0.00715
   D56        3.07519  -0.00100   0.00000  -0.03689  -0.03687   3.03833
   D57        0.95274   0.00132   0.00000  -0.00460  -0.00411   0.94863
   D58       -1.08514  -0.00344   0.00000  -0.06840  -0.06889  -1.15403
   D59       -1.06918  -0.00117   0.00000  -0.03318  -0.03333  -1.10251
   D60        3.09155   0.00115   0.00000  -0.00089  -0.00058   3.09098
   D61        1.05368  -0.00361   0.00000  -0.06469  -0.06536   0.98832
   D62        0.99333   0.00132   0.00000  -0.00281  -0.00263   0.99070
   D63       -1.12912   0.00364   0.00000   0.02948   0.03013  -1.09899
   D64        3.11619  -0.00112   0.00000  -0.03432  -0.03466   3.08153
   D65       -1.04264   0.00035   0.00000   0.00548   0.00547  -1.03717
   D66        1.05343   0.00019   0.00000   0.00299   0.00299   1.05643
   D67       -3.13400   0.00027   0.00000   0.00478   0.00478  -3.12922
   D68        1.06491   0.00146   0.00000   0.01155   0.01132   1.07624
   D69       -3.12220   0.00130   0.00000   0.00906   0.00884  -3.11336
   D70       -1.02645   0.00137   0.00000   0.01085   0.01063  -1.01582
   D71        3.11585  -0.00156   0.00000  -0.01277  -0.01254   3.10331
   D72       -1.07126  -0.00171   0.00000  -0.01525  -0.01502  -1.08629
   D73        1.02449  -0.00164   0.00000  -0.01346  -0.01324   1.01125
         Item               Value     Threshold  Converged?
 Maximum Force            0.023549     0.000450     NO 
 RMS     Force            0.004921     0.000300     NO 
 Maximum Displacement     0.281699     0.001800     NO 
 RMS     Displacement     0.079113     0.001200     NO 
 Predicted change in Energy=-6.182540D-03
 GradGradGradGradGradGradGradGradGradGradGradGradGradGradGradGradGradGrad

                          Input orientation:                          
 ---------------------------------------------------------------------
 Center     Atomic      Atomic             Coordinates (Angstroms)
 Number     Number       Type             X           Y           Z
 ---------------------------------------------------------------------
      1          8           0        0.637093   -1.062118    0.014821
      2          6           0        1.169297   -0.003564   -0.333491
      3          7           0        0.503074    1.113032   -0.658077
      4          6           0       -0.949214    1.139696   -0.738529
      5          6           0       -1.323110    2.414545   -1.497050
      6          8           0       -2.629728    2.583754   -1.731236
      7          8           0       -0.496435    3.222634   -1.851394
      8          6           0       -1.658078    1.066201    0.660233
      9          6           0       -2.692262   -0.007161    0.696579
     10          6           0       -4.060895    0.005246    0.846326
     11          7           0       -4.572746   -1.270219    0.773326
     12          6           0       -3.530983   -2.049168    0.579857
     13          7           0       -2.364802   -1.339559    0.522218
     14          6           0        2.701335    0.073096   -0.416840
     15          6           0        3.266379   -0.932250    0.578642
     16          7           0        4.777779   -1.036599    0.469917
     17          1           0        0.957589    1.937850   -1.043019
     18          1           0       -1.280347    0.282754   -1.337031
     19          1           0       -3.155011    1.838333   -1.392620
     20          1           0       -2.131327    2.022497    0.900829
     21          1           0       -0.886953    0.904052    1.420180
     22          1           0       -4.701624    0.860830    1.016536
     23          1           0       -3.558579   -3.125056    0.476776
     24          1           0       -1.420921   -1.680494    0.379590
     25          1           0        3.061900    1.089209   -0.223998
     26          1           0        2.995783   -0.196536   -1.439974
     27          1           0        2.848910   -1.921917    0.391035
     28          1           0        3.040789   -0.657170    1.610438
     29          1           0        5.064462   -1.329365   -0.470973
     30          1           0        5.234691   -0.138562    0.663255
     31          1           0        5.153663   -1.723052    1.133667
 ---------------------------------------------------------------------
                    Distance matrix (angstroms):
                    1          2          3          4          5
     1  O    0.000000
     2  C    1.234949   0.000000
     3  N    2.280796   1.340148   0.000000
     4  C    2.816361   2.441145   1.454759   0.000000
     5  C    4.267943   3.662405   2.394318   1.529834   0.000000
     6  O    5.197424   4.804217   3.623416   2.427941   1.338180
     7  O    4.809028   3.935359   2.621726   2.404602   1.209115
     8  C    3.195952   3.182127   2.531938   1.569848   2.565950
     9  C    3.558417   3.996585   3.646929   2.532396   3.542774
    10  C    4.888942   5.361619   4.931554   3.671688   4.334928
    11  N    5.268876   5.983354   5.787291   4.606884   5.412229
    12  C    4.320462   5.206855   5.273102   4.309585   5.395645
    13  N    3.057090   3.873884   3.953860   3.120910   4.388150
    14  C    2.395023   1.536217   2.443771   3.816756   4.779685
    15  C    2.692194   2.468238   3.653561   4.878435   6.047557
    16  N    4.165699   3.838459   4.915932   6.244602   7.280123
    17  H    3.197116   2.077821   1.017393   2.089417   2.373809
    18  H    2.704212   2.662673   2.081089   1.096451   2.138216
    19  H    4.977305   4.818089   3.800947   2.404468   1.923223
    20  H    4.238397   4.064799   3.193334   2.205498   2.560613
    21  H    2.857197   2.850841   2.508984   2.172425   3.313918
    22  H    5.762210   6.085842   5.473282   4.151939   4.488486
    23  H    4.698168   5.723029   5.978821   5.145275   6.291303
    24  H    2.179648   3.166987   3.547153   3.070206   4.505628
    25  H    3.250374   2.188170   2.595493   4.044296   4.754523
    26  H    2.903288   2.144200   2.922316   4.223807   5.047162
    27  H    2.402691   2.650682   3.976744   5.007508   6.306783
    28  H    2.913371   2.776426   3.836636   4.966538   6.175397
    29  H    4.461952   4.116911   5.177507   6.506317   7.474675
    30  H    4.734061   4.187977   5.069577   6.468356   7.361388
    31  H    4.699793   4.580869   5.734257   6.996110   8.123360
                    6          7          8          9         10
     6  O    0.000000
     7  O    2.230145   0.000000
     8  C    2.994361   3.508260   0.000000
     9  C    3.551202   4.663196   1.490961   0.000000
    10  C    3.916729   5.507690   2.633208   1.376857   0.000000
    11  N    4.990116   6.609932   3.737237   2.266589   1.376275
    12  C    5.255224   6.550677   3.635899   2.210626   2.138324
    13  N    4.532177   5.471603   2.511213   1.383082   2.188670
    14  C    6.037489   4.712035   4.599002   5.507906   6.879530
    15  C    7.243059   6.109575   5.315143   6.031177   7.391853
    16  N    8.533651   7.165674   6.773348   7.544046   8.907821
    17  H    3.709404   2.101982   3.240764   4.486722   5.699979
    18  H    2.696448   3.085771   2.178425   2.492614   3.546196
    19  H    0.972746   3.032291   2.655410   2.825728   3.032114
    20  H    2.737002   3.418762   1.093780   2.115628   2.792043
    21  H    3.973674   4.028837   1.094735   2.147801   3.348293
    22  H    3.848568   5.611307   3.071206   2.212085   1.082372
    23  H    6.191009   7.422282   4.605670   3.243468   3.191814
    24  H    4.909237   5.465586   2.771162   2.125284   3.166863
    25  H    6.074542   4.456643   4.802143   5.929575   7.283871
    26  H    6.281817   4.904649   5.259639   6.079028   7.420552
    27  H    7.404092   6.533470   5.414264   5.870624   7.187951
    28  H    7.336562   6.288809   5.094335   5.841705   7.173323
    29  H    8.723608   7.317776   7.225712   7.954757   9.316040
    30  H    8.659890   7.104007   6.997266   7.928112   9.298500
    31  H    9.345450   8.080471   7.375899   8.043250   9.379640
                   11         12         13         14         15
    11  N    0.000000
    12  C    1.315090   0.000000
    13  N    2.223259   1.366325   0.000000
    14  C    7.492212   6.658768   5.342581   0.000000
    15  C    7.848822   6.888515   5.646175   1.523476   0.000000
    16  N    9.358363   8.370956   7.149195   2.515826   1.518894
    17  H    6.646459   6.219109   4.922363   2.628699   4.024645
    18  H    4.207758   3.765326   2.695320   4.092004   5.081216
    19  H    4.045293   4.375464   3.793420   6.193949   7.266104
    20  H    4.101068   4.317467   3.391354   5.375039   6.161946
    21  H    4.327926   4.051981   2.832696   4.115938   4.618481
    22  H    2.148751   3.166888   3.247584   7.581484   8.178996
    23  H    2.134689   1.081167   2.148294   7.086131   7.169298
    24  H    3.202710   2.151369   1.013652   4.549985   4.750818
    25  H    8.052911   7.345863   5.992065   1.095300   2.184569
    26  H    7.958274   7.078887   5.821733   1.098273   2.165481
    27  H    7.460015   6.383954   5.247775   2.157432   1.090375
[...]
 1,-0.00000244,-0.00002024,0.00000652,0.00000014,-0.00001605,-0.0000225
 8,-0.00001140,0.00000021,0.00000418,0.00000128,0.00000163,-0.00001629,
 0.00000922,0.00000226,-0.01385086,-0.06219783,-0.06534210,0.00465554,0
 .02271680,0.00453312,0.00060707,-0.00036775,0.00026562,-0.00077628,0.0
 0000604,0.00020924,-0.00001154,0.00001645,-0.00001950,0.00000586,-0.00
 001837,0.00002560,0.00001349,-0.00000990,0.00000283,0.00001362,0.00003
 345,-0.00002030,0.00000194,-0.00000085,0.00000431,-0.00000069,0.000000
 13,-0.00000025,0.00001066,0.00000842,-0.00000096,0.01459298,0.06331721
 ,0.06707590,-0.00154088,-0.00147161,-0.00403893,-0.00881338,0.00483445
 ,0.03309626,-0.00109355,-0.00031036,-0.00162746,0.00001390,-0.00033510
 ,-0.00137776,-0.00013308,-0.00049211,0.00020947,-0.00015154,0.00018380
 ,-0.00006967,0.00003463,0.00019542,-0.00023863,0.00024758,0.00006402,-
 0.00013976,0.00002510,0.00002202,0.00000979,0.00004018,-0.00001935,-0.
 00000846,-0.00005548,-0.00004765,-0.00001026,-0.00002220,0.00000488,0.
 00000259,-0.00002002,0.00002414,0.00000447,-0.06354591,0.01242552,0.07
 173567,0.00262376,-0.00213597,-0.02013972,0.00198924,-0.00115311,-0.00
 069677,-0.00046661,0.00029040,0.00063045,-0.00038635,0.00014308,-0.000
 01991,0.00006618,0.00000625,0.00000540,0.00000027,-0.00000474,0.000017
 99,0.00004538,0.00000951,-0.00003086,0.00000582,-0.00000294,0.00000032
 ,-0.00000326,-0.00000069,0.00000097,0.00002770,0.00003367,-0.00000049,
 0.00148300,-0.00076793,-0.00579118,0.07105433,-0.00106507,-0.00051733,
 -0.00165290,-0.00290560,-0.00055889,0.00712309,0.00118436,0.00039025,0
 .00021708,-0.00022635,0.00000166,0.00003012,0.00004162,0.00021722,-0.0
 0014537,0.00002084,-0.00007201,0.00003943,-0.00004373,-0.00010893,0.00
 014469,0.00005130,-0.00004451,0.00007105,-0.00000011,-0.00000698,-0.00
 002910,-0.00002052,0.00000932,0.00000510,0.00002614,0.00002493,0.00000
 731,0.00001443,0.00000349,-0.00000032,0.00001304,-0.00001588,-0.000008
 82,0.01243854,-0.05520630,-0.03661392,-0.00613434,0.00333321,0.0219671
 4,-0.00092134,0.00105001,-0.00035218,0.00017025,-0.00003701,-0.0005391
 7,0.00012264,0.00001129,0.00004214,-0.00002315,0.00000531,-0.00000981,
 -0.00001643,0.00000750,-0.00001322,-0.00000115,-0.00001974,0.00000971,
 -0.00000357,0.00000142,-0.00000168,0.00000061,-0.00000004,0.00000116,0
 .00000395,-0.00000907,0.00000938,0.00942158,-0.00288978,-0.02970627,-0
 .01441785,0.05544078,0.00011381,-0.00035243,0.00070726,0.00244914,0.00
 026989,-0.00086144,-0.00039843,0.00063465,0.00041432,0.00028276,0.0000
 2806,0.00011086,0.00002586,-0.00001698,-0.00000244,-0.00001886,0.00000
 742,-0.00000040,-0.00002100,0.00000420,-0.00000886,-0.00008493,-0.0000
 2379,-0.00003322,-0.00000544,0.00001120,0.00002786,0.00000139,-0.00000
 689,0.00000041,-0.00000472,-0.00000438,-0.00000160,-0.00000676,-0.0000
 0064,-0.00000068,0.00000079,0.00000432,0.00000440,0.06423630,-0.037397
 06,-0.27923617,0.00483187,-0.00269248,-0.02032609,0.00076593,-0.001058
 02,0.00198041,-0.00000262,-0.00015633,-0.00021909,-0.00000818,-0.00004
 374,-0.00003225,0.00000309,0.00000102,-0.00000091,-0.00000058,0.000009
 82,-0.00000437,0.00000183,-0.00000409,-0.00001897,0.00000003,0.0000000
 9,-0.00000084,-0.00000027,0.00000003,-0.00000095,-0.00000164,0.0000004
 3,-0.00000592,0.00185744,-0.00083691,-0.00599326,-0.07034074,0.0379526
 6,0.30392062,-0.00255059,-0.00384260,0.00037370,0.00169139,0.00667273,
 -0.00174796,0.00040562,-0.00307538,0.00066308,-0.00051438,-0.00001098,
 -0.00002298,-0.00016089,0.00021768,-0.00017361,0.00012371,-0.00007406,
 0.00005639,0.00009222,-0.00021052,0.00015086,-0.00001526,0.00000928,-0
 .00001199,-0.00001253,0.00001920,-0.00002713,-0.00002366,0.00001817,0.
 00001571,0.00008206,0.00001491,-0.00000197,-0.00004204,-0.00001158,-0.
 00000127,0.00004635,-0.00003106,-0.00001878,0.00663007,0.01502526,0.00
 398210,-0.06794199,-0.07311499,-0.00921897,-0.02153173,-0.03265857,-0.
 00361359,0.00058478,0.00009741,0.00010377,-0.00002950,0.00007112,-0.00
 003792,-0.00003974,0.00000738,-0.00000887,0.00003568,-0.00002811,0.000
 01240,-0.00004243,0.00003285,0.00013394,-0.00000398,0.00000156,0.00000
 108,-0.00000051,-0.00000078,0.00000285,-0.00007595,-0.00002936,0.00001
 333,-0.00266492,0.00189040,-0.00280012,0.00040932,-0.00037748,-0.00021
 076,0.08622314,-0.00263291,0.00216387,-0.00124779,-0.00171454,-0.00355
 544,0.00074159,-0.00007954,0.00045093,0.00006465,0.00007068,0.00002731
 ,-0.00000776,0.00002740,-0.00005915,0.00006098,-0.00002953,0.00001457,
 -0.00001551,-0.00000482,0.00005527,-0.00003305,0.00001217,0.00000607,-
 0.00000628,0.00000790,0.00001575,0.00000691,0.00001211,-0.00000744,-0.
 00000310,-0.00001223,-0.00001880,-0.00000104,-0.00001302,0.00000379,0.
 00000054,-0.00000297,-0.00000063,0.00000468,-0.00145084,-0.01966206,-0
 .00182125,-0.08422945,-0.30216435,-0.03881087,0.00387427,0.00696272,0.
 00082096,-0.00006046,0.00003836,-0.00008786,0.00002110,0.00000606,0.00
 001188,0.00001196,0.00000343,-0.00000196,-0.00001044,0.00000453,-0.000
 00123,0.00002069,-0.00000675,-0.00003545,0.00000145,-0.00000117,-0.000
 00059,-0.00000258,0.00000025,-0.00000114,0.00000578,0.00002556,-0.0000
 0480,0.00135516,-0.00071223,0.00299047,-0.00020580,0.00076971,0.000052
 15,0.08541534,0.31874754,0.00037533,-0.00145669,-0.00147652,0.00016078
 ,0.00169574,0.00044403,0.00022328,-0.00033171,0.00024834,-0.00011481,-
 0.00007683,0.00001292,-0.00003674,0.00006949,-0.00005411,0.00006091,-0
 .00002435,0.00001431,0.00003259,-0.00005636,0.00002727,-0.00000869,-0.
 00002258,0.00000615,-0.00000236,-0.00000427,-0.00001597,-0.00001487,0.
 00000707,-0.00000154,0.00001637,0.00001504,-0.00000237,0.00000727,-0.0
 0000022,0.00000130,0.00000626,-0.00000403,-0.00002136,0.00525996,0.020
 35470,0.00345229,-0.01286690,-0.04136783,-0.05937905,0.00585945,0.0095
 4475,-0.00013923,0.00019856,0.00009169,0.00014567,-0.00001884,-0.00001
 277,0.00000160,-0.00002325,-0.00000730,0.00001611,0.00000745,-0.000002
 25,-0.00000188,-0.00001123,0.00000034,0.00004263,-0.00000207,0.0000007
 3,0.00000294,0.00000069,-0.00000051,0.00000444,-0.00000921,-0.00001601
 ,0.00003424,-0.00248741,0.00216789,-0.00197635,0.00084768,-0.00012708,
 0.00063521,0.01151803,0.03752656,0.05932391,-0.00062540,-0.00040155,0.
 00091135,0.00211660,0.00058042,-0.00086505,-0.00064964,0.00027446,0.00
 024361,0.00016467,0.00001628,-0.00006886,0.00009142,0.00001379,-0.0000
 0289,-0.00010152,0.00000677,0.00000182,-0.00008601,-0.00001793,0.00002
 228,-0.00003735,0.00002480,-0.00005158,-0.00001084,-0.00000765,0.00005
 008,0.00000574,-0.00000546,0.00001518,0.00000112,0.00000107,-0.0000002
 7,-0.00000236,-0.00000097,-0.00000289,0.00000369,0.00000113,0.00001797
 ,0.00335136,-0.00497037,-0.01642895,-0.05030063,0.00146162,0.01197640,
 -0.01514167,0.01084534,0.03913935,0.00009275,-0.00011360,-0.00004770,-
 0.00001861,-0.00000736,-0.00000451,0.00002567,0.00001621,-0.00003514,-
 0.00001668,0.00001516,-0.00000045,-0.00001322,-0.00003361,-0.00002350,
 -0.00000010,0.00000044,-0.00000574,0.00000048,0.00000036,-0.00000288,0
 .00000235,0.00000313,-0.00002868,0.00040667,-0.00008609,0.00073652,-0.
 00181563,0.00244708,-0.00179811,0.00321476,-0.00137939,-0.01028860,0.0
 6379914,-0.00017315,0.00028599,0.00073200,-0.00064413,0.00037906,-0.00
 005324,0.00005369,-0.00030381,-0.00034692,-0.00001207,-0.00001114,-0.0
 0000278,0.00000166,0.00001298,0.00001158,-0.00001133,-0.00000414,-0.00
 000193,-0.00000172,-0.00002148,-0.00001817,0.00000317,0.00002083,0.000
 00293,0.00000399,0.00001301,-0.00000372,0.00000790,0.00000060,0.000001
 74,0.00000010,-0.00001468,-0.00000090,-0.00001681,-0.00000173,-0.00000
 010,0.00000271,-0.00000645,0.00000535,-0.00222502,0.00581835,0.0218181
 3,0.00657628,-0.07118086,-0.07177701,-0.00121530,-0.00018996,0.0023722
 5,-0.00000638,0.00005495,0.00011493,-0.00000987,0.00000274,-0.00000184
 ,0.00000488,0.00000703,-0.00000215,0.00001305,-0.00001173,0.00000320,0
 .00000511,0.00002129,-0.00000573,0.00000196,-0.00000062,-0.00000028,-0
 .00000135,-0.00000025,-0.00000148,-0.00000579,0.00000743,-0.00001344,-
 0.00103813,0.00104523,-0.00019208,0.00292808,-0.00202151,0.00288503,0.
 00435529,-0.00470666,-0.02858572,-0.00863638,0.06991382,-0.00024938,-0
 .00055411,0.00064387,0.00073166,0.00100432,-0.00043331,-0.00024336,-0.
 00007409,0.00012492,-0.00000040,0.00001058,-0.00001302,0.00001676,0.00
 000149,-0.00000849,-0.00002209,0.00000106,0.00000116,-0.00001871,-0.00
 000299,0.00001823,-0.00000764,0.00000663,-0.00001957,-0.00000265,-0.00
 000322,0.00001325,0.00000122,-0.00000024,0.00000333,0.00000380,0.00000
 035,-0.00000108,-0.00000220,-0.00000036,-0.00000038,0.00000251,0.00000
 064,0.00000202,0.00027878,-0.00375677,-0.01592734,0.02423786,-0.069998
 44,-0.30921314,0.00132872,-0.00087151,-0.00256581,0.00003511,-0.000071
 92,-0.00008211,-0.00001322,0.00001584,-0.00000722,0.00000519,0.0000032
 5,-0.00000872,-0.00000299,0.00000110,0.00000277,-0.00001276,-0.0000074
 0,0.00001162,0.,-0.00000022,-0.00000074,0.00000019,0.00000016,-0.00000
 024,-0.00000424,0.00000016,-0.00000373,0.00044631,-0.00011616,0.001139
 64,-0.00207776,0.00212438,-0.00045883,-0.00016241,-0.00014694,-0.00191
 738,-0.02492229,0.07222677,0.32742786,0.00050978,0.00023351,-0.0003051
 6,-0.00114661,-0.00071300,-0.00011298,0.00073036,-0.00015739,0.0000023
 0,-0.00024253,-0.00008284,0.00008300,-0.00018138,0.00013353,-0.0001051
 9,0.00019815,-0.00005459,0.00004422,0.00012890,-0.00007144,0.00005451,
 0.00000440,-0.00001184,0.00005686,0.00000130,0.00000405,-0.00004801,-0
 .00003398,0.00001734,-0.00000014,0.00005545,0.00002652,0.00000222,-0.0
 0000862,-0.00000223,0.00000164,0.00002834,-0.00002662,-0.00001917,0.00
 204283,0.00012796,0.00120080,-0.00389519,0.01009159,0.03401080,-0.0662
 3754,0.01761657,0.05837462,-0.00005284,0.00017554,-0.00004186,0.000038
 95,0.00000558,0.00000376,-0.00005430,-0.00001594,0.00002158,0.00000812
 ,-0.00000532,-0.00000530,-0.00000876,0.00000773,0.00003617,-0.00000622
 ,0.00000243,0.00000406,-0.00000078,-0.00000050,0.00000297,-0.00002857,
 -0.00002135,0.00001959,0.00008506,-0.00007422,-0.00029934,-0.00025746,
 0.00053279,-0.00171954,0.00113300,-0.00063048,-0.00002145,-0.00716799,
 -0.00056719,-0.00017201,0.06776454,-0.00043254,-0.00067114,0.00000078,
 0.00110411,0.00067514,0.00020662,-0.00042255,-0.00000700,0.00001426,0.
 00015183,0.00005467,-0.00002510,0.00016568,-0.00001280,0.00003643,-0.0
 0015779,0.00001022,-0.00002462,-0.00011848,-0.00001193,-0.00001269,-0.
 00000034,0.00000133,-0.00003127,0.00000226,0.00002210,0.00003274,0.000
 02995,-0.00001271,0.00000260,-0.00002851,-0.00003818,-0.00000481,-0.00
 002130,0.00000495,-0.00000041,-0.00000782,0.00000492,0.00000326,-0.000
 66013,-0.00059613,-0.00097395,0.00096429,0.00099941,0.00192460,0.01489
 754,-0.09049037,-0.08974476,0.00007382,-0.00008118,0.00003253,-0.00003
 434,-0.00000619,-0.00000112,0.00003790,0.00002448,-0.00001789,-0.00000
 022,-0.00000133,0.00000083,0.00000670,0.00000263,-0.00001666,0.0000052
 7,-0.00000276,-0.00000338,-0.00000300,0.00000009,-0.00000071,0.0000078
 5,0.00003056,-0.00000044,0.00016565,-0.00016168,-0.00007139,0.00029884
 ,0.00030905,0.00064426,-0.00076717,0.00016517,0.00091432,-0.00062156,0
 .00055648,0.00022135,-0.01611643,0.08651849,-0.00022489,0.00028015,-0.
 00026680,-0.00002496,-0.00000355,-0.00022342,-0.00036018,0.00006444,-0
 .00008318,0.00008993,0.00011008,0.00003484,-0.00000324,-0.00008688,0.0
 0008025,-0.00002891,0.00002903,-0.00003894,-0.00000324,0.00004641,-0.0
 0007002,-0.00001396,-0.00001043,0.00000251,0.00000573,0.00000421,0.000
 00271,0.00000805,-0.00000168,-0.00000789,-0.00001920,-0.00001193,-0.00
 000646,0.00000040,0.00000256,0.00000210,-0.00000848,0.00000685,-0.0000
 0928,-0.00106983,-0.00056362,0.00300965,0.00581544,-0.00016595,-0.0033
 0871,0.04774458,-0.09012563,-0.36994812,0.00000967,-0.00003970,0.00008
 636,-0.00000709,-0.00002200,0.00000819,0.00000691,-0.00000212,0.000020
 60,0.00000320,-0.00000220,-0.00000120,0.00000749,0.00000572,-0.0000151
 4,0.00000215,-0.00000124,0.00000326,-0.00000058,-0.00000057,0.00000297
 ,0.00001084,0.00000631,0.00001651,0.00004197,0.00003598,-0.00032347,0.
 00035116,-0.00035987,-0.00050116,-0.00033938,0.00047053,0.00044922,0.0
 0012605,0.00069451,0.00143871,-0.05688542,0.09707414,0.38941907,0.0000
 1540,0.00141597,-0.00069082,-0.00217287,-0.00153735,0.00079969,0.00074
 850,0.00014245,-0.00000080,-0.00021077,-0.00011509,0.00001003,-0.00017
 448,0.00010207,-0.00008939,0.00018712,-0.00004387,0.00004490,0.0001249
 5,-0.00004303,0.00005023,0.00001521,-0.00000100,0.00003665,-0.00000149
 ,-0.00000782,-0.00003950,-0.00003543,0.00001702,0.00000196,0.00005209,
 0.00003303,0.00000371,0.00000170,-0.00000130,0.00000104,0.00002508,-0.
 00002320,-0.00001120,0.00282159,-0.00074599,-0.00042864,-0.01174769,-0
 .03178408,-0.00494549,-0.10753281,-0.12626883,-0.02032862,-0.00010196,
 0.00015559,-0.00009872,0.00004031,0.00001644,0.00000521,-0.00004860,-0
 .00001690,0.00001379,-0.00000122,0.00000134,-0.00000393,-0.00000698,-0
 .00000710,0.00002616,-0.00000698,0.00000288,0.00000287,0.00000016,-0.0
 0000015,0.00000186,-0.00002052,-0.00002368,0.00000838,-0.00046649,0.00
 108858,-0.00011310,-0.00021839,0.00011550,-0.00020390,-0.00568151,0.00
 239273,0.00216548,0.00151783,0.00005484,0.00033195,0.00270413,0.007666
 69,0.00026156,0.11112935,0.00036093,-0.00051138,0.00027338,-0.00005943
 ,0.00009245,-0.00007100,0.00039795,-0.00030021,0.00002882,-0.00009146,
 -0.00006705,0.00000950,0.00003418,0.00014990,-0.00007989,0.00000410,-0
 .00005016,0.00002600,-0.00002081,-0.00011527,0.00004795,0.00000671,0.0
 0000994,0.00001233,0.00000106,0.00001201,-0.00000762,-0.00000313,0.000
 00685,0.00000727,0.00002233,-0.00000586,-0.00000035,-0.00001842,-0.000
 00080,-0.00000028,0.00001444,-0.00001784,-0.00000518,0.00040165,0.0026
 3592,-0.00029777,-0.00342699,0.00551129,0.00214306,-0.11550908,-0.3504
 1113,-0.04220137,0.00007520,0.00011295,0.00002323,-0.00000202,0.000004
 37,-0.00000391,-0.00000791,0.00001388,-0.00000872,0.00000953,-0.000005
 90,-0.00000277,-0.00000920,0.00000387,0.00002254,0.00000025,0.00000004
 ,-0.00000119,-0.00000163,-0.00000031,0.00000024,-0.00001812,0.00000197
 ,0.00000128,-0.00007290,-0.00066917,-0.00044598,-0.00007265,0.00002092
 ,-0.00006483,0.00136098,0.00091421,0.00006023,0.00039797,0.00034099,0.
 00016842,-0.00272935,-0.00687943,0.00038613,0.12863872,0.36830721,0.00
 047647,0.00011438,0.00000925,-0.00068623,0.00023461,-0.00022813,0.0002
 5769,-0.00018271,-0.00003250,-0.00011871,-0.00001513,0.00003513,-0.000
 11872,0.00001208,-0.00001580,0.00011050,-0.00001063,0.00000513,0.00008
 753,-0.00000344,-0.00000996,-0.00000034,0.00000003,0.00003029,0.000005
 05,0.00000072,-0.00002938,-0.00001510,0.00001122,-0.00000508,0.0000211
 0,0.00000947,-0.00000329,-0.00000194,-0.00000080,0.00000246,0.00000953
 ,-0.00001046,-0.00001404,-0.00000751,-0.00051766,-0.00014151,0.0020082
 6,0.00799825,0.00184384,-0.01819143,-0.04014194,-0.07000906,-0.0000499
 3,0.00006385,0.00002354,0.00001382,0.00000424,-0.00000389,-0.00002772,
 -0.00001331,0.00002478,0.00001050,-0.00000897,0.00000155,-0.00000555,0
 .00001283,0.00002246,-0.00000176,0.00000046,0.00000538,-0.00000007,-0.
 00000049,0.00000316,-0.00001327,-0.00001093,0.00001561,-0.00004671,0.0
 0006166,0.00047149,-0.00023646,-0.00029060,-0.00036674,0.00174940,-0.0
 0042217,0.00000103,0.00053172,0.00079357,-0.00025042,-0.01576663,-0.03
 548121,-0.00144542,0.01842638,0.04517617,0.06510784,0.00044825,-0.0009
 4495,0.00056216,0.00063859,0.00322239,-0.00155092,-0.00082216,-0.00056
 993,0.00008786,0.00004290,0.00020106,-0.00000177,-0.00010198,-0.000057
 18,0.00002394,0.00000066,0.00002170,-0.00001213,0.00002900,0.00000921,
 -0.00000226,-0.00003115,0.00000036,-0.00002793,-0.00000853,0.00001928,
 0.00001970,0.00000302,-0.00000286,0.00000742,0.00001810,-0.00000894,-0
 .00000306,-0.00002777,-0.00000031,-0.00000087,0.00001778,-0.00000863,0
 .00000301,-0.00686356,-0.00235618,0.00299965,-0.01356355,0.02015272,-0
 .01989132,-0.13818712,0.10982303,-0.10603073,0.00002042,-0.00005933,0.
 00001106,-0.00000443,-0.00000097,-0.00000250,0.00000647,0.00000624,-0.
 00000880,-0.00000333,0.00000142,0.00000236,-0.00000589,-0.00000002,0.0
 0000589,-0.00000148,0.00000023,-0.00000137,-0.00000217,-0.00000010,-0.
 00000068,-0.00001699,0.00000532,-0.00000691,0.00008771,0.00008488,0.00
 020768,0.00045735,-0.00044799,0.00025625,0.00065952,-0.00076976,-0.000
 83366,0.00119340,0.00055191,0.00049407,0.00388944,-0.00618619,0.004504
 24,0.00904474,-0.00968291,0.01158011,0.14308277,-0.00026808,0.00007023
 ,-0.00011700,-0.00013281,0.00008702,0.00009620,-0.00026732,0.00001657,
 -0.00002057,0.00008143,0.00002697,0.00000213,0.00012806,-0.00000018,0.
 00002721,-0.00011056,0.00000334,-0.00001559,-0.00008302,-0.00000916,-0
 .00001420,-0.00000107,0.00000668,-0.00002530,0.00000240,0.00001762,0.0
 0002270,0.00002407,-0.00000841,0.00000162,-0.00002132,-0.00003253,-0.0
 0000302,-0.00001894,0.00000405,-0.00000033,-0.00000562,0.00000217,0.00
 000570,-0.00022494,0.00025723,0.00022102,0.00101944,0.00301505,-0.0040
 1095,0.10280308,-0.20230187,0.13146982,0.00005503,-0.00006942,0.000044
 29,-0.00001739,-0.00000455,-0.00000390,0.00002721,0.00001849,-0.000013
 93,0.00000334,-0.00000455,0.00000231,0.00000914,0.00000556,-0.00000970
 ,0.00000442,-0.00000226,-0.00000235,-0.00000256,0.00000027,-0.00000174
 ,0.00000415,0.00002535,-0.00000645,-0.00025853,0.00015017,0.00000107,-
 0.00002620,-0.00008808,0.00015335,-0.00097691,0.00051959,-0.00035203,0
 .00017587,-0.00000577,-0.00018215,-0.00769441,0.00959313,-0.00781965,0
 .01877553,-0.01910428,0.02261688,-0.11300350,0.20781158,0.00026320,-0.
 00010980,-0.00008331,-0.00013008,-0.00012359,0.00070394,0.00044797,-0.
 00008728,-0.00002180,-0.00010810,-0.00007539,-0.00003955,-0.00011128,0
 .00003809,-0.00004401,0.00011370,-0.00001839,0.00001544,0.00008038,-0.
 00001969,0.00001360,0.00001974,-0.00000612,0.00004429,0.00000615,-0.00
 000319,-0.00003460,-0.00002016,0.00001211,-0.00000457,0.00002584,0.000
 01672,-0.00000220,0.00000353,-0.00000011,0.00000255,0.00001067,-0.0000
 1171,-0.00001792,0.00188262,0.00072576,-0.00100964,0.00172926,-0.00773
 567,0.00771745,-0.09826571,0.12981082,-0.18751882,-0.00004504,0.000108
 21,-0.00000823,0.00000476,0.00001063,-0.00000031,-0.00003051,-0.000013
 52,0.00002225,0.00000593,-0.00000564,-0.00000108,-0.00000985,0.0000068
 5,0.00002457,-0.00000280,0.00000073,0.00000498,0.00000016,-0.00000045,
 0.00000428,-0.00001238,-0.00001322,0.00002167,-0.00017230,0.00010501,0
 .00000970,-0.00006740,0.00010588,0.00027284,-0.00037893,-0.00010313,0.
 00012213,0.00080575,-0.00065451,0.00008415,-0.01841691,0.02530170,-0.0
 1832772,0.00476227,-0.00519569,0.00495227,0.10760953,-0.14206544,0.193
 09766\\0.00000223,0.00000157,0.00000084,0.00000425,-0.00000103,0.00000
 009,-0.00000210,0.00000090,-0.00000042,-0.00000273,-0.00000134,-0.0000
 0049,0.00000349,0.00000243,-0.00000081,-0.00000091,0.00000083,0.000000
 29,-0.00000081,-0.00000043,0.00000073,0.00000053,0.00000060,0.00000001
 ,0.00000108,-0.00000192,-0.00000131,0.00000138,0.00000014,-0.00000012,
 -0.00000075,-0.00000099,-0.00000065,-0.00000014,0.00000089,0.00000003,
 0.00000033,0.00000182,0.00000095,-0.00000300,0.00000256,-0.00000060,-0
 .00000856,-0.00000073,0.00000101,0.00000491,-0.00000027,-0.00000154,0.
 ,-0.00000196,0.00000095,0.00000023,-0.00000057,0.00000063,-0.00000054,
 -0.00000115,-0.00000024,-0.00000034,0.,-0.00000046,0.00000059,-0.00000
 031,0.00000056,-0.00000003,0.00000012,0.00000014,0.00000011,0.00000028
 ,-0.00000012,-0.00000031,0.00000019,-0.00000099,0.00000035,-0.00000018
 ,0.00000009,0.00000091,-0.00000063,0.00000059,-0.00000006,-0.00000022,
 0.00000080,-0.00000003,-0.00000059,-0.00000044,0.00000023,0.00000005,0
 .00000038,-0.00000036,-0.00000026,0.00000015,0.00000005,0.00000021,-0.
 00000006\\\@


 We make a living by what we get,
 we make a life by what we give.
                   -- Sir Winston Churchill
 Job cpu time:       0 days  1 hours 17 minutes 50.2 seconds.
 File lengths (MBytes):  RWF=    349 Int=      0 D2E=      0 Chk=     10 Scr=      1
 Normal termination of Gaussian 09 at Wed Jul 28 22:58:22 2021.
