 Entering Gaussian System, Link 0=g09
 Input=opt_freq-conf-214.com
 Output=opt_freq-conf-214.log
 Initial command:
 /aerosol/software/g09/l1.exe "/scratch/nicole/10671/Gau-83123.inp" -scrdir="/scratch/nicole/10671/"
 Entering Link 1 = /aerosol/software/g09/l1.exe PID=     83130.
  
 Copyright (c) 1988,1990,1992,1993,1995,1998,2003,2009,2013,
            Gaussian, Inc.  All Rights Reserved.
  
 This is part of the Gaussian(R) 09 program.  It is based on
 the Gaussian(R) 03 system (copyright 2003, Gaussian, Inc.),
 the Gaussian(R) 98 system (copyright 1998, Gaussian, Inc.),
 the Gaussian(R) 94 system (copyright 1995, Gaussian, Inc.),
 the Gaussian 92(TM) system (copyright 1992, Gaussian, Inc.),
 the Gaussian 90(TM) system (copyright 1990, Gaussian, Inc.),
 the Gaussian 88(TM) system (copyright 1988, Gaussian, Inc.),
 the Gaussian 86(TM) system (copyright 1986, Carnegie Mellon
 University), and the Gaussian 82(TM) system (copyright 1983,
 Carnegie Mellon University). Gaussian is a federally registered
 trademark of Gaussian, Inc.
  
 This software contains proprietary and confidential information,
 including trade secrets, belonging to Gaussian, Inc.
  
 This software is provided under written license and may be
 used, copied, transmitted, or stored only in accord with that
 written license.
  
 The following legend is applicable only to US Government
 contracts under FAR:
  
                    RESTRICTED RIGHTS LEGEND
  
 Use, reproduction and disclosure by the US Government is
 subject to restrictions as set forth in subparagraphs (a)
 and (c) of the Commercial Computer Software - Restricted
 Rights clause in FAR 52.227-19.
  
 Gaussian, Inc.
 340 Quinnipiac St., Bldg. 40, Wallingford CT 06492
  
  
 ---------------------------------------------------------------
 Warning -- This program may not be used in any manner that
 competes with the business of Gaussian, Inc. or will provide
 assistance to any competitor of Gaussian, Inc.  The licensee
 of this program is prohibited from giving any competitor of
 Gaussian, Inc. access to this program.  By using this program,
 the user acknowledges that Gaussian, Inc. is engaged in the
 business of creating and licensing software in the field of
 computational chemistry and represents and warrants to the
 licensee that it is not a competitor of Gaussian, Inc. and that
 it will not use this program in any manner prohibited above.
 ---------------------------------------------------------------
  

 Cite this work as:
 Gaussian 09, Revision D.01,
 M. J. Frisch, G. W. Trucks, H. B. Schlegel, G. E. Scuseria, 
 M. A. Robb, J. R. Cheeseman, G. Scalmani, V. Barone, B. Mennucci, 
 G. A. Petersson, H. Nakatsuji, M. Caricato, X. Li, H. P. Hratchian, 
 A. F. Izmaylov, J. Bloino, G. Zheng, J. L. Sonnenberg, M. Hada, 
 M. Ehara, K. Toyota, R. Fukuda, J. Hasegawa, M. Ishida, T. Nakajima, 
 Y. Honda, O. Kitao, H. Nakai, T. Vreven, J. A. Montgomery, Jr., 
 J. E. Peralta, F. Ogliaro, M. Bearpark, J. J. Heyd, E. Brothers, 
 K. N. Kudin, V. N. Staroverov, T. Keith, R. Kobayashi, J. Normand, 
 K. Raghavachari, A. Rendell, J. C. Burant, S. S. Iyengar, J. Tomasi, 
 M. Cossi, N. Rega, J. M. Millam, M. Klene, J. E. Knox, J. B. Cross, 
 V. Bakken, C. Adamo, J. Jaramillo, R. Gomperts, R. E. Stratmann, 
 O. Yazyev, A. J. Austin, R. Cammi, C. Pomelli, J. W. Ochterski, 
 R. L. Martin, K. Morokuma, V. G. Zakrzewski, G. A. Voth, 
 P. Salvador, J. J. Dannenberg, S. Dapprich, A. D. Daniels, 
 O. Farkas, J. B. Foresman, J. V. Ortiz, J. Cioslowski, 
 and D. J. Fox, Gaussian, Inc., Wallingford CT, 2013.
 
 ******************************************
 Gaussian 09:  ES64L-G09RevD.01 24-Apr-2013
                28-Jul-2021 
 ******************************************
 %mem=2gb
 %nproc=4
 Will use up to    4 processors via shared memory.
 %chk=conf-214.chk
 ----------------------------------------------------------------------
 # B3LYP/6-31G(d,p) opt=calcfc freq=noraman nosymm integral(ultrafinegr
 id)
 ----------------------------------------------------------------------
 1/10=4,14=-1,18=20,19=15,26=4,38=1/1,3;
 2/9=110,12=2,15=1,17=6,18=5,40=1/2;
 3/5=1,6=6,7=101,11=2,16=1,25=1,30=1,71=2,74=-5,75=-5,140=1/1,2,3;
 4//1;
 5/5=2,38=5/2;
 8/6=4,10=90,11=11/1;
 11/6=1,8=1,9=11,15=111,16=1,31=1/1,2,10;
 10/6=1,13=1,31=1/2;
 6/7=2,8=2,9=2,10=2,28=1/1;
 7/10=1,18=20,25=1,30=1/1,2,3,16;
 1/10=4,14=-1,18=20,19=15,26=4/3(2);
 2/9=110,15=1/2;
 99//99;
 2/9=110,15=1/2;
 3/5=1,6=6,7=101,11=2,16=1,25=1,30=1,71=1,74=-5,75=-5/1,2,3;
 4/5=5,16=3,69=1/1;
 5/5=2,38=5/2;
 7/30=1/1,2,3,16;
 1/14=-1,18=20,19=15,26=4/3(-5);
 2/9=110,15=1/2;
 6/7=2,8=2,9=2,10=2,19=2,28=1/1;
 99/9=1/99;
 ------------------------------------------------------------
 Candidate Structure: Conf:214 OPT and FREQ calc in gas phase
 ------------------------------------------------------------
 Symbolic Z-matrix:
 Charge =  1 Multiplicity = 1
 O                    -1.0496   -0.53171  -1.26429 
 C                    -1.10935  -0.17362  -0.09274 
 N                    -0.07815  -0.35767   0.78573 
 C                     1.02197  -1.24123   0.46697 
 C                     0.99565  -2.41586   1.43875 
 O                     1.65977  -3.52102   1.03213 
 O                     0.4677   -2.37978   2.51493 
 C                     2.39123  -0.554     0.56355 
 C                     2.65125   0.44626  -0.52716 
 C                     1.96614   0.8207   -1.6442 
 N                     2.65836   1.78482  -2.35484 
 C                     3.75716   1.98695  -1.66937 
 N                     3.80598   1.20777  -0.55842 
 C                    -2.2992    0.57826   0.4719 
 C                    -3.58898   0.26692  -0.27238 
 N                    -4.74081   1.0379    0.26778 
 H                    -0.28411  -0.2903    1.77378 
 H                     0.86987  -1.58714  -0.55552 
 H                     1.993    -3.39268   0.13839 
 H                     2.48575  -0.07101   1.5373 
 H                     3.17116  -1.32253   0.52594 
 H                     0.99862   0.45657  -1.9497 
 H                     4.54429   2.67546  -1.92422 
 H                     4.54554   1.18272   0.12319 
 H                    -2.08898   1.64809   0.38756 
 H                    -2.4075    0.3501    1.53438 
 H                    -3.79994  -0.79962  -0.20382 
 H                    -3.44895   0.49931  -1.32737 
 H                    -4.57879   2.04215   0.19387 
 H                    -5.60488   0.83192  -0.23548 
 H                    -4.90422   0.82239   1.25117 
 

 GradGradGradGradGradGradGradGradGradGradGradGradGradGradGradGradGradGrad
 Berny optimization.
 Initialization pass.
                           ----------------------------
                           !    Initial Parameters    !
                           ! (Angstroms and Degrees)  !
 --------------------------                            --------------------------
 ! Name  Definition              Value          Derivative Info.                !
 --------------------------------------------------------------------------------
 ! R1    R(1,2)                  1.2265         calculate D2E/DX2 analytically  !
 ! R2    R(2,3)                  1.3671         calculate D2E/DX2 analytically  !
 ! R3    R(2,14)                 1.5165         calculate D2E/DX2 analytically  !
 ! R4    R(3,4)                  1.4466         calculate D2E/DX2 analytically  !
 ! R5    R(3,17)                 1.0115         calculate D2E/DX2 analytically  !
 ! R6    R(4,5)                  1.5247         calculate D2E/DX2 analytically  !
 ! R7    R(4,8)                  1.5351         calculate D2E/DX2 analytically  !
 ! R8    R(4,18)                 1.0901         calculate D2E/DX2 analytically  !
 ! R9    R(5,6)                  1.3519         calculate D2E/DX2 analytically  !
 ! R10   R(5,7)                  1.1993         calculate D2E/DX2 analytically  !
 ! R11   R(6,19)                 0.9624         calculate D2E/DX2 analytically  !
 ! R12   R(8,9)                  1.5026         calculate D2E/DX2 analytically  !
 ! R13   R(8,20)                 1.0911         calculate D2E/DX2 analytically  !
 ! R14   R(8,21)                 1.0956         calculate D2E/DX2 analytically  !
 ! R15   R(9,10)                 1.3628         calculate D2E/DX2 analytically  !
 ! R16   R(9,13)                 1.3836         calculate D2E/DX2 analytically  !
 ! R17   R(10,11)                1.3834         calculate D2E/DX2 analytically  !
 ! R18   R(10,22)                1.078          calculate D2E/DX2 analytically  !
 ! R19   R(11,12)                1.3108         calculate D2E/DX2 analytically  !
 ! R20   R(12,13)                1.3578         calculate D2E/DX2 analytically  !
 ! R21   R(12,23)                1.0764         calculate D2E/DX2 analytically  !
 ! R22   R(13,24)                1.0061         calculate D2E/DX2 analytically  !
 ! R23   R(14,15)                1.5213         calculate D2E/DX2 analytically  !
 ! R24   R(14,25)                1.0935         calculate D2E/DX2 analytically  !
 ! R25   R(14,26)                1.0921         calculate D2E/DX2 analytically  !
 ! R26   R(15,16)                1.4876         calculate D2E/DX2 analytically  !
 ! R27   R(15,27)                1.0894         calculate D2E/DX2 analytically  !
 ! R28   R(15,28)                1.0893         calculate D2E/DX2 analytically  !
 ! R29   R(16,29)                1.0199         calculate D2E/DX2 analytically  !
 ! R30   R(16,30)                1.0209         calculate D2E/DX2 analytically  !
 ! R31   R(16,31)                1.0199         calculate D2E/DX2 analytically  !
 ! A1    A(1,2,3)              122.5296         calculate D2E/DX2 analytically  !
 ! A2    A(1,2,14)             122.5885         calculate D2E/DX2 analytically  !
 ! A3    A(3,2,14)             114.7914         calculate D2E/DX2 analytically  !
 ! A4    A(2,3,4)              120.9497         calculate D2E/DX2 analytically  !
 ! A5    A(2,3,17)             117.7175         calculate D2E/DX2 analytically  !
 ! A6    A(4,3,17)             114.253          calculate D2E/DX2 analytically  !
 ! A7    A(3,4,5)              108.4804         calculate D2E/DX2 analytically  !
 ! A8    A(3,4,8)              113.0197         calculate D2E/DX2 analytically  !
 ! A9    A(3,4,18)             107.1214         calculate D2E/DX2 analytically  !
 ! A10   A(5,4,8)              108.6745         calculate D2E/DX2 analytically  !
 ! A11   A(5,4,18)             110.5452         calculate D2E/DX2 analytically  !
 ! A12   A(8,4,18)             108.9981         calculate D2E/DX2 analytically  !
 ! A13   A(4,5,6)              115.4415         calculate D2E/DX2 analytically  !
 ! A14   A(4,5,7)              123.8043         calculate D2E/DX2 analytically  !
 ! A15   A(6,5,7)              120.7138         calculate D2E/DX2 analytically  !
 ! A16   A(5,6,19)             109.8994         calculate D2E/DX2 analytically  !
 ! A17   A(4,8,9)              113.9978         calculate D2E/DX2 analytically  !
 ! A18   A(4,8,20)             109.366          calculate D2E/DX2 analytically  !
 ! A19   A(4,8,21)             108.5884         calculate D2E/DX2 analytically  !
 ! A20   A(9,8,20)             109.7652         calculate D2E/DX2 analytically  !
 ! A21   A(9,8,21)             108.5944         calculate D2E/DX2 analytically  !
 ! A22   A(20,8,21)            106.2301         calculate D2E/DX2 analytically  !
 ! A23   A(8,9,10)             133.699          calculate D2E/DX2 analytically  !
 ! A24   A(8,9,13)             121.8173         calculate D2E/DX2 analytically  !
 ! A25   A(10,9,13)            104.467          calculate D2E/DX2 analytically  !
 ! A26   A(9,10,11)            111.1605         calculate D2E/DX2 analytically  !
 ! A27   A(9,10,22)            126.2051         calculate D2E/DX2 analytically  !
 ! A28   A(11,10,22)           122.6126         calculate D2E/DX2 analytically  !
 ! A29   A(10,11,12)           104.9693         calculate D2E/DX2 analytically  !
 ! A30   A(11,12,13)           111.6857         calculate D2E/DX2 analytically  !
 ! A31   A(11,12,23)           126.0041         calculate D2E/DX2 analytically  !
 ! A32   A(13,12,23)           122.3101         calculate D2E/DX2 analytically  !
 ! A33   A(9,13,12)            107.7173         calculate D2E/DX2 analytically  !
 ! A34   A(9,13,24)            125.7679         calculate D2E/DX2 analytically  !
 ! A35   A(12,13,24)           126.5148         calculate D2E/DX2 analytically  !
 ! A36   A(2,14,15)            112.4305         calculate D2E/DX2 analytically  !
 ! A37   A(2,14,25)            107.7876         calculate D2E/DX2 analytically  !
 ! A38   A(2,14,26)            109.6605         calculate D2E/DX2 analytically  !
 ! A39   A(15,14,25)           108.9935         calculate D2E/DX2 analytically  !
 ! A40   A(15,14,26)           110.4352         calculate D2E/DX2 analytically  !
 ! A41   A(25,14,26)           107.3665         calculate D2E/DX2 analytically  !
 ! A42   A(14,15,16)           111.8848         calculate D2E/DX2 analytically  !
 ! A43   A(14,15,27)           109.4968         calculate D2E/DX2 analytically  !
 ! A44   A(14,15,28)           108.734          calculate D2E/DX2 analytically  !
 ! A45   A(16,15,27)           109.5496         calculate D2E/DX2 analytically  !
 ! A46   A(16,15,28)           109.9155         calculate D2E/DX2 analytically  !
 ! A47   A(27,15,28)           107.1398         calculate D2E/DX2 analytically  !
 ! A48   A(15,16,29)           111.1616         calculate D2E/DX2 analytically  !
 ! A49   A(15,16,30)           111.825          calculate D2E/DX2 analytically  !
 ! A50   A(15,16,31)           111.386          calculate D2E/DX2 analytically  !
 ! A51   A(29,16,30)           107.301          calculate D2E/DX2 analytically  !
 ! A52   A(29,16,31)           107.6609         calculate D2E/DX2 analytically  !
 ! A53   A(30,16,31)           107.2807         calculate D2E/DX2 analytically  !
 ! D1    D(1,2,3,4)            -13.7324         calculate D2E/DX2 analytically  !
 ! D2    D(1,2,3,17)          -162.6151         calculate D2E/DX2 analytically  !
 ! D3    D(14,2,3,4)           169.6455         calculate D2E/DX2 analytically  !
 ! D4    D(14,2,3,17)           20.7628         calculate D2E/DX2 analytically  !
 ! D5    D(1,2,14,15)           27.4281         calculate D2E/DX2 analytically  !
 ! D6    D(1,2,14,25)          -92.7184         calculate D2E/DX2 analytically  !
 ! D7    D(1,2,14,26)          150.6984         calculate D2E/DX2 analytically  !
 ! D8    D(3,2,14,15)         -155.952          calculate D2E/DX2 analytically  !
 ! D9    D(3,2,14,25)           83.9015         calculate D2E/DX2 analytically  !
 ! D10   D(3,2,14,26)          -32.6817         calculate D2E/DX2 analytically  !
 ! D11   D(2,3,4,5)           -114.4931         calculate D2E/DX2 analytically  !
 ! D12   D(2,3,4,8)            124.9223         calculate D2E/DX2 analytically  !
 ! D13   D(2,3,4,18)             4.8568         calculate D2E/DX2 analytically  !
 ! D14   D(17,3,4,5)            35.3894         calculate D2E/DX2 analytically  !
 ! D15   D(17,3,4,8)           -85.1953         calculate D2E/DX2 analytically  !
 ! D16   D(17,3,4,18)          154.7393         calculate D2E/DX2 analytically  !
 ! D17   D(3,4,5,6)            159.6472         calculate D2E/DX2 analytically  !
 ! D18   D(3,4,5,7)            -22.6568         calculate D2E/DX2 analytically  !
 ! D19   D(8,4,5,6)            -77.1104         calculate D2E/DX2 analytically  !
 ! D20   D(8,4,5,7)            100.5856         calculate D2E/DX2 analytically  !
 ! D21   D(18,4,5,6)            42.4697         calculate D2E/DX2 analytically  !
 ! D22   D(18,4,5,7)          -139.8342         calculate D2E/DX2 analytically  !
 ! D23   D(3,4,8,9)            -70.9751         calculate D2E/DX2 analytically  !
 ! D24   D(3,4,8,20)            52.3124         calculate D2E/DX2 analytically  !
 ! D25   D(3,4,8,21)           167.8289         calculate D2E/DX2 analytically  !
 ! D26   D(5,4,8,9)            168.5509         calculate D2E/DX2 analytically  !
 ! D27   D(5,4,8,20)           -68.1617         calculate D2E/DX2 analytically  !
 ! D28   D(5,4,8,21)            47.3549         calculate D2E/DX2 analytically  !
 ! D29   D(18,4,8,9)            48.0098         calculate D2E/DX2 analytically  !
 ! D30   D(18,4,8,20)          171.2972         calculate D2E/DX2 analytically  !
 ! D31   D(18,4,8,21)          -73.1862         calculate D2E/DX2 analytically  !
 ! D32   D(4,5,6,19)            -4.2457         calculate D2E/DX2 analytically  !
 ! D33   D(7,5,6,19)           177.9811         calculate D2E/DX2 analytically  !
 ! D34   D(4,8,9,10)            -5.0285         calculate D2E/DX2 analytically  !
 ! D35   D(4,8,9,13)           176.7125         calculate D2E/DX2 analytically  !
 ! D36   D(20,8,9,10)         -128.0989         calculate D2E/DX2 analytically  !
 ! D37   D(20,8,9,13)           53.642          calculate D2E/DX2 analytically  !
 ! D38   D(21,8,9,10)          116.1642         calculate D2E/DX2 analytically  !
 ! D39   D(21,8,9,13)          -62.0949         calculate D2E/DX2 analytically  !
 ! D40   D(8,9,10,11)         -178.6068         calculate D2E/DX2 analytically  !
 ! D41   D(8,9,10,22)            3.0695         calculate D2E/DX2 analytically  !
 ! D42   D(13,9,10,11)          -0.1345         calculate D2E/DX2 analytically  !
 ! D43   D(13,9,10,22)        -178.4582         calculate D2E/DX2 analytically  !
 ! D44   D(8,9,13,12)          178.7672         calculate D2E/DX2 analytically  !
 ! D45   D(8,9,13,24)           -1.1857         calculate D2E/DX2 analytically  !
 ! D46   D(10,9,13,12)           0.067          calculate D2E/DX2 analytically  !
 ! D47   D(10,9,13,24)        -179.8859         calculate D2E/DX2 analytically  !
 ! D48   D(9,10,11,12)           0.1507         calculate D2E/DX2 analytically  !
 ! D49   D(22,10,11,12)        178.5449         calculate D2E/DX2 analytically  !
 ! D50   D(10,11,12,13)         -0.1052         calculate D2E/DX2 analytically  !
 ! D51   D(10,11,12,23)        179.8774         calculate D2E/DX2 analytically  !
 ! D52   D(11,12,13,9)           0.0256         calculate D2E/DX2 analytically  !
 ! D53   D(11,12,13,24)        179.978          calculate D2E/DX2 analytically  !
 ! D54   D(23,12,13,9)        -179.9578         calculate D2E/DX2 analytically  !
 ! D55   D(23,12,13,24)         -0.0055         calculate D2E/DX2 analytically  !
 ! D56   D(2,14,15,16)        -178.4771         calculate D2E/DX2 analytically  !
 ! D57   D(2,14,15,27)          59.8705         calculate D2E/DX2 analytically  !
 ! D58   D(2,14,15,28)         -56.8858         calculate D2E/DX2 analytically  !
 ! D59   D(25,14,15,16)        -59.0308         calculate D2E/DX2 analytically  !
 ! D60   D(25,14,15,27)        179.3167         calculate D2E/DX2 analytically  !
 ! D61   D(25,14,15,28)         62.5605         calculate D2E/DX2 analytically  !
 ! D62   D(26,14,15,16)         58.687          calculate D2E/DX2 analytically  !
 ! D63   D(26,14,15,27)        -62.9654         calculate D2E/DX2 analytically  !
 ! D64   D(26,14,15,28)       -179.7217         calculate D2E/DX2 analytically  !
 ! D65   D(14,15,16,29)         59.7998         calculate D2E/DX2 analytically  !
 ! D66   D(14,15,16,30)        179.7036         calculate D2E/DX2 analytically  !
 ! D67   D(14,15,16,31)        -60.2646         calculate D2E/DX2 analytically  !
 ! D68   D(27,15,16,29)       -178.5782         calculate D2E/DX2 analytically  !
 ! D69   D(27,15,16,30)        -58.6744         calculate D2E/DX2 analytically  !
 ! D70   D(27,15,16,31)         61.3575         calculate D2E/DX2 analytically  !
 ! D71   D(28,15,16,29)        -61.1086         calculate D2E/DX2 analytically  !
 ! D72   D(28,15,16,30)         58.7951         calculate D2E/DX2 analytically  !
 ! D73   D(28,15,16,31)        178.827          calculate D2E/DX2 analytically  !
 --------------------------------------------------------------------------------
 Trust Radius=3.00D-01 FncErr=1.00D-07 GrdErr=1.00D-06
 Number of steps in this run=    167 maximum allowed number of steps=    186.
 GradGradGradGradGradGradGradGradGradGradGradGradGradGradGradGradGradGrad

                          Input orientation:                          
 ---------------------------------------------------------------------
 Center     Atomic      Atomic             Coordinates (Angstroms)
 Number     Number       Type             X           Y           Z
 ---------------------------------------------------------------------
      1          8           0       -1.049596   -0.531706   -1.264292
      2          6           0       -1.109346   -0.173623   -0.092736
      3          7           0       -0.078151   -0.357673    0.785728
      4          6           0        1.021972   -1.241229    0.466970
      5          6           0        0.995651   -2.415864    1.438746
      6          8           0        1.659768   -3.521016    1.032134
      7          8           0        0.467700   -2.379782    2.514929
      8          6           0        2.391234   -0.553995    0.563546
      9          6           0        2.651246    0.446263   -0.527163
     10          6           0        1.966139    0.820698   -1.644203
     11          7           0        2.658360    1.784824   -2.354840
     12          6           0        3.757165    1.986952   -1.669368
     13          7           0        3.805978    1.207767   -0.558422
     14          6           0       -2.299205    0.578256    0.471900
     15          6           0       -3.588979    0.266920   -0.272377
     16          7           0       -4.740810    1.037903    0.267777
     17          1           0       -0.284107   -0.290299    1.773778
     18          1           0        0.869867   -1.587145   -0.555517
     19          1           0        1.992998   -3.392677    0.138393
     20          1           0        2.485753   -0.071009    1.537297
     21          1           0        3.171155   -1.322535    0.525938
     22          1           0        0.998621    0.456573   -1.949698
     23          1           0        4.544285    2.675463   -1.924222
     24          1           0        4.545540    1.182715    0.123195
     25          1           0       -2.088981    1.648089    0.387562
     26          1           0       -2.407496    0.350098    1.534384
     27          1           0       -3.799939   -0.799621   -0.203819
     28          1           0       -3.448949    0.499307   -1.327374
     29          1           0       -4.578785    2.042150    0.193870
     30          1           0       -5.604884    0.831919   -0.235479
     31          1           0       -4.904217    0.822388    1.251171
 ---------------------------------------------------------------------
                    Distance matrix (angstroms):
                    1          2          3          4          5
     1  O    0.000000
     2  C    1.226515   0.000000
     3  N    2.275209   1.367090   0.000000
     4  C    2.791431   2.448585   1.446564   0.000000
     5  C    3.878080   3.435709   2.411563   1.524733   0.000000
     6  O    4.642219   4.487579   3.617709   2.433849   1.351941
     7  O    4.472145   3.762197   2.716066   2.407832   1.199251
     8  C    3.896254   3.581822   2.487120   1.535088   2.485998
     9  C    3.898207   3.836019   3.133624   2.547639   3.846761
    10  C    3.326858   3.585294   3.387070   3.098394   4.574031
    11  N    4.506056   4.811262   4.684223   4.449424   5.899295
    12  C    5.441752   5.553087   5.121953   4.739870   6.055669
    13  N    5.205825   5.126940   4.398158   3.847037   5.001732
    14  C    2.409959   1.516542   2.430541   3.786920   4.555834
    15  C    2.840804   2.524862   3.719626   4.907343   5.580690
    16  N    4.293713   3.845165   4.894517   6.200304   6.797548
    17  H    3.142311   2.044140   1.011534   2.077945   2.503608
    18  H    2.302314   2.475782   2.051652   1.090080   2.163258
    19  H    4.405684   4.476635   3.730945   2.383187   1.907821
    20  H    4.534295   3.948705   2.687124   2.158163   2.780011
    21  H    4.652427   4.474980   3.399476   2.151529   2.600271
    22  H    2.375220   2.879060   3.050408   2.953534   4.442124
    23  H    6.481739   6.590537   6.157163   5.784892   7.058610
    24  H    6.014142   5.819280   4.918360   4.290597   5.223233
    25  H    2.925825   2.123442   2.867936   4.246469   5.209190
    26  H    3.233275   2.146392   2.547013   3.928479   4.386468
    27  H    2.959860   2.764689   3.876368   4.888334   5.320522
    28  H    2.612253   2.729635   4.069631   5.122331   5.992004
    29  H    4.605014   4.126597   5.134701   6.497972   7.245546
    30  H    4.865036   4.608834   5.744804   6.979011   7.544414
    31  H    4.797836   4.147188   4.989999   6.324018   6.732748
                    6          7          8          9         10
     6  O    0.000000
     7  O    2.218586   0.000000
     8  C    3.091574   3.292624   0.000000
     9  C    4.376498   4.691346   1.502588   0.000000
    10  C    5.109513   5.457726   2.635269   1.362847   0.000000
    11  N    6.373438   6.771823   3.749454   2.265436   1.383370
    12  C    6.483432   6.884568   3.648025   2.213913   2.137418
    13  N    5.431157   5.784470   2.522720   1.383571   2.171117
    14  C    5.726373   4.536487   4.826034   5.051981   4.767581
    15  C    6.602995   5.588448   6.093899   6.247999   5.748731
    16  N    7.895276   6.622600   7.313526   7.458181   6.977536
    17  H    3.842683   2.341037   2.948159   3.801730   4.240344
    18  H    2.623821   3.196506   2.152732   2.703491   2.860901
    19  H    0.962438   3.000069   2.897837   3.951420   4.575030
    20  H    3.583293   3.218499   1.091055   2.134702   3.344710
    21  H    2.715482   3.518882   1.095603   2.123199   3.279485
    22  H    5.014943   5.315984   3.045819   2.180569   1.077963
    23  H    7.446935   7.866392   4.610209   3.241096   3.188323
    24  H    5.592758   5.919507   2.801983   2.133934   3.147708
    25  H    6.417807   5.223606   4.995245   4.975024   4.610493
    26  H    5.637412   4.084172   4.978727   5.463524   5.427114
    27  H    6.224305   5.301061   6.243381   6.578341   6.160178
    28  H    6.915870   6.196175   6.228384   6.152685   5.433862
    29  H    8.400657   7.099845   7.446999   7.439093   6.906989
    30  H    8.563296   7.399732   8.154575   8.270278   7.700975
    31  H    7.873946   6.380318   7.455927   7.771033   7.455533
                   11         12         13         14         15
    11  N    0.000000
    12  C    1.310762   0.000000
    13  N    2.208424   1.357834   0.000000
    14  C    5.832985   6.576402   6.223432   0.000000
    15  C    6.757953   7.673064   7.460053   1.521313   0.000000
    16  N    7.885666   8.767485   8.588308   2.492865   1.487580
    17  H    5.478114   5.776937   4.940865   2.551449   3.926757
    18  H    4.219768   4.727718   4.053675   3.973356   4.837255
    19  H    5.784931   5.943121   4.993649   5.856836   6.687290
    20  H    4.315395   4.016764   2.787526   4.944940   6.347557
    21  H    4.268198   4.014408   2.825113   5.791439   6.990213
    22  H    2.164053   3.167050   3.221986   4.093239   4.888297
    23  H    2.129644   1.076363   2.136502   7.548048   8.641739
    24  H    3.172481   2.116982   1.006073   6.880225   8.195459
    25  H    5.484224   6.206706   5.986594   1.093550   2.143161
    26  H    6.545793   7.137672   6.612314   1.092088   2.160372
    27  H    7.281200   8.186736   7.874346   2.146472   1.089364
    28  H    6.325146   7.366012   7.329882   2.136710   1.089325
    29  H    7.677136   8.541825   8.459692   2.723375   2.085316
    30  H    8.583759   9.541388   9.423899   3.390021   2.093910
    31  H    8.433396   9.214406   8.904528   2.730009   2.087964
                   16         17         18         19         20
    16  N    0.000000
    17  H    4.888186   0.000000
    18  H    6.248871   2.905009   0.000000
    19  H    8.061696   4.181439   2.236712   0.000000
    20  H    7.420551   2.788572   3.047888   3.637749   0.000000
    21  H    8.260599   3.815947   2.556460   2.413241   1.748983
    22  H    6.180308   4.008427   2.477317   4.490616   3.827406
    23  H    9.679848   6.766411   5.791764   6.898244   4.874708
    24  H    9.288604   5.312220   4.652241   5.239267   2.795395
    25  H    2.723761   2.989401   4.484520   6.491068   5.020496
    26  H    2.742576   2.230740   4.343007   5.943190   4.911337
    27  H    2.117577   4.065880   4.748787   6.356034   6.562948
    28  H    2.122144   4.500761   4.858109   6.849146   6.614551
    29  H    1.019914   5.136213   6.589474   8.528115   7.495194
    30  H    1.020940   5.797168   6.919299   8.701425   8.331651
    31  H    1.019908   4.780858   6.512297   8.159449   7.449273
                   21         22         23         24         25
    21  H    0.000000
    22  H    3.743515   0.000000
    23  H    4.885976   4.182805   0.000000
    24  H    2.885726   4.171906   2.533814   0.000000
    25  H    6.042581   4.051640   7.099300   6.656075   0.000000
    26  H    5.910670   4.873583   8.105341   7.143488   1.761089
    27  H    7.028666   5.258545   9.201200   8.583916   3.044404
    28  H    7.111937   4.491102   8.305642   8.153714   2.471886
    29  H    8.455350   6.181942   9.387109   9.164984   2.528226
    30  H    9.068643   6.832694  10.452566  10.162815   3.662770
    31  H    8.386792   6.724796  10.138599   9.523658   3.058293
                   26         27         28         29         30
    26  H    0.000000
    27  H    2.506413   0.000000
    28  H    3.049024   1.752935   0.000000
    29  H    3.061783   2.973284   2.443579   0.000000
    30  H    3.686171   2.433259   2.439450   1.643739   0.000000
    31  H    2.556732   2.442814   2.978435   1.646696   1.643518
                   31
    31  H    0.000000
 Symmetry turned off by external request.
 Stoichiometry    C9H15N4O3(1+)
 Framework group  C1[X(C9H15N4O3)]
 Deg. of freedom    87
 Full point group                 C1      NOp   1
 Rotational constants (GHZ):      0.5724950      0.3213214      0.2246511
 Standard basis: 6-31G(d,p) (6D, 7F)
   315 basis functions,   553 primitive gaussians,   315 cartesian basis functions
    60 alpha electrons       60 beta electrons
       nuclear repulsion energy      1121.2879976823 Hartrees.
 NAtoms=   31 NActive=   31 NUniq=   31 SFac= 1.00D+00 NAtFMM=   60 NAOKFM=F Big=F
 Integral buffers will be    131072 words long.
 Raffenetti 2 integral format.
 Two-electron integral symmetry is turned off.
 One-electron integrals computed using PRISM.
 NBasis=   315 RedAO= T EigKep=  1.13D-03  NBF=   315
 NBsUse=   315 1.00D-06 EigRej= -1.00D+00 NBFU=   315
 ExpMin= 1.61D-01 ExpMax= 5.48D+03 ExpMxC= 8.25D+02 IAcc=3 IRadAn=         5 AccDes= 0.00D+00
 Harris functional with IExCor=  402 and IRadAn=       5 diagonalized for initial guess.
 HarFok:  IExCor=  402 AccDes= 0.00D+00 IRadAn=         5 IDoV= 1 UseB2=F ITyADJ=14
 ICtDFT=  3500011 ScaDFX=  1.000000  1.000000  1.000000  1.000000
 FoFCou: FMM=F IPFlag=           0 FMFlag=      100000 FMFlg1=           0
         NFxFlg=           0 DoJE=T BraDBF=F KetDBF=T FulRan=T
         wScrn=  0.000000 ICntrl=     500 IOpCl=  0 I1Cent=   200000004 NGrid=           0
         NMat0=    1 NMatS0=      1 NMatT0=    0 NMatD0=    1 NMtDS0=    0 NMtDT0=    0
 Symmetry not used in FoFCou.
 Requested convergence on RMS density matrix=1.00D-08 within 128 cycles.
 Requested convergence on MAX density matrix=1.00D-06.
 Requested convergence on             energy=1.00D-06.
 No special actions if energy rises.
 Integral accuracy reduced to 1.0D-05 until final iterations.
 Initial convergence to 1.0D-05 achieved.  Increase integral accuracy.
 SCF Done:  E(RB3LYP) =  -796.463867746     A.U. after   14 cycles
            NFock= 14  Conv=0.83D-08     -V/T= 2.0089
 DoSCS=F DFT=T ScalE2(SS,OS)=  1.000000  1.000000
 Range of M.O.s used for correlation:     1   315
 NBasis=   315 NAE=    60 NBE=    60 NFC=     0 NFV=     0
 NROrb=    315 NOA=    60 NOB=    60 NVA=   255 NVB=   255
 Symmetrizing basis deriv contribution to polar:
 IMax=3 JMax=2 DiffMx= 0.00D+00
 G2DrvN: will do    32 centers at a time, making    1 passes.
 Calling FoFCou, ICntrl=  3107 FMM=F I1Cent=   0 AccDes= 0.00D+00.
 End of G2Drv F.D. properties file   721 does not exist.
 End of G2Drv F.D. properties file   722 does not exist.
 End of G2Drv F.D. properties file   788 does not exist.
          IDoAtm=1111111111111111111111111111111
          Differentiating once with respect to nuclear coordinates.
          There are    96 degrees of freedom in the 1st order CPHF.  IDoFFX=6 NUNeed=     0.
     90 vectors produced by pass  0 Test12= 1.59D-14 1.04D-09 XBig12= 1.52D-01 8.59D-02.
 AX will form    90 AO Fock derivatives at one time.
     90 vectors produced by pass  1 Test12= 1.59D-14 1.04D-09 XBig12= 1.34D-02 3.43D-02.
     90 vectors produced by pass  2 Test12= 1.59D-14 1.04D-09 XBig12= 1.22D-04 2.20D-03.
     90 vectors produced by pass  3 Test12= 1.59D-14 1.04D-09 XBig12= 5.00D-07 8.17D-05.
     90 vectors produced by pass  4 Test12= 1.59D-14 1.04D-09 XBig12= 7.28D-10 3.87D-06.
     73 vectors produced by pass  5 Test12= 1.59D-14 1.04D-09 XBig12= 6.26D-13 8.64D-08.
     14 vectors produced by pass  6 Test12= 1.59D-14 1.04D-09 XBig12= 4.84D-16 2.33D-09.
 InvSVY:  IOpt=1 It=  1 EMax= 4.72D-16
 Solved reduced A of dimension   537 with    96 vectors.
 End of Minotr F.D. properties file   721 does not exist.
 End of Minotr F.D. properties file   722 does not exist.
 End of Minotr F.D. properties file   788 does not exist.

 **********************************************************************

            Population analysis using the SCF density.

 **********************************************************************

 Alpha  occ. eigenvalues --  -19.29973 -19.25588 -19.24588 -14.67519 -14.49147
 Alpha  occ. eigenvalues --  -14.46612 -14.38188 -10.43543 -10.43445 -10.42679
 Alpha  occ. eigenvalues --  -10.37585 -10.35791 -10.31298 -10.31075 -10.30023
 Alpha  occ. eigenvalues --  -10.26861  -1.22184  -1.21026  -1.17545  -1.13160
 Alpha  occ. eigenvalues --   -1.09023  -1.05916  -0.97361  -0.94378  -0.91122
 Alpha  occ. eigenvalues --   -0.85875  -0.82644  -0.80256  -0.79572  -0.76516
 Alpha  occ. eigenvalues --   -0.72823  -0.71285  -0.70301  -0.68876  -0.67676
 Alpha  occ. eigenvalues --   -0.66484  -0.64927  -0.61878  -0.61584  -0.59744
 Alpha  occ. eigenvalues --   -0.58168  -0.56444  -0.55837  -0.54705  -0.54289
 Alpha  occ. eigenvalues --   -0.53208  -0.51629  -0.51213  -0.50374  -0.48982
 Alpha  occ. eigenvalues --   -0.48672  -0.48175  -0.47107  -0.42273  -0.39829
 Alpha  occ. eigenvalues --   -0.39508  -0.37798  -0.35198  -0.33649  -0.30307
 Alpha virt. eigenvalues --   -0.17109  -0.12642  -0.10594  -0.10196  -0.09756
 Alpha virt. eigenvalues --   -0.07086  -0.04994  -0.04156  -0.03041  -0.02731
 Alpha virt. eigenvalues --   -0.01828  -0.00371   0.00014   0.01023   0.02117
 Alpha virt. eigenvalues --    0.03206   0.03892   0.05442   0.06680   0.06901
 Alpha virt. eigenvalues --    0.08854   0.10107   0.10894   0.11651   0.13535
 Alpha virt. eigenvalues --    0.15054   0.16594   0.20601   0.20721   0.23983
 Alpha virt. eigenvalues --    0.24193   0.26398   0.27480   0.31295   0.33154
 Alpha virt. eigenvalues --    0.33517   0.34229   0.35550   0.37598   0.38185
 Alpha virt. eigenvalues --    0.41108   0.42482   0.43966   0.45867   0.46723
 Alpha virt. eigenvalues --    0.47783   0.47979   0.48384   0.49522   0.50475
 Alpha virt. eigenvalues --    0.51750   0.53009   0.54549   0.55099   0.56117
 Alpha virt. eigenvalues --    0.56410   0.57536   0.58066   0.58531   0.58662
 Alpha virt. eigenvalues --    0.59881   0.60210   0.61143   0.63302   0.63919
 Alpha virt. eigenvalues --    0.65237   0.67489   0.68495   0.69304   0.70153
 Alpha virt. eigenvalues --    0.71158   0.71911   0.71942   0.73161   0.73500
 Alpha virt. eigenvalues --    0.74350   0.74850   0.75832   0.76706   0.77381
 Alpha virt. eigenvalues --    0.77865   0.78218   0.79453   0.81429   0.82181
 Alpha virt. eigenvalues --    0.83785   0.84419   0.86126   0.88179   0.92072
 Alpha virt. eigenvalues --    0.92642   0.94126   0.94760   0.96103   0.97731
 Alpha virt. eigenvalues --    1.00565   1.02480   1.05202   1.05925   1.08160
 Alpha virt. eigenvalues --    1.10088   1.11918   1.12860   1.17499   1.19401
 Alpha virt. eigenvalues --    1.20098   1.22274   1.24153   1.27330   1.27818
 Alpha virt. eigenvalues --    1.28978   1.30615   1.34102   1.34919   1.36345
 Alpha virt. eigenvalues --    1.37767   1.39549   1.40277   1.41262   1.43699
 Alpha virt. eigenvalues --    1.44640   1.46652   1.47420   1.48997   1.51278
 Alpha virt. eigenvalues --    1.55087   1.55967   1.59942   1.60795   1.62460
 Alpha virt. eigenvalues --    1.64258   1.65363   1.67222   1.67937   1.69076
 Alpha virt. eigenvalues --    1.69748   1.70688   1.71162   1.73066   1.76600
 Alpha virt. eigenvalues --    1.76856   1.77230   1.78209   1.78578   1.82006
 Alpha virt. eigenvalues --    1.82451   1.85211   1.85713   1.87175   1.88671
 Alpha virt. eigenvalues --    1.89915   1.90938   1.92226   1.94321   1.96061
 Alpha virt. eigenvalues --    1.96875   1.97121   1.97768   1.99124   2.00316
 Alpha virt. eigenvalues --    2.01935   2.03691   2.04062   2.05326   2.07629
 Alpha virt. eigenvalues --    2.08511   2.10042   2.11606   2.13331   2.14724
 Alpha virt. eigenvalues --    2.17515   2.19141   2.20043   2.21319   2.22097
 Alpha virt. eigenvalues --    2.24346   2.25677   2.27560   2.29371   2.31766
 Alpha virt. eigenvalues --    2.32813   2.37086   2.37543   2.38270   2.39360
 Alpha virt. eigenvalues --    2.40429   2.41768   2.43147   2.45950   2.46843
 Alpha virt. eigenvalues --    2.48812   2.49296   2.51592   2.52192   2.52737
 Alpha virt. eigenvalues --    2.53442   2.54139   2.55304   2.56894   2.58439
 Alpha virt. eigenvalues --    2.61110   2.61985   2.63235   2.64248   2.65513
 Alpha virt. eigenvalues --    2.66573   2.68882   2.70429   2.71432   2.72089
 Alpha virt. eigenvalues --    2.73873   2.75262   2.76552   2.77644   2.83298
 Alpha virt. eigenvalues --    2.84805   2.85757   2.90003   2.90884   2.93746
 Alpha virt. eigenvalues --    2.94884   2.96526   2.99105   3.07548   3.09374
 Alpha virt. eigenvalues --    3.09795   3.13125   3.14578   3.19782   3.21928
 Alpha virt. eigenvalues --    3.23139   3.26192   3.27831   3.35326   3.36955
 Alpha virt. eigenvalues --    3.39795   3.41628   3.49516   3.60401   3.84641
 Alpha virt. eigenvalues --    3.90411   3.93095   3.98050   4.04516   4.08954
 Alpha virt. eigenvalues --    4.10023   4.17663   4.20018   4.24254   4.32622
 Alpha virt. eigenvalues --    4.35999   4.40067   4.49298   4.55817   4.72366
          Condensed to atoms (all electrons):
               1          2          3          4          5          6
     1  O    8.100445   0.535409  -0.092092  -0.005497   0.000156  -0.000004
     2  C    0.535409   4.344864   0.302053  -0.028462   0.002849   0.000046
     3  N   -0.092092   0.302053   6.993557   0.229797  -0.037292   0.003025
     4  C   -0.005497  -0.028462   0.229797   5.214563   0.278390  -0.096565
     5  C    0.000156   0.002849  -0.037292   0.278390   4.376358   0.264987
     6  O   -0.000004   0.000046   0.003025  -0.096565   0.264987   8.074229
     7  O   -0.000001   0.001202  -0.010400  -0.084957   0.593602  -0.076713
     8  C    0.000450   0.002281  -0.051431   0.324974  -0.034793  -0.001467
     9  C   -0.000654   0.000667  -0.002260  -0.027120   0.002488   0.000065
    10  C   -0.007196   0.002519   0.001653  -0.004879   0.000192   0.000004
    11  N    0.000043  -0.000013  -0.000005  -0.000113  -0.000001   0.000000
    12  C   -0.000003  -0.000004   0.000021  -0.000084   0.000002   0.000000
    13  N   -0.000001  -0.000016  -0.000087   0.002739  -0.000082   0.000000
    14  C   -0.089970   0.289498  -0.115088   0.006746  -0.000297   0.000000
    15  C    0.003901  -0.019749   0.003097  -0.000096   0.000005   0.000000
    16  N    0.000264   0.002168  -0.000023   0.000000   0.000000   0.000000
    17  H    0.002849  -0.017455   0.325909  -0.044527  -0.003681   0.000597
    18  H    0.018098  -0.004485  -0.047475   0.376639  -0.028623   0.001032
    19  H   -0.000016  -0.000013   0.000227   0.004930  -0.022233   0.282377
    20  H   -0.000015  -0.000184  -0.004874  -0.026356  -0.003665   0.000091
    21  H   -0.000008   0.000011   0.004739  -0.040227  -0.000216   0.005634
    22  H    0.016985  -0.000024  -0.003346   0.001175   0.000011   0.000001
    23  H    0.000000   0.000000   0.000000   0.000002   0.000000   0.000000
    24  H    0.000000   0.000000  -0.000001  -0.000054  -0.000002   0.000000
    25  H   -0.000363  -0.015161  -0.002149  -0.000098  -0.000003   0.000000
    26  H    0.002386  -0.017923   0.002705  -0.000178   0.000031   0.000000
    27  H    0.001593  -0.000327   0.000268  -0.000009   0.000000   0.000000
    28  H    0.011653   0.000368   0.000473  -0.000001   0.000000   0.000000
    29  H    0.000017   0.000015   0.000002   0.000000   0.000000   0.000000
    30  H    0.000012   0.000009   0.000001   0.000000   0.000000   0.000000
    31  H    0.000003  -0.000056   0.000000   0.000000   0.000000   0.000000
               7          8          9         10         11         12
     1  O   -0.000001   0.000450  -0.000654  -0.007196   0.000043  -0.000003
     2  C    0.001202   0.002281   0.000667   0.002519  -0.000013  -0.000004
     3  N   -0.010400  -0.051431  -0.002260   0.001653  -0.000005   0.000021
     4  C   -0.084957   0.324974  -0.027120  -0.004879  -0.000113  -0.000084
     5  C    0.593602  -0.034793   0.002488   0.000192  -0.000001   0.000002
     6  O   -0.076713  -0.001467   0.000065   0.000004   0.000000   0.000000
     7  O    7.984590  -0.002059  -0.000016  -0.000001   0.000000   0.000000
     8  C   -0.002059   5.113187   0.313761  -0.065669   0.007937   0.006761
     9  C   -0.000016   0.313761   4.807694   0.581014  -0.048637  -0.088241
    10  C   -0.000001  -0.065669   0.581014   4.894976   0.418224  -0.120855
    11  N    0.000000   0.007937  -0.048637   0.418224   6.680047   0.540854
    12  C    0.000000   0.006761  -0.088241  -0.120855   0.540854   4.661289
    13  N    0.000000  -0.060337   0.334030  -0.072417  -0.083757   0.350200
    14  C   -0.000142  -0.000302  -0.000027  -0.000207   0.000001   0.000000
    15  C    0.000001  -0.000001   0.000000   0.000005   0.000000   0.000000
    16  N    0.000000   0.000000   0.000000   0.000000   0.000000   0.000000
    17  H    0.027137   0.000132  -0.000116   0.000035   0.000001   0.000000
    18  H    0.001871  -0.041833  -0.002768   0.001856  -0.000052  -0.000024
    19  H    0.004800  -0.000826  -0.000195  -0.000017   0.000000   0.000000
    20  H    0.001506   0.361737  -0.031270   0.001130  -0.000122   0.000174
    21  H   -0.000184   0.363908  -0.033811   0.001056  -0.000094   0.000230
    22  H    0.000000  -0.001850  -0.059871   0.384981  -0.036621   0.006546
    23  H    0.000000  -0.000116   0.003177   0.006815  -0.035796   0.393990
    24  H    0.000000  -0.002818  -0.032426   0.008929   0.005256  -0.023549
    25  H    0.000000   0.000026   0.000016   0.000079   0.000000   0.000000
    26  H    0.000012  -0.000001   0.000000   0.000001   0.000000   0.000000
    27  H    0.000000   0.000000   0.000000   0.000000   0.000000   0.000000
    28  H    0.000000   0.000000   0.000000  -0.000001   0.000000   0.000000
    29  H    0.000000   0.000000   0.000000   0.000000   0.000000   0.000000
    30  H    0.000000   0.000000   0.000000   0.000000   0.000000   0.000000
    31  H    0.000000   0.000000   0.000000   0.000000   0.000000   0.000000
              13         14         15         16         17         18
     1  O   -0.000001  -0.089970   0.003901   0.000264   0.002849   0.018098
     2  C   -0.000016   0.289498  -0.019749   0.002168  -0.017455  -0.004485
     3  N   -0.000087  -0.115088   0.003097  -0.000023   0.325909  -0.047475
     4  C    0.002739   0.006746  -0.000096   0.000000  -0.044527   0.376639
     5  C   -0.000082  -0.000297   0.000005   0.000000  -0.003681  -0.028623
     6  O    0.000000   0.000000   0.000000   0.000000   0.000597   0.001032
     7  O    0.000000  -0.000142   0.000001   0.000000   0.027137   0.001871
     8  C   -0.060337  -0.000302  -0.000001   0.000000   0.000132  -0.041833
     9  C    0.334030  -0.000027   0.000000   0.000000  -0.000116  -0.002768
    10  C   -0.072417  -0.000207   0.000005   0.000000   0.000035   0.001856
    11  N   -0.083757   0.000001   0.000000   0.000000   0.000001  -0.000052
    12  C    0.350200   0.000000   0.000000   0.000000   0.000000  -0.000024
    13  N    6.782353   0.000000   0.000000   0.000000   0.000004   0.000123
    14  C    0.000000   5.272537   0.314790  -0.042903  -0.002264   0.001374
    15  C    0.000000   0.314790   5.041487   0.160844  -0.000101   0.000015
    16  N    0.000000  -0.042903   0.160844   6.476654  -0.000011   0.000000
    17  H    0.000004  -0.002264  -0.000101  -0.000011   0.422436   0.005347
    18  H    0.000123   0.001374   0.000015   0.000000   0.005347   0.550239
    19  H   -0.000001   0.000000   0.000000   0.000000  -0.000068   0.001320
    20  H   -0.002111  -0.000002   0.000000   0.000000   0.002108   0.005903
    21  H   -0.002435   0.000005   0.000000   0.000000  -0.000063  -0.003635
    22  H    0.004899   0.000401  -0.000018   0.000000  -0.000007  -0.000102
    23  H   -0.055317   0.000000   0.000000   0.000000   0.000000   0.000000
    24  H    0.340164   0.000000   0.000000   0.000000   0.000000   0.000003
    25  H    0.000000   0.375249  -0.038967  -0.002588   0.000284  -0.000026
    26  H    0.000000   0.361720  -0.041665  -0.002336   0.002064  -0.000062
    27  H    0.000000  -0.035970   0.395989  -0.031910  -0.000005  -0.000005
    28  H    0.000000  -0.038389   0.388936  -0.030305  -0.000018  -0.000011
    29  H    0.000000  -0.000568  -0.023375   0.332721   0.000000   0.000000
    30  H    0.000000   0.003508  -0.022034   0.337653   0.000000   0.000000
    31  H    0.000000  -0.001655  -0.020184   0.332471  -0.000001   0.000000
              19         20         21         22         23         24
     1  O   -0.000016  -0.000015  -0.000008   0.016985   0.000000   0.000000
     2  C   -0.000013  -0.000184   0.000011  -0.000024   0.000000   0.000000
     3  N    0.000227  -0.004874   0.004739  -0.003346   0.000000  -0.000001
     4  C    0.004930  -0.026356  -0.040227   0.001175   0.000002  -0.000054
     5  C   -0.022233  -0.003665  -0.000216   0.000011   0.000000  -0.000002
     6  O    0.282377   0.000091   0.005634   0.000001   0.000000   0.000000
     7  O    0.004800   0.001506  -0.000184   0.000000   0.000000   0.000000
     8  C   -0.000826   0.361737   0.363908  -0.001850  -0.000116  -0.002818
     9  C   -0.000195  -0.031270  -0.033811  -0.059871   0.003177  -0.032426
    10  C   -0.000017   0.001130   0.001056   0.384981   0.006815   0.008929
    11  N    0.000000  -0.000122  -0.000094  -0.036621  -0.035796   0.005256
    12  C    0.000000   0.000174   0.000230   0.006546   0.393990  -0.023549
    13  N   -0.000001  -0.002111  -0.002435   0.004899  -0.055317   0.340164
    14  C    0.000000  -0.000002   0.000005   0.000401   0.000000   0.000000
    15  C    0.000000   0.000000   0.000000  -0.000018   0.000000   0.000000
    16  N    0.000000   0.000000   0.000000   0.000000   0.000000   0.000000
    17  H   -0.000068   0.002108  -0.000063  -0.000007   0.000000   0.000000
    18  H    0.001320   0.005903  -0.003635  -0.000102   0.000000   0.000003
    19  H    0.392711  -0.000060   0.002193  -0.000007   0.000000   0.000000
    20  H   -0.000060   0.598519  -0.037285  -0.000096  -0.000002   0.001218
    21  H    0.002193  -0.037285   0.609470  -0.000063   0.000000   0.000795
    22  H   -0.000007  -0.000096  -0.000063   0.582685  -0.000145  -0.000097
    23  H    0.000000  -0.000002   0.000000  -0.000145   0.556927   0.000235
    24  H    0.000000   0.001218   0.000795  -0.000097   0.000235   0.433267
    25  H    0.000000  -0.000004   0.000000   0.000004   0.000000   0.000000
    26  H    0.000000   0.000001   0.000000  -0.000004   0.000000   0.000000
    27  H    0.000000   0.000000   0.000000   0.000000   0.000000   0.000000
    28  H    0.000000   0.000000   0.000000   0.000003   0.000000   0.000000
    29  H    0.000000   0.000000   0.000000   0.000000   0.000000   0.000000
    30  H    0.000000   0.000000   0.000000   0.000000   0.000000   0.000000
    31  H    0.000000   0.000000   0.000000   0.000000   0.000000   0.000000
              25         26         27         28         29         30
     1  O   -0.000363   0.002386   0.001593   0.011653   0.000017   0.000012
     2  C   -0.015161  -0.017923  -0.000327   0.000368   0.000015   0.000009
     3  N   -0.002149   0.002705   0.000268   0.000473   0.000002   0.000001
     4  C   -0.000098  -0.000178  -0.000009  -0.000001   0.000000   0.000000
     5  C   -0.000003   0.000031   0.000000   0.000000   0.000000   0.000000
     6  O    0.000000   0.000000   0.000000   0.000000   0.000000   0.000000
     7  O    0.000000   0.000012   0.000000   0.000000   0.000000   0.000000
     8  C    0.000026  -0.000001   0.000000   0.000000   0.000000   0.000000
     9  C    0.000016   0.000000   0.000000   0.000000   0.000000   0.000000
    10  C    0.000079   0.000001   0.000000  -0.000001   0.000000   0.000000
    11  N    0.000000   0.000000   0.000000   0.000000   0.000000   0.000000
    12  C    0.000000   0.000000   0.000000   0.000000   0.000000   0.000000
    13  N    0.000000   0.000000   0.000000   0.000000   0.000000   0.000000
    14  C    0.375249   0.361720  -0.035970  -0.038389  -0.000568   0.003508
    15  C   -0.038967  -0.041665   0.395989   0.388936  -0.023375  -0.022034
    16  N   -0.002588  -0.002336  -0.031910  -0.030305   0.332721   0.337653
    17  H    0.000284   0.002064  -0.000005  -0.000018   0.000000   0.000000
    18  H   -0.000026  -0.000062  -0.000005  -0.000011   0.000000   0.000000
    19  H    0.000000   0.000000   0.000000   0.000000   0.000000   0.000000
    20  H   -0.000004   0.000001   0.000000   0.000000   0.000000   0.000000
    21  H    0.000000   0.000000   0.000000   0.000000   0.000000   0.000000
    22  H    0.000004  -0.000004   0.000000   0.000003   0.000000   0.000000
    23  H    0.000000   0.000000   0.000000   0.000000   0.000000   0.000000
    24  H    0.000000   0.000000   0.000000   0.000000   0.000000   0.000000
    25  H    0.532567  -0.028645   0.004431  -0.004434   0.004881  -0.000014
    26  H   -0.028645   0.576989  -0.004309   0.004784  -0.000270   0.000008
    27  H    0.004431  -0.004309   0.488465  -0.022609   0.003910  -0.002060
    28  H   -0.004434   0.004784  -0.022609   0.466907  -0.002958  -0.001572
    29  H    0.004881  -0.000270   0.003910  -0.002958   0.345731  -0.014427
    30  H   -0.000014   0.000008  -0.002060  -0.001572  -0.014427   0.335914
    31  H   -0.000427   0.004372  -0.003330   0.003565  -0.016511  -0.015127
              31
     1  O    0.000003
     2  C   -0.000056
     3  N    0.000000
     4  C    0.000000
     5  C    0.000000
     6  O    0.000000
     7  O    0.000000
     8  C    0.000000
     9  C    0.000000
    10  C    0.000000
    11  N    0.000000
    12  C    0.000000
    13  N    0.000000
    14  C   -0.001655
    15  C   -0.020184
    16  N    0.332471
    17  H   -0.000001
    18  H    0.000000
    19  H    0.000000
    20  H    0.000000
    21  H    0.000000
    22  H    0.000000
    23  H    0.000000
    24  H    0.000000
    25  H   -0.000427
    26  H    0.004372
    27  H   -0.003330
    28  H    0.003565
    29  H   -0.016511
    30  H   -0.015127
    31  H    0.346629
 Mulliken charges:
               1
     1  O   -0.498442
     2  C    0.619914
     3  N   -0.501003
     4  C   -0.080732
     5  C    0.611815
     6  O   -0.457340
     7  O   -0.440247
     8  C   -0.231649
     9  C    0.284500
    10  C   -0.032222
    11  N   -0.447150
    12  C    0.272693
    13  N   -0.537951
    14  C   -0.298045
    15  C   -0.142879
    16  N   -0.532700
    17  H    0.279416
    18  H    0.165281
    19  H    0.334877
    20  H    0.133657
    21  H    0.129982
    22  H    0.104560
    23  H    0.130230
    24  H    0.269077
    25  H    0.175344
    26  H    0.140319
    27  H    0.205877
    28  H    0.223608
    29  H    0.370832
    30  H    0.378128
    31  H    0.370250
 Sum of Mulliken charges =   1.00000
 Mulliken charges with hydrogens summed into heavy atoms:
               1
     1  O   -0.498442
     2  C    0.619914
     3  N   -0.221587
     4  C    0.084549
     5  C    0.611815
     6  O   -0.122463
     7  O   -0.440247
     8  C    0.031990
     9  C    0.284500
    10  C    0.072337
    11  N   -0.447150
    12  C    0.402923
    13  N   -0.268875
    14  C    0.017619
    15  C    0.286606
    16  N    0.586511
 APT charges:
               1
     1  O   -0.306527
     2  C    0.097346
     3  N   -0.596013
     4  C   -0.358463
     5  C   -0.327313
     6  O   -0.022993
     7  O    0.109816
     8  C   -0.948900
     9  C   -0.114122
    10  C   -0.306843
    11  N   -0.397827
    12  C   -0.250246
    13  N   -0.928896
    14  C   -0.568552
    15  C   -0.305611
    16  N   -1.863955
    17  H    0.538903
    18  H    0.300830
    19  H    0.382847
    20  H    0.376041
    21  H    0.576828
    22  H    0.033588
    23  H    1.095895
    24  H    0.923674
    25  H    0.342090
    26  H    0.368116
    27  H    0.379704
    28  H    0.311960
    29  H    0.558151
    30  H    1.237692
    31  H    0.662780
 Sum of APT charges =   1.00000
 APT charges with hydrogens summed into heavy atoms:
               1
     1  O   -0.306527
     2  C    0.097346
     3  N   -0.057111
     4  C   -0.057633
     5  C   -0.327313
     6  O    0.359855
     7  O    0.109816
     8  C    0.003969
     9  C   -0.114122
    10  C   -0.273256
    11  N   -0.397827
    12  C    0.845650
    13  N   -0.005222
    14  C    0.141655
    15  C    0.386052
    16  N    0.594668
 Electronic spatial extent (au):  <R**2>=           4826.6130
 Charge=              1.0000 electrons
 Dipole moment (field-independent basis, Debye):
    X=            -15.8371    Y=              4.3719    Z=              3.6666  Tot=             16.8336
 Quadrupole moment (field-independent basis, Debye-Ang):
   XX=             34.2141   YY=            -87.0127   ZZ=           -104.9940
   XY=            -22.0851   XZ=             -2.5107   YZ=             14.5878
 Traceless Quadrupole moment (field-independent basis, Debye-Ang):
   XX=             86.8116   YY=            -34.4152   ZZ=            -52.3964
   XY=            -22.0851   XZ=             -2.5107   YZ=             14.5878
 Octapole moment (field-independent basis, Debye-Ang**2):
  XXX=           -504.2629  YYY=             67.2719  ZZZ=             28.8034  XYY=            -61.3484
  XXY=            140.1363  XXZ=             41.9356  XZZ=            -76.7527  YZZ=             27.7305
  YYZ=            -19.4157  XYZ=             10.1043
 Hexadecapole moment (field-independent basis, Debye-Ang**3):
 XXXX=           -604.6419 YYYY=          -1395.9017 ZZZZ=          -1063.9566 XXXY=           -321.2488
 XXXZ=            119.1998 YYYX=            -56.9810 YYYZ=            492.2023 ZZZX=            262.4482
 ZZZY=            482.0362 XXYY=           -583.2874 XXZZ=           -738.9572 YYZZ=           -476.5073
 XXYZ=            142.7657 YYXZ=             32.1654 ZZXY=            -25.3018
 N-N= 1.121287997682D+03 E-N=-4.084692678132D+03  KE= 7.894610924048D+02
  Exact polarizability:   0.000   0.000   0.000   0.000   0.000   0.000
 Approx polarizability: 180.503   3.937 152.819   8.678 -15.191 200.830
 Calling FoFJK, ICntrl=    100147 FMM=F ISym2X=0 I1Cent= 0 IOpClX= 0 NMat=1 NMatS=1 NMatT=0.
 -------------------------------------------------------------------
 Center     Atomic                   Forces (Hartrees/Bohr)
 Number     Number              X              Y              Z
 -------------------------------------------------------------------
      1        8          -0.011861938    0.003264326    0.000300315
      2        6           0.019114018   -0.009224955   -0.005418976
      3        7          -0.013926464    0.003433284   -0.000619263
      4        6           0.003751925    0.002192871   -0.001704952
      5        6           0.007136453   -0.012874888   -0.007260055
      6        8          -0.002919703    0.003893568    0.005341899
      7        8          -0.008403167    0.004807728    0.010706302
      8        6           0.007922017    0.006810018   -0.007459216
      9        6           0.003194085   -0.002909993    0.007897408
     10        6          -0.004379627    0.004287458   -0.007248550
     11        7          -0.005466891   -0.001742970   -0.001369214
     12        6          -0.001679996    0.001872730   -0.004438107
     13        7           0.001403427   -0.004828621    0.008646940
     14        6          -0.008335005    0.009857643    0.008948304
     15        6           0.023958984   -0.016272095   -0.011883006
     16        7          -0.005252319    0.001678145    0.000477518
     17        1           0.002025114   -0.000289263    0.003396717
     18        1          -0.001511559   -0.001370359   -0.002292611
     19        1           0.003349743   -0.002447460   -0.006434092
     20        1          -0.000695201   -0.000171641    0.005560514
     21        1           0.000653078   -0.002815580    0.001907065
     22        1          -0.000936411    0.000510581   -0.004411994
     23        1           0.002662799    0.002308755   -0.001029794
     24        1           0.003092734    0.000500590    0.001462098
     25        1           0.002958957    0.003354534    0.000988299
     26        1          -0.000301708    0.000186806    0.003641920
     27        1          -0.006971999   -0.000547987    0.001065624
     28        1          -0.004275971    0.002130970   -0.001883294
     29        1           0.000694913    0.006069667    0.000295833
     30        1          -0.003989796   -0.001306658   -0.002932477
     31        1          -0.001010492   -0.000357206    0.005748845
 -------------------------------------------------------------------
 Cartesian Forces:  Max     0.023958984 RMS     0.006156689
 FormGI is forming the generalized inverse of G from B-inverse, IUseBI=4.
 GSVD:  received Info=                   1 from GESDD.

 GradGradGradGradGradGradGradGradGradGradGradGradGradGradGradGradGradGrad
 Berny optimization.
 Internal  Forces:  Max     0.016983599 RMS     0.003824831
 Search for a local minimum.
 Step number   1 out of a maximum of  167
 All quantities printed in internal units (Hartrees-Bohrs-Radians)
 Mixed Optimization -- RFO/linear search
 Second derivative matrix not updated -- analytic derivatives used.
 ITU=  0
     Eigenvalues ---    0.00031   0.00091   0.00178   0.00208   0.00313
     Eigenvalues ---    0.00456   0.00493   0.00596   0.00861   0.00929
     Eigenvalues ---    0.01128   0.01750   0.02183   0.02760   0.03334
     Eigenvalues ---    0.03836   0.03892   0.03996   0.04109   0.04316
     Eigenvalues ---    0.04361   0.04517   0.04981   0.05076   0.05203
     Eigenvalues ---    0.05211   0.05598   0.05850   0.06177   0.07418
     Eigenvalues ---    0.08386   0.08458   0.10511   0.10641   0.11345
     Eigenvalues ---    0.11782   0.12082   0.12364   0.13099   0.13431
     Eigenvalues ---    0.13722   0.15713   0.15829   0.16584   0.16804
     Eigenvalues ---    0.17739   0.18587   0.20230   0.21083   0.22169
     Eigenvalues ---    0.23127   0.23302   0.23768   0.24318   0.24706
     Eigenvalues ---    0.27168   0.29759   0.29964   0.31788   0.33153
     Eigenvalues ---    0.33200   0.33869   0.34220   0.34478   0.34650
     Eigenvalues ---    0.34724   0.35079   0.35310   0.35784   0.37005
     Eigenvalues ---    0.38157   0.38427   0.41153   0.42909   0.44020
     Eigenvalues ---    0.44154   0.44346   0.44866   0.45490   0.46668
     Eigenvalues ---    0.48171   0.48765   0.49906   0.54308   0.59684
     Eigenvalues ---    0.82460   0.95286
 RFO step:  Lambda=-1.05002661D-02 EMin= 3.12445478D-04
 Linear search not attempted -- first point.
 Iteration  1 RMS(Cart)=  0.09598361 RMS(Int)=  0.00250833
 Iteration  2 RMS(Cart)=  0.00553467 RMS(Int)=  0.00032458
 Iteration  3 RMS(Cart)=  0.00001158 RMS(Int)=  0.00032450
 Iteration  4 RMS(Cart)=  0.00000000 RMS(Int)=  0.00032450
 Variable       Old X    -DE/DX   Delta X   Delta X   Delta X     New X
                                 (Linear)    (Quad)   (Total)
    R1        2.31778  -0.00182   0.00000   0.00086   0.00086   2.31864
    R2        2.58343  -0.00331   0.00000  -0.02857  -0.02857   2.55485
    R3        2.86585   0.00602   0.00000   0.03710   0.03710   2.90295
    R4        2.73361   0.00713   0.00000   0.01995   0.01995   2.75356
    R5        1.91152   0.00289   0.00000   0.00606   0.00606   1.91759
    R6        2.88133   0.00662   0.00000   0.02496   0.02496   2.90629
    R7        2.90090   0.00683   0.00000   0.02133   0.02133   2.92222
    R8        2.05995   0.00280   0.00000   0.00790   0.00790   2.06785
    R9        2.55480  -0.00064   0.00000  -0.01673  -0.01673   2.53807
   R10        2.26626   0.01345   0.00000   0.01605   0.01605   2.28231
   R11        1.81874   0.00681   0.00000   0.01229   0.01229   1.83103
   R12        2.83948  -0.00001   0.00000  -0.00743  -0.00743   2.83205
   R13        2.06179   0.00483   0.00000   0.01418   0.01418   2.07598
   R14        2.07039   0.00237   0.00000   0.00723   0.00723   2.07762
   R15        2.57541   0.01342   0.00000   0.02465   0.02466   2.60006
   R16        2.61457   0.00187   0.00000   0.00208   0.00209   2.61666
   R17        2.61419  -0.00294   0.00000  -0.01005  -0.01005   2.60414
   R18        2.03705   0.00192   0.00000   0.00520   0.00520   2.04225
   R19        2.47698   0.00384   0.00000   0.00419   0.00418   2.48117
   R20        2.56593   0.00892   0.00000   0.01846   0.01846   2.58439
   R21        2.03403   0.00367   0.00000   0.00897   0.00897   2.04301
   R22        1.90120   0.00325   0.00000   0.00620   0.00620   1.90740
   R23        2.87487   0.00354   0.00000   0.00358   0.00358   2.87845
   R24        2.06651   0.00377   0.00000   0.00829   0.00829   2.07480
   R25        2.06375   0.00353   0.00000   0.00739   0.00739   2.07113
   R26        2.81112   0.01186   0.00000   0.05954   0.05954   2.87066
   R27        2.05860   0.00195   0.00000   0.00347   0.00347   2.06207
   R28        2.05853   0.00173   0.00000   0.00189   0.00189   2.06041
   R29        1.92736   0.00607   0.00000   0.01173   0.01173   1.93909
   R30        1.92930   0.00509   0.00000   0.00960   0.00960   1.93890
   R31        1.92735   0.00578   0.00000   0.01099   0.01099   1.93834
    A1        2.13854   0.01358   0.00000   0.04768   0.04769   2.18623
    A2        2.13957  -0.01424   0.00000  -0.06239  -0.06240   2.07717
    A3        2.00349   0.00066   0.00000   0.01507   0.01506   2.01855
    A4        2.11097   0.00473   0.00000   0.02228   0.02175   2.13272
    A5        2.05456  -0.00005   0.00000   0.01916   0.01876   2.07332
    A6        1.99409  -0.00376   0.00000  -0.01437  -0.01506   1.97903
    A7        1.89334  -0.00330   0.00000  -0.02445  -0.02444   1.86891
    A8        1.97257  -0.00082   0.00000  -0.01092  -0.01088   1.96168
    A9        1.86962   0.00118   0.00000   0.00355   0.00361   1.87323
   A10        1.89673   0.00289   0.00000   0.01271   0.01244   1.90916
   A11        1.92938  -0.00022   0.00000   0.00463   0.00443   1.93381
   A12        1.90238   0.00020   0.00000   0.01435   0.01425   1.91663
   A13        2.01483   0.00514   0.00000   0.02518   0.02518   2.04002
   A14        2.16079  -0.00833   0.00000  -0.03656  -0.03656   2.12423
   A15        2.10685   0.00320   0.00000   0.01129   0.01129   2.11814
   A16        1.91811   0.00631   0.00000   0.03117   0.03117   1.94927
   A17        1.98964  -0.00025   0.00000  -0.00729  -0.00725   1.98238
   A18        1.90880  -0.00222   0.00000  -0.02594  -0.02597   1.88282
   A19        1.89523  -0.00069   0.00000  -0.00659  -0.00665   1.88858
   A20        1.91576   0.00172   0.00000   0.01709   0.01686   1.93262
   A21        1.89533   0.00184   0.00000   0.03110   0.03102   1.92635
   A22        1.85406  -0.00041   0.00000  -0.00830  -0.00883   1.84524
   A23        2.33349   0.00138   0.00000   0.00078   0.00076   2.33425
   A24        2.12611  -0.00165   0.00000  -0.00131  -0.00133   2.12478
   A25        1.82329   0.00026   0.00000   0.00068   0.00070   1.82399
   A26        1.94012  -0.00023   0.00000  -0.00136  -0.00139   1.93872
   A27        2.20269   0.00401   0.00000   0.02670   0.02663   2.22932
   A28        2.13999  -0.00376   0.00000  -0.02483  -0.02490   2.11510
   A29        1.83206   0.00094   0.00000   0.00495   0.00496   1.83702
   A30        1.94928   0.00171   0.00000   0.00093   0.00093   1.95022
   A31        2.19919  -0.00099   0.00000   0.00070   0.00070   2.19989
   A32        2.13471  -0.00072   0.00000  -0.00163  -0.00163   2.13308
   A33        1.88002  -0.00267   0.00000  -0.00521  -0.00520   1.87482
   A34        2.19506   0.00242   0.00000   0.01154   0.01153   2.20659
   A35        2.20810   0.00025   0.00000  -0.00633  -0.00634   2.20176
   A36        1.96228  -0.01698   0.00000  -0.10044  -0.10040   1.86188
   A37        1.88125   0.00293   0.00000  -0.00162  -0.00207   1.87918
   A38        1.91394   0.00641   0.00000   0.04107   0.04167   1.95561
   A39        1.90230   0.00603   0.00000   0.02671   0.02505   1.92735
   A40        1.92746   0.00510   0.00000   0.03167   0.03201   1.95947
   A41        1.87390  -0.00296   0.00000   0.00631   0.00536   1.87926
   A42        1.95276  -0.00209   0.00000  -0.00508  -0.00471   1.94805
   A43        1.91108   0.00453   0.00000   0.04460   0.04416   1.95524
   A44        1.89777   0.00312   0.00000   0.02486   0.02428   1.92205
   A45        1.91200  -0.00330   0.00000  -0.04462  -0.04461   1.86739
   A46        1.91839  -0.00245   0.00000  -0.03692  -0.03699   1.88140
   A47        1.86994   0.00037   0.00000   0.01900   0.01680   1.88675
   A48        1.94014   0.00068   0.00000   0.00118   0.00118   1.94132
   A49        1.95171  -0.00095   0.00000  -0.00890  -0.00890   1.94282
   A50        1.94405   0.00081   0.00000   0.00487   0.00488   1.94893
   A51        1.87276   0.00014   0.00000   0.00316   0.00316   1.87591
   A52        1.87904  -0.00091   0.00000  -0.00464  -0.00464   1.87440
   A53        1.87240   0.00019   0.00000   0.00449   0.00450   1.87690
    D1       -0.23967   0.00114   0.00000   0.05794   0.05843  -0.18124
    D2       -2.83817   0.00047   0.00000   0.00763   0.00744  -2.83073
    D3        2.96087   0.00168   0.00000   0.05341   0.05360   3.01447
    D4        0.36238   0.00100   0.00000   0.00310   0.00260   0.36498
    D5        0.47871  -0.00087   0.00000  -0.04461  -0.04371   0.43500
    D6       -1.61824   0.00007   0.00000  -0.01537  -0.01576  -1.63400
    D7        2.63018  -0.00150   0.00000  -0.04405  -0.04423   2.58595
    D8       -2.72188  -0.00036   0.00000  -0.03593  -0.03525  -2.75712
    D9        1.46436   0.00058   0.00000  -0.00669  -0.00729   1.45706
   D10       -0.57040  -0.00098   0.00000  -0.03537  -0.03577  -0.60617
   D11       -1.99828   0.00036   0.00000  -0.03539  -0.03512  -2.03340
   D12        2.18030  -0.00048   0.00000  -0.02754  -0.02748   2.15283
   D13        0.08477  -0.00102   0.00000  -0.04116  -0.04100   0.04377
   D14        0.61766   0.00197   0.00000   0.02254   0.02249   0.64015
   D15       -1.48694   0.00113   0.00000   0.03040   0.03013  -1.45681
   D16        2.70071   0.00059   0.00000   0.01678   0.01661   2.71732
   D17        2.78637   0.00059   0.00000   0.03219   0.03222   2.81859
   D18       -0.39544   0.00085   0.00000   0.03003   0.03006  -0.36537
   D19       -1.34583  -0.00067   0.00000   0.01147   0.01143  -1.33440
   D20        1.75555  -0.00041   0.00000   0.00931   0.00927   1.76482
   D21        0.74124   0.00124   0.00000   0.03976   0.03976   0.78100
   D22       -2.44057   0.00150   0.00000   0.03759   0.03761  -2.40296
   D23       -1.23875  -0.00064   0.00000   0.01800   0.01792  -1.22083
   D24        0.91302  -0.00026   0.00000   0.01532   0.01529   0.92831
   D25        2.92917  -0.00233   0.00000  -0.01220  -0.01213   2.91704
   D26        2.94177   0.00204   0.00000   0.04708   0.04710   2.98886
   D27       -1.18965   0.00242   0.00000   0.04440   0.04447  -1.14518
   D28        0.82650   0.00035   0.00000   0.01688   0.01705   0.84355
   D29        0.83793   0.00046   0.00000   0.02529   0.02516   0.86309
   D30        2.98970   0.00084   0.00000   0.02262   0.02253   3.01223
   D31       -1.27734  -0.00123   0.00000  -0.00490  -0.00489  -1.28223
   D32       -0.07410  -0.00041   0.00000  -0.01561  -0.01563  -0.08973
   D33        3.10636  -0.00037   0.00000  -0.01231  -0.01229   3.09407
   D34       -0.08776  -0.00106   0.00000  -0.03220  -0.03230  -0.12006
   D35        3.08421  -0.00106   0.00000  -0.04023  -0.04027   3.04394
   D36       -2.23575   0.00070   0.00000  -0.00607  -0.00591  -2.24166
   D37        0.93623   0.00071   0.00000  -0.01410  -0.01389   0.92234
   D38        2.02745  -0.00077   0.00000  -0.02295  -0.02309   2.00436
   D39       -1.08376  -0.00077   0.00000  -0.03097  -0.03107  -1.11483
   D40       -3.11728  -0.00014   0.00000  -0.00845  -0.00842  -3.12569
   D41        0.05357  -0.00081   0.00000  -0.02762  -0.02780   0.02578
   D42       -0.00235  -0.00017   0.00000  -0.00143  -0.00144  -0.00379
   D43       -3.11468  -0.00084   0.00000  -0.02060  -0.02082  -3.13550
   D44        3.12008   0.00015   0.00000   0.00636   0.00629   3.12637
   D45       -0.02069   0.00019   0.00000   0.01118   0.01118  -0.00952
   D46        0.00117   0.00012   0.00000   0.00036   0.00032   0.00149
   D47       -3.13960   0.00017   0.00000   0.00517   0.00521  -3.13439
   D48        0.00263   0.00015   0.00000   0.00195   0.00200   0.00463
   D49        3.11620   0.00094   0.00000   0.02131   0.02089   3.13709
   D50       -0.00184  -0.00007   0.00000  -0.00171  -0.00178  -0.00362
   D51        3.13945  -0.00015   0.00000  -0.00272  -0.00274   3.13672
   D52        0.00045  -0.00004   0.00000   0.00087   0.00093   0.00138
   D53        3.14121  -0.00008   0.00000  -0.00398  -0.00393   3.13728
   D54       -3.14086   0.00003   0.00000   0.00184   0.00184  -3.13902
   D55       -0.00010  -0.00001   0.00000  -0.00301  -0.00302  -0.00311
   D56       -3.11501   0.00135   0.00000   0.05512   0.05507  -3.05994
   D57        1.04494   0.00379   0.00000   0.08418   0.08457   1.12951
   D58       -0.99284  -0.00095   0.00000   0.02238   0.02190  -0.97094
   D59       -1.03028  -0.00162   0.00000   0.00784   0.00756  -1.02272
   D60        3.12967   0.00082   0.00000   0.03689   0.03707  -3.11645
   D61        1.09189  -0.00393   0.00000  -0.02490  -0.02560   1.06628
   D62        1.02428   0.00138   0.00000   0.05011   0.05041   1.07470
   D63       -1.09895   0.00382   0.00000   0.07916   0.07991  -1.01904
   D64       -3.13674  -0.00092   0.00000   0.01737   0.01725  -3.11949
   D65        1.04370  -0.00045   0.00000  -0.00735  -0.00733   1.03638
   D66        3.13642  -0.00045   0.00000  -0.00855  -0.00852   3.12790
   D67       -1.05181  -0.00030   0.00000  -0.00555  -0.00553  -1.05734
   D68       -3.11678   0.00162   0.00000   0.01494   0.01467  -3.10210
   D69       -1.02406   0.00161   0.00000   0.01374   0.01348  -1.01058
   D70        1.07089   0.00176   0.00000   0.01674   0.01647   1.08736
   D71       -1.06655  -0.00133   0.00000  -0.01015  -0.00991  -1.07646
   D72        1.02617  -0.00134   0.00000  -0.01134  -0.01110   1.01507
   D73        3.12112  -0.00119   0.00000  -0.00835  -0.00811   3.11301
         Item               Value     Threshold  Converged?
 Maximum Force            0.016984     0.000450     NO 
 RMS     Force            0.003825     0.000300     NO 
 Maximum Displacement     0.341980     0.001800     NO 
 RMS     Displacement     0.098715     0.001200     NO 
 Predicted change in Energy=-5.800805D-03
 GradGradGradGradGradGradGradGradGradGradGradGradGradGradGradGradGradGrad

                          Input orientation:                          
 ---------------------------------------------------------------------
 Center     Atomic      Atomic             Coordinates (Angstroms)
 Number     Number       Type             X           Y           Z
 ---------------------------------------------------------------------
      1          8           0       -1.150490   -0.541387   -1.195990
      2          6           0       -1.100156   -0.203510   -0.017532
      3          7           0       -0.059880   -0.430236    0.815682
      4          6           0        1.046369   -1.307572    0.455540
      5          6           0        1.030920   -2.483911    1.446125
      6          8           0        1.701089   -3.590532    1.085361
      7          8           0        0.480945   -2.403688    2.518386
      8          6           0        2.414830   -0.591351    0.530457
      9          6           0        2.611410    0.439458   -0.539475
     10          6           0        1.887084    0.808479   -1.649548
     11          7           0        2.517617    1.821818   -2.338461
     12          6           0        3.616649    2.066806   -1.663172
     13          7           0        3.725895    1.260839   -0.563711
     14          6           0       -2.264323    0.603774    0.576467
     15          6           0       -3.493870    0.279550   -0.262138
     16          7           0       -4.693826    1.110076    0.159712
     17          1           0       -0.212090   -0.364042    1.816757
     18          1           0        0.866041   -1.657086   -0.565598
     19          1           0        2.050095   -3.519932    0.184222
     20          1           0        2.504554   -0.138935    1.527504
     21          1           0        3.205037   -1.353892    0.477062
     22          1           0        0.942210    0.406376   -1.986401
     23          1           0        4.366251    2.804398   -1.913888
     24          1           0        4.483652    1.262770    0.103070
     25          1           0       -2.010525    1.668373    0.488838
     26          1           0       -2.416929    0.384491    1.639404
     27          1           0       -3.784568   -0.768521   -0.174050
     28          1           0       -3.296630    0.489181   -1.313784
     29          1           0       -4.502644    2.113810    0.065399
     30          1           0       -5.515728    0.897391   -0.416446
     31          1           0       -4.949001    0.937116    1.138016
 ---------------------------------------------------------------------
                    Distance matrix (angstroms):
                    1          2          3          4          5
     1  O    0.000000
     2  C    1.226971   0.000000
     3  N    2.290983   1.351970   0.000000
     4  C    2.853205   2.459740   1.457124   0.000000
     5  C    3.938619   3.447318   2.409333   1.537943   0.000000
     6  O    4.757452   4.531585   3.627838   2.457079   1.343088
     7  O    4.463892   3.711002   2.661993   2.403436   1.207747
     8  C    3.961644   3.578525   2.496298   1.546374   2.517030
     9  C    3.942709   3.802835   3.119072   2.547847   3.871259
    10  C    3.354803   3.551225   3.376750   3.100947   4.599570
    11  N    4.510541   4.751520   4.654445   4.445683   5.922218
    12  C    5.454039   5.487323   5.088890   4.741488   6.087918
    13  N    5.237072   5.072810   4.369732   3.849087   5.032444
    14  C    2.386131   1.536173   2.446624   3.824729   4.598775
    15  C    2.652819   2.454190   3.668484   4.862900   5.570333
    16  N    4.137691   3.830325   4.927099   6.235574   6.880720
    17  H    3.160489   2.044272   1.014742   2.080116   2.485214
    18  H    2.389262   2.505831   2.066500   1.094258   2.181250
    19  H    4.584808   4.578585   3.794333   2.444507   1.924697
    20  H    4.575885   3.922402   2.677288   2.154326   2.770764
    21  H    4.736020   4.483602   3.409911   2.159272   2.634922
    22  H    2.429485   2.901666   3.091241   2.985221   4.488192
    23  H    6.491847   6.521141   6.124055   5.791727   7.097911
    24  H    6.056904   5.774377   4.900793   4.306484   5.269040
    25  H    2.908838   2.142225   2.883748   4.266376   5.235289
    26  H    3.240459   2.196604   2.626400   4.032251   4.489181
    27  H    2.834487   2.747690   3.868759   4.901521   5.362504
    28  H    2.383666   2.642837   3.982022   5.021999   5.931615
    29  H    4.458488   4.117497   5.174287   6.530668   7.325693
    30  H    4.661875   4.568194   5.748653   6.977346   7.600064
    31  H    4.697046   4.177311   5.086949   6.438079   6.896217
                    6          7          8          9         10
     6  O    0.000000
     7  O    2.225064   0.000000
     8  C    3.132480   3.313056   0.000000
     9  C    4.439550   4.687523   1.498655   0.000000
    10  C    5.183206   5.446734   2.643949   1.375895   0.000000
    11  N    6.456223   6.752177   3.750286   2.270697   1.378052
    12  C    6.574898   6.877745   3.649955   2.218436   2.138918
    13  N    5.509545   5.784270   2.519267   1.384677   2.182865
    14  C    5.794452   4.511360   4.829588   5.004508   4.715000
    15  C    6.616713   5.543486   6.024900   6.113668   5.582055
    16  N    7.990461   6.684918   7.318832   7.369197   6.831746
    17  H    3.821706   2.265554   2.933760   3.764253   4.218603
    18  H    2.676039   3.196352   2.176207   2.728093   2.880362
    19  H    0.968939   3.025981   2.971447   4.063937   4.703661
    20  H    3.571354   3.194674   1.098559   2.149037   3.372317
    21  H    2.763051   3.562268   1.099430   2.145191   3.306860
    22  H    5.097734   5.329384   3.081987   2.209280   1.080714
    23  H    7.549418   7.865419   4.616706   3.249833   3.193719
    24  H    5.679974   5.941240   2.810774   2.143827   3.165472
    25  H    6.464364   5.187308   4.969090   4.891824   4.528075
    26  H    5.750290   4.116336   5.052517   5.480395   5.433368
    27  H    6.296212   5.302601   6.241815   6.519301   6.068909
    28  H    6.883106   6.109360   6.098324   5.958772   5.204381
    29  H    8.489178   7.159685   7.442153   7.333423   6.743408
    30  H    8.630141   7.447849   8.124453   8.140959   7.505336
    31  H    8.045251   6.523090   7.545287   7.760248   7.383706
                   11         12         13         14         15
    11  N    0.000000
    12  C    1.312977   0.000000
    13  N    2.219092   1.367600   0.000000
    14  C    5.731264   6.460827   6.133063   0.000000
    15  C    6.544286   7.464360   7.292385   1.523209   0.000000
    16  N    7.665008   8.561672   8.452087   2.516448   1.519086
    17  H    5.430941   5.716482   4.880020   2.585855   3.937778
    18  H    4.239519   4.757928   4.085713   4.026783   4.780322
    19  H    5.925943   6.089220   5.120887   5.981055   6.735790
    20  H    4.334790   4.035153   2.797181   4.919174   6.273678
    21  H    4.299401   4.056007   2.862048   5.810012   6.934689
    22  H    2.146935   3.164511   3.240842   4.109637   4.761090
    23  H    2.136159   1.081112   2.148396   7.416814   8.419302
    24  H    3.184164   2.125506   1.009354   6.796584   8.046176
    25  H    5.340527   6.037796   5.846405   1.097936   2.166358
    26  H    6.499158   7.081049   6.584526   1.095996   2.187847
[...]
 .00041776,0.00004670,-0.00006638,0.00002790,-0.00003018,0.00001134,-0.
 00002155,-0.00001433,-0.00000958,0.00000780,-0.00002072,-0.00000003,0.
 00001645,-0.00001797,0.00000451,-0.00009054,-0.00001727,-0.00000242,-0
 .00000161,0.00000201,-0.00000151,0.00001092,0.00002061,-0.00274969,-0.
 01826343,0.04968979,-0.00258963,0.00515213,0.00193811,0.00182986,-0.01
 048074,0.02193813,-0.00041398,0.00027323,-0.00138010,0.00015805,0.0000
 5101,-0.00050749,-0.00020633,0.00009600,0.00040819,0.00003752,-0.00002
 045,-0.00012049,0.00012494,-0.00003566,-0.00023158,0.00007144,-0.00003
 392,-0.00000121,0.00006330,-0.00000325,0.00004704,0.00000293,0.0000531
 2,0.00006393,-0.00003670,0.00002001,-0.00001752,-0.00000119,-0.0000124
 8,-0.00000110,-0.00005526,-0.00004169,-0.00005017,-0.06047861,-0.01092
 169,0.04492554,0.00472867,0.00590479,-0.03149266,0.00111545,-0.0004442
 7,-0.00020801,-0.00162045,0.00095534,0.00004506,0.00028601,-0.00012152
 ,0.00004608,0.00002030,-0.00001830,0.00000221,-0.00003511,-0.00000272,
 -0.00001336,0.00000431,0.00001939,-0.00001283,0.00005990,-0.00000647,-
 0.00007406,-0.00000489,-0.00000194,-0.00000413,-0.00000204,-0.00000051
 ,0.00001555,-0.00175983,-0.00148344,0.00967737,0.06316366,0.00306692,-
 0.00394800,-0.00230884,0.00044840,0.00599971,-0.02009787,-0.00069638,-
 0.00003162,0.00101764,-0.00019371,-0.00023286,0.00010957,0.00020446,-0
 .00008635,-0.00027997,-0.00005054,0.00004686,0.00008269,-0.00020931,-0
 .00001644,0.00011903,-0.00007394,0.00009027,0.00007108,0.00001164,0.00
 001215,0.00001522,-0.00003532,-0.00001148,-0.00001585,-0.00002463,0.00
 001723,0.00000491,0.00002541,0.00000505,0.00002213,-0.00000781,-0.0000
 0961,-0.00001884,-0.01026314,-0.05870628,0.05635351,0.00112378,0.00004
 490,-0.00477047,-0.00009572,0.00005044,0.00041620,0.00078192,0.0003852
 1,0.00005530,-0.00012299,0.00004146,-0.00004380,0.00000661,0.00000954,
 -0.00000450,0.00001049,0.00001089,-0.00000763,-0.00003117,-0.00001917,
 -0.00000833,-0.00002189,-0.00003695,0.00001332,0.00000074,-0.00000041,
 0.00000145,-0.00000119,0.00000803,0.00000798,-0.00480524,-0.00523540,0
 .03021367,0.01058661,0.06066213,0.00233534,-0.00161881,0.00044910,-0.0
 0089540,0.00222329,-0.01161807,-0.00097652,0.00045189,0.00106926,0.000
 16184,-0.00069581,0.00019924,0.00015782,-0.00010445,-0.00013399,-0.000
 03697,0.00005379,0.00003634,-0.00008898,0.00001405,0.00005209,-0.00011
 354,0.00011583,0.00006255,-0.00003203,0.00002456,-0.00003105,-0.000022
 91,-0.00002793,-0.00004674,0.00002117,-0.00001416,0.00002553,-0.000003
 63,-0.00000399,-0.00000177,0.00003989,0.00002048,0.00004224,0.04264202
 ,0.05581430,-0.29340781,0.00340870,0.00221330,-0.01491996,-0.00030780,
 0.00025067,0.00060167,0.00051154,0.00023616,0.00083958,-0.00010462,0.0
 0009011,0.00006214,0.00000020,-0.00000437,-0.00000583,0.00002362,0.000
 00304,0.00000758,-0.00003828,-0.00003775,0.00000429,-0.00003547,0.0000
 0052,0.00002501,0.00000329,0.00000039,0.00000201,0.00000480,0.00000405
 ,-0.00000622,0.00039187,0.00013904,-0.00048361,-0.04399230,-0.05918913
 ,0.31723544,0.00017198,0.00109106,0.00075066,0.00087717,-0.00182491,-0
 .00141809,-0.00041459,0.00061478,0.00003313,0.00008049,-0.00007918,-0.
 00012202,-0.00007421,-0.00009582,0.00011532,-0.00000529,0.00008468,-0.
 00002567,0.00005264,0.00007593,-0.00005962,-0.00002712,0.00002054,0.00
 001776,0.00001562,0.00000081,0.00002717,-0.00003023,0.00001024,0.00000
 054,-0.00001747,0.00001769,0.00000900,0.00001327,0.00000918,-0.0000043
 1,-0.00001867,0.00000189,-0.00000304,-0.01164789,-0.02201704,0.0058901
 3,-0.12280821,-0.12475435,0.03625879,0.00839935,0.03020022,-0.00636024
 ,-0.00001547,-0.00017811,0.00009357,-0.00001849,0.00000369,0.00002962,
 -0.00001154,-0.00003179,-0.00000942,0.00001402,-0.00000095,0.00000229,
 -0.00002149,0.00000336,0.00000319,0.00001295,-0.00001762,-0.00001170,0
 .00000119,-0.00000072,-0.00000328,0.00001552,-0.00000431,-0.00000193,-
 0.00386548,0.00062368,-0.00281436,0.00136649,0.00056675,0.00018157,0.1
 3161381,0.00015403,-0.00008481,0.00012883,-0.00063426,0.00047487,-0.00
 036994,0.00017084,-0.00014839,0.00022949,-0.00003293,0.00007344,0.0000
 1355,0.00000192,0.00006618,-0.00002748,0.00000870,-0.00004701,0.000002
 32,-0.00000489,-0.00004519,0.00001571,0.00001582,-0.00001134,-0.000002
 78,-0.00001040,-0.00000160,-0.00001257,0.00000567,-0.00001301,-0.00000
 726,0.00000986,-0.00000302,-0.00000071,-0.00000227,-0.00000078,0.00000
 221,0.00001243,0.00000476,0.00000636,-0.00205792,0.00078969,-0.0002144
 7,-0.11269233,-0.23994386,0.05296916,-0.00704147,-0.02693259,0.0057746
 0,-0.00002056,0.00000026,-0.00001970,-0.00000024,0.00000325,-0.0000088
 4,0.00000524,0.00001624,0.00000384,-0.00000333,0.00000082,0.00000044,0
 .00001096,-0.00000084,-0.00000105,-0.00001151,0.00000844,0.00001046,0.
 00000058,0.00000064,0.00000144,-0.00000490,0.00000104,-0.00000023,0.00
 035259,0.00090852,0.00003568,0.00028554,0.00041773,-0.00004653,0.11881
 201,0.26332214,-0.00025248,-0.00087134,0.00028081,0.00032388,-0.000172
 32,0.00014847,0.00009965,0.00024063,-0.00014423,0.00002110,0.00004119,
 -0.00001667,-0.00008077,0.00004558,0.00010918,0.00002946,-0.00003601,-
 0.00003450,0.00006389,0.00000507,-0.00006636,0.00000370,-0.00001265,-0
 .00000986,0.00000444,-0.00000254,0.00000332,-0.00001133,-0.00000492,-0
 .00000202,0.00001286,0.00000321,0.00000052,-0.00000360,-0.00000086,-0.
 00000745,0.00000615,0.00000557,0.00001166,-0.01015245,-0.01711219,0.00
 453438,0.03445778,0.05883777,-0.06839132,-0.00192727,-0.00784167,0.000
 70719,-0.00008067,-0.00007430,0.00000953,-0.00000330,0.00000407,0.0000
 0049,0.00000077,0.00000343,0.00000629,-0.00000013,-0.00000304,0.000001
 41,0.00000361,0.00000311,0.00000138,-0.00000998,0.00001137,-0.00000279
 ,0.00000080,0.00000063,-0.00000025,0.00000115,-0.00000178,0.00000049,-
 0.00384659,-0.00030659,-0.00135400,0.00092727,-0.00061231,0.00090690,-
 0.03339642,-0.05773222,0.06632788,-0.00135740,0.00031863,0.00440767,-0
 .00082153,-0.00148529,-0.00716476,0.00159890,0.00048283,0.00244623,-0.
 00039172,0.00023391,0.00030326,0.00000720,0.00030210,-0.00027808,0.000
 07189,-0.00018895,0.00007006,-0.00002807,-0.00017410,0.00021689,-0.000
 00298,-0.00006042,-0.00002673,-0.00005972,-0.00003326,-0.00004166,-0.0
 0004341,-0.00011302,-0.00007405,0.00007972,0.00003758,0.00000480,0.000
 00799,0.00002853,-0.00000152,0.00008793,0.00006284,0.00006026,0.007535
 02,0.00146731,-0.02651960,-0.06070192,-0.00423839,0.05965661,-0.010573
 33,0.00426107,0.02178475,0.00056689,-0.00028897,-0.00008815,-0.0002048
 2,0.00009331,-0.00005517,-0.00003873,0.00007004,0.00001237,0.00000950,
 0.00001319,0.00000487,0.00005431,0.00000337,-0.00000969,-0.00010042,0.
 00002019,0.00009300,0.00000997,0.00000631,0.00000711,-0.00001655,-0.00
 000860,-0.00001521,0.00069293,-0.00036176,0.00022739,-0.00542565,-0.00
 047396,-0.00235972,-0.00235917,0.00005490,0.01394607,0.07247863,0.0004
 5870,-0.00215807,-0.00156885,0.00080272,0.00175261,0.00309919,-0.00061
 130,-0.00027088,-0.00159145,0.00017332,-0.00008107,-0.00001249,0.00000
 020,-0.00006659,0.00009526,-0.00002386,0.00003123,-0.00003106,0.000009
 04,0.00006877,-0.00008132,0.00001542,0.00003003,-0.00002025,0.00000604
 ,0.00001660,-0.00001611,0.00003303,0.00003910,0.00001039,0.00002203,-0
 .00005596,0.00000380,-0.00003638,-0.00003176,-0.00001744,0.00001060,-0
 .00000931,0.00002628,-0.00047853,0.00058342,-0.00534606,-0.00762500,-0
 .05097015,0.01091890,0.01295281,-0.00697798,-0.03010324,-0.00018841,0.
 00021034,-0.00000320,0.00007432,-0.00003003,0.00001863,0.00002489,-0.0
 0001059,0.00000438,-0.00000971,-0.00001226,0.00000313,-0.00001595,-0.0
 0001509,0.00001017,0.00002164,0.00004199,-0.00003559,-0.00000499,-0.00
 000088,-0.00000030,-0.00000251,0.00000791,0.00000476,0.00063002,0.0002
 3983,-0.00016889,0.00002344,0.00045226,-0.00044110,-0.00648149,0.00292
 088,0.02676001,-0.00235224,0.05648183,0.00358567,-0.00101005,0.0010566
 6,0.00050891,-0.00103376,-0.00276573,-0.00004706,-0.00005018,-0.000112
 07,0.00002508,-0.00006505,0.00005339,0.00002237,0.00002896,-0.00002402
 ,0.00000504,-0.00001685,0.00000561,-0.00001414,-0.00000705,0.00002178,
 -0.00001374,-0.00000119,0.00000775,-0.00000709,-0.00001051,0.00000105,
 0.00003032,0.00001482,-0.00001047,-0.00000391,-0.00001325,-0.00001840,
 0.00000750,0.00000748,0.00000722,-0.00001326,-0.00000104,-0.00002156,-
 0.00073064,0.00225666,-0.01758360,0.06662762,0.00152071,-0.31747710,-0
 .00082074,0.00013062,0.00299063,0.00000500,0.00000077,0.00008312,-0.00
 001919,0.00002773,0.00003031,-0.00000367,0.00000484,0.00000522,0.00000
 566,0.00000330,-0.00000256,0.00000268,0.00000068,0.00000137,0.00000809
 ,-0.00000772,0.00004510,-0.00000266,0.00000043,0.00000133,-0.00000270,
 0.00000140,0.00000162,0.00016029,-0.00018519,0.00055360,-0.00234802,-0
 .00149186,-0.00044353,0.00039308,-0.00006569,-0.00380979,-0.06703429,-
 0.00018835,0.33575545,-0.00004677,-0.00044296,-0.00047873,-0.00079129,
 0.00034638,0.00078787,0.00027472,-0.00020740,-0.00005002,-0.00008470,0
 .00012016,0.00010113,-0.00003115,0.00018910,-0.00010272,0.00005353,-0.
 00013990,0.00001705,0.00001023,-0.00009763,0.00006343,0.00001796,-0.00
 002111,-0.00002844,-0.00002695,-0.00001309,-0.00003576,0.00003869,-0.0
 0000947,-0.00002622,0.00008067,-0.00004097,-0.00001438,-0.00004425,-0.
 00001812,-0.00001974,0.00005270,0.00001040,0.00002983,0.00248545,0.001
 73474,0.00020163,0.01447919,0.01977803,-0.00755105,-0.12157189,-0.1244
 1823,0.03496904,-0.00001410,0.00006657,-0.00009509,0.00000051,0.000001
 49,-0.00002027,-0.00001032,0.00004686,0.00001247,-0.00001016,0.0000045
 8,0.00000306,0.00002848,-0.00000990,-0.00000129,-0.00002242,0.00003563
 ,0.00003031,-0.00000666,0.00000383,0.00000780,-0.00003125,0.00000586,0
 .00000130,-0.00107589,-0.00132149,-0.00030573,-0.00017838,-0.00043320,
 0.00000721,-0.00386177,0.00389484,0.00076513,0.00073870,-0.00033962,0.
 00011195,0.12539744,-0.00048249,0.00026516,0.00004475,0.00055157,-0.00
 039385,-0.00056690,-0.00071984,0.00031138,0.00001785,0.00016875,-0.000
 12452,-0.00016896,0.00004141,-0.00016904,0.00006044,-0.00008495,0.0001
 4815,-0.00001435,-0.00006059,0.00008704,-0.00003157,0.00000330,0.00008
 296,0.,0.00000699,0.00003055,0.00001222,0.00001630,0.00006254,0.000009
 03,-0.00000660,-0.00006900,0.00001419,-0.00002431,-0.00002340,-0.00001
 927,-0.00001296,-0.00003054,0.00000483,-0.00069384,0.00245848,0.000874
 97,-0.00799602,-0.02319332,0.00510551,-0.13477072,-0.31932438,0.077257
 10,0.00006925,0.00000838,0.00009924,0.00001987,0.00000078,0.00001278,0
 .00003468,-0.00003075,-0.00001042,0.00000066,-0.00001279,0.00000183,-0
 .00003763,-0.00002639,0.00001241,0.00002588,-0.00000400,-0.00004237,-0
 .00001346,-0.00000059,0.00000020,0.00000686,0.00001810,0.00000627,0.00
 086013,0.00024549,0.00051140,-0.00009357,-0.00004387,-0.00008409,0.004
 14918,-0.00159997,-0.00148101,-0.00057502,0.00104063,-0.00065233,0.137
 05924,0.33666760,0.00023798,-0.00012436,-0.00070793,-0.00080407,0.0003
 3544,0.00075355,0.00027203,-0.00018866,-0.00009687,-0.00009507,0.00008
 502,0.00006702,-0.00005700,0.00010394,0.00003691,0.00006068,-0.0000964
 5,-0.00001224,0.00005107,-0.00005565,-0.00003476,-0.00000869,-0.000050
 43,0.00001808,0.00002038,-0.00001337,0.00000989,0.00001255,-0.00002555
 ,0.00001837,-0.00004805,0.00004535,-0.00004877,0.00004798,0.00002026,0
 .00005094,-0.00003991,-0.00000520,-0.00008438,0.00078476,0.00054564,-0
 .00060995,-0.00390258,-0.00484229,0.00229203,0.03605699,0.07439233,-0.
 08563993,-0.00005066,0.00004792,-0.00004089,-0.00000670,-0.00000912,-0
 .00000875,-0.00001712,0.00001690,0.00001167,-0.00000598,0.00001149,-0.
 00001255,0.00002083,0.00002063,-0.00001274,0.00000252,-0.00002523,0.00
 003875,-0.00000022,0.00000022,0.00000529,-0.00001248,0.00000082,0.0000
 0995,-0.00048415,-0.00025203,0.00037048,-0.00009430,0.00016668,-0.0001
 2369,0.00113170,-0.00111340,0.00027387,-0.00004432,-0.00111799,0.00001
 713,-0.04005089,-0.08029869,0.08164271,0.00078521,-0.00006941,0.000690
 62,-0.00047250,-0.00059005,-0.00243795,-0.00011136,0.00025418,0.000488
 76,-0.00007503,-0.00003552,-0.00004785,-0.00006874,0.00011086,0.000004
 09,0.00004816,-0.00007630,-0.00000511,0.00003663,-0.00005793,0.0000086
 3,-0.00001884,0.00002866,0.00000032,-0.00001379,-0.00000553,-0.0000204
 9,0.00000239,-0.00001995,-0.00002277,0.00004486,-0.00000948,0.00000156
 ,-0.00001763,-0.00000591,-0.00000845,0.00003856,0.00001126,0.00002290,
 -0.00208454,0.00361176,0.00190943,-0.01513511,-0.00150439,-0.00959522,
 -0.28635256,-0.04321878,-0.16252973,0.00000039,0.00001728,-0.00000121,
 -0.00001243,0.00000745,-0.00000285,-0.00001465,0.00002156,0.00000353,-
 0.00000191,0.00000391,0.00000166,0.00000477,-0.00001511,-0.00000116,-0
 .00002212,0.00001756,0.00001659,-0.00000169,0.00000289,0.00000434,-0.0
 0001681,0.00000231,0.00000037,0.00049655,0.00010157,0.00024915,0.00002
 348,0.00018105,-0.00010705,0.00139888,-0.00049440,-0.00021397,0.000003
 55,-0.00071595,0.00067689,-0.01111691,-0.00016931,-0.00880892,0.299201
 87,-0.00037842,-0.00022148,-0.00047346,0.00069507,0.00124139,0.0021464
 6,0.00060525,-0.00052782,-0.00042432,-0.00007237,0.00003861,0.00019790
 ,0.00004101,0.00009532,-0.00010671,0.00002060,-0.00009688,0.00002149,-
 0.00001108,-0.00005394,0.00004418,0.00001787,-0.00003430,-0.00000616,-
 0.00000328,-0.00001023,0.00000275,0.00001319,0.00000232,0.00000173,0.0
 0001044,-0.00000583,-0.00000560,-0.00000351,0.00000613,-0.00000684,0.0
 0000050,-0.00000376,-0.00000246,0.00261753,-0.00526075,-0.00279782,0.0
 2039968,0.00663186,0.01685885,-0.03545814,-0.06503383,-0.02173176,-0.0
 0002604,0.00005526,-0.00008424,0.00000867,-0.00000425,-0.00000945,0.00
 000009,0.00002954,0.00001175,-0.00000278,0.00000312,-0.00000009,0.0000
 2028,0.00000803,-0.00000261,-0.00000396,0.00000407,0.00001050,-0.00000
 277,0.00000177,0.00000028,-0.00000555,0.00000080,0.00000061,-0.0002859
 8,0.00030340,-0.00029779,-0.00018993,0.00004651,0.00001215,-0.00012718
 ,-0.00021932,0.00086121,-0.00029961,0.00096434,-0.00032147,-0.02700279
 ,-0.00151468,-0.02225085,0.04043604,0.06444483,0.00020886,-0.00008318,
 -0.00008978,0.00013043,0.00001516,0.00044102,0.00029767,-0.00018521,-0
 .00011683,-0.00006561,0.00004455,0.00006686,-0.00005570,0.00010137,0.0
 0002895,0.00005656,-0.00009608,-0.00001161,0.00005171,-0.00004640,-0.0
 0002688,-0.00000609,-0.00002874,0.00000590,0.00000554,-0.00001442,-0.0
 0000011,0.00002000,-0.00001270,0.00000389,-0.00000268,0.00001212,-0.00
 003317,0.00001516,0.00000915,0.00001881,-0.00001143,0.00000136,-0.0000
 3635,0.00046202,-0.00117442,-0.00009373,0.00503212,0.00422077,0.005460
 05,-0.15747038,-0.02655229,-0.17671103,-0.00005686,0.00002814,-0.00005
 455,0.00000175,-0.00000617,-0.00000156,-0.00001414,0.00001962,0.000012
 50,-0.00000387,0.00000630,-0.00000569,0.00001761,0.00000941,-0.0000057
 6,-0.00000619,-0.00000134,0.00003254,-0.00000146,0.00000134,0.00000396
 ,-0.00001211,-0.00000020,0.00000542,-0.00013495,-0.00010307,-0.0001518
 8,0.00021390,-0.00019079,0.00010505,-0.00015854,0.00027685,0.00011863,
 0.00101901,-0.00021627,0.00033848,0.01070439,0.00063374,0.00776199,0.1
 7172420,0.02858006,0.18063694,-0.00033776,-0.00046702,-0.00129856,-0.0
 0126745,0.00148563,0.00149080,0.00055649,-0.00039431,-0.00018470,-0.00
 016499,0.00013354,0.00015774,-0.00006658,0.00022337,-0.00006607,0.0000
 9215,-0.00018845,0.00000832,0.00005805,-0.00011825,0.00002792,0.000008
 48,-0.00005391,-0.00000557,-0.00000601,-0.00002374,-0.00001099,0.00001
 766,-0.00002742,-0.00000612,0.00003265,0.00001472,-0.00002393,-0.00000
 330,0.00000768,0.00000461,0.00001867,0.00000576,-0.00001498,0.00161183
 ,-0.00165306,0.00067947,-0.00576349,0.00060055,0.02135129,-0.09151549,
 0.00078361,0.10016516,-0.00010245,0.00008178,-0.00011009,-0.00000484,-
 0.00001109,-0.00002656,-0.00002550,0.00004871,0.00001561,-0.00000978,0
 .00001210,-0.00000362,0.00003665,0.00000999,-0.00001141,-0.00001693,0.
 00000650,0.00003661,-0.00000233,0.00000364,0.00000523,-0.00002641,-0.0
 0000122,0.00000340,-0.00050804,-0.00017361,0.00014572,-0.00024827,0.00
 052536,-0.00077564,0.00116373,-0.00078453,-0.00068875,-0.00181773,0.00
 362772,-0.00111502,-0.00473341,0.00272722,0.01583162,0.01345133,-0.001
 01283,-0.03196093,0.08957309,0.00074824,0.00004541,0.00076235,0.000101
 95,-0.00093186,-0.00126911,-0.00015418,0.00012554,0.00025735,0.0000317
 6,-0.00001384,-0.00003716,0.00004618,-0.00000415,-0.00005293,-0.000033
 91,0.00002719,0.00001218,-0.00005753,-0.00001088,0.00004159,0.00000757
 ,0.00001788,0.00000280,-0.00000388,0.00001133,-0.00000210,-0.00000093,
 0.00000404,-0.00000798,-0.00000418,-0.00001725,0.00000279,0.00000083,-
 0.00000560,0.00000492,0.00000247,-0.00000643,-0.00000206,-0.00127597,0
 .00118195,0.00000661,0.00685100,0.00075180,-0.02686976,0.00275482,-0.0
 6070773,-0.02236086,0.00006809,0.00002820,0.00002800,-0.00000704,0.000
 01365,0.00000326,0.00001370,0.00000239,-0.00000258,0.00000007,-0.00000
 111,-0.00000062,-0.00000494,-0.00000871,0.00000223,-0.00000259,0.00000
 004,-0.00000112,-0.00000361,0.00000031,0.00000242,-0.00000108,0.000009
 40,0.00000334,-0.00010342,-0.00012266,0.00029505,0.00049193,0.00007808
 ,0.00060050,-0.00067220,0.00004283,-0.00055712,0.00319748,-0.00419114,
 0.00112314,-0.00878185,0.00513387,0.03467662,0.00217968,-0.00089023,-0
 .00524863,-0.00538845,0.05943767,-0.00044063,0.00009555,-0.00024461,0.
 00026591,-0.00013436,-0.00019266,-0.00051017,0.00018224,-0.00012576,0.
 00008868,-0.00004987,-0.00012054,-0.00004519,-0.00007588,0.00018076,-0
 .00000823,0.00004810,-0.00004925,0.00002726,0.00004358,-0.00012517,-0.
 00001001,0.00002886,0.00001961,0.00002383,0.00001430,0.00001393,0.0000
 0519,0.00001849,0.00001992,-0.00004018,0.00000221,-0.00001426,0.000016
 32,-0.00000640,0.00002074,-0.00003297,-0.00001643,-0.00003698,-0.00007
 025,0.00043672,0.00247746,0.00302455,-0.00424178,0.00087701,0.09302983
 ,-0.01391322,-0.37626711,-0.00004444,0.00003506,0.00009565,0.00002322,
 -0.00000798,0.00000811,0.00001522,-0.00002155,-0.00000005,-0.00000347,
 -0.00000517,-0.00000697,-0.00002002,-0.00000228,0.00000096,0.00001666,
 -0.00001114,-0.00001590,-0.00000128,-0.00000220,0.00000003,0.00000463,
 0.00000490,0.00001028,0.00013503,0.00000168,0.00008172,0.00030092,0.00
 036981,-0.00050378,-0.00054887,0.00015192,0.00039685,-0.00054741,0.000
 00506,0.00129202,0.00096673,-0.00130880,-0.00594519,0.00799969,-0.0002
 2829,-0.01770207,-0.10362057,0.01858689,0.39585527\\0.00000186,0.00000
 004,-0.00000097,-0.00000390,-0.00000007,-0.00000017,-0.00000081,0.0000
 0042,0.00000039,-0.00000292,-0.00000061,0.00000136,-0.00000088,0.00000
 105,-0.00000055,0.00000031,-0.00000058,-0.00000049,0.00000021,-0.00000
 028,0.00000002,0.00000305,-0.00000033,-0.00000191,-0.00000018,0.000001
 53,0.00000190,0.00000051,-0.00000045,-0.00000033,0.00000019,0.00000027
 ,-0.00000027,0.00000002,-0.00000004,0.00000109,0.00000007,0.00000030,-
 0.00000031,-0.00000203,-0.00000130,-0.00000043,0.00000164,0.00000377,-
 0.00000011,0.00000141,-0.00000130,0.00000140,0.00000011,-0.00000066,-0
 .00000014,-0.00000021,0.00000011,-0.00000030,-0.00000018,0.00000009,-0
 .00000013,0.00000014,-0.00000050,0.00000018,-0.00000034,0.00000074,-0.
 00000035,-0.00000024,-0.00000066,0.00000019,0.00000003,-0.00000007,0.0
 0000031,-0.00000013,-0.00000008,0.00000019,0.00000033,0.00000116,-0.00
 000149,-0.00000092,-0.00000017,-0.00000022,0.00000128,-0.00000086,0.00
 000006,0.00000125,-0.00000141,0.00000094,0.00000010,-0.00000017,0.0000
 0027,0.00000038,-0.00000011,0.00000012,-0.00000011,0.00000019,-0.00000
 025\\\@


 IF YOU WISH TO UNDERSTAND THE FRAGRANCE OF THE ROSE, 
 OR THE TENACITY OF THE OAK; 
 IF YOU ARE NOT SATISFIED UNTIL YOU KNOW THE SECRET PATHS 
 BY WHICH THE SUNSHINE AND THE AIR ACHIEVE THESE WONDERS; 
 IF YOU WISH TO SEE THE PATTERN WHICH UNDERLIES ONE LARGE FIELD OF 
 HUMAN EXPERIENCE AND HUMAN MEASUREMENT, THEN TAKE UP CHEMISTRY.

                                         -- C. A. COULSON, 1973.
 Job cpu time:       0 days  1 hours 21 minutes 24.0 seconds.
 File lengths (MBytes):  RWF=    349 Int=      0 D2E=      0 Chk=     10 Scr=      1
 Normal termination of Gaussian 09 at Wed Jul 28 22:52:01 2021.
