 Entering Gaussian System, Link 0=g09
 Input=opt_freq-conf-55.com
 Output=opt_freq-conf-55.log
 Initial command:
 /aerosol/software/g09/l1.exe "/scratch/nicole/10678/Gau-86027.inp" -scrdir="/scratch/nicole/10678/"
 Entering Link 1 = /aerosol/software/g09/l1.exe PID=     86030.
  
 Copyright (c) 1988,1990,1992,1993,1995,1998,2003,2009,2013,
            Gaussian, Inc.  All Rights Reserved.
  
 This is part of the Gaussian(R) 09 program.  It is based on
 the Gaussian(R) 03 system (copyright 2003, Gaussian, Inc.),
 the Gaussian(R) 98 system (copyright 1998, Gaussian, Inc.),
 the Gaussian(R) 94 system (copyright 1995, Gaussian, Inc.),
 the Gaussian 92(TM) system (copyright 1992, Gaussian, Inc.),
 the Gaussian 90(TM) system (copyright 1990, Gaussian, Inc.),
 the Gaussian 88(TM) system (copyright 1988, Gaussian, Inc.),
 the Gaussian 86(TM) system (copyright 1986, Carnegie Mellon
 University), and the Gaussian 82(TM) system (copyright 1983,
 Carnegie Mellon University). Gaussian is a federally registered
 trademark of Gaussian, Inc.
  
 This software contains proprietary and confidential information,
 including trade secrets, belonging to Gaussian, Inc.
  
 This software is provided under written license and may be
 used, copied, transmitted, or stored only in accord with that
 written license.
  
 The following legend is applicable only to US Government
 contracts under FAR:
  
                    RESTRICTED RIGHTS LEGEND
  
 Use, reproduction and disclosure by the US Government is
 subject to restrictions as set forth in subparagraphs (a)
 and (c) of the Commercial Computer Software - Restricted
 Rights clause in FAR 52.227-19.
  
 Gaussian, Inc.
 340 Quinnipiac St., Bldg. 40, Wallingford CT 06492
  
  
 ---------------------------------------------------------------
 Warning -- This program may not be used in any manner that
 competes with the business of Gaussian, Inc. or will provide
 assistance to any competitor of Gaussian, Inc.  The licensee
 of this program is prohibited from giving any competitor of
 Gaussian, Inc. access to this program.  By using this program,
 the user acknowledges that Gaussian, Inc. is engaged in the
 business of creating and licensing software in the field of
 computational chemistry and represents and warrants to the
 licensee that it is not a competitor of Gaussian, Inc. and that
 it will not use this program in any manner prohibited above.
 ---------------------------------------------------------------
  

 Cite this work as:
 Gaussian 09, Revision D.01,
 M. J. Frisch, G. W. Trucks, H. B. Schlegel, G. E. Scuseria, 
 M. A. Robb, J. R. Cheeseman, G. Scalmani, V. Barone, B. Mennucci, 
 G. A. Petersson, H. Nakatsuji, M. Caricato, X. Li, H. P. Hratchian, 
 A. F. Izmaylov, J. Bloino, G. Zheng, J. L. Sonnenberg, M. Hada, 
 M. Ehara, K. Toyota, R. Fukuda, J. Hasegawa, M. Ishida, T. Nakajima, 
 Y. Honda, O. Kitao, H. Nakai, T. Vreven, J. A. Montgomery, Jr., 
 J. E. Peralta, F. Ogliaro, M. Bearpark, J. J. Heyd, E. Brothers, 
 K. N. Kudin, V. N. Staroverov, T. Keith, R. Kobayashi, J. Normand, 
 K. Raghavachari, A. Rendell, J. C. Burant, S. S. Iyengar, J. Tomasi, 
 M. Cossi, N. Rega, J. M. Millam, M. Klene, J. E. Knox, J. B. Cross, 
 V. Bakken, C. Adamo, J. Jaramillo, R. Gomperts, R. E. Stratmann, 
 O. Yazyev, A. J. Austin, R. Cammi, C. Pomelli, J. W. Ochterski, 
 R. L. Martin, K. Morokuma, V. G. Zakrzewski, G. A. Voth, 
 P. Salvador, J. J. Dannenberg, S. Dapprich, A. D. Daniels, 
 O. Farkas, J. B. Foresman, J. V. Ortiz, J. Cioslowski, 
 and D. J. Fox, Gaussian, Inc., Wallingford CT, 2013.
 
 ******************************************
 Gaussian 09:  ES64L-G09RevD.01 24-Apr-2013
                28-Jul-2021 
 ******************************************
 %mem=2gb
 %nproc=4
 Will use up to    4 processors via shared memory.
 %chk=conf-55.chk
 ----------------------------------------------------------------------
 # B3LYP/6-31G(d,p) opt=calcfc freq=noraman nosymm integral(ultrafinegr
 id)
 ----------------------------------------------------------------------
 1/10=4,14=-1,18=20,19=15,26=4,38=1/1,3;
 2/9=110,12=2,15=1,17=6,18=5,40=1/2;
 3/5=1,6=6,7=101,11=2,16=1,25=1,30=1,71=2,74=-5,75=-5,140=1/1,2,3;
 4//1;
 5/5=2,38=5/2;
 8/6=4,10=90,11=11/1;
 11/6=1,8=1,9=11,15=111,16=1,31=1/1,2,10;
 10/6=1,13=1,31=1/2;
 6/7=2,8=2,9=2,10=2,28=1/1;
 7/10=1,18=20,25=1,30=1/1,2,3,16;
 1/10=4,14=-1,18=20,19=15,26=4/3(2);
 2/9=110,15=1/2;
 99//99;
 2/9=110,15=1/2;
 3/5=1,6=6,7=101,11=2,16=1,25=1,30=1,71=1,74=-5,75=-5/1,2,3;
 4/5=5,16=3,69=1/1;
 5/5=2,38=5/2;
 7/30=1/1,2,3,16;
 1/14=-1,18=20,19=15,26=4/3(-5);
 2/9=110,15=1/2;
 6/7=2,8=2,9=2,10=2,19=2,28=1/1;
 99/9=1/99;
 -----------------------------------------------------------
 Candidate Structure: Conf:55 OPT and FREQ calc in gas phase
 -----------------------------------------------------------
 Symbolic Z-matrix:
 Charge =  1 Multiplicity = 1
 O                     1.34883   0.14089   1.2878 
 C                     1.51892  -0.08871   0.09629 
 N                     0.47732  -0.4305   -0.70713 
 C                    -0.86336  -0.59504  -0.18131 
 C                    -1.60769  -1.48139  -1.17111 
 O                    -2.6439   -2.18964  -0.69134 
 O                    -1.29808  -1.54938  -2.33026 
 C                    -1.55233   0.7813   -0.0093 
 C                    -2.88789   0.69359   0.65003 
 C                    -3.27821   0.84176   1.95373 
 N                    -4.63104   0.5952    2.09508 
 C                    -5.04876   0.29866   0.88632 
 N                    -4.04188   0.35416  -0.02385 
 C                     2.87163  -0.00607  -0.59405 
 C                     4.00044   0.29806   0.38032 
 N                     5.31649   0.39378  -0.30534 
 H                     0.60261  -0.68025  -1.67756 
 H                    -0.80703  -1.07      0.80339 
 H                    -2.78989  -2.02074   0.24855 
 H                    -1.62985   1.26662  -0.98345 
 H                    -0.89187   1.38447   0.61031 
 H                    -2.66318   1.10701   2.80062 
 H                    -6.05214   0.0325    0.60476 
 H                    -4.10614   0.0967   -0.99868 
 H                     3.07051  -0.95099  -1.11088 
 H                     2.8283    0.77305  -1.36318 
 H                     3.78247   1.23243   0.89541 
 H                     4.03633  -0.48146   1.14049 
 H                     5.55304  -0.47927  -0.7766 
 H                     5.31458   1.13434  -1.00664 
 H                     6.07163   0.59893   0.35034 
 

 GradGradGradGradGradGradGradGradGradGradGradGradGradGradGradGradGradGrad
 Berny optimization.
 Initialization pass.
                           ----------------------------
                           !    Initial Parameters    !
                           ! (Angstroms and Degrees)  !
 --------------------------                            --------------------------
 ! Name  Definition              Value          Derivative Info.                !
 --------------------------------------------------------------------------------
 ! R1    R(1,2)                  1.2253         calculate D2E/DX2 analytically  !
 ! R2    R(2,3)                  1.3591         calculate D2E/DX2 analytically  !
 ! R3    R(2,14)                 1.5209         calculate D2E/DX2 analytically  !
 ! R4    R(3,4)                  1.4495         calculate D2E/DX2 analytically  !
 ! R5    R(3,17)                 1.0099         calculate D2E/DX2 analytically  !
 ! R6    R(4,5)                  1.5229         calculate D2E/DX2 analytically  !
 ! R7    R(4,8)                  1.5487         calculate D2E/DX2 analytically  !
 ! R8    R(4,18)                 1.0947         calculate D2E/DX2 analytically  !
 ! R9    R(5,6)                  1.3437         calculate D2E/DX2 analytically  !
 ! R10   R(5,7)                  1.2017         calculate D2E/DX2 analytically  !
 ! R11   R(6,19)                 0.966          calculate D2E/DX2 analytically  !
 ! R12   R(8,9)                  1.492          calculate D2E/DX2 analytically  !
 ! R13   R(8,20)                 1.0911         calculate D2E/DX2 analytically  !
 ! R14   R(8,21)                 1.0881         calculate D2E/DX2 analytically  !
 ! R15   R(9,10)                 1.3689         calculate D2E/DX2 analytically  !
 ! R16   R(9,13)                 1.3788         calculate D2E/DX2 analytically  !
 ! R17   R(10,11)                1.3824         calculate D2E/DX2 analytically  !
 ! R18   R(10,22)                1.0797         calculate D2E/DX2 analytically  !
 ! R19   R(11,12)                1.3128         calculate D2E/DX2 analytically  !
 ! R20   R(12,13)                1.3584         calculate D2E/DX2 analytically  !
 ! R21   R(12,23)                1.0756         calculate D2E/DX2 analytically  !
 ! R22   R(13,24)                1.0103         calculate D2E/DX2 analytically  !
 ! R23   R(14,15)                1.5219         calculate D2E/DX2 analytically  !
 ! R24   R(14,25)                1.0952         calculate D2E/DX2 analytically  !
 ! R25   R(14,26)                1.0957         calculate D2E/DX2 analytically  !
 ! R26   R(15,16)                1.487          calculate D2E/DX2 analytically  !
 ! R27   R(15,27)                1.089          calculate D2E/DX2 analytically  !
 ! R28   R(15,28)                1.0894         calculate D2E/DX2 analytically  !
 ! R29   R(16,29)                1.0199         calculate D2E/DX2 analytically  !
 ! R30   R(16,30)                1.0199         calculate D2E/DX2 analytically  !
 ! R31   R(16,31)                1.0209         calculate D2E/DX2 analytically  !
 ! A1    A(1,2,3)              121.0352         calculate D2E/DX2 analytically  !
 ! A2    A(1,2,14)             123.6874         calculate D2E/DX2 analytically  !
 ! A3    A(3,2,14)             115.2752         calculate D2E/DX2 analytically  !
 ! A4    A(2,3,4)              121.5307         calculate D2E/DX2 analytically  !
 ! A5    A(2,3,17)             122.3545         calculate D2E/DX2 analytically  !
 ! A6    A(4,3,17)             115.8038         calculate D2E/DX2 analytically  !
 ! A7    A(3,4,5)              106.4005         calculate D2E/DX2 analytically  !
 ! A8    A(3,4,8)              110.5412         calculate D2E/DX2 analytically  !
 ! A9    A(3,4,18)             109.1456         calculate D2E/DX2 analytically  !
 ! A10   A(5,4,8)              111.8376         calculate D2E/DX2 analytically  !
 ! A11   A(5,4,18)             110.9312         calculate D2E/DX2 analytically  !
 ! A12   A(8,4,18)             107.9728         calculate D2E/DX2 analytically  !
 ! A13   A(4,5,6)              116.8469         calculate D2E/DX2 analytically  !
 ! A14   A(4,5,7)              122.2706         calculate D2E/DX2 analytically  !
 ! A15   A(6,5,7)              120.8817         calculate D2E/DX2 analytically  !
 ! A16   A(5,6,19)             111.8247         calculate D2E/DX2 analytically  !
 ! A17   A(4,8,9)              113.2688         calculate D2E/DX2 analytically  !
 ! A18   A(4,8,20)             109.1311         calculate D2E/DX2 analytically  !
 ! A19   A(4,8,21)             106.6099         calculate D2E/DX2 analytically  !
 ! A20   A(9,8,20)             110.9214         calculate D2E/DX2 analytically  !
 ! A21   A(9,8,21)             108.9222         calculate D2E/DX2 analytically  !
 ! A22   A(20,8,21)            107.7562         calculate D2E/DX2 analytically  !
 ! A23   A(8,9,10)             132.0454         calculate D2E/DX2 analytically  !
 ! A24   A(8,9,13)             123.2088         calculate D2E/DX2 analytically  !
 ! A25   A(10,9,13)            104.6826         calculate D2E/DX2 analytically  !
 ! A26   A(9,10,11)            110.9235         calculate D2E/DX2 analytically  !
 ! A27   A(9,10,22)            127.6733         calculate D2E/DX2 analytically  !
 ! A28   A(11,10,22)           121.4024         calculate D2E/DX2 analytically  !
 ! A29   A(10,11,12)           104.9231         calculate D2E/DX2 analytically  !
 ! A30   A(11,12,13)           111.8291         calculate D2E/DX2 analytically  !
 ! A31   A(11,12,23)           126.4229         calculate D2E/DX2 analytically  !
 ! A32   A(13,12,23)           121.7469         calculate D2E/DX2 analytically  !
 ! A33   A(9,13,12)            107.6353         calculate D2E/DX2 analytically  !
 ! A34   A(9,13,24)            125.984          calculate D2E/DX2 analytically  !
 ! A35   A(12,13,24)           126.0823         calculate D2E/DX2 analytically  !
 ! A36   A(2,14,15)            112.3301         calculate D2E/DX2 analytically  !
 ! A37   A(2,14,25)            109.1966         calculate D2E/DX2 analytically  !
 ! A38   A(2,14,26)            108.7897         calculate D2E/DX2 analytically  !
 ! A39   A(15,14,25)           109.8672         calculate D2E/DX2 analytically  !
 ! A40   A(15,14,26)           109.6739         calculate D2E/DX2 analytically  !
 ! A41   A(25,14,26)           106.8239         calculate D2E/DX2 analytically  !
 ! A42   A(14,15,16)           111.9679         calculate D2E/DX2 analytically  !
 ! A43   A(14,15,27)           109.0164         calculate D2E/DX2 analytically  !
 ! A44   A(14,15,28)           109.1593         calculate D2E/DX2 analytically  !
 ! A45   A(16,15,27)           109.8774         calculate D2E/DX2 analytically  !
 ! A46   A(16,15,28)           109.7945         calculate D2E/DX2 analytically  !
 ! A47   A(27,15,28)           106.8878         calculate D2E/DX2 analytically  !
 ! A48   A(15,16,29)           111.2977         calculate D2E/DX2 analytically  !
 ! A49   A(15,16,30)           111.2306         calculate D2E/DX2 analytically  !
 ! A50   A(15,16,31)           111.8033         calculate D2E/DX2 analytically  !
 ! A51   A(29,16,30)           107.7131         calculate D2E/DX2 analytically  !
 ! A52   A(29,16,31)           107.2907         calculate D2E/DX2 analytically  !
 ! A53   A(30,16,31)           107.2827         calculate D2E/DX2 analytically  !
 ! D1    D(1,2,3,4)             -2.742          calculate D2E/DX2 analytically  !
 ! D2    D(1,2,3,17)          -176.0669         calculate D2E/DX2 analytically  !
 ! D3    D(14,2,3,4)           177.7761         calculate D2E/DX2 analytically  !
 ! D4    D(14,2,3,17)            4.4512         calculate D2E/DX2 analytically  !
 ! D5    D(1,2,14,15)            3.9912         calculate D2E/DX2 analytically  !
 ! D6    D(1,2,14,25)          126.134          calculate D2E/DX2 analytically  !
 ! D7    D(1,2,14,26)         -117.6228         calculate D2E/DX2 analytically  !
 ! D8    D(3,2,14,15)         -176.5423         calculate D2E/DX2 analytically  !
 ! D9    D(3,2,14,25)          -54.3995         calculate D2E/DX2 analytically  !
 ! D10   D(3,2,14,26)           61.8437         calculate D2E/DX2 analytically  !
 ! D11   D(2,3,4,5)           -157.8717         calculate D2E/DX2 analytically  !
 ! D12   D(2,3,4,8)             80.5026         calculate D2E/DX2 analytically  !
 ! D13   D(2,3,4,18)           -38.1106         calculate D2E/DX2 analytically  !
 ! D14   D(17,3,4,5)            15.8667         calculate D2E/DX2 analytically  !
 ! D15   D(17,3,4,8)          -105.759          calculate D2E/DX2 analytically  !
 ! D16   D(17,3,4,18)          135.6278         calculate D2E/DX2 analytically  !
 ! D17   D(3,4,5,6)            154.9059         calculate D2E/DX2 analytically  !
 ! D18   D(3,4,5,7)            -25.4287         calculate D2E/DX2 analytically  !
 ! D19   D(8,4,5,6)            -84.298          calculate D2E/DX2 analytically  !
 ! D20   D(8,4,5,7)             95.3674         calculate D2E/DX2 analytically  !
 ! D21   D(18,4,5,6)            36.3112         calculate D2E/DX2 analytically  !
 ! D22   D(18,4,5,7)          -144.0234         calculate D2E/DX2 analytically  !
 ! D23   D(3,4,8,9)           -174.5142         calculate D2E/DX2 analytically  !
 ! D24   D(3,4,8,20)            61.3888         calculate D2E/DX2 analytically  !
 ! D25   D(3,4,8,21)           -54.736          calculate D2E/DX2 analytically  !
 ! D26   D(5,4,8,9)             67.1273         calculate D2E/DX2 analytically  !
 ! D27   D(5,4,8,20)           -56.9697         calculate D2E/DX2 analytically  !
 ! D28   D(5,4,8,21)          -173.0945         calculate D2E/DX2 analytically  !
 ! D29   D(18,4,8,9)           -55.1897         calculate D2E/DX2 analytically  !
 ! D30   D(18,4,8,20)         -179.2866         calculate D2E/DX2 analytically  !
 ! D31   D(18,4,8,21)           64.5886         calculate D2E/DX2 analytically  !
 ! D32   D(4,5,6,19)             1.0577         calculate D2E/DX2 analytically  !
 ! D33   D(7,5,6,19)          -178.6126         calculate D2E/DX2 analytically  !
 ! D34   D(4,8,9,10)            95.4027         calculate D2E/DX2 analytically  !
 ! D35   D(4,8,9,13)           -81.2379         calculate D2E/DX2 analytically  !
 ! D36   D(20,8,9,10)         -141.4823         calculate D2E/DX2 analytically  !
 ! D37   D(20,8,9,13)           41.8771         calculate D2E/DX2 analytically  !
 ! D38   D(21,8,9,10)          -23.045          calculate D2E/DX2 analytically  !
 ! D39   D(21,8,9,13)          160.3144         calculate D2E/DX2 analytically  !
 ! D40   D(8,9,10,11)         -176.7273         calculate D2E/DX2 analytically  !
 ! D41   D(8,9,10,22)            2.9451         calculate D2E/DX2 analytically  !
 ! D42   D(13,9,10,11)           0.3675         calculate D2E/DX2 analytically  !
 ! D43   D(13,9,10,22)        -179.9601         calculate D2E/DX2 analytically  !
 ! D44   D(8,9,13,12)          176.7117         calculate D2E/DX2 analytically  !
 ! D45   D(8,9,13,24)            2.6962         calculate D2E/DX2 analytically  !
 ! D46   D(10,9,13,12)          -0.7099         calculate D2E/DX2 analytically  !
 ! D47   D(10,9,13,24)        -174.7255         calculate D2E/DX2 analytically  !
 ! D48   D(9,10,11,12)           0.1277         calculate D2E/DX2 analytically  !
 ! D49   D(22,10,11,12)       -179.5685         calculate D2E/DX2 analytically  !
 ! D50   D(10,11,12,13)         -0.5995         calculate D2E/DX2 analytically  !
 ! D51   D(10,11,12,23)        179.0217         calculate D2E/DX2 analytically  !
 ! D52   D(11,12,13,9)           0.8509         calculate D2E/DX2 analytically  !
 ! D53   D(11,12,13,24)        174.859          calculate D2E/DX2 analytically  !
 ! D54   D(23,12,13,9)        -178.7906         calculate D2E/DX2 analytically  !
 ! D55   D(23,12,13,24)         -4.7826         calculate D2E/DX2 analytically  !
 ! D56   D(2,14,15,16)        -179.2902         calculate D2E/DX2 analytically  !
 ! D57   D(2,14,15,27)         -57.4998         calculate D2E/DX2 analytically  !
 ! D58   D(2,14,15,28)          58.9255         calculate D2E/DX2 analytically  !
 ! D59   D(25,14,15,16)         58.9484         calculate D2E/DX2 analytically  !
 ! D60   D(25,14,15,27)       -179.2611         calculate D2E/DX2 analytically  !
 ! D61   D(25,14,15,28)        -62.8358         calculate D2E/DX2 analytically  !
 ! D62   D(26,14,15,16)        -58.1823         calculate D2E/DX2 analytically  !
 ! D63   D(26,14,15,27)         63.6081         calculate D2E/DX2 analytically  !
 ! D64   D(26,14,15,28)       -179.9666         calculate D2E/DX2 analytically  !
 ! D65   D(14,15,16,29)        -60.0994         calculate D2E/DX2 analytically  !
 ! D66   D(14,15,16,30)         60.0182         calculate D2E/DX2 analytically  !
 ! D67   D(14,15,16,31)        179.9313         calculate D2E/DX2 analytically  !
 ! D68   D(27,15,16,29)        178.6053         calculate D2E/DX2 analytically  !
 ! D69   D(27,15,16,30)        -61.277          calculate D2E/DX2 analytically  !
 ! D70   D(27,15,16,31)         58.6361         calculate D2E/DX2 analytically  !
 ! D71   D(28,15,16,29)         61.3197         calculate D2E/DX2 analytically  !
 ! D72   D(28,15,16,30)       -178.5626         calculate D2E/DX2 analytically  !
 ! D73   D(28,15,16,31)        -58.6495         calculate D2E/DX2 analytically  !
 --------------------------------------------------------------------------------
 Trust Radius=3.00D-01 FncErr=1.00D-07 GrdErr=1.00D-06
 Number of steps in this run=    167 maximum allowed number of steps=    186.
 GradGradGradGradGradGradGradGradGradGradGradGradGradGradGradGradGradGrad

                          Input orientation:                          
 ---------------------------------------------------------------------
 Center     Atomic      Atomic             Coordinates (Angstroms)
 Number     Number       Type             X           Y           Z
 ---------------------------------------------------------------------
      1          8           0        1.348829    0.140889    1.287804
      2          6           0        1.518922   -0.088714    0.096288
      3          7           0        0.477320   -0.430501   -0.707130
      4          6           0       -0.863362   -0.595037   -0.181306
      5          6           0       -1.607689   -1.481393   -1.171108
      6          8           0       -2.643900   -2.189644   -0.691336
      7          8           0       -1.298081   -1.549384   -2.330261
      8          6           0       -1.552330    0.781299   -0.009301
      9          6           0       -2.887886    0.693590    0.650027
     10          6           0       -3.278210    0.841758    1.953726
     11          7           0       -4.631041    0.595201    2.095081
     12          6           0       -5.048763    0.298663    0.886319
     13          7           0       -4.041884    0.354163   -0.023854
     14          6           0        2.871626   -0.006067   -0.594050
     15          6           0        4.000439    0.298056    0.380324
     16          7           0        5.316490    0.393775   -0.305338
     17          1           0        0.602613   -0.680247   -1.677561
     18          1           0       -0.807035   -1.070001    0.803392
     19          1           0       -2.789892   -2.020736    0.248550
     20          1           0       -1.629851    1.266616   -0.983454
     21          1           0       -0.891871    1.384473    0.610309
     22          1           0       -2.663185    1.107015    2.800623
     23          1           0       -6.052143    0.032499    0.604758
     24          1           0       -4.106140    0.096700   -0.998681
     25          1           0        3.070510   -0.950991   -1.110878
     26          1           0        2.828300    0.773055   -1.363180
     27          1           0        3.782473    1.232426    0.895414
     28          1           0        4.036326   -0.481461    1.140488
     29          1           0        5.553043   -0.479268   -0.776603
     30          1           0        5.314578    1.134339   -1.006637
     31          1           0        6.071631    0.598931    0.350344
 ---------------------------------------------------------------------
                    Distance matrix (angstroms):
                    1          2          3          4          5
     1  O    0.000000
     2  C    1.225300   0.000000
     3  N    2.250728   1.359130   0.000000
     4  C    2.755660   2.451265   1.449479   0.000000
     5  C    4.173614   3.649870   2.380528   1.522944   0.000000
     6  O    5.028943   4.728990   3.582854   2.444016   1.343701
     7  O    4.790986   3.994647   2.653017   2.391185   1.201713
     8  C    3.241810   3.193848   2.464732   1.548730   2.544138
     9  C    4.319953   4.509832   3.798692   2.539758   3.112232
    10  C    4.726961   5.227650   4.775227   3.529055   4.237010
    11  N    6.051193   6.502688   5.916062   4.560044   4.911302
    12  C    6.412118   6.626364   5.797270   4.410907   4.386638
    13  N    5.552092   5.579708   4.637431   3.320960   3.257417
    14  C    2.425259   1.520922   2.434262   3.803601   4.751194
    15  C    2.807001   2.527487   3.758420   4.976907   6.084775
    16  N    4.283035   3.849107   4.925286   6.259689   7.225654
    17  H    3.166149   2.082324   1.009856   2.096455   2.404947
    18  H    2.519654   2.621640   2.083315   1.094711   2.170010
    19  H    4.783481   4.724592   3.757239   2.434935   1.924558
    20  H    3.911318   3.594097   2.719693   2.167187   2.754498
    21  H    2.650705   2.871658   2.627633   2.132118   3.449497
    22  H    4.395256   5.121837   4.952883   3.876628   4.856808
    23  H    7.433216   7.589089   6.676025   5.285371   5.019835
    24  H    5.914952   5.733643   4.622883   3.414998   2.960130
    25  H    3.148026   2.146671   2.675548   4.057851   4.708556
    26  H    3.100997   2.141766   2.721407   4.110580   4.979702
    27  H    2.695931   2.740014   4.032061   5.107126   6.378807
    28  H    2.762547   2.753530   4.010339   5.076119   6.180474
    29  H    4.724593   4.145913   5.076433   6.445001   7.241269
    30  H    4.688130   4.137548   5.092887   6.468296   7.401817
    31  H    4.836682   4.611351   5.785698   7.057077   8.100279
                    6          7          8          9         10
     6  O    0.000000
     7  O    2.215228   0.000000
     8  C    3.237777   3.299028   0.000000
     9  C    3.189329   4.054692   1.492017   0.000000
    10  C    4.072849   5.290653   2.614534   1.368918   0.000000
    11  N    4.412280   5.940666   3.733834   2.266374   1.382361
    12  C    3.803161   5.275346   3.641444   2.209341   2.137561
    13  N    2.978396   4.058505   2.525973   1.378781   2.175263
    14  C    5.932832   4.773123   4.531364   5.933736   6.710473
    15  C    7.175259   6.231742   5.587358   6.904941   7.466588
    16  N    8.377999   7.185314   6.886110   8.265253   8.897917
    17  H    3.713592   2.189533   3.092408   4.414598   5.528429
    18  H    2.619521   3.207914   2.154819   2.731980   3.329383
    19  H    0.966038   3.016279   3.073996   2.745606   3.367484
    20  H    3.613773   3.139079   1.091108   2.139923   3.394793
    21  H    4.187863   4.173664   1.088090   2.112575   2.791760
    22  H    4.802303   5.936829   3.039040   2.201472   1.079747
    23  H    4.270117   5.806703   4.602835   3.232896   3.188937
    24  H    2.731296   3.516802   2.823030   2.135101   3.155517
    25  H    5.862146   4.574883   5.058157   6.427123   7.274063
    26  H    6.258908   4.832803   4.585081   6.060866   6.949535
    27  H    7.451618   6.629893   5.429747   6.696585   7.150237
    28  H    7.134346   6.453097   5.843771   7.040314   7.477613
    29  H    8.373919   7.106117   7.257004   8.640610   9.337603
    30  H    8.630506   7.258209   6.947931   8.379690   9.093148
    31  H    9.209871   8.131024   7.634617   8.965027   9.489432
                   11         12         13         14         15
    11  N    0.000000
    12  C    1.312834   0.000000
    13  N    2.212485   1.358418   0.000000
    14  C    7.992681   8.063306   6.946331   0.000000
    15  C    8.805176   9.063337   8.052668   1.521879   0.000000
    16  N   10.235036  10.433962   9.362691   2.494111   1.487039
    17  H    6.576529   6.282499   5.037470   2.603254   4.091111
    18  H    4.366277   4.457844   3.629990   4.076437   5.016210
    19  H    3.693593   3.299827   2.698487   6.068085   7.176542
    20  H    4.351473   4.015214   2.751601   4.694108   5.873514
    21  H    4.099865   4.305219   3.374357   4.189032   5.016760
    22  H    2.152255   3.163696   3.231915   6.587632   7.135555
    23  H    2.134767   1.075590   2.130672   9.004015  10.058593
    24  H    3.177324   2.117204   1.010298   6.990244   8.225498
    25  H    8.484266   8.454172   7.312400   1.095239   2.156054
    26  H    8.223926   8.205693   7.012039   1.095659   2.153913
    27  H    8.522468   8.880468   7.926977   2.140564   1.088979
    28  H    8.785995   9.122063   8.204355   2.142697   1.089396
    29  H   10.635629  10.759589   9.660428   2.728963   2.086454
    30  H   10.432001  10.567898   9.440229   2.727411   2.085663
    31  H   10.843952  11.137350  10.123395   3.390861   2.093146
                   16         17         18         19         20
    16  N    0.000000
    17  H    5.025650   0.000000
    18  H    6.392924   2.879956   0.000000
    19  H    8.476443   4.125034   2.267922   0.000000
    20  H    7.033729   3.042360   3.054443   3.697325   0.000000
    21  H    6.353238   3.425040   2.463518   3.915201   1.760280
    22  H    8.592492   5.823562   3.489072   4.038807   3.925875
    23  H   11.410724   7.071264   5.363406   3.871039   4.858203
    24  H    9.452774   4.820465   3.936084   2.787764   2.738785
    25  H    2.738927   2.546556   4.325962   6.110377   5.198789
    26  H    2.730197   2.676677   4.615901   6.478196   4.501433
    27  H    2.120932   4.515532   5.135486   7.361894   5.729273
    28  H    2.120205   4.446494   4.890619   7.054231   6.298609
    29  H    1.019928   5.035759   6.579965   8.545854   7.394921
    30  H    1.019930   5.093670   6.753477   8.787060   6.945727
    31  H    1.020904   5.971503   7.092716   9.241191   7.844593
                   21         22         23         24         25
    21  H    0.000000
    22  H    2.830550   0.000000
    23  H    5.334443   4.178690   0.000000
    24  H    3.818211   4.187788   2.522314   0.000000
    25  H    4.910940   7.239509   9.334531   7.253589   0.000000
    26  H    4.255368   6.899651   9.125978   6.976874   1.759164
    27  H    4.685498   6.722504   9.911810   8.191928   3.049494
    28  H    5.296218   7.082567  10.115749   8.438606   2.494376
    29  H    6.850836   9.100507  11.698308   9.678888   2.548967
    30  H    6.418495   8.839721  11.533126   9.477694   3.065177
    31  H    7.012489   9.086199  12.139665  10.279063   3.680239
                   26         27         28         29         30
    26  H    0.000000
    27  H    2.494537   0.000000
    28  H    3.049835   1.749832   0.000000
    29  H    3.055587   2.976652   2.444518   0.000000
    30  H    2.537564   2.444333   2.975715   1.647273   0.000000
    31  H    3.672286   2.436937   2.435988   1.643611   1.643529
                   31
    31  H    0.000000
 Symmetry turned off by external request.
 Stoichiometry    C9H15N4O3(1+)
 Framework group  C1[X(C9H15N4O3)]
 Deg. of freedom    87
 Full point group                 C1      NOp   1
 Rotational constants (GHZ):      1.0838826      0.2275936      0.1975641
 Standard basis: 6-31G(d,p) (6D, 7F)
   315 basis functions,   553 primitive gaussians,   315 cartesian basis functions
    60 alpha electrons       60 beta electrons
       nuclear repulsion energy      1117.3441594988 Hartrees.
 NAtoms=   31 NActive=   31 NUniq=   31 SFac= 1.00D+00 NAtFMM=   60 NAOKFM=F Big=F
 Integral buffers will be    131072 words long.
 Raffenetti 2 integral format.
 Two-electron integral symmetry is turned off.
 One-electron integrals computed using PRISM.
 NBasis=   315 RedAO= T EigKep=  1.16D-03  NBF=   315
 NBsUse=   315 1.00D-06 EigRej= -1.00D+00 NBFU=   315
 ExpMin= 1.61D-01 ExpMax= 5.48D+03 ExpMxC= 8.25D+02 IAcc=3 IRadAn=         5 AccDes= 0.00D+00
 Harris functional with IExCor=  402 and IRadAn=       5 diagonalized for initial guess.
 HarFok:  IExCor=  402 AccDes= 0.00D+00 IRadAn=         5 IDoV= 1 UseB2=F ITyADJ=14
 ICtDFT=  3500011 ScaDFX=  1.000000  1.000000  1.000000  1.000000
 FoFCou: FMM=F IPFlag=           0 FMFlag=      100000 FMFlg1=           0
         NFxFlg=           0 DoJE=T BraDBF=F KetDBF=T FulRan=T
         wScrn=  0.000000 ICntrl=     500 IOpCl=  0 I1Cent=   200000004 NGrid=           0
         NMat0=    1 NMatS0=      1 NMatT0=    0 NMatD0=    1 NMtDS0=    0 NMtDT0=    0
 Symmetry not used in FoFCou.
 Requested convergence on RMS density matrix=1.00D-08 within 128 cycles.
 Requested convergence on MAX density matrix=1.00D-06.
 Requested convergence on             energy=1.00D-06.
 No special actions if energy rises.
 Integral accuracy reduced to 1.0D-05 until final iterations.
 Initial convergence to 1.0D-05 achieved.  Increase integral accuracy.
 SCF Done:  E(RB3LYP) =  -796.467119766     A.U. after   14 cycles
            NFock= 14  Conv=0.76D-08     -V/T= 2.0089
 DoSCS=F DFT=T ScalE2(SS,OS)=  1.000000  1.000000
 Range of M.O.s used for correlation:     1   315
 NBasis=   315 NAE=    60 NBE=    60 NFC=     0 NFV=     0
 NROrb=    315 NOA=    60 NOB=    60 NVA=   255 NVB=   255
 Symmetrizing basis deriv contribution to polar:
 IMax=3 JMax=2 DiffMx= 0.00D+00
 G2DrvN: will do    32 centers at a time, making    1 passes.
 Calling FoFCou, ICntrl=  3107 FMM=F I1Cent=   0 AccDes= 0.00D+00.
 End of G2Drv F.D. properties file   721 does not exist.
 End of G2Drv F.D. properties file   722 does not exist.
 End of G2Drv F.D. properties file   788 does not exist.
          IDoAtm=1111111111111111111111111111111
          Differentiating once with respect to nuclear coordinates.
          There are    96 degrees of freedom in the 1st order CPHF.  IDoFFX=6 NUNeed=     0.
     90 vectors produced by pass  0 Test12= 1.59D-14 1.04D-09 XBig12= 1.63D-01 1.14D-01.
 AX will form    90 AO Fock derivatives at one time.
     90 vectors produced by pass  1 Test12= 1.59D-14 1.04D-09 XBig12= 1.99D-02 5.20D-02.
     90 vectors produced by pass  2 Test12= 1.59D-14 1.04D-09 XBig12= 2.19D-04 1.88D-03.
     90 vectors produced by pass  3 Test12= 1.59D-14 1.04D-09 XBig12= 7.45D-07 1.42D-04.
     90 vectors produced by pass  4 Test12= 1.59D-14 1.04D-09 XBig12= 1.04D-09 4.45D-06.
     73 vectors produced by pass  5 Test12= 1.59D-14 1.04D-09 XBig12= 1.12D-12 1.01D-07.
     16 vectors produced by pass  6 Test12= 1.59D-14 1.04D-09 XBig12= 1.37D-15 5.05D-09.
 InvSVY:  IOpt=1 It=  1 EMax= 5.00D-16
 Solved reduced A of dimension   539 with    96 vectors.
 End of Minotr F.D. properties file   721 does not exist.
 End of Minotr F.D. properties file   722 does not exist.
 End of Minotr F.D. properties file   788 does not exist.

 **********************************************************************

            Population analysis using the SCF density.

 **********************************************************************

 Alpha  occ. eigenvalues --  -19.30169 -19.25211 -19.24708 -14.67717 -14.48709
 Alpha  occ. eigenvalues --  -14.46998 -14.38497 -10.43657 -10.43219 -10.42924
 Alpha  occ. eigenvalues --  -10.37811 -10.35546 -10.31317 -10.30526 -10.30098
 Alpha  occ. eigenvalues --  -10.27456  -1.22380  -1.21303  -1.17394  -1.13334
 Alpha  occ. eigenvalues --   -1.09455  -1.05384  -0.97415  -0.94762  -0.90651
 Alpha  occ. eigenvalues --   -0.86025  -0.82647  -0.80466  -0.79625  -0.76789
 Alpha  occ. eigenvalues --   -0.73155  -0.70910  -0.70347  -0.69165  -0.67827
 Alpha  occ. eigenvalues --   -0.66520  -0.65043  -0.62510  -0.60485  -0.59983
 Alpha  occ. eigenvalues --   -0.57645  -0.57151  -0.56438  -0.54974  -0.53679
 Alpha  occ. eigenvalues --   -0.53073  -0.52293  -0.50744  -0.50113  -0.49309
 Alpha  occ. eigenvalues --   -0.48125  -0.47943  -0.47434  -0.42513  -0.39762
 Alpha  occ. eigenvalues --   -0.38795  -0.38014  -0.35590  -0.33785  -0.30638
 Alpha virt. eigenvalues --   -0.17340  -0.12270  -0.10811  -0.10406  -0.09813
 Alpha virt. eigenvalues --   -0.07129  -0.05699  -0.03321  -0.02524  -0.02309
 Alpha virt. eigenvalues --   -0.02046  -0.01288  -0.00135   0.01197   0.02378
 Alpha virt. eigenvalues --    0.02980   0.03552   0.04905   0.05943   0.07287
 Alpha virt. eigenvalues --    0.08139   0.09981   0.10604   0.12984   0.14396
 Alpha virt. eigenvalues --    0.15393   0.15636   0.19918   0.20830   0.22066
 Alpha virt. eigenvalues --    0.24074   0.27121   0.27418   0.30673   0.33206
 Alpha virt. eigenvalues --    0.33412   0.34543   0.36110   0.38644   0.39581
 Alpha virt. eigenvalues --    0.40374   0.41164   0.42778   0.46287   0.46516
 Alpha virt. eigenvalues --    0.47350   0.48228   0.48804   0.49414   0.50421
 Alpha virt. eigenvalues --    0.51306   0.52252   0.52662   0.54546   0.55535
 Alpha virt. eigenvalues --    0.56198   0.56986   0.58071   0.58450   0.59197
 Alpha virt. eigenvalues --    0.59523   0.59825   0.61446   0.62504   0.63694
 Alpha virt. eigenvalues --    0.65402   0.66789   0.67479   0.69492   0.69642
 Alpha virt. eigenvalues --    0.70965   0.72106   0.72622   0.73270   0.73459
 Alpha virt. eigenvalues --    0.73905   0.74512   0.75553   0.75963   0.76336
 Alpha virt. eigenvalues --    0.78014   0.78769   0.79220   0.79959   0.80212
 Alpha virt. eigenvalues --    0.82448   0.83263   0.85492   0.87991   0.89971
 Alpha virt. eigenvalues --    0.91796   0.93562   0.95743   0.97560   0.97992
 Alpha virt. eigenvalues --    0.99701   1.03317   1.04621   1.06015   1.06309
 Alpha virt. eigenvalues --    1.10220   1.13624   1.16416   1.17955   1.18463
 Alpha virt. eigenvalues --    1.20959   1.21586   1.25587   1.26360   1.28538
 Alpha virt. eigenvalues --    1.29658   1.30090   1.31872   1.34029   1.35721
 Alpha virt. eigenvalues --    1.36006   1.38172   1.39399   1.40938   1.42472
 Alpha virt. eigenvalues --    1.43609   1.46599   1.50019   1.50820   1.52883
 Alpha virt. eigenvalues --    1.55807   1.56500   1.58139   1.60701   1.63318
 Alpha virt. eigenvalues --    1.65151   1.66169   1.67451   1.68093   1.68851
 Alpha virt. eigenvalues --    1.70706   1.71663   1.72639   1.73908   1.74818
 Alpha virt. eigenvalues --    1.75925   1.77918   1.78084   1.78266   1.80675
 Alpha virt. eigenvalues --    1.81416   1.83206   1.84903   1.86414   1.88840
 Alpha virt. eigenvalues --    1.89412   1.91225   1.92718   1.93537   1.94503
 Alpha virt. eigenvalues --    1.96066   1.96921   1.98399   1.99004   2.02432
 Alpha virt. eigenvalues --    2.02871   2.03462   2.05091   2.06155   2.08504
 Alpha virt. eigenvalues --    2.09040   2.10350   2.12452   2.13850   2.15772
 Alpha virt. eigenvalues --    2.17955   2.19171   2.19794   2.21761   2.23054
 Alpha virt. eigenvalues --    2.24043   2.26770   2.27828   2.29799   2.31349
 Alpha virt. eigenvalues --    2.32966   2.36218   2.37053   2.38047   2.38152
 Alpha virt. eigenvalues --    2.38765   2.41198   2.43909   2.46179   2.47110
 Alpha virt. eigenvalues --    2.48439   2.49857   2.50385   2.51054   2.51800
 Alpha virt. eigenvalues --    2.52931   2.54333   2.55334   2.58090   2.59270
 Alpha virt. eigenvalues --    2.59790   2.60511   2.64171   2.64546   2.66173
 Alpha virt. eigenvalues --    2.66369   2.68526   2.70751   2.71804   2.72350
 Alpha virt. eigenvalues --    2.74688   2.75053   2.78765   2.79768   2.82287
 Alpha virt. eigenvalues --    2.83706   2.85601   2.88144   2.91339   2.94199
 Alpha virt. eigenvalues --    2.95229   2.96095   2.97577   3.07807   3.09252
 Alpha virt. eigenvalues --    3.10640   3.13130   3.15563   3.18485   3.21495
 Alpha virt. eigenvalues --    3.22488   3.25661   3.28379   3.36388   3.36919
 Alpha virt. eigenvalues --    3.40181   3.45856   3.48604   3.61004   3.85748
 Alpha virt. eigenvalues --    3.92694   3.94479   3.98638   4.02648   4.08153
 Alpha virt. eigenvalues --    4.13877   4.16138   4.20413   4.25858   4.34328
 Alpha virt. eigenvalues --    4.36167   4.40981   4.51138   4.64708   4.68747
          Condensed to atoms (all electrons):
               1          2          3          4          5          6
     1  O    8.092497   0.564131  -0.098005   0.004774   0.000406   0.000000
     2  C    0.564131   4.318879   0.311202  -0.026655   0.005404  -0.000046
     3  N   -0.098005   0.311202   7.066679   0.191475  -0.022530   0.002123
     4  C    0.004774  -0.026655   0.191475   5.209466   0.276897  -0.089142
     5  C    0.000406   0.005404  -0.022530   0.276897   4.403181   0.263606
     6  O    0.000000  -0.000046   0.002123  -0.089142   0.263606   8.082217
     7  O   -0.000006   0.000891  -0.013275  -0.091091   0.574335  -0.075410
     8  C   -0.004867  -0.003869  -0.048006   0.325840  -0.029204  -0.001621
     9  C   -0.000232   0.000030   0.004605  -0.052413  -0.005749   0.003384
    10  C    0.000027  -0.000006   0.000018  -0.002419  -0.000703  -0.000179
    11  N    0.000000   0.000000   0.000000  -0.000003   0.000001  -0.000017
    12  C    0.000000   0.000000   0.000000   0.000133   0.000101   0.000494
    13  N   -0.000001   0.000000  -0.000029  -0.002700   0.004316  -0.005498
    14  C   -0.095492   0.279873  -0.128927   0.006982  -0.000144   0.000000
    15  C    0.009683  -0.021072   0.004510  -0.000139   0.000000   0.000000
    16  N    0.000345   0.002448  -0.000017   0.000000   0.000000   0.000000
    17  H    0.002776  -0.021290   0.325256  -0.041978  -0.005285   0.000870
    18  H    0.009914  -0.001962  -0.045041   0.375979  -0.035963   0.001057
    19  H    0.000000  -0.000028   0.000163   0.002531  -0.019306   0.281480
    20  H    0.000027   0.000392   0.001104  -0.049022  -0.006282   0.000118
    21  H    0.007823   0.004575  -0.010316  -0.030955   0.003837  -0.000106
    22  H    0.000005  -0.000002  -0.000002   0.000010   0.000023  -0.000004
    23  H    0.000000   0.000000   0.000000  -0.000002   0.000005   0.000014
    24  H    0.000000   0.000000  -0.000018   0.000240   0.001632   0.002829
    25  H    0.001208  -0.014444   0.000558  -0.000078  -0.000006   0.000000
    26  H    0.000672  -0.016128  -0.000028  -0.000016  -0.000006   0.000000
    27  H    0.006900   0.000618   0.000312  -0.000005   0.000000   0.000000
    28  H    0.004671   0.000118   0.000260  -0.000003   0.000000   0.000000
    29  H    0.000007  -0.000022   0.000000   0.000000   0.000000   0.000000
    30  H    0.000010  -0.000008   0.000001   0.000000   0.000000   0.000000
    31  H    0.000014   0.000021   0.000001   0.000000   0.000000   0.000000
               7          8          9         10         11         12
     1  O   -0.000006  -0.004867  -0.000232   0.000027   0.000000   0.000000
     2  C    0.000891  -0.003869   0.000030  -0.000006   0.000000   0.000000
     3  N   -0.013275  -0.048006   0.004605   0.000018   0.000000   0.000000
     4  C   -0.091091   0.325840  -0.052413  -0.002419  -0.000003   0.000133
     5  C    0.574335  -0.029204  -0.005749  -0.000703   0.000001   0.000101
     6  O   -0.075410  -0.001621   0.003384  -0.000179  -0.000017   0.000494
     7  O    8.008887  -0.000994  -0.000386  -0.000006   0.000000   0.000000
     8  C   -0.000994   5.077004   0.331216  -0.052641   0.006531   0.006475
     9  C   -0.000386   0.331216   4.860192   0.564127  -0.050595  -0.094270
    10  C   -0.000006  -0.052641   0.564127   4.857265   0.426418  -0.114986
    11  N    0.000000   0.006531  -0.050595   0.426418   6.666082   0.532396
    12  C    0.000000   0.006475  -0.094270  -0.114986   0.532396   4.680720
    13  N   -0.000058  -0.067225   0.330200  -0.080483  -0.082466   0.347399
    14  C   -0.000082  -0.000575  -0.000004   0.000000   0.000000   0.000000
    15  C    0.000000   0.000008   0.000000   0.000000   0.000000   0.000000
    16  N    0.000000   0.000000   0.000000   0.000000   0.000000   0.000000
    17  H    0.034379   0.002256  -0.000070   0.000001   0.000000   0.000000
    18  H    0.002139  -0.041443   0.003635   0.002821  -0.000084  -0.000079
    19  H    0.004326  -0.002420   0.007391   0.001189  -0.000132  -0.000267
    20  H    0.002309   0.363885  -0.020871   0.002757  -0.000186   0.000047
    21  H   -0.000057   0.379930  -0.024247  -0.003604   0.000044  -0.000092
    22  H    0.000000  -0.000926  -0.059229   0.395740  -0.039681   0.007032
    23  H    0.000000  -0.000160   0.003316   0.006974  -0.035752   0.394920
    24  H   -0.000055  -0.002616  -0.031715   0.008482   0.004819  -0.021646
    25  H   -0.000003   0.000002   0.000000   0.000000   0.000000   0.000000
    26  H   -0.000001   0.000056   0.000000   0.000000   0.000000   0.000000
    27  H    0.000000   0.000000   0.000000   0.000000   0.000000   0.000000
    28  H    0.000000   0.000001   0.000000   0.000000   0.000000   0.000000
    29  H    0.000000   0.000000   0.000000   0.000000   0.000000   0.000000
    30  H    0.000000   0.000000   0.000000   0.000000   0.000000   0.000000
    31  H    0.000000   0.000000   0.000000   0.000000   0.000000   0.000000
              13         14         15         16         17         18
     1  O   -0.000001  -0.095492   0.009683   0.000345   0.002776   0.009914
     2  C    0.000000   0.279873  -0.021072   0.002448  -0.021290  -0.001962
     3  N   -0.000029  -0.128927   0.004510  -0.000017   0.325256  -0.045041
     4  C   -0.002700   0.006982  -0.000139   0.000000  -0.041978   0.375979
     5  C    0.004316  -0.000144   0.000000   0.000000  -0.005285  -0.035963
     6  O   -0.005498   0.000000   0.000000   0.000000   0.000870   0.001057
     7  O   -0.000058  -0.000082   0.000000   0.000000   0.034379   0.002139
     8  C   -0.067225  -0.000575   0.000008   0.000000   0.002256  -0.041443
     9  C    0.330200  -0.000004   0.000000   0.000000  -0.000070   0.003635
    10  C   -0.080483   0.000000   0.000000   0.000000   0.000001   0.002821
    11  N   -0.082466   0.000000   0.000000   0.000000   0.000000  -0.000084
    12  C    0.347399   0.000000   0.000000   0.000000   0.000000  -0.000079
    13  N    6.792789   0.000000   0.000000   0.000000  -0.000001  -0.000387
    14  C    0.000000   5.303828   0.316633  -0.041564   0.000065   0.000701
    15  C    0.000000   0.316633   5.028641   0.153023  -0.000037   0.000004
    16  N    0.000000  -0.041564   0.153023   6.481286  -0.000008   0.000000
    17  H   -0.000001   0.000065  -0.000037  -0.000008   0.412190   0.004307
    18  H   -0.000387   0.000701   0.000004   0.000000   0.004307   0.570286
    19  H    0.001827   0.000000   0.000000   0.000000  -0.000091   0.002674
    20  H   -0.004527   0.000030   0.000000   0.000000   0.001086   0.006248
    21  H    0.003462   0.000160  -0.000003   0.000000  -0.000357  -0.006072
    22  H    0.004645   0.000000   0.000000   0.000000   0.000000   0.000109
    23  H   -0.055830   0.000000   0.000000   0.000000   0.000000  -0.000001
    24  H    0.338140   0.000000   0.000000   0.000000   0.000000   0.000041
    25  H    0.000000   0.366949  -0.038546  -0.002099   0.000917  -0.000023
    26  H    0.000000   0.370799  -0.038401  -0.002230   0.000501  -0.000011
    27  H    0.000000  -0.038122   0.394965  -0.030740  -0.000008  -0.000001
    28  H    0.000000  -0.036884   0.396460  -0.031208  -0.000009  -0.000004
    29  H    0.000000  -0.001316  -0.021150   0.332504   0.000000   0.000000
    30  H    0.000000  -0.001110  -0.021747   0.332491   0.000000   0.000000
    31  H    0.000000   0.003514  -0.023097   0.338535   0.000000   0.000000
              19         20         21         22         23         24
     1  O    0.000000   0.000027   0.007823   0.000005   0.000000   0.000000
     2  C   -0.000028   0.000392   0.004575  -0.000002   0.000000   0.000000
     3  N    0.000163   0.001104  -0.010316  -0.000002   0.000000  -0.000018
     4  C    0.002531  -0.049022  -0.030955   0.000010  -0.000002   0.000240
     5  C   -0.019306  -0.006282   0.003837   0.000023   0.000005   0.001632
     6  O    0.281480   0.000118  -0.000106  -0.000004   0.000014   0.002829
     7  O    0.004326   0.002309  -0.000057   0.000000   0.000000  -0.000055
     8  C   -0.002420   0.363885   0.379930  -0.000926  -0.000160  -0.002616
     9  C    0.007391  -0.020871  -0.024247  -0.059229   0.003316  -0.031715
    10  C    0.001189   0.002757  -0.003604   0.395740   0.006974   0.008482
    11  N   -0.000132  -0.000186   0.000044  -0.039681  -0.035752   0.004819
    12  C   -0.000267   0.000047  -0.000092   0.007032   0.394920  -0.021646
    13  N    0.001827  -0.004527   0.003462   0.004645  -0.055830   0.338140
    14  C    0.000000   0.000030   0.000160   0.000000   0.000000   0.000000
    15  C    0.000000   0.000000  -0.000003   0.000000   0.000000   0.000000
    16  N    0.000000   0.000000   0.000000   0.000000   0.000000   0.000000
    17  H   -0.000091   0.001086  -0.000357   0.000000   0.000000   0.000000
    18  H    0.002674   0.006248  -0.006072   0.000109  -0.000001   0.000041
    19  H    0.376453   0.000158   0.000010   0.000004   0.000013  -0.000536
    20  H    0.000158   0.601093  -0.028429  -0.000030  -0.000006   0.001667
    21  H    0.000010  -0.028429   0.547078   0.002306   0.000004  -0.000022
    22  H    0.000004  -0.000030   0.002306   0.585647  -0.000152  -0.000091
    23  H    0.000013  -0.000006   0.000004  -0.000152   0.551721   0.000151
    24  H   -0.000536   0.001667  -0.000022  -0.000091   0.000151   0.420680
    25  H    0.000000   0.000001   0.000000   0.000000   0.000000   0.000000
    26  H    0.000000  -0.000009  -0.000027   0.000000   0.000000   0.000000
    27  H    0.000000   0.000000   0.000000   0.000000   0.000000   0.000000
    28  H    0.000000   0.000000  -0.000001   0.000000   0.000000   0.000000
    29  H    0.000000   0.000000   0.000000   0.000000   0.000000   0.000000
    30  H    0.000000   0.000000   0.000000   0.000000   0.000000   0.000000
    31  H    0.000000   0.000000   0.000000   0.000000   0.000000   0.000000
              25         26         27         28         29         30
     1  O    0.001208   0.000672   0.006900   0.004671   0.000007   0.000010
     2  C   -0.014444  -0.016128   0.000618   0.000118  -0.000022  -0.000008
     3  N    0.000558  -0.000028   0.000312   0.000260   0.000000   0.000001
     4  C   -0.000078  -0.000016  -0.000005  -0.000003   0.000000   0.000000
     5  C   -0.000006  -0.000006   0.000000   0.000000   0.000000   0.000000
     6  O    0.000000   0.000000   0.000000   0.000000   0.000000   0.000000
     7  O   -0.000003  -0.000001   0.000000   0.000000   0.000000   0.000000
     8  C    0.000002   0.000056   0.000000   0.000001   0.000000   0.000000
     9  C    0.000000   0.000000   0.000000   0.000000   0.000000   0.000000
    10  C    0.000000   0.000000   0.000000   0.000000   0.000000   0.000000
    11  N    0.000000   0.000000   0.000000   0.000000   0.000000   0.000000
    12  C    0.000000   0.000000   0.000000   0.000000   0.000000   0.000000
    13  N    0.000000   0.000000   0.000000   0.000000   0.000000   0.000000
    14  C    0.366949   0.370799  -0.038122  -0.036884  -0.001316  -0.001110
    15  C   -0.038546  -0.038401   0.394965   0.396460  -0.021150  -0.021747
    16  N   -0.002099  -0.002230  -0.030740  -0.031208   0.332504   0.332491
    17  H    0.000917   0.000501  -0.000008  -0.000009   0.000000   0.000000
    18  H   -0.000023  -0.000011  -0.000001  -0.000004   0.000000   0.000000
    19  H    0.000000   0.000000   0.000000   0.000000   0.000000   0.000000
    20  H    0.000001  -0.000009   0.000000   0.000000   0.000000   0.000000
    21  H    0.000000  -0.000027   0.000000  -0.000001   0.000000   0.000000
    22  H    0.000000   0.000000   0.000000   0.000000   0.000000   0.000000
    23  H    0.000000   0.000000   0.000000   0.000000   0.000000   0.000000
    24  H    0.000000   0.000000   0.000000   0.000000   0.000000   0.000000
    25  H    0.556130  -0.030581   0.004600  -0.004858   0.004540  -0.000348
    26  H   -0.030581   0.551384  -0.004764   0.004526  -0.000372   0.004721
    27  H    0.004600  -0.004764   0.475263  -0.023009   0.003716  -0.003196
    28  H   -0.004858   0.004526  -0.023009   0.478346  -0.003260   0.003780
    29  H    0.004540  -0.000372   0.003716  -0.003260   0.346848  -0.016658
    30  H   -0.000348   0.004721  -0.003196   0.003780  -0.016658   0.347033
    31  H   -0.000013  -0.000005  -0.001849  -0.001915  -0.014912  -0.014773
              31
     1  O    0.000014
     2  C    0.000021
     3  N    0.000001
     4  C    0.000000
     5  C    0.000000
     6  O    0.000000
     7  O    0.000000
     8  C    0.000000
     9  C    0.000000
    10  C    0.000000
    11  N    0.000000
    12  C    0.000000
    13  N    0.000000
    14  C    0.003514
    15  C   -0.023097
    16  N    0.338535
    17  H    0.000000
    18  H    0.000000
    19  H    0.000000
    20  H    0.000000
    21  H    0.000000
    22  H    0.000000
    23  H    0.000000
    24  H    0.000000
    25  H   -0.000013
    26  H   -0.000005
    27  H   -0.001849
    28  H   -0.001915
    29  H   -0.014912
    30  H   -0.014773
    31  H    0.336243
 Mulliken charges:
               1
     1  O   -0.507286
     2  C    0.616950
     3  N   -0.542073
     4  C   -0.007707
     5  C    0.591433
     6  O   -0.466169
     7  O   -0.445843
     8  C   -0.236637
     9  C    0.231685
    10  C   -0.010791
    11  N   -0.427376
    12  C    0.261622
    13  N   -0.523574
    14  C   -0.305314
    15  C   -0.139736
    16  N   -0.532767
    17  H    0.284528
    18  H    0.151160
    19  H    0.344562
    20  H    0.128439
    21  H    0.155059
    22  H    0.104595
    23  H    0.134785
    24  H    0.278018
    25  H    0.156094
    26  H    0.159921
    27  H    0.215319
    28  H    0.212990
    29  H    0.370074
    30  H    0.369804
    31  H    0.378235
 Sum of Mulliken charges =   1.00000
 Mulliken charges with hydrogens summed into heavy atoms:
               1
     1  O   -0.507286
     2  C    0.616950
     3  N   -0.257545
     4  C    0.143453
     5  C    0.591433
     6  O   -0.121607
     7  O   -0.445843
     8  C    0.046861
     9  C    0.231685
    10  C    0.093804
    11  N   -0.427376
    12  C    0.396407
    13  N   -0.245556
    14  C    0.010701
    15  C    0.288574
    16  N    0.585347
 APT charges:
               1
     1  O   -0.384211
     2  C    0.192782
     3  N   -0.694562
     4  C   -0.309865
     5  C   -0.298030
     6  O   -0.114641
     7  O    0.097474
     8  C   -0.703837
     9  C   -0.548177
    10  C   -0.206187
    11  N    0.174039
    12  C   -0.493424
    13  N   -0.737208
    14  C   -0.634421
    15  C   -0.170050
    16  N   -1.994037
    17  H    0.558380
    18  H    0.318549
    19  H    0.429876
    20  H    0.379345
    21  H    0.259785
    22  H    0.326397
    23  H    1.120627
    24  H    0.482013
    25  H    0.422792
    26  H    0.356065
    27  H    0.258826
    28  H    0.342850
    29  H    0.706712
    30  H    0.599372
    31  H    1.262764
 Sum of APT charges =   1.00000
 APT charges with hydrogens summed into heavy atoms:
               1
     1  O   -0.384211
     2  C    0.192782
     3  N   -0.136182
     4  C    0.008684
     5  C   -0.298030
     6  O    0.315235
     7  O    0.097474
     8  C   -0.064707
     9  C   -0.548177
    10  C    0.120210
    11  N    0.174039
    12  C    0.627203
    13  N   -0.255195
    14  C    0.144437
    15  C    0.431626
    16  N    0.574811
 Electronic spatial extent (au):  <R**2>=           5434.0904
 Charge=              1.0000 electrons
 Dipole moment (field-independent basis, Debye):
    X=             21.8835    Y=              1.2772    Z=             -3.7761  Tot=             22.2436
 Quadrupole moment (field-independent basis, Debye-Ang):
   XX=             38.7627   YY=            -89.7370   ZZ=           -100.2747
   XY=             10.9802   XZ=             -0.5622   YZ=             -8.1025
 Traceless Quadrupole moment (field-independent basis, Debye-Ang):
   XX=             89.1790   YY=            -39.3206   ZZ=            -49.8584
   XY=             10.9802   XZ=             -0.5622   YZ=             -8.1025
 Octapole moment (field-independent basis, Debye-Ang**2):
  XXX=            844.5296  YYY=             33.1247  ZZZ=            -28.1140  XYY=             92.5942
  XXY=             36.6622  XXZ=           -113.1625  XZZ=            114.6677  YZZ=             20.6179
  YYZ=              3.0815  XYZ=             18.7970
 Hexadecapole moment (field-independent basis, Debye-Ang**3):
 XXXX=          -1417.2119 YYYY=           -546.5276 ZZZZ=           -858.5658 XXXY=            337.6968
 XXXZ=            445.7852 YYYX=            -28.1153 YYYZ=           -209.1318 ZZZX=            327.7053
 ZZZY=           -212.9955 XXYY=           -956.5818 XXZZ=          -1146.7990 YYZZ=           -234.9072
 XXYZ=           -143.6154 YYXZ=             60.3062 ZZXY=            -12.6587
 N-N= 1.117344159499D+03 E-N=-4.076763433460D+03  KE= 7.894672546146D+02
  Exact polarizability:   0.000   0.000   0.000   0.000   0.000   0.000
 Approx polarizability: 197.594  14.965 124.303 -12.054  16.136 214.909
 Calling FoFJK, ICntrl=    100147 FMM=F ISym2X=0 I1Cent= 0 IOpClX= 0 NMat=1 NMatS=1 NMatT=0.
 -------------------------------------------------------------------
 Center     Atomic                   Forces (Hartrees/Bohr)
 Number     Number              X              Y              Z
 -------------------------------------------------------------------
      1        8           0.014641531    0.003494069    0.005312199
      2        6          -0.024429135   -0.003597652    0.001664450
      3        7           0.015170652   -0.000363456   -0.000131666
      4        6           0.002816796    0.001634658    0.001513060
      5        6          -0.004349838   -0.006197290    0.011211195
      6        8          -0.000665942    0.000120684   -0.004536354
      7        8           0.004754762    0.000121864   -0.013473253
      8        6          -0.006766913    0.001000265    0.003219770
      9        6           0.007083154    0.001309250   -0.002486112
     10        6          -0.007562913   -0.001291719    0.006638750
     11        7           0.004649442    0.001013013    0.002626184
     12        6          -0.002946743    0.000997075    0.003269432
     13        7          -0.000890626   -0.003714940   -0.009548796
     14        6           0.011341680   -0.000050661   -0.011794090
     15        6          -0.028588702   -0.002156355    0.015088295
     16        7           0.005387095    0.000711273   -0.000661103
     17        1          -0.001501261   -0.000695581   -0.004535945
     18        1           0.001054471   -0.000246630    0.000094728
     19        1          -0.000481839    0.001314113    0.004087774
     20        1           0.001176962    0.000939361   -0.003704646
     21        1           0.001536550    0.001601702    0.001701885
     22        1           0.000532746    0.000996508    0.000990441
     23        1          -0.004547086   -0.000119184   -0.000054314
     24        1          -0.001641914    0.001912939   -0.000057150
     25        1          -0.001128127   -0.001851494   -0.001707027
     26        1          -0.001705366    0.000861620   -0.002125950
     27        1           0.005292683    0.002916110    0.000754410
     28        1           0.006183341   -0.000843624    0.001085155
     29        1           0.001669525   -0.004446319   -0.003499302
     30        1           0.000503565    0.003601371   -0.004666163
     31        1           0.003411452    0.001029031    0.003724141
 -------------------------------------------------------------------
 Cartesian Forces:  Max     0.028588702 RMS     0.006157004
 FormGI is forming the generalized inverse of G from B-inverse, IUseBI=4.

 GradGradGradGradGradGradGradGradGradGradGradGradGradGradGradGradGradGrad
 Berny optimization.
 Internal  Forces:  Max     0.018841846 RMS     0.003937795
 Search for a local minimum.
 Step number   1 out of a maximum of  167
 All quantities printed in internal units (Hartrees-Bohrs-Radians)
 Mixed Optimization -- RFO/linear search
 Second derivative matrix not updated -- analytic derivatives used.
 ITU=  0
     Eigenvalues ---   -0.00084  -0.00066   0.00168   0.00180   0.00207
     Eigenvalues ---    0.00328   0.00416   0.00491   0.00784   0.01029
     Eigenvalues ---    0.01458   0.01999   0.02096   0.02648   0.03300
     Eigenvalues ---    0.03856   0.03902   0.04159   0.04214   0.04318
     Eigenvalues ---    0.04377   0.04476   0.04975   0.05082   0.05186
     Eigenvalues ---    0.05222   0.05457   0.05952   0.06134   0.07417
     Eigenvalues ---    0.07824   0.08278   0.10474   0.10639   0.10771
     Eigenvalues ---    0.11128   0.11733   0.11963   0.13104   0.13259
     Eigenvalues ---    0.13743   0.15568   0.15893   0.16054   0.16584
     Eigenvalues ---    0.16827   0.18574   0.19330   0.20016   0.22401
     Eigenvalues ---    0.23049   0.23287   0.23406   0.24479   0.24850
     Eigenvalues ---    0.25189   0.29884   0.30747   0.31715   0.33341
     Eigenvalues ---    0.33431   0.33624   0.34265   0.34477   0.34844
     Eigenvalues ---    0.35154   0.35316   0.35463   0.35831   0.37101
     Eigenvalues ---    0.37829   0.38562   0.40255   0.42031   0.44152
     Eigenvalues ---    0.44343   0.44863   0.45526   0.45890   0.47028
     Eigenvalues ---    0.47502   0.47624   0.48893   0.52917   0.58961
     Eigenvalues ---    0.83783   0.94273
 RFO step:  Lambda=-1.09131363D-02 EMin=-8.43754148D-04
 Linear search not attempted -- first point.
 Iteration  1 RMS(Cart)=  0.17599477 RMS(Int)=  0.01622509
 Iteration  2 RMS(Cart)=  0.03190178 RMS(Int)=  0.00054437
 Iteration  3 RMS(Cart)=  0.00078470 RMS(Int)=  0.00035809
 Iteration  4 RMS(Cart)=  0.00000084 RMS(Int)=  0.00035809
 Variable       Old X    -DE/DX   Delta X   Delta X   Delta X     New X
                                 (Linear)    (Quad)   (Total)
    R1        2.31548   0.00379   0.00000   0.00635   0.00635   2.32183
    R2        2.56838  -0.00389   0.00000  -0.02700  -0.02700   2.54138
    R3        2.87413   0.00382   0.00000   0.03324   0.03324   2.90736
    R4        2.73912   0.00616   0.00000   0.01248   0.01248   2.75160
    R5        1.90835   0.00434   0.00000   0.01071   0.01071   1.91907
    R6        2.87795   0.00483   0.00000   0.01606   0.01606   2.89401
    R7        2.92668   0.00859   0.00000   0.02280   0.02280   2.94948
    R8        2.06870   0.00025   0.00000   0.00097   0.00097   2.06967
    R9        2.53923  -0.00003   0.00000  -0.01161  -0.01161   2.52762
   R10        2.27091   0.01421   0.00000   0.01742   0.01742   2.28833
   R11        1.82555   0.00428   0.00000   0.00992   0.00992   1.83547
   R12        2.81950   0.00531   0.00000   0.00728   0.00728   2.82678
   R13        2.06190   0.00364   0.00000   0.00885   0.00885   2.07075
   R14        2.05619   0.00279   0.00000   0.00946   0.00946   2.06565
   R15        2.58688   0.00850   0.00000   0.01831   0.01831   2.60519
   R16        2.60552   0.00948   0.00000   0.01796   0.01802   2.62354
   R17        2.61228  -0.00350   0.00000  -0.01504  -0.01510   2.59718
   R18        2.04043   0.00133   0.00000   0.00427   0.00427   2.04470
   R19        2.48090   0.00269   0.00000   0.00504   0.00500   2.48590
   R20        2.56704   0.00842   0.00000   0.01391   0.01394   2.58098
   R21        2.03257   0.00429   0.00000   0.01016   0.01016   2.04273
   R22        1.90919  -0.00033   0.00000  -0.00049  -0.00049   1.90870
   R23        2.87593   0.00318   0.00000   0.00293   0.00293   2.87886
   R24        2.06970   0.00220   0.00000   0.00052   0.00052   2.07022
   R25        2.07050   0.00217   0.00000   0.00642   0.00642   2.07692
   R26        2.81010   0.01212   0.00000   0.06119   0.06119   2.87129
   R27        2.05787   0.00180   0.00000   0.00227   0.00227   2.06014
   R28        2.05866   0.00156   0.00000   0.00171   0.00171   2.06037
   R29        1.92738   0.00581   0.00000   0.01097   0.01097   1.93836
   R30        1.92739   0.00582   0.00000   0.01131   0.01131   1.93870
   R31        1.92923   0.00512   0.00000   0.00963   0.00963   1.93886
    A1        2.11246   0.01884   0.00000   0.06228   0.06226   2.17472
    A2        2.15875  -0.01706   0.00000  -0.07574  -0.07575   2.08301
    A3        2.01193  -0.00178   0.00000   0.01337   0.01336   2.02529
    A4        2.12111   0.00286   0.00000   0.01771   0.01766   2.13877
    A5        2.13549   0.00042   0.00000   0.00891   0.00887   2.14436
    A6        2.02116  -0.00325   0.00000  -0.02487  -0.02493   1.99622
    A7        1.85704  -0.00319   0.00000  -0.00643  -0.00651   1.85053
    A8        1.92931   0.00304   0.00000   0.02366   0.02366   1.95297
    A9        1.90495  -0.00018   0.00000  -0.00219  -0.00222   1.90273
   A10        1.95194   0.00118   0.00000  -0.00081  -0.00084   1.95109
   A11        1.93611   0.00047   0.00000  -0.00731  -0.00736   1.92875
   A12        1.88448  -0.00129   0.00000  -0.00652  -0.00656   1.87792
   A13        2.03936   0.00057   0.00000  -0.00002  -0.00007   2.03930
   A14        2.13402  -0.00193   0.00000  -0.01163  -0.01167   2.12235
   A15        2.10978   0.00136   0.00000   0.01156   0.01151   2.12130
   A16        1.95171  -0.00089   0.00000  -0.00811  -0.00811   1.94360
   A17        1.97691   0.00808   0.00000   0.00988   0.00989   1.98680
   A18        1.90470  -0.00256   0.00000  -0.00562  -0.00566   1.89903
   A19        1.86069  -0.00308   0.00000  -0.01113  -0.01118   1.84952
   A20        1.93594  -0.00134   0.00000   0.00234   0.00235   1.93830
   A21        1.90105  -0.00246   0.00000   0.00663   0.00667   1.90772
   A22        1.88070   0.00103   0.00000  -0.00315  -0.00322   1.87748
   A23        2.30463  -0.00268   0.00000  -0.00207  -0.00216   2.30246
   A24        2.15040   0.00521   0.00000   0.00973   0.00963   2.16003
   A25        1.82706  -0.00249   0.00000  -0.00700  -0.00690   1.82015
   A26        1.93598   0.00234   0.00000   0.00598   0.00592   1.94190
   A27        2.22832  -0.00106   0.00000  -0.00492  -0.00500   2.22332
   A28        2.11887  -0.00128   0.00000  -0.00095  -0.00103   2.11785
   A29        1.83125   0.00219   0.00000   0.00533   0.00530   1.83655
   A30        1.95179   0.00012   0.00000  -0.00040  -0.00035   1.95144
   A31        2.20650  -0.00135   0.00000  -0.00826  -0.00831   2.19818
   A32        2.12488   0.00123   0.00000   0.00872   0.00867   2.13356
   A33        1.87859  -0.00215   0.00000  -0.00372  -0.00386   1.87473
   A34        2.19883   0.00235   0.00000   0.00822   0.00785   2.20668
   A35        2.20055  -0.00003   0.00000  -0.00017  -0.00056   2.19999
   A36        1.96053  -0.01674   0.00000  -0.10025  -0.10040   1.86013
   A37        1.90584   0.00440   0.00000   0.04205   0.04297   1.94881
   A38        1.89874   0.00404   0.00000  -0.00385  -0.00488   1.89386
   A39        1.91754   0.00581   0.00000   0.03676   0.03730   1.95484
   A40        1.91417   0.00589   0.00000   0.02028   0.01820   1.93237
   A41        1.86443  -0.00273   0.00000   0.01020   0.00930   1.87373
   A42        1.95421  -0.00257   0.00000  -0.00827  -0.00786   1.94635
   A43        1.90270   0.00403   0.00000   0.02357   0.02290   1.92560
   A44        1.90519   0.00424   0.00000   0.05238   0.05183   1.95702
   A45        1.91772  -0.00273   0.00000  -0.03177  -0.03184   1.88589
   A46        1.91628  -0.00292   0.00000  -0.05090  -0.05080   1.86547
   A47        1.86554   0.00017   0.00000   0.01717   0.01479   1.88034
   A48        1.94251   0.00090   0.00000   0.00662   0.00663   1.94914
   A49        1.94134   0.00094   0.00000   0.00161   0.00161   1.94295
   A50        1.95134  -0.00099   0.00000  -0.00908  -0.00907   1.94226
   A51        1.87995  -0.00113   0.00000  -0.00624  -0.00624   1.87371
   A52        1.87258   0.00011   0.00000   0.00371   0.00373   1.87630
   A53        1.87244   0.00010   0.00000   0.00339   0.00339   1.87582
    D1       -0.04786   0.00004   0.00000   0.01747   0.01732  -0.03054
    D2       -3.07295  -0.00015   0.00000   0.00043   0.00008  -3.07287
    D3        3.10278   0.00009   0.00000   0.02791   0.02827   3.13104
    D4        0.07769  -0.00010   0.00000   0.01087   0.01102   0.08871
    D5        0.06966  -0.00008   0.00000   0.23607   0.23679   0.30645
    D6        2.20145  -0.00080   0.00000   0.24532   0.24484   2.44630
    D7       -2.05291   0.00060   0.00000   0.27852   0.27774  -1.77516
    D8       -3.08124   0.00008   0.00000   0.22614   0.22722  -2.85402
    D9       -0.94945  -0.00064   0.00000   0.23539   0.23528  -0.71417
   D10        1.07938   0.00077   0.00000   0.26860   0.26818   1.34755
   D11       -2.75538   0.00088   0.00000  -0.00153  -0.00146  -2.75684
   D12        1.40504  -0.00033   0.00000  -0.01018  -0.01010   1.39494
   D13       -0.66516  -0.00047   0.00000  -0.01505  -0.01499  -0.68014
   D14        0.27693   0.00127   0.00000   0.01639   0.01631   0.29324
   D15       -1.84584   0.00006   0.00000   0.00773   0.00768  -1.83817
   D16        2.36715  -0.00008   0.00000   0.00287   0.00279   2.36994
   D17        2.70362  -0.00008   0.00000   0.07576   0.07576   2.77938
   D18       -0.44382  -0.00113   0.00000   0.05832   0.05839  -0.38543
   D19       -1.47128   0.00228   0.00000   0.10013   0.10007  -1.37120
   D20        1.66447   0.00124   0.00000   0.08269   0.08270   1.74718
   D21        0.63375   0.00178   0.00000   0.08620   0.08616   0.71991
   D22       -2.51368   0.00073   0.00000   0.06877   0.06879  -2.44490
   D23       -3.04585   0.00002   0.00000  -0.08719  -0.08716  -3.13301
   D24        1.07144  -0.00204   0.00000  -0.09302  -0.09296   0.97848
   D25       -0.95532  -0.00032   0.00000  -0.08057  -0.08058  -1.03591
   D26        1.17159   0.00126   0.00000  -0.09416  -0.09417   1.07742
   D27       -0.99431  -0.00080   0.00000  -0.09999  -0.09997  -1.09428
   D28       -3.02107   0.00092   0.00000  -0.08754  -0.08760  -3.10866
   D29       -0.96324   0.00079   0.00000  -0.08006  -0.08007  -1.04331
   D30       -3.12914  -0.00127   0.00000  -0.08589  -0.08587   3.06817
   D31        1.12728   0.00045   0.00000  -0.07344  -0.07349   1.05379
   D32        0.01846  -0.00023   0.00000   0.03634   0.03625   0.05471
   D33       -3.11738   0.00081   0.00000   0.05360   0.05369  -3.06369
   D34        1.66509  -0.00133   0.00000  -0.16414  -0.16410   1.50099
   D35       -1.41787  -0.00248   0.00000  -0.18143  -0.18145  -1.59932
   D36       -2.46933   0.00023   0.00000  -0.16245  -0.16241  -2.63174
   D37        0.73089  -0.00092   0.00000  -0.17975  -0.17976   0.55113
   D38       -0.40221  -0.00083   0.00000  -0.16080  -0.16079  -0.56300
   D39        2.79801  -0.00198   0.00000  -0.17810  -0.17814   2.61987
   D40       -3.08447  -0.00128   0.00000  -0.01981  -0.01979  -3.10427
   D41        0.05140  -0.00051   0.00000   0.00255   0.00258   0.05398
   D42        0.00641  -0.00008   0.00000  -0.00445  -0.00450   0.00191
   D43       -3.14090   0.00070   0.00000   0.01792   0.01787  -3.12303
   D44        3.08420   0.00126   0.00000   0.02349   0.02353   3.10773
   D45        0.04706  -0.00032   0.00000  -0.01967  -0.01978   0.02728
   D46       -0.01239   0.00045   0.00000   0.01022   0.01022  -0.00217
   D47       -3.04953  -0.00113   0.00000  -0.03294  -0.03308  -3.08262
   D48        0.00223  -0.00031   0.00000  -0.00315  -0.00311  -0.00088
   D49       -3.13406  -0.00102   0.00000  -0.02387  -0.02390   3.12522
   D50       -0.01046   0.00058   0.00000   0.00988   0.00988  -0.00058
   D51        3.12452   0.00101   0.00000   0.02022   0.02011  -3.13856
   D52        0.01485  -0.00067   0.00000  -0.01307  -0.01306   0.00179
   D53        3.05186   0.00109   0.00000   0.03079   0.03067   3.08254
   D54       -3.12049  -0.00107   0.00000  -0.02278  -0.02278   3.13992
   D55       -0.08347   0.00069   0.00000   0.02107   0.02096  -0.06252
   D56       -3.12921   0.00011   0.00000   0.17656   0.17625  -2.95295
   D57       -1.00356  -0.00225   0.00000   0.14727   0.14652  -0.85704
   D58        1.02844   0.00257   0.00000   0.21020   0.21046   1.23890
   D59        1.02884   0.00175   0.00000   0.16499   0.16533   1.19418
   D60       -3.12870  -0.00060   0.00000   0.13569   0.13560  -2.99310
   D61       -1.09669   0.00422   0.00000   0.19862   0.19954  -0.89715
   D62       -1.01547  -0.00181   0.00000   0.11907   0.11890  -0.89657
   D63        1.11017  -0.00416   0.00000   0.08978   0.08917   1.19934
   D64       -3.14101   0.00066   0.00000   0.15271   0.15311  -2.98790
   D65       -1.04893   0.00005   0.00000  -0.00464  -0.00465  -1.05358
   D66        1.04752  -0.00014   0.00000  -0.00698  -0.00699   1.04053
   D67        3.14039  -0.00004   0.00000  -0.00773  -0.00773   3.13267
   D68        3.11725  -0.00146   0.00000  -0.00703  -0.00679   3.11046
   D69       -1.06949  -0.00165   0.00000  -0.00938  -0.00913  -1.07862
   D70        1.02339  -0.00154   0.00000  -0.01012  -0.00987   1.01352
   D71        1.07023   0.00169   0.00000   0.02102   0.02078   1.09101
   D72       -3.11651   0.00150   0.00000   0.01868   0.01844  -3.09807
   D73       -1.02363   0.00160   0.00000   0.01793   0.01769  -1.00593
         Item               Value     Threshold  Converged?
 Maximum Force            0.018842     0.000450     NO 
 RMS     Force            0.003938     0.000300     NO 
 Maximum Displacement     0.600890     0.001800     NO 
 RMS     Displacement     0.186585     0.001200     NO 
 Predicted change in Energy=-7.008243D-03
 GradGradGradGradGradGradGradGradGradGradGradGradGradGradGradGradGradGrad

                          Input orientation:                          
 ---------------------------------------------------------------------
 Center     Atomic      Atomic             Coordinates (Angstroms)
 Number     Number       Type             X           Y           Z
 ---------------------------------------------------------------------
      1          8           0        1.523775    0.312390    1.215888
      2          6           0        1.563820   -0.038917    0.039202
      3          7           0        0.503627   -0.474467   -0.664278
      4          6           0       -0.822413   -0.611241   -0.078532
      5          6           0       -1.572931   -1.613350   -0.960471
      6          8           0       -2.629615   -2.225346   -0.414630
      7          8           0       -1.240926   -1.823703   -2.105842
      8          6           0       -1.566280    0.758390    0.004262
      9          6           0       -2.930666    0.669559    0.611043
     10          6           0       -3.360595    0.706491    1.920377
     11          7           0       -4.722278    0.539382    2.002747
     12          6           0       -5.129337    0.401935    0.759403
     13          7           0       -4.091201    0.473370   -0.125227
     14          6           0        2.897287    0.034463   -0.724665
     15          6           0        3.995180    0.137889    0.326414
     16          7           0        5.336119    0.481101   -0.300263
     17          1           0        0.577179   -0.813341   -1.618766
     18          1           0       -0.723818   -0.996701    0.941866
     19          1           0       -2.803524   -1.897647    0.483019
     20          1           0       -1.609215    1.198247   -0.998455
     21          1           0       -0.937612    1.405216    0.621715
     22          1           0       -2.757727    0.859371    2.805768
     23          1           0       -6.150896    0.252876    0.438951
     24          1           0       -4.152965    0.347956   -1.125545
     25          1           0        3.036369   -0.832686   -1.379535
     26          1           0        2.884860    0.928913   -1.363205
     27          1           0        3.752768    0.914449    1.052144
     28          1           0        4.130534   -0.796203    0.872224
     29          1           0        5.633118   -0.232723   -0.974337
     30          1           0        5.296165    1.376165   -0.800025
     31          1           0        6.071032    0.558162    0.411525
 ---------------------------------------------------------------------
                    Distance matrix (angstroms):
                    1          2          3          4          5
     1  O    0.000000
     2  C    1.228662   0.000000
     3  N    2.279226   1.344841   0.000000
     4  C    2.834292   2.456730   1.456086   0.000000
     5  C    4.246717   3.649300   2.386814   1.531443   0.000000
     6  O    5.133161   4.750929   3.597930   2.446278   1.337558
     7  O    4.820825   3.956421   2.634769   2.399000   1.210930
     8  C    3.348939   3.230239   2.500278   1.560795   2.560450
     9  C    4.509484   4.585776   3.837917   2.561385   3.086224
    10  C    4.950625   5.323937   4.796594   3.489187   4.108125
    11  N    6.299512   6.610973   5.954074   4.567779   4.830456
    12  C    6.669355   6.746213   5.875817   4.503139   4.434790
    13  N    5.775159   5.680558   4.722437   3.444349   3.375458
    14  C    2.393643   1.538510   2.447911   3.830220   4.770089
    15  C    2.632386   2.454641   3.680679   4.892277   5.977188
    16  N    4.106232   3.823074   4.939494   6.258585   7.249661
    17  H    3.193521   2.078954   1.015526   2.090938   2.386701
    18  H    2.615431   2.639212   2.087833   1.095223   2.172588
    19  H    4.913947   4.767131   3.778753   2.427958   1.918031
    20  H    3.937472   3.560261   2.715464   2.177054   2.812088
    21  H    2.757850   2.946524   2.695209   2.137689   3.466797
    22  H    4.599800   5.209278   4.945379   3.771913   4.658610
    23  H    7.714127   7.730575   6.784454   5.422843   5.137990
    24  H    6.140761   5.847045   4.751104   3.620618   3.245080
    25  H    3.214865   2.193464   2.656068   4.078216   4.693688
    26  H    2.980666   2.156058   2.851008   4.215012   5.147543
    27  H    2.314670   2.593541   3.928373   4.953629   6.229243
    28  H    2.853467   2.802754   3.952064   5.046764   6.046157
    29  H    4.688383   4.198096   5.144537   6.528370   7.337129
    30  H    4.407545   4.078868   5.139231   6.473587   7.493159
    31  H    4.624387   4.561808   5.763652   7.009083   8.063995
                    6          7          8          9         10
     6  O    0.000000
     7  O    2.224853   0.000000
     8  C    3.195126   3.350462   0.000000
     9  C    3.085954   4.056235   1.495869   0.000000
    10  C    3.818672   5.206277   2.625596   1.378607   0.000000
    11  N    4.226899   5.880858   3.741956   2.272369   1.374370
    12  C    3.811767   5.318161   3.659601   2.219863   2.137537
    13  N    3.082703   4.162145   2.544255   1.388318   2.184634
    14  C    5.979089   4.741860   4.580266   6.012695   6.827075
    15  C    7.072618   6.097583   5.605233   6.952052   7.547943
    16  N    8.413730   7.199289   6.914675   8.318998   8.978579
    17  H    3.705027   2.136254   3.114317   4.413164   5.508310
    18  H    2.642293   3.199978   2.160830   2.784967   3.287999
    19  H    0.971290   3.024794   2.968925   2.573539   3.026196
    20  H    3.619814   3.239464   1.095791   2.148541   3.439292
    21  H    4.137373   4.237627   1.093094   2.124515   2.836473
    22  H    4.461261   5.798576   3.046011   2.209695   1.082007
    23  H    4.389716   5.907280   4.632840   3.251634   3.191578
    24  H    3.073740   3.762587   2.852343   2.147832   3.167655
    25  H    5.913875   4.450268   5.062686   6.467198   7.360681
    26  H    6.423284   5.015029   4.659580   6.146972   7.059539
    27  H    7.262544   6.512091   5.423530   6.702449   7.169170
    28  H    7.028375   6.227135   5.968568   7.216454   7.711921
    29  H    8.518014   7.145908   7.332890   8.755908   9.494649
    30  H    8.714207   7.394449   6.936979   8.376823   9.098821
    31  H    9.172334   8.091672   7.650783   9.004598   9.552707
                   11         12         13         14         15
    11  N    0.000000
    12  C    1.315482   0.000000
    13  N    2.220560   1.365796   0.000000
    14  C    8.108730   8.170936   7.027869   0.000000
    15  C    8.886246   9.138600   8.105929   1.523428   0.000000
    16  N   10.318847  10.519265   9.428948   2.515453   1.519420
    17  H    6.559685   6.300548   5.067550   2.626993   4.046146
    18  H    4.412789   4.625805   3.826103   4.117405   4.892343
    19  H    3.454027   3.282358   2.765827   6.139283   7.098613
    20  H    4.374069   4.014404   2.729144   4.662395   5.855671
    21  H    4.120754   4.312318   3.372148   4.289307   5.101545
    22  H    2.146322   3.165658   3.243128   6.717411   7.229764
    23  H    2.137403   1.080968   2.146918   9.125313  10.147352
    24  H    3.185431   2.123498   1.010039   7.068596   8.279166
    25  H    8.574323   8.531008   7.354001   1.095511   2.184398
    26  H    8.327660   8.307258   7.099686   1.099058   2.171023
    27  H    8.536435   8.901694   7.944093   2.159461   1.090180
[...]
 688,-0.00001497,0.00000253,0.00000859,-0.00001691,-0.00001362,0.000008
 34,0.00000456,-0.00001063,-0.00000424,0.00000235,-0.00000470,0.0000042
 8,0.00001984,0.01291772,-0.11626180,-0.11987085,0.00384030,-0.01855043
 ,-0.01286303,0.00001962,0.00040974,0.00068841,0.00026539,-0.00008582,0
 .00101521,0.00003514,-0.00004026,0.00003770,0.00001892,-0.00001720,-0.
 00001130,0.00000481,0.00000878,0.00000347,-0.00002889,0.00002848,-0.00
 003096,-0.00000227,-0.00000717,-0.00000191,-0.00000127,-0.00000377,0.0
 0000031,0.00000381,-0.00000306,0.00000344,-0.01297573,0.12835115,0.130
 02006,-0.00182831,0.00316915,-0.00144768,0.00014389,-0.02509318,0.0198
 4669,-0.00183850,0.00148101,-0.00103788,-0.00024367,0.00121006,-0.0006
 3666,0.00024773,0.00028632,0.00005365,-0.00015038,-0.00009710,0.000035
 40,-0.00013640,-0.00011847,-0.00011659,-0.00037647,-0.00032059,0.00016
 202,-0.00002539,0.00015580,-0.00007308,0.00002973,0.00000372,-0.000019
 76,-0.00005837,0.00001830,-0.00001233,-0.00004871,-0.00001144,0.000023
 02,-0.00003018,0.00001857,0.00004757,-0.04412555,-0.00979503,0.0062889
 4,-0.00250575,0.02100701,-0.01787645,0.00231028,0.00140796,0.00038300,
 -0.00000658,-0.00050987,0.00072514,0.00004933,0.00000420,-0.00001048,0
 .00004988,-0.00001060,-0.00001818,-0.00006337,-0.00001283,-0.00006501,
 0.00004499,-0.00010123,0.00008703,0.00000146,0.00000407,-0.00001796,-0
 .00000452,-0.00000804,0.00000120,0.00000520,-0.00001792,0.00001757,-0.
 00012479,0.00299232,-0.00231215,0.05194928,0.00057041,-0.00040819,-0.0
 0016981,-0.00086033,0.00026437,-0.00144385,-0.00070850,0.00089984,0.00
 011832,-0.00008975,0.00017749,-0.00020344,0.00009090,0.00006962,0.0000
 6765,-0.00008795,-0.00004181,0.00000358,-0.00007704,-0.00000315,-0.000
 06325,-0.00007910,-0.00009599,0.00009132,0.00000061,0.00004758,-0.0000
 2752,0.00000924,0.00000421,-0.00001409,-0.00002626,0.00000829,-0.00000
 206,-0.00001624,-0.00000473,0.00001020,-0.00000710,0.00000192,0.000017
 84,-0.00514581,-0.20491072,0.12453360,0.00036270,0.00367347,-0.0028388
 5,0.00007571,0.00092638,-0.00076219,0.00018560,-0.00040840,0.00051962,
 0.00003012,-0.00002598,-0.00001422,0.00002729,-0.00001179,-0.00001112,
 -0.00000665,0.00000848,-0.00001021,-0.00000963,-0.00000560,-0.00001480
 ,0.00000031,-0.00000119,-0.00000574,-0.00000137,-0.00000243,0.00000072
 ,0.00000548,-0.00000341,0.00000880,-0.00133408,-0.01970011,0.01775276,
 0.00650264,0.21781976,0.00170913,-0.00205821,0.00134183,0.00201592,0.0
 1084972,-0.01082220,-0.00057377,-0.00050213,0.00028999,0.00038754,-0.0
 0033064,0.00011066,0.00001922,-0.00000437,0.00004919,-0.00004131,-0.00
 001376,-0.00000911,-0.00003395,0.00000635,-0.00001388,0.00006849,0.000
 03353,-0.00000802,0.00000908,-0.00000479,0.00001583,-0.00000165,0.0000
 0125,-0.00000945,-0.00000813,0.00000075,0.00000364,0.00000021,-0.00000
 199,0.00000378,0.00000696,-0.00000762,0.,0.00062069,0.12600412,-0.1493
 5522,0.00077263,0.01897645,-0.01560826,0.00117877,-0.00033497,0.001832
 94,0.00005236,-0.00002385,0.00008308,-0.00012085,-0.00004512,0.0000108
 9,0.00001026,-0.00000334,-0.00000530,0.00001457,0.00000840,0.00001753,
 -0.00001734,0.00004983,-0.00003327,-0.00000110,-0.00000051,-0.00000064
 ,0.00000039,0.00000065,0.00000026,0.00000400,0.00000411,0.00000316,-0.
 00084452,-0.01341658,0.01236659,-0.00114625,-0.13771431,0.16103633,-0.
 00151503,0.00296462,0.00367994,0.00039861,-0.00437123,-0.00678862,0.00
 110967,0.00177083,0.00263677,-0.00053359,-0.00000555,0.00019981,-0.000
 18119,-0.00031869,-0.00013242,0.00014734,0.00011694,0.00001911,0.00010
 709,0.00026544,0.00014059,0.00000341,-0.00000056,-0.00002930,-0.000043
 60,-0.00002515,0.00001919,-0.00003005,0.00001176,0.00002903,0.00008952
 ,-0.00001380,0.00000164,0.00003514,0.00000434,-0.00003066,0.00000525,0
 .00000742,-0.00002546,0.00627065,-0.01862845,-0.01330474,-0.05614611,0
 .04175073,0.03309875,-0.01633701,0.02221834,0.02249698,0.00064596,-0.0
 0001617,-0.00020585,-0.00005381,-0.00007391,-0.00003978,-0.00004905,-0
 .00002074,0.00001061,0.00002102,0.00001225,0.00001566,-0.00007177,0.00
 010489,-0.00003877,-0.00000960,-0.00001388,0.00002155,0.00000193,0.000
 00083,-0.00000031,-0.00002225,0.00000772,-0.00001611,-0.00448356,0.000
 21776,-0.00316100,0.00066276,0.00045919,0.00012321,0.07227559,0.002027
 38,-0.00053131,0.00159120,0.00065456,-0.00078554,-0.00242452,-0.000095
 14,0.00028828,0.00015047,0.00001344,-0.00001434,-0.00005562,0.00000453
 ,-0.00001524,-0.00000681,-0.00000668,-0.00000522,0.00000449,-0.0000039
 3,0.00001594,0.00001523,0.00000742,0.00000448,0.00000586,-0.00000184,-
 0.00000045,-0.00000038,-0.00000577,-0.00000007,-0.00000688,-0.00000040
 ,-0.00000371,0.00000510,0.00000428,0.00000136,-0.00000235,0.00000305,-
 0.00000688,0.00000566,-0.00221802,-0.00139442,-0.00141371,0.05116497,-
 0.21748328,-0.13263974,-0.00704692,0.01054025,0.01163271,-0.00004062,0
 .00010440,0.00001229,0.00000169,-0.00000184,0.00001862,-0.00000137,0.0
 0000412,-0.00000196,0.00000689,0.00000207,0.00000478,-0.00001477,0.000
 02298,-0.00000838,-0.00000142,0.00000156,0.00000053,0.00000065,0.00000
 080,0.00000045,0.00000254,0.00000427,0.00000019,0.00024175,0.00135752,
 -0.00040924,-0.00043854,0.00067436,0.00012787,-0.04805039,0.22308267,0
 .00284609,0.00154294,-0.00010229,0.00065638,-0.00146403,-0.00113779,0.
 00008577,-0.00025320,-0.00026531,-0.00002017,0.00004438,0.00008952,-0.
 00000245,-0.00004948,-0.00002164,0.00002140,0.00001823,-0.00000198,-0.
 00000885,0.00001862,0.00001349,-0.00000161,0.00001147,0.00000420,-0.00
 000414,-0.00000385,0.00001018,0.00000593,-0.00000682,0.00001437,0.0000
 0997,-0.00000141,-0.00001228,0.00000229,0.00000013,0.00000051,-0.00000
 532,0.00000850,-0.00001799,0.00064278,-0.01849771,-0.01461460,0.037583
 02,-0.12688470,-0.15556880,0.00577454,-0.00730580,-0.00881897,0.000030
 90,-0.00002666,0.00008205,-0.00002226,-0.00000261,0.00000209,-0.000006
 17,0.00000176,0.00000801,-0.00000173,-0.00000392,-0.00000405,-0.000018
 39,0.00001377,0.00000899,0.00000147,0.00000423,0.00000308,-0.00000004,
 0.00000055,-0.00000068,-0.00000460,-0.00000063,0.00000171,-0.00269302,
 0.00048078,-0.00227572,0.00077565,0.00011655,0.00049731,-0.04189926,0.
 13857901,0.16892667,-0.00034298,-0.00028324,0.00118743,0.00192371,0.00
 030978,-0.00182520,-0.00060063,-0.00045076,0.00022899,0.00008715,0.000
 02202,-0.00015208,0.00001781,0.00006616,0.00000461,-0.00005076,-0.0000
 4548,0.00001147,-0.00002577,-0.00005887,0.00002242,-0.00002646,-0.0000
 0719,0.00002098,0.00000399,0.00001190,-0.00001089,-0.00000753,-0.00000
 016,-0.00002152,-0.00001954,-0.00000261,0.00001305,-0.00000259,0.00000
 044,0.00000230,0.00000524,-0.00001042,0.00002307,-0.00179273,0.0201412
 9,-0.01216203,-0.05570072,0.04299721,-0.02474323,-0.00519137,-0.033432
 31,0.02229788,0.00004789,0.00017148,-0.00003484,-0.00005323,0.00002251
 ,0.00003974,0.00000239,0.00001572,-0.00001058,0.00001893,-0.00000508,0
 .00000962,0.00000113,-0.00000524,-0.00001439,-0.00000120,0.00000388,-0
 .00000070,-0.00000003,-0.00000037,0.00000116,0.00000820,0.00000194,-0.
 00000110,0.00087302,-0.00047421,0.00070140,-0.00340995,-0.00108461,-0.
 00293226,0.00070472,0.00559705,-0.00506218,0.06704303,0.00005982,0.000
 50934,-0.00076573,0.00035716,0.00053437,0.00070214,0.00011481,-0.00031
 410,-0.00007946,0.00000244,-0.00000669,0.00001961,-0.00003424,0.000027
 93,0.00002872,0.00002402,-0.00000566,-0.00001456,0.00002176,-0.0000335
 3,-0.00001837,0.00000231,0.00001834,-0.00000652,0.00000157,-0.00000790
 ,0.00000110,0.00000228,-0.00000660,0.00000565,0.00000006,-0.00000163,-
 0.00000444,0.00000058,0.00000086,0.00000170,-0.00000158,0.00000024,-0.
 00000703,0.00014605,0.00639191,-0.00375338,0.03173227,-0.25150157,0.12
 174174,-0.00061725,-0.00391075,0.00175482,-0.00003622,0.00001488,-0.00
 001742,-0.00000515,0.00000614,-0.00000227,-0.00000504,0.00001178,0.000
 00709,0.00000053,-0.00000114,0.00000019,0.00000280,-0.00000810,0.00000
 109,0.00000160,0.00000323,0.00000171,0.,0.00000094,0.00000001,-0.00000
 064,0.00000164,0.00000061,0.00042725,0.00092298,-0.00004869,-0.0014511
 2,0.00103581,-0.00130982,0.00242390,-0.01704082,0.01324780,-0.03205966
 ,0.26195491,0.00011489,0.00055389,0.00006519,0.00034493,-0.00015497,-0
 .00031904,0.00003080,-0.00018628,0.00015558,-0.00002500,-0.00002432,0.
 00001341,-0.00006790,0.00002390,0.00005219,0.00004171,-0.00000002,-0.0
 0002645,0.00004691,-0.00003539,-0.00002303,-0.00000436,0.00000788,-0.0
 0001026,-0.00000190,-0.00001071,0.00000210,0.00000112,-0.00000593,0.00
 000877,0.00000359,-0.00000145,-0.00000449,0.00000291,0.00000111,-0.000
 00013,-0.00000325,0.00000147,-0.00000900,-0.00420901,0.01813863,-0.011
 39620,-0.01908865,0.11725866,-0.12344557,0.00239207,0.01234434,-0.0088
 7961,-0.00005264,0.00009012,-0.00006749,-0.00000776,-0.00000103,0.0000
 1026,-0.00000687,0.00001115,0.00001002,0.00000524,0.00000144,0.0000019
 4,-0.00000321,-0.00000206,-0.00000293,0.00000093,0.00000105,0.00000329
 ,-0.00000003,0.00000091,-0.00000003,-0.00000109,0.00000212,-0.00000024
 ,0.00114428,0.00014406,0.00075673,-0.00351696,-0.00068649,-0.00188582,
 0.00117747,-0.01665098,0.01303155,0.02009397,-0.13134079,0.13213070,-0
 .00029114,-0.00062105,-0.00147722,-0.00180923,0.00038717,0.00209128,0.
 00069399,-0.00002380,-0.00028882,-0.00019836,0.00004948,0.00015028,-0.
 00019690,-0.00013253,0.00001160,0.00019743,0.00008032,-0.00004319,0.00
 013919,0.00005929,-0.00002410,0.00002513,0.00004424,-0.00001629,-0.000
 02383,-0.00003708,0.00000717,-0.00001429,-0.00000722,0.00002640,0.0000
 5575,-0.00001101,-0.00001060,0.00001728,0.00000471,-0.00000890,0.00000
 409,0.00000119,-0.00002860,0.00258163,0.00139560,-0.00024146,-0.007792
 44,0.02336956,0.01908712,-0.08895733,0.08063524,0.06395623,-0.00014678
 ,-0.00011829,-0.00009982,0.00003104,-0.00000145,-0.00002280,-0.0000475
 5,0.00001678,0.00003033,-0.00000300,-0.00000314,0.00000071,-0.00000601
 ,0.00001949,-0.00000005,-0.00000321,-0.00000105,0.00001431,0.00000110,
 0.00000257,0.00000048,-0.00001804,0.00000895,-0.00000639,-0.00054983,-
 0.00091334,-0.00060009,-0.00033015,0.00012911,-0.00015165,-0.00461271,
 -0.00344917,0.00139796,0.00152397,-0.00017377,-0.00039941,0.08984376,-
 0.00069113,-0.00018929,-0.00033224,0.00041338,0.00012922,0.00035260,-0
 .00043282,-0.00025216,-0.00015043,0.00011410,-0.00001806,-0.00009569,0
 .00001780,0.00015551,0.00010581,-0.00003739,-0.00006258,-0.00002319,-0
 .00000624,-0.00012163,-0.00006414,-0.00001813,-0.00000630,0.00000929,0
 .00001057,0.00000926,-0.00001113,0.00000590,-0.00000919,-0.00001103,-0
 .00002913,-0.00000072,0.00000247,-0.00000734,0.00000086,0.00000671,-0.
 00000232,-0.00000798,0.00001155,0.00023123,0.00103682,0.00131011,0.000
 63635,0.01133586,0.00602130,0.07223200,-0.24303223,-0.15265117,-0.0000
 3698,0.00010317,0.00005175,-0.00001083,0.00001181,0.00001483,0.0000128
 6,0.00002322,0.00000021,0.00000141,0.00000055,-0.00000035,0.00001490,-
 0.00002650,0.00000184,0.00000322,0.00000691,-0.00000445,-0.00000025,0.
 00000104,0.00000060,0.00000899,0.00000394,0.00000444,-0.00002372,-0.00
 040703,-0.00038368,0.00023239,-0.00030809,0.00000870,-0.00252236,-0.00
 025891,0.00093389,-0.00038011,0.00047467,0.00070781,-0.07924358,0.2534
 3852,0.00008176,-0.00002323,-0.00003355,0.00001226,-0.00014948,-0.0006
 0248,-0.00030399,-0.00000924,0.00001125,0.00004223,-0.00005471,-0.0000
 3217,-0.00002310,0.00006530,0.00009856,0.00000198,-0.00001892,-0.00003
 326,0.00001041,-0.00004171,-0.00007423,0.00000058,-0.00000613,0.000009
 03,0.00000446,0.00000036,0.00000137,0.00000816,-0.00000479,0.00000275,
 -0.00000961,0.00000353,-0.00001026,-0.00000612,-0.00000185,0.00000934,
 -0.00000435,0.00000230,-0.00000908,-0.00072395,0.00118879,0.00170462,0
 .00566721,-0.00773015,-0.00792614,0.05844928,-0.15767022,-0.19610039,-
 0.00003710,0.00001221,0.00008378,0.00000038,-0.00000317,-0.00000157,0.
 00000924,0.00000410,0.00000707,-0.00000545,0.00000355,-0.00000443,0.00
 000370,-0.00000487,0.00000175,0.00000109,0.00000186,-0.00000155,-0.000
 00051,0.00000051,0.00000031,0.00000161,0.00000080,0.00000710,0.0002854
 0,-0.00057240,0.00027096,-0.00006209,0.00027327,0.00006476,0.00176090,
 0.00173161,0.00013075,-0.00042046,-0.00000188,-0.00038417,-0.06791269,
 0.16675462,0.20139507,0.00032955,0.00000754,-0.00060656,-0.00111595,0.
 00059111,0.00072326,0.00065448,0.00011080,-0.00007360,-0.00018681,-0.0
 0002423,0.00018496,-0.00017282,-0.00017191,-0.00002304,0.00017025,0.00
 008911,-0.00002902,0.00011310,0.00010004,0.00000616,0.00003725,0.00004
 331,-0.00002279,-0.00002387,-0.00003413,0.00001435,-0.00001223,-0.0000
 0237,0.00003190,0.00006351,-0.00000856,-0.00001342,0.00001662,0.000003
 37,-0.00001113,0.00000244,0.00000822,-0.00003422,0.00220471,-0.0012437
 6,0.00086284,0.00486635,-0.02841211,0.01612469,-0.05872461,0.01208852,
 -0.00901158,-0.00007111,-0.00014057,-0.00009508,0.00002922,-0.00000719
 ,-0.00002831,-0.00004102,0.00000042,0.00002430,-0.00000836,-0.00000309
 ,-0.00000296,-0.00001502,0.00002853,0.00000693,-0.00000349,-0.00000422
 ,0.00001332,0.00000094,0.00000183,-0.00000017,-0.00002142,0.00000469,-
 0.00000689,-0.00001580,0.00028780,-0.00024076,-0.00072570,0.00095718,-
 0.00147791,0.00109714,0.00047469,0.00004015,-0.00640494,-0.00044727,0.
 00222707,-0.00107074,0.00915560,-0.00727421,0.05901512,0.00047809,-0.0
 0030256,-0.00023436,-0.00078431,0.00031963,0.00062539,0.00061174,0.000
 05177,-0.00009931,-0.00018148,0.00004849,0.00012149,-0.00014279,-0.000
 09280,0.00001718,0.00015710,0.00004952,-0.00003575,0.00011298,0.000032
 59,-0.00001987,0.00002450,0.00004861,-0.00001435,-0.00001920,-0.000033
 23,-0.00000024,-0.00001617,-0.00001199,0.00001411,0.00003686,-0.000016
 65,0.00000018,0.00002194,0.00000760,-0.00001246,0.00000485,-0.00001296
 ,-0.00001354,0.00091790,0.00033962,-0.00176518,-0.00378298,-0.00345649
 ,0.00393499,0.02106635,-0.31476360,0.14900958,-0.00008852,-0.00005860,
 -0.00008519,0.00001751,-0.00000433,-0.00001177,-0.00004173,0.00003163,
 0.00002731,0.00000785,0.00000321,0.00000953,-0.00001531,0.00002852,-0.
 00001350,-0.00000196,0.00000358,0.00001231,0.00000210,0.00000453,0.000
 00095,-0.00000784,0.00001829,-0.00000523,-0.00008265,-0.00023661,0.000
 14376,-0.00054181,0.00009048,-0.00011948,0.00066418,0.00111460,-0.0005
 7637,-0.00050041,0.00142950,-0.00009087,0.00075241,-0.02097941,0.01615
 331,-0.01867692,0.32896578,-0.00010063,-0.00036900,-0.00046277,-0.0004
 8228,0.00036034,0.00014165,-0.00018337,-0.00004917,-0.00007103,0.00002
 371,-0.00005470,-0.00002253,-0.00002447,0.00003736,0.00006325,0.000005
 34,-0.00001084,-0.00002207,0.00000592,-0.00001932,-0.00005016,0.000010
 87,0.00000351,0.00001330,0.00000209,-0.00000354,0.00000441,0.00000738,
 -0.00000507,0.00000432,-0.00000326,0.00000198,-0.00001334,-0.00000520,
 -0.00000172,0.00001003,-0.00000273,0.00000340,-0.00001331,-0.00015156,
 -0.00167797,0.00190057,0.00134426,0.01149446,-0.00763883,-0.01505894,0
 .15126899,-0.15338448,-0.00000833,-0.00002145,0.00004935,0.00000208,0.
 00000335,-0.00000345,0.00000393,0.00000344,0.00000679,-0.00000868,-0.0
 0000162,-0.00000664,0.00000421,-0.00000081,0.00000782,0.00000071,0.000
 00349,-0.00000028,-0.00000032,0.00000076,0.00000037,-0.00000110,-0.000
 00005,0.00000751,-0.00014163,-0.00005859,-0.00014183,0.00009537,0.0006
 7700,0.00014275,-0.00013514,-0.00008715,-0.00045315,0.00253156,-0.0005
 6406,-0.00018833,0.00089766,-0.02276903,0.01644361,0.01066605,-0.16261
 977,0.15592973,0.00075755,0.00039814,0.00087843,-0.00013586,-0.0013145
 0,-0.00314121,-0.00051366,0.00022950,0.00065771,-0.00002277,-0.0000874
 7,-0.00014082,-0.00012545,0.00000424,0.00008320,0.00003935,-0.00000484
 ,-0.00002655,0.00005542,0.00000577,-0.00002158,-0.00001098,-0.00001272
 ,0.00000919,-0.00001103,0.00000234,-0.00000273,-0.00000910,0.00000365,
 0.00000211,0.00002260,-0.00000188,-0.00000102,0.00000134,0.00000004,-0
 .00000288,0.00000319,0.00000357,-0.00000170,-0.00491332,-0.00076167,0.
 00483178,-0.01846441,-0.00249726,-0.01954620,-0.22349258,-0.02378561,-
 0.17777749,-0.00000029,0.00002140,0.00000960,-0.00000982,-0.00000353,-
 0.00000018,-0.00000686,0.00000087,-0.00000008,-0.00000030,0.00000088,-
 0.00000016,-0.00000807,0.00001463,-0.00000445,-0.00000310,-0.00000367,
 0.00000467,-0.00000018,-0.00000081,0.00000056,-0.00000836,0.00000057,-
 0.00000295,0.00011103,-0.00019379,0.00005764,0.00053824,0.00012794,0.0
 0035726,0.00051356,0.00117008,-0.00012410,0.00136923,-0.00048927,-0.00
 023988,0.01095718,0.00035164,0.01044298,0.00001320,0.00000770,0.000706
 52,0.23335425,0.00011613,-0.00007436,0.00016690,0.00003327,0.00025728,
 -0.00075501,-0.00016864,-0.00004407,0.00008264,0.00001601,-0.00005729,
 -0.00003481,-0.00003392,0.00004566,0.00005583,0.00000799,-0.00002339,-
 0.00001588,0.00001902,-0.00003719,-0.00002382,0.00000655,0.00000881,0.
 00000255,-0.00000064,-0.00000286,-0.00000437,-0.00000298,-0.00000635,-
 0.00000298,-0.00000109,-0.00000585,0.00000096,0.00000228,0.00000228,-0
 .00000036,0.00000127,-0.00000692,0.00000224,-0.00137056,-0.00004211,0.
 00161687,-0.00470495,-0.00110181,-0.00528994,-0.02456547,-0.06786457,-
 0.02843883,-0.00001791,0.00003355,-0.00000517,-0.00001222,0.00000390,0
 .00000392,-0.00000298,0.00001721,0.00000316,0.00000158,-0.00000001,0.0
 0000150,-0.00000131,0.00000170,-0.00000098,0.00000046,0.00000492,0.000
 00127,0.00000055,0.00000173,0.00000068,0.00000107,0.00000637,0.0000011
 0,0.00032513,0.00014587,0.00003892,0.00003423,0.00022951,-0.00018024,0
 .00105974,0.00032237,0.00005459,-0.00056064,-0.00050095,-0.00009726,-0
 .02221963,-0.00105129,-0.01990335,0.02522357,0.00738126,0.02445579,0.0
 2681408,0.06235661,0.00019099,0.00000658,-0.00023795,0.00015252,0.0001
 3411,0.00129076,0.00066429,0.00002921,-0.00026751,-0.00013626,0.000088
 89,0.00011678,-0.00011960,-0.00009591,0.00000598,0.00014064,0.00006058
 ,-0.00003371,0.00009021,0.00004463,-0.00002362,0.00000788,0.00003603,-
 0.00000545,-0.00001455,-0.00002972,0.00000882,-0.00000333,-0.00000992,
 0.00002520,0.00003438,-0.00000699,-0.00001707,0.00001179,0.00000243,-0
 .00000124,-0.00000253,0.00000497,-0.00003095,0.00261986,0.00071013,-0.
 00263710,0.00884164,0.00077732,0.01666219,-0.16747929,-0.02589337,-0.2
 3651815,-0.00008283,-0.00011179,-0.00006212,0.00003258,0.00000265,-0.0
 0001435,-0.00003229,0.00001377,0.00002777,-0.00000343,-0.00000230,-0.0
 0000259,-0.00000812,0.00001230,0.00000406,-0.00000130,0.00000226,0.000
 01074,0.00000064,0.00000253,0.00000030,-0.00001135,0.00000619,-0.00000
 017,0.00002356,0.00007337,-0.00000677,-0.00017271,-0.00020929,-0.00011
 934,0.00037624,-0.00017833,0.00047078,0.00020181,0.00042041,0.00040109
 ,-0.01633945,0.00019800,-0.01502878,-0.01197433,-0.00435285,-0.0122532
 5,0.18299234,0.02826408,0.24823565\\-0.00000334,-0.00000009,0.00000052
 ,0.00000282,0.00000030,0.00000077,0.00000052,0.00000019,0.00000012,0.0
 0000027,0.00000029,0.00000155,0.00000057,0.00000015,-0.00000060,-0.000
 00146,0.00000045,0.00000057,-0.00000091,-0.00000067,-0.00000053,-0.000
 00036,-0.00000003,0.00000118,-0.00000104,0.00000075,-0.00000124,0.0000
 0018,-0.00000022,-0.00000017,0.00000019,0.00000040,0.00000017,0.000000
 48,-0.00000002,-0.00000004,-0.00000013,-0.00000018,0.00000035,-0.00000
 089,-0.00000032,-0.00000034,0.00000143,0.00000266,-0.00000153,-0.00000
 122,-0.00000240,-0.00000060,0.00000062,-0.00000021,0.00000028,0.000000
 77,0.00000016,-0.00000017,0.00000076,-0.00000048,-0.00000029,-0.000000
 14,0.00000003,0.00000015,-0.00000005,0.00000013,-0.00000016,0.,-0.0000
 0004,-0.00000012,0.00000003,0.00000008,0.00000017,-0.00000003,0.000000
 15,0.00000033,0.00000024,0.00000004,0.00000003,0.00000107,0.00000109,-
 0.00000040,-0.00000155,-0.00000188,0.00000009,0.00000095,0.00000017,0.
 00000050,0.00000047,0.00000005,-0.00000042,-0.00000008,-0.00000030,-0.
 00000018,-0.00000017,-0.00000026,0.\\\@



 WE LOSE BECAUSE WE WIN

 GAMBLERS,

 RECOLLECTING WHICH,

 TOSS THEIR DICE AGAIN....


                          EMILY DICKINSON  BOLTS OF MELODY NO. 533
 Job cpu time:       0 days  1 hours 17 minutes  7.8 seconds.
 File lengths (MBytes):  RWF=    349 Int=      0 D2E=      0 Chk=     10 Scr=      1
 Normal termination of Gaussian 09 at Wed Jul 28 23:05:58 2021.
