 Entering Gaussian System, Link 0=g09
 Input=opt_freq-conf-628.com
 Output=opt_freq-conf-628.log
 Initial command:
 /aerosol/software/g09/l1.exe "/scratch/nicole/10675/Gau-83218.inp" -scrdir="/scratch/nicole/10675/"
 Entering Link 1 = /aerosol/software/g09/l1.exe PID=     83223.
  
 Copyright (c) 1988,1990,1992,1993,1995,1998,2003,2009,2013,
            Gaussian, Inc.  All Rights Reserved.
  
 This is part of the Gaussian(R) 09 program.  It is based on
 the Gaussian(R) 03 system (copyright 2003, Gaussian, Inc.),
 the Gaussian(R) 98 system (copyright 1998, Gaussian, Inc.),
 the Gaussian(R) 94 system (copyright 1995, Gaussian, Inc.),
 the Gaussian 92(TM) system (copyright 1992, Gaussian, Inc.),
 the Gaussian 90(TM) system (copyright 1990, Gaussian, Inc.),
 the Gaussian 88(TM) system (copyright 1988, Gaussian, Inc.),
 the Gaussian 86(TM) system (copyright 1986, Carnegie Mellon
 University), and the Gaussian 82(TM) system (copyright 1983,
 Carnegie Mellon University). Gaussian is a federally registered
 trademark of Gaussian, Inc.
  
 This software contains proprietary and confidential information,
 including trade secrets, belonging to Gaussian, Inc.
  
 This software is provided under written license and may be
 used, copied, transmitted, or stored only in accord with that
 written license.
  
 The following legend is applicable only to US Government
 contracts under FAR:
  
                    RESTRICTED RIGHTS LEGEND
  
 Use, reproduction and disclosure by the US Government is
 subject to restrictions as set forth in subparagraphs (a)
 and (c) of the Commercial Computer Software - Restricted
 Rights clause in FAR 52.227-19.
  
 Gaussian, Inc.
 340 Quinnipiac St., Bldg. 40, Wallingford CT 06492
  
  
 ---------------------------------------------------------------
 Warning -- This program may not be used in any manner that
 competes with the business of Gaussian, Inc. or will provide
 assistance to any competitor of Gaussian, Inc.  The licensee
 of this program is prohibited from giving any competitor of
 Gaussian, Inc. access to this program.  By using this program,
 the user acknowledges that Gaussian, Inc. is engaged in the
 business of creating and licensing software in the field of
 computational chemistry and represents and warrants to the
 licensee that it is not a competitor of Gaussian, Inc. and that
 it will not use this program in any manner prohibited above.
 ---------------------------------------------------------------
  

 Cite this work as:
 Gaussian 09, Revision D.01,
 M. J. Frisch, G. W. Trucks, H. B. Schlegel, G. E. Scuseria, 
 M. A. Robb, J. R. Cheeseman, G. Scalmani, V. Barone, B. Mennucci, 
 G. A. Petersson, H. Nakatsuji, M. Caricato, X. Li, H. P. Hratchian, 
 A. F. Izmaylov, J. Bloino, G. Zheng, J. L. Sonnenberg, M. Hada, 
 M. Ehara, K. Toyota, R. Fukuda, J. Hasegawa, M. Ishida, T. Nakajima, 
 Y. Honda, O. Kitao, H. Nakai, T. Vreven, J. A. Montgomery, Jr., 
 J. E. Peralta, F. Ogliaro, M. Bearpark, J. J. Heyd, E. Brothers, 
 K. N. Kudin, V. N. Staroverov, T. Keith, R. Kobayashi, J. Normand, 
 K. Raghavachari, A. Rendell, J. C. Burant, S. S. Iyengar, J. Tomasi, 
 M. Cossi, N. Rega, J. M. Millam, M. Klene, J. E. Knox, J. B. Cross, 
 V. Bakken, C. Adamo, J. Jaramillo, R. Gomperts, R. E. Stratmann, 
 O. Yazyev, A. J. Austin, R. Cammi, C. Pomelli, J. W. Ochterski, 
 R. L. Martin, K. Morokuma, V. G. Zakrzewski, G. A. Voth, 
 P. Salvador, J. J. Dannenberg, S. Dapprich, A. D. Daniels, 
 O. Farkas, J. B. Foresman, J. V. Ortiz, J. Cioslowski, 
 and D. J. Fox, Gaussian, Inc., Wallingford CT, 2013.
 
 ******************************************
 Gaussian 09:  ES64L-G09RevD.01 24-Apr-2013
                28-Jul-2021 
 ******************************************
 %mem=2gb
 %nproc=4
 Will use up to    4 processors via shared memory.
 %chk=conf-628.chk
 ----------------------------------------------------------------------
 # B3LYP/6-31G(d,p) opt=calcfc freq=noraman nosymm integral(ultrafinegr
 id)
 ----------------------------------------------------------------------
 1/10=4,14=-1,18=20,19=15,26=4,38=1/1,3;
 2/9=110,12=2,15=1,17=6,18=5,40=1/2;
 3/5=1,6=6,7=101,11=2,16=1,25=1,30=1,71=2,74=-5,75=-5,140=1/1,2,3;
 4//1;
 5/5=2,38=5/2;
 8/6=4,10=90,11=11/1;
 11/6=1,8=1,9=11,15=111,16=1,31=1/1,2,10;
 10/6=1,13=1,31=1/2;
 6/7=2,8=2,9=2,10=2,28=1/1;
 7/10=1,18=20,25=1,30=1/1,2,3,16;
 1/10=4,14=-1,18=20,19=15,26=4/3(2);
 2/9=110,15=1/2;
 99//99;
 2/9=110,15=1/2;
 3/5=1,6=6,7=101,11=2,16=1,25=1,30=1,71=1,74=-5,75=-5/1,2,3;
 4/5=5,16=3,69=1/1;
 5/5=2,38=5/2;
 7/30=1/1,2,3,16;
 1/14=-1,18=20,19=15,26=4/3(-5);
 2/9=110,15=1/2;
 6/7=2,8=2,9=2,10=2,19=2,28=1/1;
 99/9=1/99;
 ------------------------------------------------------------
 Candidate Structure: Conf:628 OPT and FREQ calc in gas phase
 ------------------------------------------------------------
 Symbolic Z-matrix:
 Charge =  1 Multiplicity = 1
 O                    -1.23346   0.12207  -0.84287 
 C                    -1.46356  -0.06705   0.34931 
 N                    -0.46101  -0.24379   1.22995 
 C                     0.90694  -0.33709   0.75078 
 C                     1.71594  -0.95986   1.86883 
 O                     3.00756  -1.162     1.5238 
 O                     1.28005  -1.2415    2.95329 
 C                     1.44827   1.05177   0.32468 
 C                     2.3268    0.99156  -0.87917 
 C                     2.2344    1.60899  -2.09359 
 N                     3.28424   1.23058  -2.91301 
 C                     3.98976   0.38949  -2.19678 
 N                     3.44646   0.20531  -0.96361 
 C                    -2.87106  -0.07869   0.92827 
 C                    -3.8502   -0.83512   0.0418 
 N                    -3.94724  -0.19776  -1.29196 
 H                    -0.63042  -0.51316   2.1862 
 H                     0.91497  -1.01819  -0.10778 
 H                     3.43321  -1.56793   2.29421 
 H                     0.60119   1.68663   0.07355 
 H                     1.95518   1.52679   1.16546 
 H                     1.47839   2.30342  -2.43091 
 H                     4.89002  -0.11398  -2.50001 
 H                     3.77118  -0.40044  -0.22689 
 H                    -2.85146  -0.51082   1.9302 
 H                    -3.19337   0.96164   1.02586 
 H                    -3.51778  -1.86885  -0.07297 
 H                    -4.83409  -0.86052   0.51303 
 H                    -4.44019   0.69304  -1.23969 
 H                    -2.9845    0.00017  -1.59919 
 H                    -4.40624  -0.79443  -1.97939 
 

 GradGradGradGradGradGradGradGradGradGradGradGradGradGradGradGradGradGrad
 Berny optimization.
 Initialization pass.
                           ----------------------------
                           !    Initial Parameters    !
                           ! (Angstroms and Degrees)  !
 --------------------------                            --------------------------
 ! Name  Definition              Value          Derivative Info.                !
 --------------------------------------------------------------------------------
 ! R1    R(1,2)                  1.2288         calculate D2E/DX2 analytically  !
 ! R2    R(2,3)                  1.3461         calculate D2E/DX2 analytically  !
 ! R3    R(2,14)                 1.522          calculate D2E/DX2 analytically  !
 ! R4    R(3,4)                  1.4524         calculate D2E/DX2 analytically  !
 ! R5    R(3,17)                 1.0078         calculate D2E/DX2 analytically  !
 ! R6    R(4,5)                  1.514          calculate D2E/DX2 analytically  !
 ! R7    R(4,8)                  1.5503         calculate D2E/DX2 analytically  !
 ! R8    R(4,18)                 1.0959         calculate D2E/DX2 analytically  !
 ! R9    R(5,6)                  1.3521         calculate D2E/DX2 analytically  !
 ! R10   R(5,7)                  1.2022         calculate D2E/DX2 analytically  !
 ! R11   R(6,19)                 0.9693         calculate D2E/DX2 analytically  !
 ! R12   R(8,9)                  1.4915         calculate D2E/DX2 analytically  !
 ! R13   R(8,20)                 1.088          calculate D2E/DX2 analytically  !
 ! R14   R(8,21)                 1.0906         calculate D2E/DX2 analytically  !
 ! R15   R(9,10)                 1.3655         calculate D2E/DX2 analytically  !
 ! R16   R(9,13)                 1.3708         calculate D2E/DX2 analytically  !
 ! R17   R(10,11)                1.3845         calculate D2E/DX2 analytically  !
 ! R18   R(10,22)                1.0805         calculate D2E/DX2 analytically  !
 ! R19   R(11,12)                1.3108         calculate D2E/DX2 analytically  !
 ! R20   R(12,13)                1.3601         calculate D2E/DX2 analytically  !
 ! R21   R(12,23)                1.0751         calculate D2E/DX2 analytically  !
 ! R22   R(13,24)                1.0075         calculate D2E/DX2 analytically  !
 ! R23   R(14,15)                1.5221         calculate D2E/DX2 analytically  !
 ! R24   R(14,25)                1.0913         calculate D2E/DX2 analytically  !
 ! R25   R(14,26)                1.0935         calculate D2E/DX2 analytically  !
 ! R26   R(15,16)                1.4814         calculate D2E/DX2 analytically  !
 ! R27   R(15,27)                1.0919         calculate D2E/DX2 analytically  !
 ! R28   R(15,28)                1.0912         calculate D2E/DX2 analytically  !
 ! R29   R(16,29)                1.0194         calculate D2E/DX2 analytically  !
 ! R30   R(16,30)                1.0298         calculate D2E/DX2 analytically  !
 ! R31   R(16,31)                1.0194         calculate D2E/DX2 analytically  !
 ! A1    A(1,2,3)              121.0287         calculate D2E/DX2 analytically  !
 ! A2    A(1,2,14)             122.9159         calculate D2E/DX2 analytically  !
 ! A3    A(3,2,14)             116.0343         calculate D2E/DX2 analytically  !
 ! A4    A(2,3,4)              119.6091         calculate D2E/DX2 analytically  !
 ! A5    A(2,3,17)             122.0502         calculate D2E/DX2 analytically  !
 ! A6    A(4,3,17)             117.0118         calculate D2E/DX2 analytically  !
 ! A7    A(3,4,5)              106.6215         calculate D2E/DX2 analytically  !
 ! A8    A(3,4,8)              111.2221         calculate D2E/DX2 analytically  !
 ! A9    A(3,4,18)             107.7743         calculate D2E/DX2 analytically  !
 ! A10   A(5,4,8)              112.6361         calculate D2E/DX2 analytically  !
 ! A11   A(5,4,18)             108.6            calculate D2E/DX2 analytically  !
 ! A12   A(8,4,18)             109.8079         calculate D2E/DX2 analytically  !
 ! A13   A(4,5,6)              112.5496         calculate D2E/DX2 analytically  !
 ! A14   A(4,5,7)              124.6622         calculate D2E/DX2 analytically  !
 ! A15   A(6,5,7)              122.786          calculate D2E/DX2 analytically  !
 ! A16   A(5,6,19)             106.2178         calculate D2E/DX2 analytically  !
 ! A17   A(4,8,9)              113.0376         calculate D2E/DX2 analytically  !
 ! A18   A(4,8,20)             108.3203         calculate D2E/DX2 analytically  !
 ! A19   A(4,8,21)             109.9119         calculate D2E/DX2 analytically  !
 ! A20   A(9,8,20)             107.2092         calculate D2E/DX2 analytically  !
 ! A21   A(9,8,21)             111.4708         calculate D2E/DX2 analytically  !
 ! A22   A(20,8,21)            106.5992         calculate D2E/DX2 analytically  !
 ! A23   A(8,9,10)             131.2776         calculate D2E/DX2 analytically  !
 ! A24   A(8,9,13)             123.6415         calculate D2E/DX2 analytically  !
 ! A25   A(10,9,13)            105.0607         calculate D2E/DX2 analytically  !
 ! A26   A(9,10,11)            110.5777         calculate D2E/DX2 analytically  !
 ! A27   A(9,10,22)            127.9938         calculate D2E/DX2 analytically  !
 ! A28   A(11,10,22)           121.4286         calculate D2E/DX2 analytically  !
 ! A29   A(10,11,12)           105.0775         calculate D2E/DX2 analytically  !
 ! A30   A(11,12,13)           111.5502         calculate D2E/DX2 analytically  !
 ! A31   A(11,12,23)           126.6602         calculate D2E/DX2 analytically  !
 ! A32   A(13,12,23)           121.7894         calculate D2E/DX2 analytically  !
 ! A33   A(9,13,12)            107.7261         calculate D2E/DX2 analytically  !
 ! A34   A(9,13,24)            124.2674         calculate D2E/DX2 analytically  !
 ! A35   A(12,13,24)           128.0001         calculate D2E/DX2 analytically  !
 ! A36   A(2,14,15)            112.158          calculate D2E/DX2 analytically  !
 ! A37   A(2,14,25)            109.6131         calculate D2E/DX2 analytically  !
 ! A38   A(2,14,26)            107.4131         calculate D2E/DX2 analytically  !
 ! A39   A(15,14,25)           110.4549         calculate D2E/DX2 analytically  !
 ! A40   A(15,14,26)           109.5831         calculate D2E/DX2 analytically  !
 ! A41   A(25,14,26)           107.4625         calculate D2E/DX2 analytically  !
 ! A42   A(14,15,16)           110.6517         calculate D2E/DX2 analytically  !
 ! A43   A(14,15,27)           109.625          calculate D2E/DX2 analytically  !
 ! A44   A(14,15,28)           109.8824         calculate D2E/DX2 analytically  !
 ! A45   A(16,15,27)           109.4274         calculate D2E/DX2 analytically  !
 ! A46   A(16,15,28)           109.862          calculate D2E/DX2 analytically  !
 ! A47   A(27,15,28)           107.3284         calculate D2E/DX2 analytically  !
 ! A48   A(15,16,29)           111.1897         calculate D2E/DX2 analytically  !
 ! A49   A(15,16,30)           106.8621         calculate D2E/DX2 analytically  !
 ! A50   A(15,16,31)           112.6314         calculate D2E/DX2 analytically  !
 ! A51   A(29,16,30)           107.4223         calculate D2E/DX2 analytically  !
 ! A52   A(29,16,31)           109.1651         calculate D2E/DX2 analytically  !
 ! A53   A(30,16,31)           109.4057         calculate D2E/DX2 analytically  !
 ! D1    D(1,2,3,4)             -5.7833         calculate D2E/DX2 analytically  !
 ! D2    D(1,2,3,17)          -172.2233         calculate D2E/DX2 analytically  !
 ! D3    D(14,2,3,4)           175.8395         calculate D2E/DX2 analytically  !
 ! D4    D(14,2,3,17)            9.3995         calculate D2E/DX2 analytically  !
 ! D5    D(1,2,14,15)           42.5179         calculate D2E/DX2 analytically  !
 ! D6    D(1,2,14,25)          165.59           calculate D2E/DX2 analytically  !
 ! D7    D(1,2,14,26)          -77.9467         calculate D2E/DX2 analytically  !
 ! D8    D(3,2,14,15)         -139.1387         calculate D2E/DX2 analytically  !
 ! D9    D(3,2,14,25)          -16.0665         calculate D2E/DX2 analytically  !
 ! D10   D(3,2,14,26)          100.3967         calculate D2E/DX2 analytically  !
 ! D11   D(2,3,4,5)           -162.3258         calculate D2E/DX2 analytically  !
 ! D12   D(2,3,4,8)             74.5263         calculate D2E/DX2 analytically  !
 ! D13   D(2,3,4,18)           -45.8863         calculate D2E/DX2 analytically  !
 ! D14   D(17,3,4,5)             4.7854         calculate D2E/DX2 analytically  !
 ! D15   D(17,3,4,8)          -118.3625         calculate D2E/DX2 analytically  !
 ! D16   D(17,3,4,18)          121.2248         calculate D2E/DX2 analytically  !
 ! D17   D(3,4,5,6)            177.0537         calculate D2E/DX2 analytically  !
 ! D18   D(3,4,5,7)             -3.4817         calculate D2E/DX2 analytically  !
 ! D19   D(8,4,5,6)            -60.685          calculate D2E/DX2 analytically  !
 ! D20   D(8,4,5,7)            118.7796         calculate D2E/DX2 analytically  !
 ! D21   D(18,4,5,6)            61.1665         calculate D2E/DX2 analytically  !
 ! D22   D(18,4,5,7)          -119.3689         calculate D2E/DX2 analytically  !
 ! D23   D(3,4,8,9)           -142.6518         calculate D2E/DX2 analytically  !
 ! D24   D(3,4,8,20)           -24.0009         calculate D2E/DX2 analytically  !
 ! D25   D(3,4,8,21)            92.103          calculate D2E/DX2 analytically  !
 ! D26   D(5,4,8,9)             97.7181         calculate D2E/DX2 analytically  !
 ! D27   D(5,4,8,20)          -143.631          calculate D2E/DX2 analytically  !
 ! D28   D(5,4,8,21)           -27.5271         calculate D2E/DX2 analytically  !
 ! D29   D(18,4,8,9)           -23.4471         calculate D2E/DX2 analytically  !
 ! D30   D(18,4,8,20)           95.2039         calculate D2E/DX2 analytically  !
 ! D31   D(18,4,8,21)         -148.6922         calculate D2E/DX2 analytically  !
 ! D32   D(4,5,6,19)          -179.4098         calculate D2E/DX2 analytically  !
 ! D33   D(7,5,6,19)             1.114          calculate D2E/DX2 analytically  !
 ! D34   D(4,8,9,10)           122.1202         calculate D2E/DX2 analytically  !
 ! D35   D(4,8,9,13)           -55.9913         calculate D2E/DX2 analytically  !
 ! D36   D(20,8,9,10)            2.8264         calculate D2E/DX2 analytically  !
 ! D37   D(20,8,9,13)         -175.2851         calculate D2E/DX2 analytically  !
 ! D38   D(21,8,9,10)         -113.4811         calculate D2E/DX2 analytically  !
 ! D39   D(21,8,9,13)           68.4074         calculate D2E/DX2 analytically  !
 ! D40   D(8,9,10,11)         -179.1727         calculate D2E/DX2 analytically  !
 ! D41   D(8,9,10,22)            0.8717         calculate D2E/DX2 analytically  !
 ! D42   D(13,9,10,11)          -0.8008         calculate D2E/DX2 analytically  !
 ! D43   D(13,9,10,22)         179.2437         calculate D2E/DX2 analytically  !
 ! D44   D(8,9,13,12)          179.4127         calculate D2E/DX2 analytically  !
 ! D45   D(8,9,13,24)            0.2674         calculate D2E/DX2 analytically  !
 ! D46   D(10,9,13,12)           0.8823         calculate D2E/DX2 analytically  !
 ! D47   D(10,9,13,24)        -178.263          calculate D2E/DX2 analytically  !
 ! D48   D(9,10,11,12)           0.4004         calculate D2E/DX2 analytically  !
 ! D49   D(22,10,11,12)       -179.6406         calculate D2E/DX2 analytically  !
 ! D50   D(10,11,12,13)          0.1804         calculate D2E/DX2 analytically  !
 ! D51   D(10,11,12,23)       -179.6957         calculate D2E/DX2 analytically  !
 ! D52   D(11,12,13,9)          -0.6868         calculate D2E/DX2 analytically  !
 ! D53   D(11,12,13,24)        178.4169         calculate D2E/DX2 analytically  !
 ! D54   D(23,12,13,9)         179.1963         calculate D2E/DX2 analytically  !
 ! D55   D(23,12,13,24)         -1.7            calculate D2E/DX2 analytically  !
 ! D56   D(2,14,15,16)         -61.1453         calculate D2E/DX2 analytically  !
 ! D57   D(2,14,15,27)          59.6366         calculate D2E/DX2 analytically  !
 ! D58   D(2,14,15,28)         177.3607         calculate D2E/DX2 analytically  !
 ! D59   D(25,14,15,16)        176.2583         calculate D2E/DX2 analytically  !
 ! D60   D(25,14,15,27)        -62.9598         calculate D2E/DX2 analytically  !
 ! D61   D(25,14,15,28)         54.7643         calculate D2E/DX2 analytically  !
 ! D62   D(26,14,15,16)         58.0532         calculate D2E/DX2 analytically  !
 ! D63   D(26,14,15,27)        178.835          calculate D2E/DX2 analytically  !
 ! D64   D(26,14,15,28)        -63.4408         calculate D2E/DX2 analytically  !
 ! D65   D(14,15,16,29)        -71.244          calculate D2E/DX2 analytically  !
 ! D66   D(14,15,16,30)         45.6958         calculate D2E/DX2 analytically  !
 ! D67   D(14,15,16,31)        165.8619         calculate D2E/DX2 analytically  !
 ! D68   D(27,15,16,29)        167.8569         calculate D2E/DX2 analytically  !
 ! D69   D(27,15,16,30)        -75.2034         calculate D2E/DX2 analytically  !
 ! D70   D(27,15,16,31)         44.9627         calculate D2E/DX2 analytically  !
 ! D71   D(28,15,16,29)         50.2621         calculate D2E/DX2 analytically  !
 ! D72   D(28,15,16,30)        167.2018         calculate D2E/DX2 analytically  !
 ! D73   D(28,15,16,31)        -72.632          calculate D2E/DX2 analytically  !
 --------------------------------------------------------------------------------
 Trust Radius=3.00D-01 FncErr=1.00D-07 GrdErr=1.00D-06
 Number of steps in this run=    167 maximum allowed number of steps=    186.
 GradGradGradGradGradGradGradGradGradGradGradGradGradGradGradGradGradGrad

                          Input orientation:                          
 ---------------------------------------------------------------------
 Center     Atomic      Atomic             Coordinates (Angstroms)
 Number     Number       Type             X           Y           Z
 ---------------------------------------------------------------------
      1          8           0       -1.233463    0.122074   -0.842866
      2          6           0       -1.463560   -0.067049    0.349309
      3          7           0       -0.461006   -0.243787    1.229948
      4          6           0        0.906943   -0.337087    0.750784
      5          6           0        1.715938   -0.959856    1.868830
      6          8           0        3.007560   -1.161999    1.523802
      7          8           0        1.280047   -1.241497    2.953289
      8          6           0        1.448272    1.051775    0.324677
      9          6           0        2.326805    0.991563   -0.879167
     10          6           0        2.234402    1.608991   -2.093590
     11          7           0        3.284242    1.230580   -2.913009
     12          6           0        3.989758    0.389487   -2.196781
     13          7           0        3.446464    0.205306   -0.963613
     14          6           0       -2.871056   -0.078694    0.928273
     15          6           0       -3.850202   -0.835119    0.041802
     16          7           0       -3.947238   -0.197765   -1.291964
     17          1           0       -0.630415   -0.513162    2.186204
     18          1           0        0.914972   -1.018186   -0.107783
     19          1           0        3.433214   -1.567928    2.294215
     20          1           0        0.601188    1.686628    0.073553
     21          1           0        1.955185    1.526786    1.165459
     22          1           0        1.478392    2.303420   -2.430909
     23          1           0        4.890020   -0.113984   -2.500014
     24          1           0        3.771180   -0.400440   -0.226888
     25          1           0       -2.851456   -0.510823    1.930199
     26          1           0       -3.193370    0.961642    1.025863
     27          1           0       -3.517783   -1.868848   -0.072974
     28          1           0       -4.834088   -0.860524    0.513026
     29          1           0       -4.440189    0.693039   -1.239695
     30          1           0       -2.984500    0.000168   -1.599192
     31          1           0       -4.406235   -0.794427   -1.979392
 ---------------------------------------------------------------------
                    Distance matrix (angstroms):
                    1          2          3          4          5
     1  O    0.000000
     2  C    1.228818   0.000000
     3  N    2.242121   1.346060   0.000000
     4  C    2.707746   2.419378   1.452442   0.000000
     5  C    4.150040   3.635280   2.379077   1.514048   0.000000
     6  O    5.023568   4.750712   3.600057   2.385504   1.352107
     7  O    4.752668   3.960736   2.645108   2.410020   1.202238
     8  C    3.069071   3.119477   2.478576   1.550336   2.550041
     9  C    3.665083   4.122703   3.707606   2.537333   3.425300
    10  C    3.975087   4.738332   4.663038   3.693214   4.750637
    11  N    5.091555   5.904929   5.776221   4.640313   5.488494
    12  C    5.402465   6.035700   5.652681   4.326638   4.849760
    13  N    4.682224   5.089821   4.503523   3.111674   3.517819
    14  C    2.420527   1.521965   2.434462   3.790982   4.764620
    15  C    2.923385   2.525975   3.639782   4.835403   5.859651
    16  N    2.769217   2.979852   4.303019   5.268330   6.530158
    17  H    3.153167   2.065752   1.007813   2.110665   2.409489
    18  H    2.540927   2.602117   2.069428   1.095946   2.133529
    19  H    5.871563   5.478476   4.248642   3.206118   1.870759
    20  H    2.579457   2.722978   2.488375   2.155818   3.386674
    21  H    4.021699   3.859304   2.996175   2.178253   2.595256
    22  H    3.825481   4.690822   4.863271   4.173967   5.403068
    23  H    6.348141   6.963392   6.524028   5.146102   5.465994
    24  H    5.069408   5.276898   4.478650   3.027161   2.988143
    25  H    3.272362   2.149978   2.505177   3.942939   4.589824
    26  H    2.835183   2.123245   2.993413   4.309864   5.338918
    27  H    3.126439   2.764893   3.698961   4.754268   5.655855
    28  H    3.970950   3.466535   4.474169   5.769745   6.689612
    29  H    3.281245   3.458754   4.776053   5.797843   7.091748
    30  H    1.911288   2.472737   3.798891   4.558449   5.919708
    31  H    3.492585   3.822468   5.115457   5.991067   7.233062
                    6          7          8          9         10
     6  O    0.000000
     7  O    2.243669   0.000000
     8  C    2.961431   3.492421   0.000000
     9  C    3.297805   4.557410   1.491538   0.000000
    10  C    4.621871   5.874272   2.603172   1.365496   0.000000
    11  N    5.048394   6.673936   3.726307   2.260603   1.384487
    12  C    4.149044   6.043663   3.640814   2.205451   2.139886
    13  N    2.872176   4.704118   2.523682   1.370754   2.171699
    14  C    6.007190   4.762821   4.505428   5.606250   6.168115
    15  C    7.023680   5.912813   5.631537   6.506947   6.896085
    16  N    7.564886   6.814401   5.769437   6.399102   6.489965
    17  H    3.754281   2.183749   3.199258   4.517283   5.570220
    18  H    2.657382   3.090843   2.180863   2.574372   3.547730
    19  H    0.969276   2.275316   3.831699   4.224392   5.548225
    20  H    4.001065   4.162649   1.087958   2.090106   2.714761
    21  H    2.909548   3.363858   1.090647   2.145941   3.272021
    22  H    5.476059   6.449447   3.026677   2.201971   1.080540
    23  H    4.564328   6.636392   4.602554   3.227917   3.191572
    24  H    2.056211   4.126336   2.794468   2.109350   3.143895
    25  H    5.909082   4.318555   4.848409   6.079809   6.822789
    26  H    6.573380   5.346051   4.695170   5.839723   6.293708
    27  H    6.754955   5.707102   5.774934   6.556760   7.018966
    28  H    7.912269   6.594140   6.569658   7.526407   7.928209
    29  H    8.157637   7.351507   6.103271   6.783163   6.791044
    30  H    6.856275   6.360282   4.945362   5.450803   5.483582
    31  H    8.208035   7.540890   6.556862   7.052239   7.063110
                   11         12         13         14         15
    11  N    0.000000
    12  C    1.310791   0.000000
    13  N    2.208539   1.360071   0.000000
    14  C    7.372743   7.553537   6.600829   0.000000
    15  C    7.993642   8.244749   7.438728   1.522083   0.000000
    16  N    7.547334   8.009960   7.411957   2.470182   1.481407
    17  H    6.660867   6.432055   5.201778   2.606074   3.881899
    18  H    4.305773   3.974891   2.939018   4.036095   4.771035
    19  H    5.913461   4.930543   3.709175   6.620229   7.658885
    20  H    4.040583   4.280117   3.371294   3.987905   5.116160
    21  H    4.299771   4.091160   2.916020   5.091800   6.367395
    22  H    2.155110   3.166214   3.229295   5.989680   6.660228
    23  H    2.134699   1.075130   2.132212   8.484615   9.130846
    24  H    3.180028   2.133598   1.007538   6.749608   7.638495
    25  H    8.008491   8.040194   6.967839   1.091319   2.160719
    26  H    7.585940   7.893676   6.972622   1.093485   2.151315
    27  H    7.996236   8.122425   7.320934   2.150675   1.091912
    28  H    9.056363   9.314818   8.478443   2.153412   1.091205
    29  H    7.921853   8.489532   7.906541   2.785289   2.079804
    30  H    6.522051   7.010631   6.465550   2.531239   2.034701
    31  H    8.007230   8.481840   7.980987   3.365050   2.096677
                   16         17         18         19         20
    16  N    0.000000
    17  H    4.816476   0.000000
    18  H    5.071140   2.811699   0.000000
    19  H    8.319200   4.199676   3.523259   0.000000
    20  H    5.109184   3.289258   2.728985   4.852200   0.000000
    21  H    6.622054   3.447990   3.029863   3.610528   1.746744
    22  H    6.081988   5.804992   4.092361   6.413693   2.724381
    23  H    8.919839   7.252254   4.726664   5.217362   5.315969
    24  H    7.794192   5.020932   2.924674   2.798787   3.807225
    25  H    3.417760   2.235747   4.312397   6.383341   4.494071
    26  H    2.699049   3.176503   4.699292   7.205488   3.978840
    27  H    2.112555   3.908793   4.513774   7.349183   5.443235
    28  H    2.117485   4.537736   5.784631   8.486539   6.018584
    29  H    1.019443   5.263656   5.734742   8.921377   5.303520
    30  H    1.029773   4.487142   4.297351   7.668415   4.301091
    31  H    1.019432   5.629220   5.645196   8.962086   5.953529
                   21         22         23         24         25
    21  H    0.000000
    22  H    3.710034   0.000000
    23  H    4.974040   4.181844   0.000000
    24  H    2.991767   4.174379   2.549698   0.000000
    25  H    5.276407   6.759202   8.928309   6.965953   0.000000
    26  H    5.181360   5.964478   8.884254   7.206220   1.761501
    27  H    6.558767   6.923109   8.925313   7.436994   2.510164
    28  H    7.226282   7.650144  10.207546   8.649265   2.462012
    29  H    6.883364   6.248353   9.449470   8.345540   3.744541
    30  H    5.862964   5.090592   7.926700   6.905281   3.568672
    31  H    7.466310   6.665535   9.335652   8.372372   4.216951
                   26         27         28         29         30
    26  H    0.000000
    27  H    3.053582   0.000000
    28  H    2.505045   1.758628   0.000000
    29  H    2.599896   2.962319   2.375024   0.000000
    30  H    2.803386   2.471225   2.936534   1.651768   0.000000
    31  H    3.685971   2.361813   2.529738   1.661583   1.672503
                   31
    31  H    0.000000
 Symmetry turned off by external request.
 Stoichiometry    C9H15N4O3(1+)
 Framework group  C1[X(C9H15N4O3)]
 Deg. of freedom    87
 Full point group                 C1      NOp   1
 Rotational constants (GHZ):      0.7088180      0.3127596      0.2291588
 Standard basis: 6-31G(d,p) (6D, 7F)
   315 basis functions,   553 primitive gaussians,   315 cartesian basis functions
    60 alpha electrons       60 beta electrons
       nuclear repulsion energy      1138.6918025008 Hartrees.
 NAtoms=   31 NActive=   31 NUniq=   31 SFac= 1.00D+00 NAtFMM=   60 NAOKFM=F Big=F
 Integral buffers will be    131072 words long.
 Raffenetti 2 integral format.
 Two-electron integral symmetry is turned off.
 One-electron integrals computed using PRISM.
 NBasis=   315 RedAO= T EigKep=  1.20D-03  NBF=   315
 NBsUse=   315 1.00D-06 EigRej= -1.00D+00 NBFU=   315
 ExpMin= 1.61D-01 ExpMax= 5.48D+03 ExpMxC= 8.25D+02 IAcc=3 IRadAn=         5 AccDes= 0.00D+00
 Harris functional with IExCor=  402 and IRadAn=       5 diagonalized for initial guess.
 HarFok:  IExCor=  402 AccDes= 0.00D+00 IRadAn=         5 IDoV= 1 UseB2=F ITyADJ=14
 ICtDFT=  3500011 ScaDFX=  1.000000  1.000000  1.000000  1.000000
 FoFCou: FMM=F IPFlag=           0 FMFlag=      100000 FMFlg1=           0
         NFxFlg=           0 DoJE=T BraDBF=F KetDBF=T FulRan=T
         wScrn=  0.000000 ICntrl=     500 IOpCl=  0 I1Cent=   200000004 NGrid=           0
         NMat0=    1 NMatS0=      1 NMatT0=    0 NMatD0=    1 NMtDS0=    0 NMtDT0=    0
 Symmetry not used in FoFCou.
 Requested convergence on RMS density matrix=1.00D-08 within 128 cycles.
 Requested convergence on MAX density matrix=1.00D-06.
 Requested convergence on             energy=1.00D-06.
 No special actions if energy rises.
 Integral accuracy reduced to 1.0D-05 until final iterations.
 Initial convergence to 1.0D-05 achieved.  Increase integral accuracy.
 SCF Done:  E(RB3LYP) =  -796.495144274     A.U. after   14 cycles
            NFock= 14  Conv=0.54D-08     -V/T= 2.0088
 DoSCS=F DFT=T ScalE2(SS,OS)=  1.000000  1.000000
 Range of M.O.s used for correlation:     1   315
 NBasis=   315 NAE=    60 NBE=    60 NFC=     0 NFV=     0
 NROrb=    315 NOA=    60 NOB=    60 NVA=   255 NVB=   255
 Symmetrizing basis deriv contribution to polar:
 IMax=3 JMax=2 DiffMx= 0.00D+00
 G2DrvN: will do    32 centers at a time, making    1 passes.
 Calling FoFCou, ICntrl=  3107 FMM=F I1Cent=   0 AccDes= 0.00D+00.
 End of G2Drv F.D. properties file   721 does not exist.
 End of G2Drv F.D. properties file   722 does not exist.
 End of G2Drv F.D. properties file   788 does not exist.
          IDoAtm=1111111111111111111111111111111
          Differentiating once with respect to nuclear coordinates.
          There are    96 degrees of freedom in the 1st order CPHF.  IDoFFX=6 NUNeed=     0.
     90 vectors produced by pass  0 Test12= 1.59D-14 1.04D-09 XBig12= 1.48D-01 8.55D-02.
 AX will form    90 AO Fock derivatives at one time.
     90 vectors produced by pass  1 Test12= 1.59D-14 1.04D-09 XBig12= 2.15D-02 4.72D-02.
     90 vectors produced by pass  2 Test12= 1.59D-14 1.04D-09 XBig12= 1.72D-04 2.55D-03.
     90 vectors produced by pass  3 Test12= 1.59D-14 1.04D-09 XBig12= 5.89D-07 1.02D-04.
     90 vectors produced by pass  4 Test12= 1.59D-14 1.04D-09 XBig12= 9.72D-10 4.08D-06.
     71 vectors produced by pass  5 Test12= 1.59D-14 1.04D-09 XBig12= 8.08D-13 1.11D-07.
     14 vectors produced by pass  6 Test12= 1.59D-14 1.04D-09 XBig12= 7.26D-16 2.48D-09.
 InvSVY:  IOpt=1 It=  1 EMax= 7.22D-16
 Solved reduced A of dimension   535 with    96 vectors.
 End of Minotr F.D. properties file   721 does not exist.
 End of Minotr F.D. properties file   722 does not exist.
 End of Minotr F.D. properties file   788 does not exist.

 **********************************************************************

            Population analysis using the SCF density.

 **********************************************************************

 Alpha  occ. eigenvalues --  -19.32985 -19.28099 -19.27568 -14.64101 -14.50845
 Alpha  occ. eigenvalues --  -14.45756 -14.37752 -10.45413 -10.44832 -10.43353
 Alpha  occ. eigenvalues --  -10.37744 -10.36971 -10.30990 -10.30537 -10.29355
 Alpha  occ. eigenvalues --  -10.26682  -1.24272  -1.20826  -1.18968  -1.15511
 Alpha  occ. eigenvalues --   -1.08672  -1.07642  -0.97121  -0.94100  -0.91400
 Alpha  occ. eigenvalues --   -0.85540  -0.83399  -0.77979  -0.77762  -0.77281
 Alpha  occ. eigenvalues --   -0.74974  -0.72436  -0.69404  -0.68683  -0.66908
 Alpha  occ. eigenvalues --   -0.66208  -0.63925  -0.62059  -0.61403  -0.61185
 Alpha  occ. eigenvalues --   -0.59934  -0.58735  -0.57862  -0.56642  -0.55593
 Alpha  occ. eigenvalues --   -0.54804  -0.53983  -0.51728  -0.50692  -0.49492
 Alpha  occ. eigenvalues --   -0.48656  -0.48441  -0.47480  -0.45316  -0.42354
 Alpha  occ. eigenvalues --   -0.41016  -0.40849  -0.34792  -0.33133  -0.29850
 Alpha virt. eigenvalues --   -0.14669  -0.13200  -0.11931  -0.08900  -0.06356
 Alpha virt. eigenvalues --   -0.05107  -0.04524  -0.03792  -0.02981  -0.02384
 Alpha virt. eigenvalues --   -0.01615  -0.00224   0.00436   0.00891   0.01734
 Alpha virt. eigenvalues --    0.03173   0.04504   0.04908   0.05720   0.07770
 Alpha virt. eigenvalues --    0.08642   0.09562   0.10421   0.11405   0.13938
 Alpha virt. eigenvalues --    0.15299   0.16427   0.17803   0.20358   0.21842
 Alpha virt. eigenvalues --    0.23623   0.26050   0.26585   0.31311   0.31754
 Alpha virt. eigenvalues --    0.32435   0.35305   0.36170   0.38380   0.40235
 Alpha virt. eigenvalues --    0.40995   0.41693   0.43121   0.43687   0.44960
 Alpha virt. eigenvalues --    0.45902   0.48266   0.48682   0.48922   0.50233
 Alpha virt. eigenvalues --    0.51633   0.52066   0.53020   0.55114   0.55860
 Alpha virt. eigenvalues --    0.56553   0.57179   0.58881   0.59883   0.60127
 Alpha virt. eigenvalues --    0.60832   0.61447   0.61773   0.62564   0.63745
 Alpha virt. eigenvalues --    0.64898   0.66442   0.66697   0.68347   0.68747
 Alpha virt. eigenvalues --    0.69864   0.70331   0.71697   0.72568   0.73671
 Alpha virt. eigenvalues --    0.74360   0.74798   0.75451   0.76359   0.76480
 Alpha virt. eigenvalues --    0.77826   0.78722   0.79702   0.80943   0.81686
 Alpha virt. eigenvalues --    0.82748   0.83993   0.84193   0.84981   0.88403
 Alpha virt. eigenvalues --    0.90948   0.92676   0.93665   0.94675   0.99856
 Alpha virt. eigenvalues --    1.01765   1.03427   1.05021   1.05895   1.07175
 Alpha virt. eigenvalues --    1.09846   1.12045   1.16674   1.17616   1.18981
 Alpha virt. eigenvalues --    1.20936   1.22280   1.24136   1.25391   1.26283
 Alpha virt. eigenvalues --    1.27365   1.28692   1.34029   1.34723   1.36127
 Alpha virt. eigenvalues --    1.37299   1.39782   1.42305   1.42638   1.43755
 Alpha virt. eigenvalues --    1.44947   1.46410   1.47039   1.48355   1.51127
 Alpha virt. eigenvalues --    1.54054   1.58223   1.58522   1.60776   1.62728
 Alpha virt. eigenvalues --    1.64350   1.65197   1.65818   1.66452   1.67277
 Alpha virt. eigenvalues --    1.67926   1.68627   1.72472   1.73692   1.75049
 Alpha virt. eigenvalues --    1.75995   1.76282   1.76746   1.79271   1.79610
 Alpha virt. eigenvalues --    1.81562   1.82113   1.84701   1.86039   1.87428
 Alpha virt. eigenvalues --    1.89521   1.90561   1.92527   1.94681   1.95754
 Alpha virt. eigenvalues --    1.97909   1.98942   2.00028   2.00311   2.02620
 Alpha virt. eigenvalues --    2.03913   2.04463   2.05694   2.06304   2.08459
 Alpha virt. eigenvalues --    2.10943   2.11481   2.12379   2.14945   2.15802
 Alpha virt. eigenvalues --    2.16688   2.18795   2.19593   2.21269   2.22167
 Alpha virt. eigenvalues --    2.25552   2.26695   2.28141   2.30033   2.30315
 Alpha virt. eigenvalues --    2.33339   2.34558   2.36966   2.38013   2.40030
 Alpha virt. eigenvalues --    2.40435   2.40602   2.42583   2.44520   2.45182
 Alpha virt. eigenvalues --    2.47505   2.48279   2.49196   2.51304   2.52479
 Alpha virt. eigenvalues --    2.53586   2.54961   2.55893   2.57544   2.57952
 Alpha virt. eigenvalues --    2.59143   2.59223   2.61612   2.65124   2.66365
 Alpha virt. eigenvalues --    2.66957   2.69463   2.69554   2.72476   2.75058
 Alpha virt. eigenvalues --    2.75671   2.75855   2.77511   2.78625   2.79765
 Alpha virt. eigenvalues --    2.82893   2.85357   2.89017   2.90546   2.93491
 Alpha virt. eigenvalues --    2.95579   2.96892   2.98129   3.08356   3.09512
 Alpha virt. eigenvalues --    3.13216   3.15896   3.16249   3.19168   3.21453
 Alpha virt. eigenvalues --    3.23150   3.25750   3.29020   3.31274   3.35393
 Alpha virt. eigenvalues --    3.38941   3.43329   3.49487   3.62569   3.86316
 Alpha virt. eigenvalues --    3.89623   3.93028   4.00368   4.02707   4.07156
 Alpha virt. eigenvalues --    4.14651   4.16944   4.18365   4.34069   4.35462
 Alpha virt. eigenvalues --    4.39163   4.42734   4.51192   4.60736   4.69669
          Condensed to atoms (all electrons):
               1          2          3          4          5          6
     1  O    8.146491   0.498597  -0.096951   0.004298   0.000512   0.000000
     2  C    0.498597   4.374032   0.321239  -0.029697   0.005752  -0.000049
     3  N   -0.096951   0.321239   7.013909   0.194227  -0.024143   0.001909
     4  C    0.004298  -0.029697   0.194227   5.166389   0.290895  -0.094141
     5  C    0.000512   0.005752  -0.024143   0.290895   4.376596   0.259931
     6  O    0.000000  -0.000049   0.001909  -0.094141   0.259931   8.106439
     7  O   -0.000006   0.000642  -0.014479  -0.077731   0.572682  -0.082218
     8  C   -0.002532  -0.004114  -0.044525   0.298847  -0.025226   0.005801
     9  C   -0.000556   0.000013   0.003636  -0.039102  -0.001614  -0.000945
    10  C    0.000118   0.000022  -0.000105  -0.000468   0.000070   0.000029
    11  N    0.000000   0.000001   0.000000  -0.000087  -0.000001  -0.000006
    12  C    0.000000   0.000000   0.000000   0.000288  -0.000031   0.000141
    13  N    0.000002   0.000004   0.000134  -0.001021  -0.000842  -0.011836
    14  C   -0.082144   0.317816  -0.098499   0.006895  -0.000176   0.000000
    15  C    0.003125  -0.029048   0.000108  -0.000167   0.000004   0.000000
    16  N   -0.033357  -0.004263  -0.000185   0.000012   0.000000   0.000000
    17  H    0.002505  -0.019337   0.325041  -0.036073  -0.006787   0.000740
    18  H    0.007345  -0.002895  -0.046815   0.387921  -0.030641   0.001407
    19  H    0.000000   0.000003  -0.000159   0.009378  -0.009777   0.278589
    20  H    0.004395   0.003516  -0.011174  -0.033917   0.002509   0.000089
    21  H    0.000127   0.000206   0.002320  -0.054673  -0.003314   0.000497
    22  H    0.000064  -0.000003   0.000003   0.000005  -0.000002   0.000000
    23  H    0.000000   0.000000   0.000000  -0.000001   0.000001  -0.000007
    24  H    0.000000  -0.000001  -0.000023  -0.000610   0.001176   0.023482
    25  H    0.002607  -0.024751   0.002700   0.000139  -0.000053   0.000000
    26  H    0.000631  -0.030909  -0.001260  -0.000091  -0.000001   0.000000
    27  H    0.000713  -0.003605   0.000572  -0.000021  -0.000001   0.000000
    28  H    0.000009   0.003335  -0.000101   0.000002   0.000000   0.000000
    29  H    0.000993  -0.000197   0.000012  -0.000001   0.000000   0.000000
    30  H    0.080161   0.000881   0.001534  -0.000039   0.000000   0.000000
    31  H    0.000724   0.000148   0.000009   0.000000   0.000000   0.000000
               7          8          9         10         11         12
     1  O   -0.000006  -0.002532  -0.000556   0.000118   0.000000   0.000000
     2  C    0.000642  -0.004114   0.000013   0.000022   0.000001   0.000000
     3  N   -0.014479  -0.044525   0.003636  -0.000105   0.000000   0.000000
     4  C   -0.077731   0.298847  -0.039102  -0.000468  -0.000087   0.000288
     5  C    0.572682  -0.025226  -0.001614   0.000070  -0.000001  -0.000031
     6  O   -0.082218   0.005801  -0.000945   0.000029  -0.000006   0.000141
     7  O    8.006880  -0.000800   0.000139   0.000001   0.000000   0.000000
     8  C   -0.000800   5.105000   0.325781  -0.052723   0.006937   0.006169
     9  C    0.000139   0.325781   4.781591   0.566719  -0.046560  -0.093790
    10  C    0.000001  -0.052723   0.566719   4.854450   0.427250  -0.116987
    11  N    0.000000   0.006937  -0.046560   0.427250   6.672038   0.536173
    12  C    0.000000   0.006169  -0.093790  -0.116987   0.536173   4.665827
    13  N   -0.000025  -0.071979   0.351523  -0.073804  -0.086262   0.355892
    14  C   -0.000046  -0.000387  -0.000007   0.000000   0.000000   0.000000
    15  C    0.000000  -0.000007   0.000001   0.000000   0.000000   0.000000
    16  N    0.000000  -0.000001   0.000000   0.000000   0.000000   0.000000
    17  H    0.033487   0.003041  -0.000119   0.000001   0.000000   0.000000
    18  H    0.001046  -0.047016   0.007047   0.001723  -0.000150  -0.000212
    19  H    0.007652  -0.000215  -0.000073  -0.000002   0.000000  -0.000001
    20  H   -0.000105   0.385469  -0.028058  -0.004132   0.000037  -0.000072
    21  H    0.000371   0.370279  -0.026014   0.000446  -0.000139   0.000191
    22  H    0.000000  -0.001899  -0.060267   0.392336  -0.040925   0.007262
    23  H    0.000000  -0.000190   0.003118   0.007227  -0.036156   0.393448
    24  H    0.000154  -0.003688  -0.029243   0.008762   0.004521  -0.021218
    25  H   -0.000034   0.000005   0.000000   0.000000   0.000000   0.000000
    26  H    0.000000   0.000062  -0.000001   0.000000   0.000000   0.000000
    27  H    0.000000   0.000001   0.000000   0.000000   0.000000   0.000000
    28  H    0.000000   0.000000   0.000000   0.000000   0.000000   0.000000
    29  H    0.000000   0.000000   0.000000   0.000000   0.000000   0.000000
    30  H    0.000000   0.000007   0.000001   0.000000   0.000000   0.000000
    31  H    0.000000   0.000000   0.000000   0.000000   0.000000   0.000000
              13         14         15         16         17         18
     1  O    0.000002  -0.082144   0.003125  -0.033357   0.002505   0.007345
     2  C    0.000004   0.317816  -0.029048  -0.004263  -0.019337  -0.002895
     3  N    0.000134  -0.098499   0.000108  -0.000185   0.325041  -0.046815
     4  C   -0.001021   0.006895  -0.000167   0.000012  -0.036073   0.387921
     5  C   -0.000842  -0.000176   0.000004   0.000000  -0.006787  -0.030641
     6  O   -0.011836   0.000000   0.000000   0.000000   0.000740   0.001407
     7  O   -0.000025  -0.000046   0.000000   0.000000   0.033487   0.001046
     8  C   -0.071979  -0.000387  -0.000007  -0.000001   0.003041  -0.047016
     9  C    0.351523  -0.000007   0.000001   0.000000  -0.000119   0.007047
    10  C   -0.073804   0.000000   0.000000   0.000000   0.000001   0.001723
    11  N   -0.086262   0.000000   0.000000   0.000000   0.000000  -0.000150
    12  C    0.355892   0.000000   0.000000   0.000000   0.000000  -0.000212
    13  N    6.796867   0.000000   0.000000   0.000000   0.000000   0.000770
    14  C    0.000000   5.203790   0.323922  -0.039773  -0.002243   0.000347
    15  C    0.000000   0.323922   4.972304   0.206610   0.000031   0.000082
    16  N    0.000000  -0.039773   0.206610   6.536443   0.000014  -0.000002
    17  H    0.000000  -0.002243   0.000031   0.000014   0.398139   0.003755
    18  H    0.000770   0.000347   0.000082  -0.000002   0.003755   0.534503
    19  H    0.000374   0.000000   0.000000   0.000000  -0.000077  -0.000296
    20  H    0.003784  -0.000178   0.000002   0.000001   0.000023  -0.001132
    21  H   -0.001937   0.000026   0.000000   0.000000   0.000057   0.005223
    22  H    0.004860   0.000000   0.000000   0.000000   0.000000   0.000016
    23  H   -0.056288   0.000000   0.000000   0.000000   0.000000   0.000003
    24  H    0.326493   0.000000   0.000000   0.000000  -0.000004   0.000315
    25  H    0.000000   0.374297  -0.028602   0.003304   0.002341  -0.000029
    26  H    0.000000   0.380263  -0.040537  -0.004088   0.000073  -0.000027
    27  H    0.000000  -0.033821   0.394262  -0.033504   0.000006  -0.000015
    28  H    0.000000  -0.032799   0.400570  -0.033730  -0.000005   0.000000
    29  H    0.000000  -0.000851  -0.023424   0.331756  -0.000001   0.000000
    30  H    0.000000  -0.016138  -0.022312   0.264459  -0.000050  -0.000007
    31  H    0.000000   0.003594  -0.021049   0.333231   0.000000   0.000000
              19         20         21         22         23         24
     1  O    0.000000   0.004395   0.000127   0.000064   0.000000   0.000000
     2  C    0.000003   0.003516   0.000206  -0.000003   0.000000  -0.000001
     3  N   -0.000159  -0.011174   0.002320   0.000003   0.000000  -0.000023
     4  C    0.009378  -0.033917  -0.054673   0.000005  -0.000001  -0.000610
     5  C   -0.009777   0.002509  -0.003314  -0.000002   0.000001   0.001176
     6  O    0.278589   0.000089   0.000497   0.000000  -0.000007   0.023482
     7  O    0.007652  -0.000105   0.000371   0.000000   0.000000   0.000154
     8  C   -0.000215   0.385469   0.370279  -0.001899  -0.000190  -0.003688
     9  C   -0.000073  -0.028058  -0.026014  -0.060267   0.003118  -0.029243
    10  C   -0.000002  -0.004132   0.000446   0.392336   0.007227   0.008762
    11  N    0.000000   0.000037  -0.000139  -0.040925  -0.036156   0.004521
    12  C   -0.000001  -0.000072   0.000191   0.007262   0.393448  -0.021218
    13  N    0.000374   0.003784  -0.001937   0.004860  -0.056288   0.326493
    14  C    0.000000  -0.000178   0.000026   0.000000   0.000000   0.000000
    15  C    0.000000   0.000002   0.000000   0.000000   0.000000   0.000000
    16  N    0.000000   0.000001   0.000000   0.000000   0.000000   0.000000
    17  H   -0.000077   0.000023   0.000057   0.000000   0.000000  -0.000004
    18  H   -0.000296  -0.001132   0.005223   0.000016   0.000003   0.000315
    19  H    0.362725   0.000009  -0.000166   0.000000   0.000000  -0.000552
    20  H    0.000009   0.562367  -0.029405   0.003188   0.000004  -0.000046
    21  H   -0.000166  -0.029405   0.595398  -0.000018  -0.000001   0.000561
    22  H    0.000000   0.003188  -0.000018   0.609055  -0.000159  -0.000111
    23  H    0.000000   0.000004  -0.000001  -0.000159   0.563449   0.000227
    24  H   -0.000552  -0.000046   0.000561  -0.000111   0.000227   0.412283
    25  H    0.000000   0.000000  -0.000001   0.000000   0.000000   0.000000
    26  H    0.000000   0.000052  -0.000006   0.000000   0.000000   0.000000
    27  H    0.000000   0.000000   0.000000   0.000000   0.000000   0.000000
    28  H    0.000000   0.000000   0.000000   0.000000   0.000000   0.000000
    29  H    0.000000   0.000000   0.000000   0.000000   0.000000   0.000000
    30  H    0.000000   0.000000   0.000000   0.000001   0.000000   0.000000
    31  H    0.000000   0.000000   0.000000   0.000000   0.000000   0.000000
              25         26         27         28         29         30
     1  O    0.002607   0.000631   0.000713   0.000009   0.000993   0.080161
     2  C   -0.024751  -0.030909  -0.003605   0.003335  -0.000197   0.000881
     3  N    0.002700  -0.001260   0.000572  -0.000101   0.000012   0.001534
     4  C    0.000139  -0.000091  -0.000021   0.000002  -0.000001  -0.000039
     5  C   -0.000053  -0.000001  -0.000001   0.000000   0.000000   0.000000
     6  O    0.000000   0.000000   0.000000   0.000000   0.000000   0.000000
     7  O   -0.000034   0.000000   0.000000   0.000000   0.000000   0.000000
     8  C    0.000005   0.000062   0.000001   0.000000   0.000000   0.000007
     9  C    0.000000  -0.000001   0.000000   0.000000   0.000000   0.000001
    10  C    0.000000   0.000000   0.000000   0.000000   0.000000   0.000000
    11  N    0.000000   0.000000   0.000000   0.000000   0.000000   0.000000
    12  C    0.000000   0.000000   0.000000   0.000000   0.000000   0.000000
    13  N    0.000000   0.000000   0.000000   0.000000   0.000000   0.000000
    14  C    0.374297   0.380263  -0.033821  -0.032799  -0.000851  -0.016138
    15  C   -0.028602  -0.040537   0.394262   0.400570  -0.023424  -0.022312
    16  N    0.003304  -0.004088  -0.033504  -0.033730   0.331756   0.264459
    17  H    0.002341   0.000073   0.000006  -0.000005  -0.000001  -0.000050
    18  H   -0.000029  -0.000027  -0.000015   0.000000   0.000000  -0.000007
    19  H    0.000000   0.000000   0.000000   0.000000   0.000000   0.000000
    20  H    0.000000   0.000052   0.000000   0.000000   0.000000   0.000000
    21  H   -0.000001  -0.000006   0.000000   0.000000   0.000000   0.000000
    22  H    0.000000   0.000000   0.000000   0.000000   0.000000   0.000001
    23  H    0.000000   0.000000   0.000000   0.000000   0.000000   0.000000
    24  H    0.000000   0.000000   0.000000   0.000000   0.000000   0.000000
    25  H    0.518912  -0.017677  -0.001395  -0.003148  -0.000037   0.000288
    26  H   -0.017677   0.534287   0.004525  -0.003706   0.003731   0.000577
    27  H   -0.001395   0.004525   0.500194  -0.026369   0.003892  -0.000748
    28  H   -0.003148  -0.003706  -0.026369   0.505300  -0.004718   0.003155
    29  H   -0.000037   0.003731   0.003892  -0.004718   0.354024  -0.010032
    30  H    0.000288   0.000577  -0.000748   0.003155  -0.010032   0.336212
    31  H   -0.000086   0.000028  -0.003240  -0.001302  -0.014270  -0.007945
              31
     1  O    0.000724
     2  C    0.000148
     3  N    0.000009
     4  C    0.000000
     5  C    0.000000
     6  O    0.000000
     7  O    0.000000
     8  C    0.000000
     9  C    0.000000
    10  C    0.000000
    11  N    0.000000
    12  C    0.000000
    13  N    0.000000
    14  C    0.003594
    15  C   -0.021049
    16  N    0.333231
    17  H    0.000000
    18  H    0.000000
    19  H    0.000000
    20  H    0.000000
    21  H    0.000000
    22  H    0.000000
    23  H    0.000000
    24  H    0.000000
    25  H   -0.000086
    26  H    0.000028
    27  H   -0.003240
    28  H   -0.001302
    29  H   -0.014270
    30  H   -0.007945
    31  H    0.344618
 Mulliken charges:
               1
     1  O   -0.537868
     2  C    0.622663
     3  N   -0.528934
     4  C    0.008543
     5  C    0.592483
     6  O   -0.489854
     7  O   -0.447609
     8  C   -0.252098
     9  C    0.286782
    10  C   -0.010930
    11  N   -0.436671
    12  C    0.266921
    13  N   -0.536709
    14  C   -0.303887
    15  C   -0.135872
    16  N   -0.526924
    17  H    0.295445
    18  H    0.177734
    19  H    0.352586
    20  H    0.142775
    21  H    0.139973
    22  H    0.086592
    23  H    0.125324
    24  H    0.277521
    25  H    0.171221
    26  H    0.174073
    27  H    0.198555
    28  H    0.193508
    29  H    0.359123
    30  H    0.369993
    31  H    0.365541
 Sum of Mulliken charges =   1.00000
 Mulliken charges with hydrogens summed into heavy atoms:
               1
     1  O   -0.537868
     2  C    0.622663
     3  N   -0.233489
     4  C    0.186277
     5  C    0.592483
     6  O   -0.137268
     7  O   -0.447609
     8  C    0.030650
     9  C    0.286782
    10  C    0.075662
    11  N   -0.436671
    12  C    0.392244
    13  N   -0.259188
    14  C    0.041407
    15  C    0.256191
    16  N    0.567734
 APT charges:
               1
     1  O   -0.568011
     2  C    0.433553
     3  N   -0.778208
     4  C   -0.248316
     5  C   -0.294417
     6  O   -0.942426
     7  O    0.240311
     8  C   -0.838996
     9  C   -0.405201
    10  C   -0.266113
    11  N    0.066031
    12  C   -0.414841
    13  N   -0.683799
    14  C   -0.769635
    15  C   -0.998297
    16  N   -1.179893
    17  H    0.659315
    18  H    0.281368
    19  H    1.138960
    20  H    0.243955
    21  H    0.520965
    22  H    0.343576
    23  H    0.992984
    24  H    0.473149
    25  H    0.448012
    26  H    0.453357
    27  H    0.305163
    28  H    0.905551
    29  H    0.828881
    30  H   -0.000019
    31  H    1.053043
 Sum of APT charges =   1.00000
 APT charges with hydrogens summed into heavy atoms:
               1
     1  O   -0.568011
     2  C    0.433553
     3  N   -0.118892
     4  C    0.033052
     5  C   -0.294417
     6  O    0.196534
     7  O    0.240311
     8  C   -0.074076
     9  C   -0.405201
    10  C    0.077462
    11  N    0.066031
    12  C    0.578143
    13  N   -0.210650
    14  C    0.131734
    15  C    0.212416
    16  N    0.702011
 Electronic spatial extent (au):  <R**2>=           4692.5916
 Charge=              1.0000 electrons
 Dipole moment (field-independent basis, Debye):
    X=            -14.2565    Y=             -3.6410    Z=              1.8905  Tot=             14.8350
 Quadrupole moment (field-independent basis, Debye-Ang):
   XX=             -4.8833   YY=            -86.1885   ZZ=            -92.9000
   XY=             -6.9555   XZ=             28.0017   YZ=              4.7761
 Traceless Quadrupole moment (field-independent basis, Debye-Ang):
   XX=             56.4407   YY=            -24.8646   ZZ=            -31.5761
   XY=             -6.9555   XZ=             28.0017   YZ=              4.7761
 Octapole moment (field-independent basis, Debye-Ang**2):
  XXX=           -366.8597  YYY=            -17.0761  ZZZ=             45.2937  XYY=            -64.8378
  XXY=            -70.9998  XXZ=            -15.0560  XZZ=           -111.0553  YZZ=            -22.9832
  YYZ=             13.4067  XYZ=              7.8732
 Hexadecapole moment (field-independent basis, Debye-Ang**3):
 XXXX=          -2280.3809 YYYY=           -494.7940 ZZZZ=          -1636.9766 XXXY=           -321.3244
 XXXZ=            666.0314 YYYX=           -213.5244 YYYZ=            270.2980 ZZZX=            440.8074
 ZZZY=            354.2977 XXYY=           -687.5040 XXZZ=           -746.1791 YYZZ=           -339.4585
 XXYZ=            134.9070 YYXZ=            141.4489 ZZXY=           -138.1016
 N-N= 1.138691802501D+03 E-N=-4.118867120298D+03  KE= 7.895515116117D+02
  Exact polarizability:   0.000   0.000   0.000   0.000   0.000   0.000
 Approx polarizability: 185.540 -21.365 137.113 -11.328 -26.450 209.437
 Calling FoFJK, ICntrl=    100147 FMM=F ISym2X=0 I1Cent= 0 IOpClX= 0 NMat=1 NMatS=1 NMatT=0.
 -------------------------------------------------------------------
 Center     Atomic                   Forces (Hartrees/Bohr)
 Number     Number              X              Y              Z
 -------------------------------------------------------------------
      1        8          -0.014182153    0.000751829   -0.024904313
      2        6           0.010094036   -0.002950955    0.023505054
      3        7          -0.008028139   -0.002739681   -0.004955509
      4        6          -0.002611704    0.000223322    0.001509776
      5        6           0.009241230    0.000503861   -0.008361587
      6        8          -0.006043104    0.000431781   -0.000612402
      7        8          -0.007438592   -0.003211919    0.012096215
      8        6           0.006346936    0.001395382   -0.007122517
      9        6          -0.007125958    0.001533338    0.004934129
     10        6           0.005624642    0.001569399   -0.011477357
     11        7          -0.005811111    0.005510108   -0.001859912
     12        6          -0.001505173    0.000455617   -0.000683708
     13        7           0.007106066   -0.004936831    0.005981164
     14        6           0.004661091    0.005638505   -0.000629343
     15        6          -0.000458314   -0.012187183    0.022866494
     16        7          -0.004512811    0.001328784   -0.006480597
     17        1           0.000590638   -0.000915335    0.006213937
     18        1           0.002341662    0.001924562   -0.001552822
     19        1           0.004242644   -0.001398176    0.003085643
     20        1          -0.001781362    0.000346020   -0.000214344
     21        1           0.001439258    0.001199740    0.004617383
     22        1          -0.000161793    0.000680844   -0.000113623
     23        1           0.003515543   -0.001763641   -0.002753470
     24        1           0.002971531   -0.000598331    0.000275397
     25        1          -0.005289649   -0.001091076    0.000173875
     26        1          -0.001229841    0.002922432    0.002989852
     27        1          -0.000460780    0.000071309   -0.006103712
     28        1          -0.002266285    0.000709869   -0.003612078
     29        1          -0.003616800    0.003299379   -0.001738883
     30        1           0.017774003    0.002283460   -0.002247313
     31        1          -0.003425709   -0.000986415   -0.002825428
 -------------------------------------------------------------------
 Cartesian Forces:  Max     0.024904313 RMS     0.006494386
 FormGI is forming the generalized inverse of G from B-inverse, IUseBI=4.

 GradGradGradGradGradGradGradGradGradGradGradGradGradGradGradGradGradGrad
 Berny optimization.
 Internal  Forces:  Max     0.026079052 RMS     0.005808789
 Search for a local minimum.
 Step number   1 out of a maximum of  167
 All quantities printed in internal units (Hartrees-Bohrs-Radians)
 Mixed Optimization -- RFO/linear search
 Second derivative matrix not updated -- analytic derivatives used.
 ITU=  0
     Eigenvalues ---    0.00156   0.00232   0.00323   0.00353   0.00397
     Eigenvalues ---    0.00703   0.00818   0.00830   0.01011   0.01195
     Eigenvalues ---    0.02051   0.02093   0.02181   0.02622   0.03523
     Eigenvalues ---    0.03918   0.04014   0.04144   0.04257   0.04454
     Eigenvalues ---    0.04597   0.04773   0.05019   0.05129   0.05319
     Eigenvalues ---    0.05738   0.06091   0.06165   0.06373   0.07783
     Eigenvalues ---    0.08024   0.08307   0.10599   0.10987   0.11093
     Eigenvalues ---    0.11667   0.11878   0.12374   0.13029   0.13414
     Eigenvalues ---    0.15228   0.15619   0.16062   0.16578   0.18814
     Eigenvalues ---    0.19005   0.21090   0.21804   0.22351   0.23193
     Eigenvalues ---    0.23514   0.24220   0.25080   0.25231   0.26374
     Eigenvalues ---    0.27129   0.31143   0.32094   0.32637   0.33256
     Eigenvalues ---    0.34243   0.34325   0.34466   0.34877   0.34895
     Eigenvalues ---    0.35346   0.35536   0.36224   0.37606   0.37889
     Eigenvalues ---    0.38633   0.40206   0.41794   0.42494   0.44593
     Eigenvalues ---    0.44785   0.45422   0.46885   0.47514   0.47798
     Eigenvalues ---    0.49210   0.52202   0.54197   0.57975   0.60303
     Eigenvalues ---    0.83824   0.94354
 RFO step:  Lambda=-1.77164864D-02 EMin= 1.56370314D-03
 Linear search not attempted -- first point.
 Iteration  1 RMS(Cart)=  0.09468465 RMS(Int)=  0.00383229
 Iteration  2 RMS(Cart)=  0.00831596 RMS(Int)=  0.00034977
 Iteration  3 RMS(Cart)=  0.00006409 RMS(Int)=  0.00034736
 Iteration  4 RMS(Cart)=  0.00000005 RMS(Int)=  0.00034736
 Variable       Old X    -DE/DX   Delta X   Delta X   Delta X     New X
                                 (Linear)    (Quad)   (Total)
    R1        2.32213   0.02162   0.00000   0.04404   0.04404   2.36617
    R2        2.54369   0.00150   0.00000  -0.03074  -0.03074   2.51295
    R3        2.87610  -0.00019   0.00000   0.00963   0.00963   2.88573
    R4        2.74472   0.01024   0.00000   0.02282   0.02282   2.76754
    R5        1.90449   0.00604   0.00000   0.01583   0.01583   1.92032
    R6        2.86114   0.00610   0.00000   0.01937   0.01937   2.88050
    R7        2.92971   0.01085   0.00000   0.02735   0.02735   2.95706
    R8        2.07104   0.00004   0.00000  -0.00067  -0.00067   2.07036
    R9        2.55511  -0.00221   0.00000  -0.01699  -0.01699   2.53812
   R10        2.27190   0.01436   0.00000   0.01669   0.01669   2.28859
   R11        1.83167   0.00490   0.00000   0.00901   0.00901   1.84068
   R12        2.81860   0.00722   0.00000   0.00498   0.00498   2.82358
   R13        2.05594   0.00164   0.00000   0.00645   0.00645   2.06239
   R14        2.06102   0.00475   0.00000   0.01242   0.01242   2.07345
   R15        2.58041   0.01075   0.00000   0.01899   0.01900   2.59942
   R16        2.59035   0.01127   0.00000   0.02433   0.02436   2.61471
   R17        2.61630  -0.00539   0.00000  -0.01980  -0.01982   2.59648
   R18        2.04192   0.00059   0.00000   0.00242   0.00242   2.04434
   R19        2.47704   0.00454   0.00000   0.00772   0.00769   2.48472
   R20        2.57016   0.00711   0.00000   0.01214   0.01214   2.58230
   R21        2.03170   0.00455   0.00000   0.01096   0.01096   2.04266
   R22        1.90397   0.00152   0.00000   0.00325   0.00325   1.90722
   R23        2.87632   0.00086   0.00000   0.02005   0.02005   2.89637
   R24        2.06229   0.00050   0.00000   0.00237   0.00237   2.06467
   R25        2.06639   0.00341   0.00000   0.00771   0.00771   2.07409
   R26        2.79945   0.01411   0.00000   0.05018   0.05018   2.84963
   R27        2.06342   0.00043   0.00000   0.00044   0.00044   2.06385
   R28        2.06208   0.00047   0.00000  -0.00068  -0.00068   2.06140
   R29        1.92647   0.00454   0.00000   0.00668   0.00668   1.93315
   R30        1.94599   0.01773   0.00000   0.07754   0.07754   2.02352
   R31        1.92645   0.00403   0.00000   0.00535   0.00535   1.93179
    A1        2.11235   0.01657   0.00000   0.03026   0.03025   2.14260
    A2        2.14529  -0.02608   0.00000  -0.07596  -0.07598   2.06931
    A3        2.02518   0.00953   0.00000   0.04597   0.04595   2.07114
    A4        2.08757   0.01032   0.00000   0.05294   0.05261   2.14018
    A5        2.13018  -0.00377   0.00000  -0.01113  -0.01143   2.11875
    A6        2.04224  -0.00621   0.00000  -0.03265  -0.03301   2.00924
    A7        1.86090  -0.00853   0.00000  -0.02873  -0.02873   1.83217
    A8        1.94119   0.00545   0.00000   0.02514   0.02518   1.96637
    A9        1.88102   0.00164   0.00000   0.01489   0.01500   1.89602
   A10        1.96587   0.00367   0.00000   0.00607   0.00620   1.97208
   A11        1.89543   0.00173   0.00000   0.00572   0.00578   1.90121
   A12        1.91651  -0.00411   0.00000  -0.02271  -0.02284   1.89367
   A13        1.96436   0.00296   0.00000  -0.00005  -0.00005   1.96431
   A14        2.17577  -0.00409   0.00000  -0.01579  -0.01579   2.15997
   A15        2.14302   0.00114   0.00000   0.01583   0.01583   2.15885
   A16        1.85385   0.00401   0.00000   0.02348   0.02348   1.87733
   A17        1.97288   0.01233   0.00000   0.02507   0.02508   1.99796
   A18        1.89055  -0.00467   0.00000  -0.02134  -0.02136   1.86918
   A19        1.91832  -0.00395   0.00000  -0.01072  -0.01098   1.90735
   A20        1.87115  -0.00406   0.00000  -0.00415  -0.00395   1.86720
   A21        1.94553  -0.00221   0.00000   0.00706   0.00704   1.95257
   A22        1.86051   0.00187   0.00000   0.00201   0.00182   1.86233
   A23        2.29123  -0.00487   0.00000  -0.01112  -0.01120   2.28002
   A24        2.15795   0.00790   0.00000   0.01939   0.01932   2.17727
   A25        1.83366  -0.00301   0.00000  -0.00778  -0.00779   1.82586
   A26        1.92994   0.00350   0.00000   0.01017   0.01017   1.94011
   A27        2.23391  -0.00167   0.00000  -0.01004  -0.01004   2.22388
   A28        2.11933  -0.00183   0.00000  -0.00014  -0.00014   2.11919
   A29        1.83395   0.00061   0.00000   0.00108   0.00101   1.83496
   A30        1.94692   0.00242   0.00000   0.00556   0.00554   1.95246
   A31        2.21064  -0.00272   0.00000  -0.01254  -0.01253   2.19811
   A32        2.12563   0.00030   0.00000   0.00698   0.00699   2.13262
   A33        1.88018  -0.00351   0.00000  -0.00884  -0.00880   1.87137
   A34        2.16888   0.00393   0.00000   0.01913   0.01911   2.18799
   A35        2.23402  -0.00042   0.00000  -0.01027  -0.01029   2.22374
   A36        1.95753  -0.02365   0.00000  -0.06216  -0.06204   1.89549
   A37        1.91311   0.01362   0.00000   0.05845   0.05827   1.97138
   A38        1.87471   0.00485   0.00000   0.00706   0.00637   1.88108
   A39        1.92780   0.00354   0.00000  -0.00139  -0.00052   1.92728
   A40        1.91259   0.00625   0.00000   0.00707   0.00678   1.91936
   A41        1.87557  -0.00381   0.00000  -0.00667  -0.00716   1.86842
   A42        1.93124  -0.01499   0.00000  -0.04941  -0.04960   1.88164
   A43        1.91332   0.00741   0.00000   0.02294   0.02028   1.93359
   A44        1.91781   0.00676   0.00000   0.04701   0.04661   1.96442
   A45        1.90987  -0.00186   0.00000  -0.04601  -0.04611   1.86376
   A46        1.91745   0.00467   0.00000   0.00750   0.00848   1.92593
   A47        1.87323  -0.00152   0.00000   0.01988   0.01881   1.89205
   A48        1.94063   0.00256   0.00000   0.01604   0.01603   1.95665
   A49        1.86510  -0.00495   0.00000  -0.07484  -0.07484   1.79026
   A50        1.96579   0.00133   0.00000   0.00807   0.00802   1.97380
   A51        1.87487   0.00140   0.00000   0.02304   0.02310   1.89797
   A52        1.90529  -0.00232   0.00000  -0.01320  -0.01327   1.89202
   A53        1.90949   0.00201   0.00000   0.04184   0.04180   1.95129
    D1       -0.10094   0.00162   0.00000   0.03378   0.03418  -0.06676
    D2       -3.00586   0.00068   0.00000  -0.00809  -0.00803  -3.01389
    D3        3.06898   0.00123   0.00000   0.02426   0.02419   3.09317
    D4        0.16405   0.00028   0.00000  -0.01762  -0.01801   0.14604
    D5        0.74208  -0.00236   0.00000  -0.05684  -0.05618   0.68590
    D6        2.89009  -0.00436   0.00000  -0.05957  -0.06007   2.83002
    D7       -1.36043   0.00100   0.00000  -0.03272  -0.03241  -1.39284
    D8       -2.42843  -0.00118   0.00000  -0.04517  -0.04482  -2.47325
    D9       -0.28041  -0.00318   0.00000  -0.04790  -0.04872  -0.32913
   D10        1.75225   0.00218   0.00000  -0.02105  -0.02106   1.73119
   D11       -2.83312   0.00136   0.00000  -0.00834  -0.00828  -2.84139
   D12        1.30073  -0.00088   0.00000  -0.01224  -0.01194   1.28879
   D13       -0.80087  -0.00015   0.00000  -0.00891  -0.00899  -0.80985
   D14        0.08352   0.00244   0.00000   0.03361   0.03347   0.11699
   D15       -2.06582   0.00020   0.00000   0.02970   0.02981  -2.03601
   D16        2.11577   0.00093   0.00000   0.03303   0.03276   2.14854
   D17        3.09017  -0.00176   0.00000   0.00158   0.00161   3.09178
   D18       -0.06077  -0.00148   0.00000  -0.00013  -0.00009  -0.06086
   D19       -1.05915   0.00148   0.00000   0.01708   0.01709  -1.04207
   D20        2.07309   0.00176   0.00000   0.01536   0.01538   2.08847
   D21        1.06756  -0.00011   0.00000  -0.00369  -0.00374   1.06381
   D22       -2.08338   0.00017   0.00000  -0.00541  -0.00545  -2.08883
   D23       -2.48974  -0.00057   0.00000  -0.01782  -0.01769  -2.50743
   D24       -0.41889  -0.00121   0.00000  -0.02191  -0.02191  -0.44081
   D25        1.60750  -0.00377   0.00000  -0.03744  -0.03724   1.57026
   D26        1.70550   0.00403   0.00000  -0.00277  -0.00277   1.70273
   D27       -2.50683   0.00338   0.00000  -0.00686  -0.00700  -2.51383
   D28       -0.48044   0.00082   0.00000  -0.02239  -0.02232  -0.50276
   D29       -0.40923   0.00225   0.00000   0.00186   0.00179  -0.40743
   D30        1.66162   0.00160   0.00000  -0.00223  -0.00243   1.65919
   D31       -2.59517  -0.00095   0.00000  -0.01776  -0.01776  -2.61293
   D32       -3.13129  -0.00058   0.00000  -0.01678  -0.01680   3.13510
   D33        0.01944  -0.00083   0.00000  -0.01491  -0.01490   0.00455
   D34        2.13140  -0.00162   0.00000  -0.03082  -0.03087   2.10053
   D35       -0.97723  -0.00262   0.00000  -0.05379  -0.05388  -1.03111
   D36        0.04933  -0.00048   0.00000  -0.01654  -0.01654   0.03279
   D37       -3.05930  -0.00147   0.00000  -0.03950  -0.03955  -3.09886
   D38       -1.98062   0.00086   0.00000  -0.02031  -0.02019  -2.00080
   D39        1.19393  -0.00013   0.00000  -0.04327  -0.04320   1.15074
   D40       -3.12715  -0.00023   0.00000  -0.01083  -0.01054  -3.13770
   D41        0.01521  -0.00031   0.00000  -0.00765  -0.00749   0.00773
   D42       -0.01398   0.00080   0.00000   0.00940   0.00942  -0.00455
   D43        3.12839   0.00072   0.00000   0.01257   0.01248   3.14087
   D44        3.13134  -0.00034   0.00000   0.00599   0.00623   3.13757
   D45        0.00467  -0.00015   0.00000   0.00467   0.00483   0.00949
   D46        0.01540  -0.00103   0.00000  -0.01169  -0.01162   0.00378
   D47       -3.11128  -0.00084   0.00000  -0.01300  -0.01302  -3.12430
   D48        0.00699  -0.00030   0.00000  -0.00348  -0.00349   0.00350
   D49       -3.13532  -0.00023   0.00000  -0.00642  -0.00634   3.14152
   D50        0.00315  -0.00031   0.00000  -0.00404  -0.00412  -0.00097
   D51       -3.13628   0.00008   0.00000  -0.00290  -0.00290  -3.13919
   D52       -0.01199   0.00083   0.00000   0.01011   0.01015  -0.00183
   D53        3.11396   0.00069   0.00000   0.01182   0.01193   3.12589
   D54        3.12757   0.00047   0.00000   0.00900   0.00897   3.13653
   D55       -0.02967   0.00032   0.00000   0.01071   0.01074  -0.01893
   D56       -1.06719   0.00708   0.00000   0.08283   0.08286  -0.98433
   D57        1.04085   0.00000   0.00000   0.00887   0.00834   1.04920
   D58        3.09553   0.00656   0.00000   0.07461   0.07525  -3.11241
   D59        3.07629   0.00360   0.00000   0.05223   0.05205   3.12834
   D60       -1.09886  -0.00348   0.00000  -0.02174  -0.02246  -1.12132
   D61        0.95582   0.00308   0.00000   0.04401   0.04445   1.00026
   D62        1.01322   0.00229   0.00000   0.05691   0.05699   1.07021
   D63        3.12126  -0.00479   0.00000  -0.01706  -0.01752   3.10374
   D64       -1.10725   0.00178   0.00000   0.04869   0.04938  -1.05787
   D65       -1.24344  -0.00123   0.00000  -0.03324  -0.03260  -1.27604
   D66        0.79754  -0.00110   0.00000  -0.04107  -0.04049   0.75705
   D67        2.89484  -0.00108   0.00000  -0.03388  -0.03327   2.86156
   D68        2.92966   0.00030   0.00000  -0.00040  -0.00110   2.92856
   D69       -1.31255   0.00044   0.00000  -0.00823  -0.00899  -1.32154
   D70        0.78475   0.00045   0.00000  -0.00104  -0.00177   0.78298
   D71        0.87724   0.00052   0.00000  -0.00171  -0.00156   0.87568
   D72        2.91822   0.00065   0.00000  -0.00954  -0.00945   2.90877
   D73       -1.26767   0.00067   0.00000  -0.00234  -0.00223  -1.26990
         Item               Value     Threshold  Converged?
 Maximum Force            0.026079     0.000450     NO 
 RMS     Force            0.005809     0.000300     NO 
 Maximum Displacement     0.432234     0.001800     NO 
 RMS     Displacement     0.099986     0.001200     NO 
 Predicted change in Energy=-9.904510D-03
 GradGradGradGradGradGradGradGradGradGradGradGradGradGradGradGradGradGrad

                          Input orientation:                          
 ---------------------------------------------------------------------
 Center     Atomic      Atomic             Coordinates (Angstroms)
 Number     Number       Type             X           Y           Z
 ---------------------------------------------------------------------
      1          8           0       -1.420664    0.058618   -0.815906
      2          6           0       -1.538742   -0.110707    0.419081
      3          7           0       -0.494694   -0.277175    1.225683
      4          6           0        0.880957   -0.358616    0.729932
      5          6           0        1.677107   -0.971497    1.876232
      6          8           0        2.966278   -1.173098    1.557879
      7          8           0        1.203074   -1.236325    2.958749
      8          6           0        1.439693    1.029158    0.271096
      9          6           0        2.336143    0.971455   -0.922888
     10          6           0        2.223880    1.568387   -2.157074
     11          7           0        3.283678    1.237255   -2.966426
     12          6           0        4.036259    0.441970   -2.238416
     13          7           0        3.511208    0.244229   -0.992409
     14          6           0       -2.939755   -0.102212    1.026539
     15          6           0       -3.891167   -0.831629    0.071597
     16          7           0       -3.808822   -0.150290   -1.271141
     17          1           0       -0.615678   -0.521731    2.204560
     18          1           0        0.904922   -1.042987   -0.125274
     19          1           0        3.404871   -1.558098    2.337736
     20          1           0        0.581919    1.645393   -0.003793
     21          1           0        1.923828    1.524209    1.122232
     22          1           0        1.434127    2.222622   -2.501453
     23          1           0        4.964258   -0.015430   -2.551484
     24          1           0        3.887181   -0.330317   -0.252718
     25          1           0       -2.976001   -0.554780    2.020313
     26          1           0       -3.250320    0.944571    1.138065
     27          1           0       -3.571971   -1.865165   -0.079060
     28          1           0       -4.921042   -0.838129    0.431120
     29          1           0       -4.275253    0.760163   -1.270134
     30          1           0       -2.755771    0.002677   -1.390747
     31          1           0       -4.199483   -0.712237   -2.030495
 ---------------------------------------------------------------------
                    Distance matrix (angstroms):
                    1          2          3          4          5
     1  O    0.000000
     2  C    1.252121   0.000000
     3  N    2.266774   1.329795   0.000000
     4  C    2.803775   2.452148   1.464520   0.000000
     5  C    4.231422   3.633997   2.371080   1.524297   0.000000
     6  O    5.137825   4.766628   3.590454   2.386932   1.343113
     7  O    4.775867   3.903138   2.608813   2.416974   1.211068
     8  C    3.210166   3.192534   2.521824   1.564811   2.575936
     9  C    3.867598   4.241073   3.766839   2.572639   3.470513
    10  C    4.166633   4.859348   4.715908   3.721772   4.797659
    11  N    5.305163   6.044369   5.843233   4.688596   5.559765
    12  C    5.652300   6.200676   5.748625   4.405446   4.949122
    13  N    4.938518   5.255500   4.608584   3.201266   3.615386
    14  C    2.393346   1.527060   2.459388   3.840775   4.774206
    15  C    2.771928   2.484829   3.629788   4.840486   5.855079
    16  N    2.440119   2.830491   4.151346   5.103109   6.377755
    17  H    3.179312   2.051566   1.016192   2.107381   2.359439
    18  H    2.664368   2.671510   2.090569   1.095589   2.146487
    19  H    5.987071   5.496862   4.252533   3.223963   1.882088
    20  H    2.680992   2.785662   2.523286   2.154954   3.403240
    21  H    4.134001   3.893169   3.017439   2.187809   2.618766
    22  H    3.959017   4.776180   4.884760   4.172605   5.424533
    23  H    6.617019   7.149989   6.643467   5.249649   5.596793
    24  H    5.351791   5.471763   4.624859   3.162876   3.134959
    25  H    3.292335   2.197011   2.620188   4.071816   4.673952
    26  H    2.819673   2.135427   3.015595   4.351129   5.338141
    27  H    2.978591   2.731353   3.700500   4.769982   5.672269
    28  H    3.822548   3.459658   4.531948   5.829443   6.755864
    29  H    2.974419   3.331719   4.647343   5.642555   6.951896
    30  H    1.454676   2.183917   3.469364   4.225352   5.592189
    31  H    3.129102   3.666306   4.951508   5.792742   7.061447
                    6          7          8          9         10
     6  O    0.000000
     7  O    2.252848   0.000000
     8  C    2.972575   3.523050   0.000000
     9  C    3.339219   4.607087   1.494172   0.000000
    10  C    4.676299   5.922846   2.608012   1.375553   0.000000
    11  N    5.136134   6.749460   3.731639   2.268153   1.373998
    12  C    4.262060   6.152571   3.658496   2.213902   2.135451
    13  N    2.968120   4.809488   2.550242   1.383643   2.183358
    14  C    6.025806   4.709849   4.585876   5.726092   6.292012
    15  C    7.024969   5.869474   5.649814   6.558925   6.936919
    16  N    7.412926   6.647597   5.596115   6.256212   6.334999
    17  H    3.697687   2.094590   3.219953   4.552339   5.608524
    18  H    2.664418   3.104428   2.176437   2.596644   3.561901
    19  H    0.974046   2.310218   3.850561   4.262920   5.601158
    20  H    4.008475   4.179329   1.091369   2.091944   2.708983
    21  H    2.924372   3.393056   1.097221   2.158253   3.293301
    22  H    5.509680   6.467728   3.018512   2.207016   1.081818
    23  H    4.713701   6.782312   4.634725   3.245498   3.189625
    24  H    2.199228   4.282383   2.848289   2.132945   3.161996
    25  H    5.992232   4.337031   5.006693   6.261845   6.999797
    26  H    6.580795   5.282416   4.770222   5.954563   6.419809
    27  H    6.775488   5.694277   5.797974   6.607895   7.049774
    28  H    7.974435   6.637188   6.631087   7.600965   7.971196
    29  H    8.010926   7.202881   5.925231   6.623881   6.608981
    30  H    6.543599   6.010466   4.627884   5.204327   5.275948
    31  H    8.027263   7.372574   6.334831   6.839300   6.817393
                   11         12         13         14         15
    11  N    0.000000
    12  C    1.314859   0.000000
    13  N    2.221398   1.366496   0.000000
    14  C    7.514589   7.721453   6.768389   0.000000
    15  C    8.061529   8.354776   7.555444   1.532693   0.000000
    16  N    7.423128   7.926644   7.335951   2.457015   1.507962
    17  H    6.711044   6.504558   5.276220   2.639140   3.921020
    18  H    4.350876   4.059031   3.033410   4.122290   4.804779
    19  H    5.996900   5.033894   3.788081   6.640265   7.674328
    20  H    4.030294   4.286517   3.394312   4.064221   5.113689
    21  H    4.318409   4.114311   2.937657   5.129215   6.361444
    22  H    2.146622   3.164017   3.241222   6.081318   6.656409
    23  H    2.136761   1.080929   2.146972   8.676589   9.271746
    24  H    3.191505   2.135801   1.009258   6.949502   7.801230
    25  H    8.201374   8.264507   7.197138   1.092574   2.170638
    26  H    7.721764   8.046581   7.123739   1.097563   2.168623
    27  H    8.059889   8.238377   7.446823   2.174867   1.092144
[...]
 001618,0.00000954,0.00163922,0.11984534,-0.24849525,0.00061225,0.00974
 721,-0.01571343,-0.00262087,-0.00226021,-0.00150871,0.00032497,0.00039
 616,0.00105196,0.00000407,0.00005286,0.00002321,0.00000872,0.00000491,
 0.00000739,-0.00000333,-0.00001924,-0.00001314,-0.00000328,-0.00001897
 ,0.00000737,0.00000011,-0.00001016,0.00000308,0.00000061,0.00000035,0.
 00000126,0.00000960,0.00000556,-0.00000416,-0.00029373,-0.12875080,0.2
 6791577,-0.00023233,-0.00358036,0.00048540,-0.00700334,0.03185469,0.00
 486993,-0.00187355,-0.00202079,0.00046351,-0.00018655,-0.00171807,-0.0
 0026196,0.00025950,-0.00022184,0.00025881,-0.00020411,0.00008471,-0.00
 006260,-0.00015303,0.00003675,-0.00017024,-0.00036985,0.00039821,-0.00
 012653,-0.00003896,-0.00015870,0.00004098,-0.00002138,0.00000313,-0.00
 008337,-0.00007204,0.00002967,0.00004653,-0.00000166,-0.00000847,0.000
 05948,0.00004948,-0.00004244,0.00000340,-0.05959195,0.05776369,0.01315
 223,0.00482532,-0.02697539,-0.00557339,0.00117003,0.00073182,0.0012958
 2,-0.00010801,0.00095126,0.00049917,0.00011878,0.00001310,-0.00002791,
 0.00001796,0.00000812,0.00001883,-0.00001437,0.00010063,0.00007064,-0.
 00009338,-0.00009273,0.00000057,0.00000512,0.00000886,-0.00000259,0.00
 000063,0.00000392,0.00000131,0.00002645,0.00001379,-0.00000453,-0.0000
 5875,-0.00030587,-0.00009111,0.06627562,-0.00014460,-0.00002012,0.0007
 9353,0.00239193,0.00095622,0.00002358,-0.00033240,0.00046006,-0.000668
 03,0.00021464,0.00004004,0.00002690,0.00006681,-0.00004496,-0.00000556
 ,-0.00003545,0.00001230,0.00000258,-0.00003506,0.00004311,-0.00000111,
 -0.00000822,-0.00000431,-0.00002950,0.00001366,-0.00001083,0.00000288,
 0.00000075,0.00000028,-0.00000051,-0.00000594,-0.00000199,0.00000775,-
 0.00000254,0.00000156,-0.00000103,0.00000358,0.00000680,0.00000167,0.0
 5180943,-0.28377553,-0.05211643,0.00109858,-0.01175704,-0.00186567,0.0
 0023659,0.00137479,0.00025936,-0.00003634,-0.00032716,-0.00010040,-0.0
 0006254,-0.00001768,0.00001519,0.00000617,-0.00000762,0.00000035,0.000
 02331,-0.00000166,0.00001409,0.00000937,0.00000183,0.00000176,0.000001
 43,0.00000536,-0.00000305,-0.00000103,-0.00000108,-0.00000048,0.000004
 10,0.00000019,-0.00000163,0.00338458,-0.01492509,-0.00380222,-0.056272
 77,0.30677440,0.00071442,0.00277036,-0.00064075,0.00406232,-0.01432595
 ,-0.00391771,-0.00079160,0.00015604,-0.00027750,0.00023729,0.00016438,
 0.00002512,0.00006932,0.00003684,0.00006796,-0.00004032,0.00000662,-0.
 00001978,-0.00004586,-0.00002803,-0.00004916,0.00003404,0.00002005,0.0
 0004574,-0.00000577,-0.00001375,-0.00000706,0.00000950,-0.00000431,-0.
 00000186,-0.00001485,0.00000742,0.00000422,-0.00000478,-0.00000017,0.0
 0000511,-0.00000540,0.00000239,0.00000036,0.01231024,-0.05364519,-0.05
 866809,0.00279293,-0.02104328,-0.00606463,0.00068008,-0.00032042,0.001
 46964,0.00000036,0.00029969,0.00020883,-0.00008252,0.00002303,-0.00000
 978,0.00000602,-0.00000188,0.00000697,0.00001952,-0.00002171,-0.000008
 78,-0.00000452,-0.00000195,-0.00000392,0.00000004,-0.00000359,-0.00000
 211,-0.00000106,0.00000010,0.00000028,0.00000581,0.00000195,0.00000304
 ,-0.00628057,0.02700933,0.00748244,-0.01160159,0.05947703,0.06192772,-
 0.00020209,0.00059677,0.00069062,0.00156300,-0.00130166,-0.00075297,0.
 00002278,0.00036622,-0.00001251,-0.00004928,-0.00003077,0.00000851,-0.
 00010021,0.00002850,-0.00006002,0.00007274,-0.00001239,0.00001769,0.00
 005302,0.00000261,0.00004061,-0.00000582,-0.00004135,0.00002710,0.0000
 0300,0.00002342,-0.00000388,0.00000253,0.00000391,0.00001884,0.0000195
 1,0.00000056,-0.00001294,-0.00000104,-0.00000147,-0.00000523,-0.000005
 92,0.00001264,-0.00000429,0.00346699,-0.02423254,-0.00467365,-0.061830
 81,0.04745841,0.01026136,0.00001962,-0.00193276,-0.00057787,0.00002184
 ,-0.00010631,-0.00008695,-0.00002815,-0.00001597,0.00001883,-0.0000147
 3,-0.00000219,-0.00000935,-0.00000119,-0.00002053,-0.00001226,0.000018
 42,0.00001219,-0.00000043,-0.00000145,-0.00000818,0.00000289,-0.000000
 24,-0.00000180,0.00000006,-0.00001254,-0.00000883,0.00000084,0.0009528
 2,0.00058845,0.00057582,-0.00330753,-0.00182618,-0.00292776,0.06065764
 ,-0.00034640,0.00049075,0.00062636,0.00041042,0.00016619,-0.00085697,-
 0.00011020,0.00001643,0.00008443,-0.00002781,-0.00004996,0.00000179,-0
 .00003361,0.00001913,-0.00002406,0.00002338,-0.00000677,0.00000673,0.0
 0001872,-0.00000605,0.00001691,-0.00001231,-0.00000704,0.00001180,-0.0
 0000105,0.00000688,-0.00000102,0.00000299,0.00000134,0.00000613,0.0000
 0476,0.00000179,-0.00000302,-0.00000016,-0.00000064,-0.00000179,-0.000
 00216,0.00000307,-0.00000092,0.00040468,-0.00879198,-0.00341895,0.0455
 2452,-0.30738633,-0.04468760,0.00288560,-0.01505182,0.00143810,0.00001
 675,-0.00003618,-0.00002695,-0.00000532,0.00000072,0.00000816,-0.00000
 339,0.00000128,-0.00000214,-0.00000368,-0.00000991,-0.00000484,0.00000
 618,0.00000179,-0.00000007,-0.00000018,-0.00000429,0.00000048,-0.00000
 007,-0.00000041,-0.00000011,-0.00000365,-0.00000234,0.00000007,-0.0000
 4950,0.00047259,-0.00012918,-0.00126936,0.00086249,-0.00107255,-0.0480
 5701,0.32983594,0.00049406,-0.00023572,0.00108096,0.00158263,0.0002860
 3,-0.00080266,-0.00039236,0.00026743,0.00010464,0.00007298,-0.00005331
 ,-0.00005774,0.00003880,-0.00005852,0.00007033,-0.00004353,0.00002251,
 -0.00002153,-0.00002548,0.00005796,-0.00003336,-0.00001555,0.00001516,
 0.00000037,0.00000029,-0.00000801,-0.00000620,-0.00000837,0.00000517,-
 0.00001738,-0.00001557,0.00000216,0.00001321,-0.00000363,-0.00000035,0
 .00000934,0.00000867,-0.00000447,0.00001099,0.00255711,-0.02018816,-0.
 00385294,0.01235373,-0.05643004,-0.05918573,-0.00685470,0.03931708,-0.
 00294768,0.00005924,-0.00014828,0.00005229,-0.00002419,-0.00000121,0.0
 0002064,0.00000101,-0.00001107,0.00000200,-0.00000115,0.00001203,-0.00
 002073,0.00000368,-0.00000544,0.00000524,-0.00000093,0.00000204,-0.000
 00298,-0.00000038,-0.00000032,0.00000099,0.00000615,-0.00000217,-0.000
 00067,0.00036776,0.00001254,0.00047957,-0.00386511,-0.00110071,-0.0017
 4532,-0.00645411,0.04679710,0.07128588,0.00093871,0.00008861,0.0006922
 7,-0.00020070,-0.00150698,-0.00467113,-0.00138516,-0.00001844,0.000807
 95,0.00012503,0.00019735,-0.00028773,0.00006210,-0.00007970,0.00020522
 ,-0.00013664,0.00004965,-0.00006741,-0.00007100,0.00004760,-0.00007610
 ,0.00002354,0.00006305,-0.00002088,-0.00000386,-0.00002757,-0.00000516
 ,-0.00000596,0.00000216,-0.00002830,-0.00002882,0.00000612,0.00002567,
 -0.00000424,0.00000007,0.00001123,0.00001553,-0.00001268,0.00001405,-0
 .01827953,0.00263502,0.00728229,-0.28708321,0.03208088,0.09870328,0.00
 566672,-0.00027458,-0.00178143,0.00006721,-0.00008979,0.00016058,-0.00
 006466,0.00000324,-0.00000200,0.00000320,-0.00000832,0.00000910,0.0000
 1204,0.00001448,-0.00000468,-0.00000972,-0.00001292,0.00000535,0.00000
 110,0.00000344,-0.00000381,-0.00000073,0.00000023,0.00000084,0.0000161
 0,0.00000619,-0.00000452,0.00022536,0.00024253,-0.00014937,0.00112152,
 -0.00010047,0.00053973,-0.00268186,0.00033878,0.00089096,0.30156657,0.
 00012394,0.00027929,-0.00018384,-0.00160958,-0.00024161,-0.00299527,-0
 .00101901,0.00012848,0.00036068,0.00003009,0.00006662,-0.00019711,-0.0
 0001496,-0.00002929,0.00008162,-0.00004346,0.00002105,-0.00002917,-0.0
 0001813,0.00001698,-0.00002442,0.00000161,0.00001374,0.00001079,-0.000
 00169,-0.00001051,-0.00000314,0.00000039,-0.00000152,-0.00000486,-0.00
 000687,0.00000244,0.00000552,-0.00000207,-0.00000017,0.00000387,0.0000
 0342,-0.00000107,0.00000189,-0.01337959,0.00125075,0.00474463,0.037409
 02,-0.05796631,-0.01689261,-0.01853544,-0.00068433,0.01297487,0.000020
 29,-0.00004252,0.00003959,-0.00002902,-0.00000733,0.00001200,-0.000005
 44,-0.00000131,0.00000079,-0.00000364,0.00000190,0.00000083,-0.0000044
 5,0.00000072,-0.00000179,0.00000149,0.00000175,-0.00000012,-0.00000045
 ,-0.00000009,0.00000027,0.00000301,0.00000138,-0.00000169,0.00052842,0
 .00039073,0.00010039,0.00013543,0.00053209,0.00091644,0.02886313,-0.00
 100306,-0.01224581,-0.03338954,0.05740267,0.00122954,-0.00032479,0.002
 40528,-0.00108139,-0.00195784,-0.00546181,-0.00159762,0.00007722,0.001
 21884,0.00005400,0.00025469,-0.00035099,0.00006327,-0.00008475,0.00022
 461,-0.00016473,0.00005738,-0.00007527,-0.00008076,0.00004475,-0.00007
 043,0.00003273,0.00007881,-0.00003259,-0.00000971,-0.00002745,-0.00001
 203,-0.00001812,0.00001102,-0.00003756,-0.00002749,0.00000694,0.000035
 45,-0.00000462,-0.00000054,0.00001156,0.00002726,-0.00001962,0.0000248
 9,-0.02005471,0.00224405,0.01075258,0.09052244,-0.01240257,-0.08831239
 ,0.03082300,0.00069369,-0.01943437,0.00008734,-0.00011827,0.00018723,-
 0.00007507,0.00000771,-0.00000482,0.00000128,-0.00000732,0.00000832,0.
 00000824,0.00001163,-0.00000959,-0.00000969,-0.00001662,0.00000910,-0.
 00000006,-0.00000194,-0.00000344,-0.00000026,-0.00000032,0.00000159,0.
 00001882,0.00000831,-0.00000845,0.00048074,0.00044285,0.00046999,0.000
 69005,0.00015998,0.00076707,0.00439119,-0.00098681,-0.00067034,-0.1020
 2663,0.01073726,0.10199039,-0.00311585,-0.00289265,-0.00163121,-0.0009
 8463,0.00009762,0.00025371,0.00024253,0.00019907,-0.00008125,-0.000061
 91,0.00002636,0.00007126,-0.00012545,0.00005609,-0.00009700,0.00009633
 ,-0.00003572,0.00002795,0.00005881,-0.00003587,0.00005683,-0.00002246,
 -0.00000690,-0.00002321,-0.00001511,0.00001241,-0.00000242,-0.00005924
 ,0.00002815,-0.00000198,0.00005848,-0.00001699,-0.00001120,0.00001241,
 -0.00000346,-0.00000824,0.00003105,-0.00000975,0.00000540,-0.00053457,
 0.00074036,-0.00000844,0.00196799,-0.00702046,-0.00067302,-0.11468642,
 0.14033187,0.00126413,-0.00005719,0.00011597,-0.00007485,0.00000290,-0
 .00000203,-0.00001985,-0.00001979,0.00001205,-0.00000972,-0.00001578,-
 0.00000606,-0.00000262,0.00000678,0.00000244,0.00000273,-0.00000786,-0
 .00001078,0.00001971,0.00000422,-0.00000201,0.00000213,-0.00001533,0.0
 0000254,-0.00000597,0.00004469,-0.00023201,-0.00007602,0.00024416,-0.0
 0015859,-0.00047415,0.00034891,-0.00091934,0.00183543,0.00043035,-0.00
 092190,0.00028145,0.10959742,-0.00244092,-0.00048016,-0.00182791,0.000
 40229,-0.00021626,0.00127213,-0.00060019,0.00009306,-0.00060870,0.0002
 3531,0.00002983,-0.00006769,0.00016224,-0.00006346,0.00004356,-0.00014
 554,0.00002459,-0.00001883,-0.00012233,0.00002789,-0.00002616,0.000004
 07,0.00008640,-0.00003650,-0.00001095,-0.00004246,-0.00000077,-0.00003
 756,0.00000442,-0.00004751,-0.00002292,-0.00001283,0.00003110,0.000000
 04,0.00000242,0.00001160,0.00003130,-0.00002908,0.00002251,0.00015677,
 0.00144135,0.00012262,0.00433288,-0.01232648,0.00108400,0.12690808,-0.
 35594352,-0.01608945,-0.00001414,0.00003169,0.00011714,-0.00001267,-0.
 00000441,0.00000602,0.00001816,0.00000155,0.00000927,0.00000995,0.0000
 4816,0.00000302,-0.00001994,-0.00001215,0.00000062,0.00000337,0.000021
 62,0.00000216,0.00000187,0.00000272,0.00000197,0.00002028,0.00001792,-
 0.00000775,-0.00012049,-0.00016074,-0.00024188,0.00029595,-0.00010671,
 0.00011766,-0.00040586,0.00069731,0.00276277,-0.00053645,0.00112811,-0
 .00097061,-0.14119168,0.37525793,0.00063658,0.00046099,0.00020549,-0.0
 0064154,0.00016784,0.00001498,0.00037355,-0.00008237,0.00011440,-0.000
 13648,0.00005759,0.00006764,-0.00013561,0.00005143,-0.00000878,0.00012
 164,-0.00002867,0.00000456,0.00009167,-0.00003304,-0.00000594,-0.00001
 472,-0.00004259,0.00002492,0.00000763,0.00001372,0.00002131,0.00003765
 ,-0.00002264,0.00004802,0.00001841,0.00000073,-0.00004812,0.00000923,-
 0.00000292,-0.00000368,-0.00003858,0.00002580,-0.00004744,0.00026890,0
 .00069157,0.00094629,-0.01338947,0.03076550,0.00440593,-0.00081514,-0.
 01305366,-0.06055966,-0.00003213,0.00002221,-0.00007773,0.00001200,-0.
 00000177,-0.00000514,-0.00001451,0.00000825,-0.00000255,-0.00000584,-0
 .00002406,0.00002546,0.00000511,0.00000982,-0.00001370,0.00000250,-0.0
 0000001,0.00001077,-0.00000061,0.00000103,-0.00000200,-0.00001658,-0.0
 0000559,0.00001226,0.00024164,-0.00045626,-0.00005631,-0.00031917,-0.0
 0088507,-0.00060947,0.00019635,0.00223132,-0.00606764,0.00043712,-0.00
 019485,0.00144463,-0.00181934,0.01238778,0.06011309,0.00951587,-0.0052
 2357,0.04492362,0.01081431,0.00422217,-0.05153485,0.00690246,-0.001891
 29,0.01995554,-0.00420689,0.00048170,0.00076948,-0.00283712,0.00149045
 ,-0.00131880,0.00208555,-0.00062481,0.00040202,0.00187312,-0.00098909,
 0.00118098,-0.00032293,-0.00075994,0.00027296,-0.00010341,0.00051314,0
 .00007725,0.00001270,0.00002817,0.00054288,0.00062887,-0.00008157,-0.0
 0048998,0.00015942,-0.00005247,-0.00020313,-0.00018293,0.00020179,-0.0
 0028516,-0.00039694,0.00238679,0.00255484,0.00218882,-0.00923242,0.021
 04437,-0.17605833,-0.00759542,0.02767542,0.00190178,0.00008828,-0.0013
 5848,-0.00010784,0.00024842,-0.00026884,-0.00029443,0.00015671,-0.0001
 3950,-0.00018632,-0.00088521,-0.00003344,0.00033529,0.00009531,-0.0000
 0871,-0.00003896,-0.00020787,0.00017438,0.00002222,-0.00001245,-0.0000
 0794,-0.00029148,-0.00007387,0.00004796,-0.00339993,-0.00078400,-0.000
 02073,-0.00084828,-0.00027502,0.00094159,0.00034754,0.00088283,-0.0019
 8084,-0.00034759,0.00162206,-0.00464462,-0.00205503,0.00326226,0.00030
 974,0.15620674,-0.00162186,-0.01654095,-0.00121993,0.00119268,-0.00121
 762,0.00213039,0.00005204,0.00148097,0.00000228,-0.00003146,-0.0001039
 9,0.00015283,0.00005918,0.00002120,-0.00003009,-0.00006581,-0.00000436
 ,0.00000948,-0.00010524,-0.00006205,0.,0.00003745,-0.00000770,-0.00008
 651,-0.00002282,-0.00002612,-0.00000106,-0.00010866,0.00003787,-0.0000
 7059,0.00002493,-0.00003434,0.00002350,0.00001871,-0.00000295,0.000007
 74,0.00006173,-0.00004071,0.00002969,0.00028898,0.00005908,-0.00065674
 ,-0.01448362,-0.00009256,0.00648624,-0.01384176,-0.06748908,-0.0031842
 6,0.00006223,0.00121368,0.00026957,-0.00011856,0.00001648,-0.00013074,
 0.00001214,0.00001103,0.00000865,-0.00000730,0.00008923,-0.00001582,-0
 .00001659,-0.00000221,0.00001148,-0.00001289,0.00000875,0.00002665,0.0
 0000677,0.00000152,0.00000435,0.00001353,0.00002303,-0.00001009,-0.000
 23870,-0.00035225,-0.00014433,0.00029751,-0.00017581,-0.00053569,-0.00
 058405,-0.00050880,0.00013308,0.00046206,-0.00112478,0.00200104,0.0311
 2970,0.00589462,-0.00675500,0.01454983,0.07995150,0.01759812,-0.001610
 37,-0.00496924,-0.01175712,0.00226143,-0.02038346,0.00306116,-0.000064
 48,0.00265118,-0.00098766,0.00005865,0.00028438,-0.00083685,0.00046625
 ,-0.00034579,0.00067004,-0.00018949,0.00009971,0.00049360,-0.00025023,
 0.00024672,-0.00013661,-0.00024997,0.00015229,0.00000092,0.00011539,0.
 00010420,0.00011330,-0.00009888,0.00022857,0.00014199,-0.00003174,-0.0
 0022312,0.00005560,-0.00001096,-0.00005293,-0.00016182,0.00011233,-0.0
 0018560,0.00015175,-0.00025506,-0.00102741,0.03008442,0.00407291,-0.01
 086231,0.04146644,-0.00336918,-0.06456047,-0.00006526,0.00013676,-0.00
 036159,-0.00005706,0.00011364,-0.00002378,-0.00007940,0.00004070,-0.00
 002962,-0.00005258,-0.00028638,0.00003928,0.00010438,0.00004109,-0.000
 03639,0.00000864,0.00001516,0.00005084,0.00000208,0.00000465,-0.000009
 21,-0.00009036,-0.00002501,0.00004722,-0.00031223,-0.00002991,0.000565
 37,-0.00012854,-0.00025225,-0.00017212,-0.00021296,-0.00002996,0.00032
 175,-0.00094862,0.00328786,-0.00498242,0.00086359,0.00083225,-0.001139
 24,-0.05525496,-0.00489058,0.09773400,-0.00520441,0.00207101,-0.000657
 58,-0.00023632,-0.00015197,0.00166424,0.00003048,-0.00005533,-0.000092
 21,-0.00000024,-0.00000046,0.00000199,-0.00002867,0.00000806,-0.000058
 80,0.00002231,-0.00000478,0.00001913,0.00001030,0.00000108,0.00003273,
 0.00000809,0.00000159,-0.00000717,-0.00000702,0.00001518,-0.00002447,-
 0.00002721,0.00003061,-0.00000744,0.00002573,0.00000746,0.00001831,-0.
 00000790,-0.00000047,-0.00000563,0.00003107,-0.00000920,0.00002807,0.0
 0050101,-0.00037544,0.00077995,0.00138885,0.00431327,0.00329009,-0.131
 84076,-0.09127271,-0.12518856,0.00003487,-0.00003561,-0.00011482,-0.00
 000216,-0.00002021,-0.00001024,-0.00001161,0.00000046,-0.00000885,0.00
 000021,0.00000338,-0.00000868,-0.00000062,0.00000304,0.00000654,-0.000
 00373,-0.00002561,-0.00000219,0.00000066,-0.00000411,0.00000181,-0.000
 00774,-0.00000445,-0.00001041,0.00012412,-0.00006097,0.00023526,0.0000
 6451,0.00003222,-0.00014246,0.00067252,0.00032557,-0.00058660,0.000028
 61,0.00024296,0.00108413,0.00862956,0.00983683,0.01461002,-0.00131627,
 -0.01701016,-0.02373401,0.12712174,0.00108202,-0.00001294,0.00008724,-
 0.00082034,0.00010593,0.00014437,0.00030004,-0.00009848,0.00004145,-0.
 00011215,0.00000784,0.00006013,-0.00010501,0.00005402,-0.00002795,0.00
 009696,-0.00003930,0.00000735,0.00007605,-0.00003813,0.00000951,-0.000
 00603,-0.00001904,-0.00000115,-0.00000451,0.00001271,0.00000082,-0.000
 02655,0.00000726,0.00000702,0.00003056,-0.00001884,-0.00001522,0.00000
 857,0.00000004,-0.00000762,0.00000466,-0.00000676,-0.00000205,-0.00055
 876,-0.00234593,0.00365379,0.01054049,0.01218075,0.01167446,-0.0829543
 0,-0.16332858,-0.13636404,-0.00008961,0.00004568,-0.00006741,0.0000371
 6,0.00001413,-0.00000442,-0.00000937,0.00001636,-0.00000011,-0.0000011
 1,-0.00001745,0.00000289,0.00000311,0.00000072,-0.00000221,-0.00000223
 ,-0.00000037,0.00000521,0.00000349,0.00000195,0.00000105,-0.00000788,0
 .00000627,0.00000347,0.00082074,0.00062265,0.00081455,-0.00006447,0.00
 010605,0.00000916,0.00063308,0.00028788,0.00080054,-0.00018402,-0.0001
 2481,0.00008211,-0.01928845,-0.01541334,-0.02530708,-0.00154092,-0.001
 02269,0.00008537,0.09213877,0.16901642,0.00356409,-0.00102710,0.002022
 20,-0.00005086,0.00035310,-0.00207440,0.00051841,-0.00005193,0.0007291
 6,-0.00022570,0.00000102,0.00008103,-0.00019860,0.00007959,-0.00004459
 ,0.00016370,-0.00004210,0.00001380,0.00012921,-0.00004569,0.00002971,-
 0.00004502,-0.00005022,0.00003659,0.00000091,0.00002022,0.00002241,0.0
 0001079,-0.00001648,0.00004813,0.00003676,-0.00001319,-0.00006182,0.00
 001950,-0.00000657,-0.00000118,-0.00003369,0.00002485,-0.00005204,0.00
 174659,0.00415326,-0.00439880,-0.01403451,-0.01553551,-0.01801981,-0.1
 1645157,-0.13854048,-0.23786043,0.00008646,0.00002741,-0.00007741,-0.0
 0000269,0.00000440,-0.00000281,-0.00002150,0.00001014,-0.00000513,-0.0
 0001191,-0.00004302,0.00001003,0.00001736,0.00000942,-0.00001215,-0.00
 000207,0.00000390,0.00002167,0.00000162,0.00000165,-0.00000050,-0.0000
 2146,-0.00000483,0.00001351,-0.00130740,-0.00073056,-0.00046755,0.0003
 6196,0.00004698,0.00018355,-0.00044352,0.00001755,0.00197471,0.0002921
 5,-0.00050460,-0.00008503,0.00033620,0.00111558,0.00118764,-0.00332304
 ,0.00643445,0.00683920,0.12888783,0.14430877,0.24995032\\0.00001300,0.
 00000512,-0.00000503,0.00000453,-0.00000436,-0.00000334,-0.00000784,0.
 00000609,-0.00000118,-0.00000519,-0.00000026,-0.00000067,0.00000633,-0
 .00000133,-0.00000300,-0.00000489,0.00000109,-0.00000133,-0.00000340,-
 0.00000077,0.00000462,0.00000447,0.00000076,-0.00000105,-0.00000510,-0
 .00000078,-0.00000006,0.00000058,0.00000145,-0.00000140,0.00000062,-0.
 00000024,-0.00000002,-0.00000048,-0.00000096,-0.00000038,0.00000062,-0
 .00000539,0.00000341,0.00000048,0.00000587,-0.00000025,-0.00000233,-0.
 00000552,0.00000366,-0.00001829,0.00000693,-0.00000187,0.00000293,-0.0
 0000205,0.00000262,0.00000048,-0.00000062,0.00000034,0.00000102,-0.000
 00009,0.00000012,-0.00000028,-0.00000051,-0.00000062,0.00000035,0.0000
 0116,0.00000026,0.00000023,-0.00000022,0.,0.00000053,-0.00000122,-0.00
 000022,0.00000237,0.00000268,0.00000069,-0.00000090,-0.00000050,-0.000
 00125,-0.00000122,0.00000048,-0.00000036,0.00000107,0.00000054,-0.0000
 0182,-0.00000100,0.00000169,-0.00000198,-0.00000013,0.00000049,-0.0000
 0005,0.00001246,-0.00000994,0.00001009,-0.00000102,0.00000039,0.000000
 07\\\@


 IT IS IMPOSSIBLE TO MEDITATE ON TIME AND THE MYSTERY 
 OF NATURE WITHOUT AN OVERWHELMING EMOTION AT THE
 LIMITATIONS OF HUMAN INTELLIGENCE.

                                         -- ALFRED NORTH WHITEHEAD
 Job cpu time:       0 days  1 hours 20 minutes 17.2 seconds.
 File lengths (MBytes):  RWF=    349 Int=      0 D2E=      0 Chk=     10 Scr=      1
 Normal termination of Gaussian 09 at Wed Jul 28 22:54:05 2021.
