 Entering Gaussian System, Link 0=g09
 Input=opt_freq-conf-628.com
 Output=opt_freq-conf-628.log
 Initial command:
 /aerosol/software/g09/l1.exe "/scratch/nicole/10663/Gau-82496.inp" -scrdir="/scratch/nicole/10663/"
 Entering Link 1 = /aerosol/software/g09/l1.exe PID=     82503.
  
 Copyright (c) 1988,1990,1992,1993,1995,1998,2003,2009,2013,
            Gaussian, Inc.  All Rights Reserved.
  
 This is part of the Gaussian(R) 09 program.  It is based on
 the Gaussian(R) 03 system (copyright 2003, Gaussian, Inc.),
 the Gaussian(R) 98 system (copyright 1998, Gaussian, Inc.),
 the Gaussian(R) 94 system (copyright 1995, Gaussian, Inc.),
 the Gaussian 92(TM) system (copyright 1992, Gaussian, Inc.),
 the Gaussian 90(TM) system (copyright 1990, Gaussian, Inc.),
 the Gaussian 88(TM) system (copyright 1988, Gaussian, Inc.),
 the Gaussian 86(TM) system (copyright 1986, Carnegie Mellon
 University), and the Gaussian 82(TM) system (copyright 1983,
 Carnegie Mellon University). Gaussian is a federally registered
 trademark of Gaussian, Inc.
  
 This software contains proprietary and confidential information,
 including trade secrets, belonging to Gaussian, Inc.
  
 This software is provided under written license and may be
 used, copied, transmitted, or stored only in accord with that
 written license.
  
 The following legend is applicable only to US Government
 contracts under FAR:
  
                    RESTRICTED RIGHTS LEGEND
  
 Use, reproduction and disclosure by the US Government is
 subject to restrictions as set forth in subparagraphs (a)
 and (c) of the Commercial Computer Software - Restricted
 Rights clause in FAR 52.227-19.
  
 Gaussian, Inc.
 340 Quinnipiac St., Bldg. 40, Wallingford CT 06492
  
  
 ---------------------------------------------------------------
 Warning -- This program may not be used in any manner that
 competes with the business of Gaussian, Inc. or will provide
 assistance to any competitor of Gaussian, Inc.  The licensee
 of this program is prohibited from giving any competitor of
 Gaussian, Inc. access to this program.  By using this program,
 the user acknowledges that Gaussian, Inc. is engaged in the
 business of creating and licensing software in the field of
 computational chemistry and represents and warrants to the
 licensee that it is not a competitor of Gaussian, Inc. and that
 it will not use this program in any manner prohibited above.
 ---------------------------------------------------------------
  

 Cite this work as:
 Gaussian 09, Revision D.01,
 M. J. Frisch, G. W. Trucks, H. B. Schlegel, G. E. Scuseria, 
 M. A. Robb, J. R. Cheeseman, G. Scalmani, V. Barone, B. Mennucci, 
 G. A. Petersson, H. Nakatsuji, M. Caricato, X. Li, H. P. Hratchian, 
 A. F. Izmaylov, J. Bloino, G. Zheng, J. L. Sonnenberg, M. Hada, 
 M. Ehara, K. Toyota, R. Fukuda, J. Hasegawa, M. Ishida, T. Nakajima, 
 Y. Honda, O. Kitao, H. Nakai, T. Vreven, J. A. Montgomery, Jr., 
 J. E. Peralta, F. Ogliaro, M. Bearpark, J. J. Heyd, E. Brothers, 
 K. N. Kudin, V. N. Staroverov, T. Keith, R. Kobayashi, J. Normand, 
 K. Raghavachari, A. Rendell, J. C. Burant, S. S. Iyengar, J. Tomasi, 
 M. Cossi, N. Rega, J. M. Millam, M. Klene, J. E. Knox, J. B. Cross, 
 V. Bakken, C. Adamo, J. Jaramillo, R. Gomperts, R. E. Stratmann, 
 O. Yazyev, A. J. Austin, R. Cammi, C. Pomelli, J. W. Ochterski, 
 R. L. Martin, K. Morokuma, V. G. Zakrzewski, G. A. Voth, 
 P. Salvador, J. J. Dannenberg, S. Dapprich, A. D. Daniels, 
 O. Farkas, J. B. Foresman, J. V. Ortiz, J. Cioslowski, 
 and D. J. Fox, Gaussian, Inc., Wallingford CT, 2013.
 
 ******************************************
 Gaussian 09:  ES64L-G09RevD.01 24-Apr-2013
                28-Jul-2021 
 ******************************************
 %mem=2gb
 %nproc=4
 Will use up to    4 processors via shared memory.
 %chk=conf-628.chk
 ----------------------------------------------------------------------
 # B3LYP/6-31G(d) opt=calcfc freq=noraman nosymm integral(ultrafinegrid
 )
 ----------------------------------------------------------------------
 1/10=4,14=-1,18=20,19=15,26=4,38=1/1,3;
 2/9=110,12=2,15=1,17=6,18=5,40=1/2;
 3/5=1,6=6,7=1,11=2,16=1,25=1,30=1,71=2,74=-5,75=-5,140=1/1,2,3;
 4//1;
 5/5=2,38=5/2;
 8/6=4,10=90,11=11/1;
 11/6=1,8=1,9=11,15=111,16=1,31=1/1,2,10;
 10/6=1,13=1,31=1/2;
 6/7=2,8=2,9=2,10=2,28=1/1;
 7/10=1,18=20,25=1,30=1/1,2,3,16;
 1/10=4,14=-1,18=20,19=15,26=4/3(2);
 2/9=110,15=1/2;
 99//99;
 2/9=110,15=1/2;
 3/5=1,6=6,7=1,11=2,16=1,25=1,30=1,71=1,74=-5,75=-5/1,2,3;
 4/5=5,16=3,69=1/1;
 5/5=2,38=5/2;
 7/30=1/1,2,3,16;
 1/14=-1,18=20,19=15,26=4/3(-5);
 2/9=110,15=1/2;
 6/7=2,8=2,9=2,10=2,19=2,28=1/1;
 99/9=1/99;
 ------------------------------------------------------------
 Candidate Structure: Conf:628 OPT and FREQ calc in gas phase
 ------------------------------------------------------------
 Symbolic Z-matrix:
 Charge =  1 Multiplicity = 1
 O                    -1.23346   0.12207  -0.84287 
 C                    -1.46356  -0.06705   0.34931 
 N                    -0.46101  -0.24379   1.22995 
 C                     0.90694  -0.33709   0.75078 
 C                     1.71594  -0.95986   1.86883 
 O                     3.00756  -1.162     1.5238 
 O                     1.28005  -1.2415    2.95329 
 C                     1.44827   1.05177   0.32468 
 C                     2.3268    0.99156  -0.87917 
 C                     2.2344    1.60899  -2.09359 
 N                     3.28424   1.23058  -2.91301 
 C                     3.98976   0.38949  -2.19678 
 N                     3.44646   0.20531  -0.96361 
 C                    -2.87106  -0.07869   0.92827 
 C                    -3.8502   -0.83512   0.0418 
 N                    -3.94724  -0.19776  -1.29196 
 H                    -0.63042  -0.51316   2.1862 
 H                     0.91497  -1.01819  -0.10778 
 H                     3.43321  -1.56793   2.29421 
 H                     0.60119   1.68663   0.07355 
 H                     1.95518   1.52679   1.16546 
 H                     1.47839   2.30342  -2.43091 
 H                     4.89002  -0.11398  -2.50001 
 H                     3.77118  -0.40044  -0.22689 
 H                    -2.85146  -0.51082   1.9302 
 H                    -3.19337   0.96164   1.02586 
 H                    -3.51778  -1.86885  -0.07297 
 H                    -4.83409  -0.86052   0.51303 
 H                    -4.44019   0.69304  -1.23969 
 H                    -2.9845    0.00017  -1.59919 
 H                    -4.40624  -0.79443  -1.97939 
 

 GradGradGradGradGradGradGradGradGradGradGradGradGradGradGradGradGradGrad
 Berny optimization.
 Initialization pass.
                           ----------------------------
                           !    Initial Parameters    !
                           ! (Angstroms and Degrees)  !
 --------------------------                            --------------------------
 ! Name  Definition              Value          Derivative Info.                !
 --------------------------------------------------------------------------------
 ! R1    R(1,2)                  1.2288         calculate D2E/DX2 analytically  !
 ! R2    R(2,3)                  1.3461         calculate D2E/DX2 analytically  !
 ! R3    R(2,14)                 1.522          calculate D2E/DX2 analytically  !
 ! R4    R(3,4)                  1.4524         calculate D2E/DX2 analytically  !
 ! R5    R(3,17)                 1.0078         calculate D2E/DX2 analytically  !
 ! R6    R(4,5)                  1.514          calculate D2E/DX2 analytically  !
 ! R7    R(4,8)                  1.5503         calculate D2E/DX2 analytically  !
 ! R8    R(4,18)                 1.0959         calculate D2E/DX2 analytically  !
 ! R9    R(5,6)                  1.3521         calculate D2E/DX2 analytically  !
 ! R10   R(5,7)                  1.2022         calculate D2E/DX2 analytically  !
 ! R11   R(6,19)                 0.9693         calculate D2E/DX2 analytically  !
 ! R12   R(8,9)                  1.4915         calculate D2E/DX2 analytically  !
 ! R13   R(8,20)                 1.088          calculate D2E/DX2 analytically  !
 ! R14   R(8,21)                 1.0906         calculate D2E/DX2 analytically  !
 ! R15   R(9,10)                 1.3655         calculate D2E/DX2 analytically  !
 ! R16   R(9,13)                 1.3708         calculate D2E/DX2 analytically  !
 ! R17   R(10,11)                1.3845         calculate D2E/DX2 analytically  !
 ! R18   R(10,22)                1.0805         calculate D2E/DX2 analytically  !
 ! R19   R(11,12)                1.3108         calculate D2E/DX2 analytically  !
 ! R20   R(12,13)                1.3601         calculate D2E/DX2 analytically  !
 ! R21   R(12,23)                1.0751         calculate D2E/DX2 analytically  !
 ! R22   R(13,24)                1.0075         calculate D2E/DX2 analytically  !
 ! R23   R(14,15)                1.5221         calculate D2E/DX2 analytically  !
 ! R24   R(14,25)                1.0913         calculate D2E/DX2 analytically  !
 ! R25   R(14,26)                1.0935         calculate D2E/DX2 analytically  !
 ! R26   R(15,16)                1.4814         calculate D2E/DX2 analytically  !
 ! R27   R(15,27)                1.0919         calculate D2E/DX2 analytically  !
 ! R28   R(15,28)                1.0912         calculate D2E/DX2 analytically  !
 ! R29   R(16,29)                1.0194         calculate D2E/DX2 analytically  !
 ! R30   R(16,30)                1.0298         calculate D2E/DX2 analytically  !
 ! R31   R(16,31)                1.0194         calculate D2E/DX2 analytically  !
 ! A1    A(1,2,3)              121.0287         calculate D2E/DX2 analytically  !
 ! A2    A(1,2,14)             122.9159         calculate D2E/DX2 analytically  !
 ! A3    A(3,2,14)             116.0343         calculate D2E/DX2 analytically  !
 ! A4    A(2,3,4)              119.6091         calculate D2E/DX2 analytically  !
 ! A5    A(2,3,17)             122.0502         calculate D2E/DX2 analytically  !
 ! A6    A(4,3,17)             117.0118         calculate D2E/DX2 analytically  !
 ! A7    A(3,4,5)              106.6215         calculate D2E/DX2 analytically  !
 ! A8    A(3,4,8)              111.2221         calculate D2E/DX2 analytically  !
 ! A9    A(3,4,18)             107.7743         calculate D2E/DX2 analytically  !
 ! A10   A(5,4,8)              112.6361         calculate D2E/DX2 analytically  !
 ! A11   A(5,4,18)             108.6            calculate D2E/DX2 analytically  !
 ! A12   A(8,4,18)             109.8079         calculate D2E/DX2 analytically  !
 ! A13   A(4,5,6)              112.5496         calculate D2E/DX2 analytically  !
 ! A14   A(4,5,7)              124.6622         calculate D2E/DX2 analytically  !
 ! A15   A(6,5,7)              122.786          calculate D2E/DX2 analytically  !
 ! A16   A(5,6,19)             106.2178         calculate D2E/DX2 analytically  !
 ! A17   A(4,8,9)              113.0376         calculate D2E/DX2 analytically  !
 ! A18   A(4,8,20)             108.3203         calculate D2E/DX2 analytically  !
 ! A19   A(4,8,21)             109.9119         calculate D2E/DX2 analytically  !
 ! A20   A(9,8,20)             107.2092         calculate D2E/DX2 analytically  !
 ! A21   A(9,8,21)             111.4708         calculate D2E/DX2 analytically  !
 ! A22   A(20,8,21)            106.5992         calculate D2E/DX2 analytically  !
 ! A23   A(8,9,10)             131.2776         calculate D2E/DX2 analytically  !
 ! A24   A(8,9,13)             123.6415         calculate D2E/DX2 analytically  !
 ! A25   A(10,9,13)            105.0607         calculate D2E/DX2 analytically  !
 ! A26   A(9,10,11)            110.5777         calculate D2E/DX2 analytically  !
 ! A27   A(9,10,22)            127.9938         calculate D2E/DX2 analytically  !
 ! A28   A(11,10,22)           121.4286         calculate D2E/DX2 analytically  !
 ! A29   A(10,11,12)           105.0775         calculate D2E/DX2 analytically  !
 ! A30   A(11,12,13)           111.5502         calculate D2E/DX2 analytically  !
 ! A31   A(11,12,23)           126.6602         calculate D2E/DX2 analytically  !
 ! A32   A(13,12,23)           121.7894         calculate D2E/DX2 analytically  !
 ! A33   A(9,13,12)            107.7261         calculate D2E/DX2 analytically  !
 ! A34   A(9,13,24)            124.2674         calculate D2E/DX2 analytically  !
 ! A35   A(12,13,24)           128.0001         calculate D2E/DX2 analytically  !
 ! A36   A(2,14,15)            112.158          calculate D2E/DX2 analytically  !
 ! A37   A(2,14,25)            109.6131         calculate D2E/DX2 analytically  !
 ! A38   A(2,14,26)            107.4131         calculate D2E/DX2 analytically  !
 ! A39   A(15,14,25)           110.4549         calculate D2E/DX2 analytically  !
 ! A40   A(15,14,26)           109.5831         calculate D2E/DX2 analytically  !
 ! A41   A(25,14,26)           107.4625         calculate D2E/DX2 analytically  !
 ! A42   A(14,15,16)           110.6517         calculate D2E/DX2 analytically  !
 ! A43   A(14,15,27)           109.625          calculate D2E/DX2 analytically  !
 ! A44   A(14,15,28)           109.8824         calculate D2E/DX2 analytically  !
 ! A45   A(16,15,27)           109.4274         calculate D2E/DX2 analytically  !
 ! A46   A(16,15,28)           109.862          calculate D2E/DX2 analytically  !
 ! A47   A(27,15,28)           107.3284         calculate D2E/DX2 analytically  !
 ! A48   A(15,16,29)           111.1897         calculate D2E/DX2 analytically  !
 ! A49   A(15,16,30)           106.8621         calculate D2E/DX2 analytically  !
 ! A50   A(15,16,31)           112.6314         calculate D2E/DX2 analytically  !
 ! A51   A(29,16,30)           107.4223         calculate D2E/DX2 analytically  !
 ! A52   A(29,16,31)           109.1651         calculate D2E/DX2 analytically  !
 ! A53   A(30,16,31)           109.4057         calculate D2E/DX2 analytically  !
 ! D1    D(1,2,3,4)             -5.7833         calculate D2E/DX2 analytically  !
 ! D2    D(1,2,3,17)          -172.2233         calculate D2E/DX2 analytically  !
 ! D3    D(14,2,3,4)           175.8395         calculate D2E/DX2 analytically  !
 ! D4    D(14,2,3,17)            9.3995         calculate D2E/DX2 analytically  !
 ! D5    D(1,2,14,15)           42.5179         calculate D2E/DX2 analytically  !
 ! D6    D(1,2,14,25)          165.59           calculate D2E/DX2 analytically  !
 ! D7    D(1,2,14,26)          -77.9467         calculate D2E/DX2 analytically  !
 ! D8    D(3,2,14,15)         -139.1387         calculate D2E/DX2 analytically  !
 ! D9    D(3,2,14,25)          -16.0665         calculate D2E/DX2 analytically  !
 ! D10   D(3,2,14,26)          100.3967         calculate D2E/DX2 analytically  !
 ! D11   D(2,3,4,5)           -162.3258         calculate D2E/DX2 analytically  !
 ! D12   D(2,3,4,8)             74.5263         calculate D2E/DX2 analytically  !
 ! D13   D(2,3,4,18)           -45.8863         calculate D2E/DX2 analytically  !
 ! D14   D(17,3,4,5)             4.7854         calculate D2E/DX2 analytically  !
 ! D15   D(17,3,4,8)          -118.3625         calculate D2E/DX2 analytically  !
 ! D16   D(17,3,4,18)          121.2248         calculate D2E/DX2 analytically  !
 ! D17   D(3,4,5,6)            177.0537         calculate D2E/DX2 analytically  !
 ! D18   D(3,4,5,7)             -3.4817         calculate D2E/DX2 analytically  !
 ! D19   D(8,4,5,6)            -60.685          calculate D2E/DX2 analytically  !
 ! D20   D(8,4,5,7)            118.7796         calculate D2E/DX2 analytically  !
 ! D21   D(18,4,5,6)            61.1665         calculate D2E/DX2 analytically  !
 ! D22   D(18,4,5,7)          -119.3689         calculate D2E/DX2 analytically  !
 ! D23   D(3,4,8,9)           -142.6518         calculate D2E/DX2 analytically  !
 ! D24   D(3,4,8,20)           -24.0009         calculate D2E/DX2 analytically  !
 ! D25   D(3,4,8,21)            92.103          calculate D2E/DX2 analytically  !
 ! D26   D(5,4,8,9)             97.7181         calculate D2E/DX2 analytically  !
 ! D27   D(5,4,8,20)          -143.631          calculate D2E/DX2 analytically  !
 ! D28   D(5,4,8,21)           -27.5271         calculate D2E/DX2 analytically  !
 ! D29   D(18,4,8,9)           -23.4471         calculate D2E/DX2 analytically  !
 ! D30   D(18,4,8,20)           95.2039         calculate D2E/DX2 analytically  !
 ! D31   D(18,4,8,21)         -148.6922         calculate D2E/DX2 analytically  !
 ! D32   D(4,5,6,19)          -179.4098         calculate D2E/DX2 analytically  !
 ! D33   D(7,5,6,19)             1.114          calculate D2E/DX2 analytically  !
 ! D34   D(4,8,9,10)           122.1202         calculate D2E/DX2 analytically  !
 ! D35   D(4,8,9,13)           -55.9913         calculate D2E/DX2 analytically  !
 ! D36   D(20,8,9,10)            2.8264         calculate D2E/DX2 analytically  !
 ! D37   D(20,8,9,13)         -175.2851         calculate D2E/DX2 analytically  !
 ! D38   D(21,8,9,10)         -113.4811         calculate D2E/DX2 analytically  !
 ! D39   D(21,8,9,13)           68.4074         calculate D2E/DX2 analytically  !
 ! D40   D(8,9,10,11)         -179.1727         calculate D2E/DX2 analytically  !
 ! D41   D(8,9,10,22)            0.8717         calculate D2E/DX2 analytically  !
 ! D42   D(13,9,10,11)          -0.8008         calculate D2E/DX2 analytically  !
 ! D43   D(13,9,10,22)         179.2437         calculate D2E/DX2 analytically  !
 ! D44   D(8,9,13,12)          179.4127         calculate D2E/DX2 analytically  !
 ! D45   D(8,9,13,24)            0.2674         calculate D2E/DX2 analytically  !
 ! D46   D(10,9,13,12)           0.8823         calculate D2E/DX2 analytically  !
 ! D47   D(10,9,13,24)        -178.263          calculate D2E/DX2 analytically  !
 ! D48   D(9,10,11,12)           0.4004         calculate D2E/DX2 analytically  !
 ! D49   D(22,10,11,12)       -179.6406         calculate D2E/DX2 analytically  !
 ! D50   D(10,11,12,13)          0.1804         calculate D2E/DX2 analytically  !
 ! D51   D(10,11,12,23)       -179.6957         calculate D2E/DX2 analytically  !
 ! D52   D(11,12,13,9)          -0.6868         calculate D2E/DX2 analytically  !
 ! D53   D(11,12,13,24)        178.4169         calculate D2E/DX2 analytically  !
 ! D54   D(23,12,13,9)         179.1963         calculate D2E/DX2 analytically  !
 ! D55   D(23,12,13,24)         -1.7            calculate D2E/DX2 analytically  !
 ! D56   D(2,14,15,16)         -61.1453         calculate D2E/DX2 analytically  !
 ! D57   D(2,14,15,27)          59.6366         calculate D2E/DX2 analytically  !
 ! D58   D(2,14,15,28)         177.3607         calculate D2E/DX2 analytically  !
 ! D59   D(25,14,15,16)        176.2583         calculate D2E/DX2 analytically  !
 ! D60   D(25,14,15,27)        -62.9598         calculate D2E/DX2 analytically  !
 ! D61   D(25,14,15,28)         54.7643         calculate D2E/DX2 analytically  !
 ! D62   D(26,14,15,16)         58.0532         calculate D2E/DX2 analytically  !
 ! D63   D(26,14,15,27)        178.835          calculate D2E/DX2 analytically  !
 ! D64   D(26,14,15,28)        -63.4408         calculate D2E/DX2 analytically  !
 ! D65   D(14,15,16,29)        -71.244          calculate D2E/DX2 analytically  !
 ! D66   D(14,15,16,30)         45.6958         calculate D2E/DX2 analytically  !
 ! D67   D(14,15,16,31)        165.8619         calculate D2E/DX2 analytically  !
 ! D68   D(27,15,16,29)        167.8569         calculate D2E/DX2 analytically  !
 ! D69   D(27,15,16,30)        -75.2034         calculate D2E/DX2 analytically  !
 ! D70   D(27,15,16,31)         44.9627         calculate D2E/DX2 analytically  !
 ! D71   D(28,15,16,29)         50.2621         calculate D2E/DX2 analytically  !
 ! D72   D(28,15,16,30)        167.2018         calculate D2E/DX2 analytically  !
 ! D73   D(28,15,16,31)        -72.632          calculate D2E/DX2 analytically  !
 --------------------------------------------------------------------------------
 Trust Radius=3.00D-01 FncErr=1.00D-07 GrdErr=1.00D-06
 Number of steps in this run=    167 maximum allowed number of steps=    186.
 GradGradGradGradGradGradGradGradGradGradGradGradGradGradGradGradGradGrad

                          Input orientation:                          
 ---------------------------------------------------------------------
 Center     Atomic      Atomic             Coordinates (Angstroms)
 Number     Number       Type             X           Y           Z
 ---------------------------------------------------------------------
      1          8           0       -1.233463    0.122074   -0.842866
      2          6           0       -1.463560   -0.067049    0.349309
      3          7           0       -0.461006   -0.243787    1.229948
      4          6           0        0.906943   -0.337087    0.750784
      5          6           0        1.715938   -0.959856    1.868830
      6          8           0        3.007560   -1.161999    1.523802
      7          8           0        1.280047   -1.241497    2.953289
      8          6           0        1.448272    1.051775    0.324677
      9          6           0        2.326805    0.991563   -0.879167
     10          6           0        2.234402    1.608991   -2.093590
     11          7           0        3.284242    1.230580   -2.913009
     12          6           0        3.989758    0.389487   -2.196781
     13          7           0        3.446464    0.205306   -0.963613
     14          6           0       -2.871056   -0.078694    0.928273
     15          6           0       -3.850202   -0.835119    0.041802
     16          7           0       -3.947238   -0.197765   -1.291964
     17          1           0       -0.630415   -0.513162    2.186204
     18          1           0        0.914972   -1.018186   -0.107783
     19          1           0        3.433214   -1.567928    2.294215
     20          1           0        0.601188    1.686628    0.073553
     21          1           0        1.955185    1.526786    1.165459
     22          1           0        1.478392    2.303420   -2.430909
     23          1           0        4.890020   -0.113984   -2.500014
     24          1           0        3.771180   -0.400440   -0.226888
     25          1           0       -2.851456   -0.510823    1.930199
     26          1           0       -3.193370    0.961642    1.025863
     27          1           0       -3.517783   -1.868848   -0.072974
     28          1           0       -4.834088   -0.860524    0.513026
     29          1           0       -4.440189    0.693039   -1.239695
     30          1           0       -2.984500    0.000168   -1.599192
     31          1           0       -4.406235   -0.794427   -1.979392
 ---------------------------------------------------------------------
                    Distance matrix (angstroms):
                    1          2          3          4          5
     1  O    0.000000
     2  C    1.228818   0.000000
     3  N    2.242121   1.346060   0.000000
     4  C    2.707746   2.419378   1.452442   0.000000
     5  C    4.150040   3.635280   2.379077   1.514048   0.000000
     6  O    5.023568   4.750712   3.600057   2.385504   1.352107
     7  O    4.752668   3.960736   2.645108   2.410020   1.202238
     8  C    3.069071   3.119477   2.478576   1.550336   2.550041
     9  C    3.665083   4.122703   3.707606   2.537333   3.425300
    10  C    3.975087   4.738332   4.663038   3.693214   4.750637
    11  N    5.091555   5.904929   5.776221   4.640313   5.488494
    12  C    5.402465   6.035700   5.652681   4.326638   4.849760
    13  N    4.682224   5.089821   4.503523   3.111674   3.517819
    14  C    2.420527   1.521965   2.434462   3.790982   4.764620
    15  C    2.923385   2.525975   3.639782   4.835403   5.859651
    16  N    2.769217   2.979852   4.303019   5.268330   6.530158
    17  H    3.153167   2.065752   1.007813   2.110665   2.409489
    18  H    2.540927   2.602117   2.069428   1.095946   2.133529
    19  H    5.871563   5.478476   4.248642   3.206118   1.870759
    20  H    2.579457   2.722978   2.488375   2.155818   3.386674
    21  H    4.021699   3.859304   2.996175   2.178253   2.595256
    22  H    3.825481   4.690822   4.863271   4.173967   5.403068
    23  H    6.348141   6.963392   6.524028   5.146102   5.465994
    24  H    5.069408   5.276898   4.478650   3.027161   2.988143
    25  H    3.272362   2.149978   2.505177   3.942939   4.589824
    26  H    2.835183   2.123245   2.993413   4.309864   5.338918
    27  H    3.126439   2.764893   3.698961   4.754268   5.655855
    28  H    3.970950   3.466535   4.474169   5.769745   6.689612
    29  H    3.281245   3.458754   4.776053   5.797843   7.091748
    30  H    1.911288   2.472737   3.798891   4.558449   5.919708
    31  H    3.492585   3.822468   5.115457   5.991067   7.233062
                    6          7          8          9         10
     6  O    0.000000
     7  O    2.243669   0.000000
     8  C    2.961431   3.492421   0.000000
     9  C    3.297805   4.557410   1.491538   0.000000
    10  C    4.621871   5.874272   2.603172   1.365496   0.000000
    11  N    5.048394   6.673936   3.726307   2.260603   1.384487
    12  C    4.149044   6.043663   3.640814   2.205451   2.139886
    13  N    2.872176   4.704118   2.523682   1.370754   2.171699
    14  C    6.007190   4.762821   4.505428   5.606250   6.168115
    15  C    7.023680   5.912813   5.631537   6.506947   6.896085
    16  N    7.564886   6.814401   5.769437   6.399102   6.489965
    17  H    3.754281   2.183749   3.199258   4.517283   5.570220
    18  H    2.657382   3.090843   2.180863   2.574372   3.547730
    19  H    0.969276   2.275316   3.831699   4.224392   5.548225
    20  H    4.001065   4.162649   1.087958   2.090106   2.714761
    21  H    2.909548   3.363858   1.090647   2.145941   3.272021
    22  H    5.476059   6.449447   3.026677   2.201971   1.080540
    23  H    4.564328   6.636392   4.602554   3.227917   3.191572
    24  H    2.056211   4.126336   2.794468   2.109350   3.143895
    25  H    5.909082   4.318555   4.848409   6.079809   6.822789
    26  H    6.573380   5.346051   4.695170   5.839723   6.293708
    27  H    6.754955   5.707102   5.774934   6.556760   7.018966
    28  H    7.912269   6.594140   6.569658   7.526407   7.928209
    29  H    8.157637   7.351507   6.103271   6.783163   6.791044
    30  H    6.856275   6.360282   4.945362   5.450803   5.483582
    31  H    8.208035   7.540890   6.556862   7.052239   7.063110
                   11         12         13         14         15
    11  N    0.000000
    12  C    1.310791   0.000000
    13  N    2.208539   1.360071   0.000000
    14  C    7.372743   7.553537   6.600829   0.000000
    15  C    7.993642   8.244749   7.438728   1.522083   0.000000
    16  N    7.547334   8.009960   7.411957   2.470182   1.481407
    17  H    6.660867   6.432055   5.201778   2.606074   3.881899
    18  H    4.305773   3.974891   2.939018   4.036095   4.771035
    19  H    5.913461   4.930543   3.709175   6.620229   7.658885
    20  H    4.040583   4.280117   3.371294   3.987905   5.116160
    21  H    4.299771   4.091160   2.916020   5.091800   6.367395
    22  H    2.155110   3.166214   3.229295   5.989680   6.660228
    23  H    2.134699   1.075130   2.132212   8.484615   9.130846
    24  H    3.180028   2.133598   1.007538   6.749608   7.638495
    25  H    8.008491   8.040194   6.967839   1.091319   2.160719
    26  H    7.585940   7.893676   6.972622   1.093485   2.151315
    27  H    7.996236   8.122425   7.320934   2.150675   1.091912
    28  H    9.056363   9.314818   8.478443   2.153412   1.091205
    29  H    7.921853   8.489532   7.906541   2.785289   2.079804
    30  H    6.522051   7.010631   6.465550   2.531239   2.034701
    31  H    8.007230   8.481840   7.980987   3.365050   2.096677
                   16         17         18         19         20
    16  N    0.000000
    17  H    4.816476   0.000000
    18  H    5.071140   2.811699   0.000000
    19  H    8.319200   4.199676   3.523259   0.000000
    20  H    5.109184   3.289258   2.728985   4.852200   0.000000
    21  H    6.622054   3.447990   3.029863   3.610528   1.746744
    22  H    6.081988   5.804992   4.092361   6.413693   2.724381
    23  H    8.919839   7.252254   4.726664   5.217362   5.315969
    24  H    7.794192   5.020932   2.924674   2.798787   3.807225
    25  H    3.417760   2.235747   4.312397   6.383341   4.494071
    26  H    2.699049   3.176503   4.699292   7.205488   3.978840
    27  H    2.112555   3.908793   4.513774   7.349183   5.443235
    28  H    2.117485   4.537736   5.784631   8.486539   6.018584
    29  H    1.019443   5.263656   5.734742   8.921377   5.303520
    30  H    1.029773   4.487142   4.297351   7.668415   4.301091
    31  H    1.019432   5.629220   5.645196   8.962086   5.953529
                   21         22         23         24         25
    21  H    0.000000
    22  H    3.710034   0.000000
    23  H    4.974040   4.181844   0.000000
    24  H    2.991767   4.174379   2.549698   0.000000
    25  H    5.276407   6.759202   8.928309   6.965953   0.000000
    26  H    5.181360   5.964478   8.884254   7.206220   1.761501
    27  H    6.558767   6.923109   8.925313   7.436994   2.510164
    28  H    7.226282   7.650144  10.207546   8.649265   2.462012
    29  H    6.883364   6.248353   9.449470   8.345540   3.744541
    30  H    5.862964   5.090592   7.926700   6.905281   3.568672
    31  H    7.466310   6.665535   9.335652   8.372372   4.216951
                   26         27         28         29         30
    26  H    0.000000
    27  H    3.053582   0.000000
    28  H    2.505045   1.758628   0.000000
    29  H    2.599896   2.962319   2.375024   0.000000
    30  H    2.803386   2.471225   2.936534   1.651768   0.000000
    31  H    3.685971   2.361813   2.529738   1.661583   1.672503
                   31
    31  H    0.000000
 Symmetry turned off by external request.
 Stoichiometry    C9H15N4O3(1+)
 Framework group  C1[X(C9H15N4O3)]
 Deg. of freedom    87
 Full point group                 C1      NOp   1
 Rotational constants (GHZ):      0.7088180      0.3127596      0.2291588
 Standard basis: 6-31G(d) (6D, 7F)
   270 basis functions,   508 primitive gaussians,   270 cartesian basis functions
    60 alpha electrons       60 beta electrons
       nuclear repulsion energy      1138.6918025008 Hartrees.
 NAtoms=   31 NActive=   31 NUniq=   31 SFac= 1.00D+00 NAtFMM=   60 NAOKFM=F Big=F
 Integral buffers will be    131072 words long.
 Raffenetti 2 integral format.
 Two-electron integral symmetry is turned off.
 One-electron integrals computed using PRISM.
 NBasis=   270 RedAO= T EigKep=  1.22D-03  NBF=   270
 NBsUse=   270 1.00D-06 EigRej= -1.00D+00 NBFU=   270
 ExpMin= 1.61D-01 ExpMax= 5.48D+03 ExpMxC= 8.25D+02 IAcc=3 IRadAn=         5 AccDes= 0.00D+00
 Harris functional with IExCor=  402 and IRadAn=       5 diagonalized for initial guess.
 HarFok:  IExCor=  402 AccDes= 0.00D+00 IRadAn=         5 IDoV= 1 UseB2=F ITyADJ=14
 ICtDFT=  3500011 ScaDFX=  1.000000  1.000000  1.000000  1.000000
 FoFCou: FMM=F IPFlag=           0 FMFlag=      100000 FMFlg1=           0
         NFxFlg=           0 DoJE=T BraDBF=F KetDBF=T FulRan=T
         wScrn=  0.000000 ICntrl=     500 IOpCl=  0 I1Cent=   200000004 NGrid=           0
         NMat0=    1 NMatS0=      1 NMatT0=    0 NMatD0=    1 NMtDS0=    0 NMtDT0=    0
 Symmetry not used in FoFCou.
 Requested convergence on RMS density matrix=1.00D-08 within 128 cycles.
 Requested convergence on MAX density matrix=1.00D-06.
 Requested convergence on             energy=1.00D-06.
 No special actions if energy rises.
 Integral accuracy reduced to 1.0D-05 until final iterations.
 Initial convergence to 1.0D-05 achieved.  Increase integral accuracy.
 SCF Done:  E(RB3LYP) =  -796.460680814     A.U. after   14 cycles
            NFock= 14  Conv=0.64D-08     -V/T= 2.0088
 DoSCS=F DFT=T ScalE2(SS,OS)=  1.000000  1.000000
 Range of M.O.s used for correlation:     1   270
 NBasis=   270 NAE=    60 NBE=    60 NFC=     0 NFV=     0
 NROrb=    270 NOA=    60 NOB=    60 NVA=   210 NVB=   210
 Symmetrizing basis deriv contribution to polar:
 IMax=3 JMax=2 DiffMx= 0.00D+00
 G2DrvN: will do    32 centers at a time, making    1 passes.
 Calling FoFCou, ICntrl=  3107 FMM=F I1Cent=   0 AccDes= 0.00D+00.
 End of G2Drv F.D. properties file   721 does not exist.
 End of G2Drv F.D. properties file   722 does not exist.
 End of G2Drv F.D. properties file   788 does not exist.
          IDoAtm=1111111111111111111111111111111
          Differentiating once with respect to nuclear coordinates.
          There are    96 degrees of freedom in the 1st order CPHF.  IDoFFX=6 NUNeed=     0.
     90 vectors produced by pass  0 Test12= 1.31D-14 1.04D-09 XBig12= 1.48D-01 9.24D-02.
 AX will form    90 AO Fock derivatives at one time.
     90 vectors produced by pass  1 Test12= 1.31D-14 1.04D-09 XBig12= 1.91D-02 4.75D-02.
     90 vectors produced by pass  2 Test12= 1.31D-14 1.04D-09 XBig12= 1.51D-04 2.30D-03.
     90 vectors produced by pass  3 Test12= 1.31D-14 1.04D-09 XBig12= 5.56D-07 1.33D-04.
     90 vectors produced by pass  4 Test12= 1.31D-14 1.04D-09 XBig12= 7.13D-10 4.56D-06.
     70 vectors produced by pass  5 Test12= 1.31D-14 1.04D-09 XBig12= 6.31D-13 1.20D-07.
     10 vectors produced by pass  6 Test12= 1.31D-14 1.04D-09 XBig12= 5.46D-16 2.36D-09.
 InvSVY:  IOpt=1 It=  1 EMax= 3.91D-16
 Solved reduced A of dimension   530 with    96 vectors.
 End of Minotr F.D. properties file   721 does not exist.
 End of Minotr F.D. properties file   722 does not exist.
 End of Minotr F.D. properties file   788 does not exist.

 **********************************************************************

            Population analysis using the SCF density.

 **********************************************************************

 Alpha  occ. eigenvalues --  -19.32974 -19.28060 -19.27562 -14.64083 -14.50856
 Alpha  occ. eigenvalues --  -14.45755 -14.37722 -10.45442 -10.44829 -10.43358
 Alpha  occ. eigenvalues --  -10.37733 -10.36965 -10.30953 -10.30522 -10.29321
 Alpha  occ. eigenvalues --  -10.26658  -1.24318  -1.20858  -1.19041  -1.15544
 Alpha  occ. eigenvalues --   -1.08689  -1.07664  -0.97165  -0.94113  -0.91425
 Alpha  occ. eigenvalues --   -0.85583  -0.83447  -0.78200  -0.77851  -0.77454
 Alpha  occ. eigenvalues --   -0.75081  -0.72573  -0.69487  -0.68790  -0.66987
 Alpha  occ. eigenvalues --   -0.66256  -0.63972  -0.62112  -0.61464  -0.61229
 Alpha  occ. eigenvalues --   -0.59987  -0.58799  -0.57895  -0.56689  -0.55653
 Alpha  occ. eigenvalues --   -0.54857  -0.54039  -0.51782  -0.50716  -0.49509
 Alpha  occ. eigenvalues --   -0.48692  -0.48483  -0.47573  -0.45311  -0.42335
 Alpha  occ. eigenvalues --   -0.41027  -0.40828  -0.34760  -0.33128  -0.29817
 Alpha virt. eigenvalues --   -0.14674  -0.13195  -0.11914  -0.08974  -0.06348
 Alpha virt. eigenvalues --   -0.05140  -0.04448  -0.03841  -0.03020  -0.02380
 Alpha virt. eigenvalues --   -0.01640  -0.00139   0.00471   0.00895   0.01747
 Alpha virt. eigenvalues --    0.03167   0.04481   0.04915   0.05750   0.07809
 Alpha virt. eigenvalues --    0.08647   0.09575   0.10477   0.11482   0.13990
 Alpha virt. eigenvalues --    0.15384   0.16620   0.17898   0.20469   0.22004
 Alpha virt. eigenvalues --    0.23791   0.26211   0.26711   0.31507   0.32236
 Alpha virt. eigenvalues --    0.33007   0.35838   0.36555   0.39015   0.40674
 Alpha virt. eigenvalues --    0.41355   0.42209   0.43478   0.43974   0.45453
 Alpha virt. eigenvalues --    0.46489   0.48491   0.49050   0.49618   0.51030
 Alpha virt. eigenvalues --    0.52245   0.52743   0.53524   0.55560   0.56214
 Alpha virt. eigenvalues --    0.57029   0.57511   0.59985   0.60670   0.61857
 Alpha virt. eigenvalues --    0.62086   0.62887   0.63667   0.64211   0.65310
 Alpha virt. eigenvalues --    0.66478   0.67985   0.68769   0.69422   0.70118
 Alpha virt. eigenvalues --    0.71315   0.72498   0.73319   0.73856   0.74843
 Alpha virt. eigenvalues --    0.75820   0.76253   0.76292   0.77568   0.77971
 Alpha virt. eigenvalues --    0.79164   0.80196   0.80686   0.82685   0.83035
 Alpha virt. eigenvalues --    0.83579   0.85200   0.86598   0.87551   0.89557
 Alpha virt. eigenvalues --    0.92542   0.93717   0.94963   0.96088   1.00900
 Alpha virt. eigenvalues --    1.04751   1.05407   1.07218   1.10049   1.11210
 Alpha virt. eigenvalues --    1.13893   1.17133   1.18156   1.21348   1.23486
 Alpha virt. eigenvalues --    1.24720   1.25343   1.26769   1.28383   1.28901
 Alpha virt. eigenvalues --    1.29453   1.35837   1.38038   1.39145   1.40274
 Alpha virt. eigenvalues --    1.41459   1.44430   1.45822   1.47118   1.48331
 Alpha virt. eigenvalues --    1.49373   1.52533   1.55931   1.56238   1.58255
 Alpha virt. eigenvalues --    1.62355   1.62833   1.64327   1.65199   1.66884
 Alpha virt. eigenvalues --    1.68046   1.68643   1.69608   1.70860   1.72771
 Alpha virt. eigenvalues --    1.75846   1.76998   1.78738   1.80165   1.80492
 Alpha virt. eigenvalues --    1.81235   1.81891   1.84966   1.85928   1.86844
 Alpha virt. eigenvalues --    1.89839   1.92120   1.94751   1.95926   1.99856
 Alpha virt. eigenvalues --    2.02776   2.04350   2.05187   2.07751   2.09644
 Alpha virt. eigenvalues --    2.13690   2.13930   2.14907   2.16930   2.17289
 Alpha virt. eigenvalues --    2.18688   2.22775   2.23976   2.25476   2.27734
 Alpha virt. eigenvalues --    2.28768   2.30313   2.31651   2.33741   2.34452
 Alpha virt. eigenvalues --    2.37301   2.39262   2.42911   2.44792   2.48314
 Alpha virt. eigenvalues --    2.49554   2.51769   2.53022   2.53373   2.56591
 Alpha virt. eigenvalues --    2.61004   2.62561   2.66296   2.68380   2.71524
 Alpha virt. eigenvalues --    2.76632   2.80018   2.86210   2.87987   2.93362
 Alpha virt. eigenvalues --    2.97062   2.98008   3.06197   3.07131   3.59174
 Alpha virt. eigenvalues --    3.76507   3.85546   3.90394   3.94377   3.98570
 Alpha virt. eigenvalues --    4.02657   4.04356   4.09188   4.16529   4.19510
 Alpha virt. eigenvalues --    4.23678   4.31273   4.39396   4.51239   4.51935
          Condensed to atoms (all electrons):
               1          2          3          4          5          6
     1  O    8.138690   0.502077  -0.096889   0.004653   0.000550   0.000000
     2  C    0.502077   4.335116   0.327003  -0.027127   0.005685  -0.000044
     3  N   -0.096889   0.327003   7.125003   0.196354  -0.024111   0.001965
     4  C    0.004653  -0.027127   0.196354   5.214842   0.294081  -0.094973
     5  C    0.000550   0.005685  -0.024111   0.294081   4.340681   0.277748
     6  O    0.000000  -0.000044   0.001965  -0.094973   0.277748   8.227926
     7  O   -0.000006   0.000758  -0.013158  -0.081759   0.576973  -0.083506
     8  C   -0.002699  -0.003427  -0.042698   0.294219  -0.021772   0.005942
     9  C   -0.000543  -0.000063   0.003437  -0.035866  -0.001769  -0.001324
    10  C    0.000114   0.000019  -0.000113  -0.000593   0.000071   0.000029
    11  N    0.000000   0.000001   0.000000  -0.000090  -0.000002  -0.000006
    12  C    0.000000   0.000000   0.000000   0.000275  -0.000031   0.000165
    13  N    0.000002   0.000004   0.000141  -0.000589  -0.001017  -0.011508
    14  C   -0.083119   0.317760  -0.101088   0.006880  -0.000158   0.000000
    15  C    0.003189  -0.027861  -0.000038  -0.000154   0.000003   0.000000
    16  N   -0.035135  -0.002312  -0.000171   0.000013   0.000000   0.000000
    17  H    0.002440  -0.016470   0.282653  -0.035350  -0.005875   0.000751
    18  H    0.007250  -0.001897  -0.047879   0.374374  -0.029721   0.001493
    19  H    0.000000   0.000003  -0.000158   0.009519  -0.005588   0.226371
    20  H    0.004419   0.004169  -0.011145  -0.032757   0.002376   0.000087
    21  H    0.000135   0.000242   0.002450  -0.056132  -0.002014   0.000512
    22  H    0.000061  -0.000003   0.000002   0.000006  -0.000001   0.000000
    23  H    0.000000   0.000000   0.000000  -0.000001   0.000001  -0.000008
    24  H    0.000000  -0.000001  -0.000024  -0.000600   0.001083   0.025230
    25  H    0.002481  -0.025284   0.004581   0.000126  -0.000056   0.000000
    26  H    0.000693  -0.029297  -0.001102  -0.000079  -0.000002   0.000000
    27  H    0.000730  -0.003204   0.000567  -0.000020  -0.000001   0.000000
    28  H    0.000006   0.003315  -0.000094   0.000002   0.000000   0.000000
    29  H    0.000930  -0.000207   0.000010  -0.000001   0.000000   0.000000
    30  H    0.084342   0.001900   0.001672  -0.000048  -0.000001   0.000000
    31  H    0.000703   0.000074   0.000009   0.000000   0.000000   0.000000
               7          8          9         10         11         12
     1  O   -0.000006  -0.002699  -0.000543   0.000114   0.000000   0.000000
     2  C    0.000758  -0.003427  -0.000063   0.000019   0.000001   0.000000
     3  N   -0.013158  -0.042698   0.003437  -0.000113   0.000000   0.000000
     4  C   -0.081759   0.294219  -0.035866  -0.000593  -0.000090   0.000275
     5  C    0.576973  -0.021772  -0.001769   0.000071  -0.000002  -0.000031
     6  O   -0.083506   0.005942  -0.001324   0.000029  -0.000006   0.000165
     7  O    8.000584  -0.000863   0.000134   0.000001   0.000000   0.000000
     8  C   -0.000863   5.243837   0.330330  -0.054586   0.007087   0.006052
     9  C    0.000134   0.330330   4.718718   0.567383  -0.043039  -0.092739
    10  C    0.000001  -0.054586   0.567383   4.933369   0.425260  -0.117363
    11  N    0.000000   0.007087  -0.043039   0.425260   6.653118   0.536843
    12  C    0.000000   0.006052  -0.092739  -0.117363   0.536843   4.728341
    13  N   -0.000025  -0.073837   0.360756  -0.073117  -0.084332   0.354967
    14  C   -0.000054  -0.000386  -0.000007   0.000000   0.000000   0.000000
    15  C    0.000000  -0.000008   0.000000   0.000000   0.000000   0.000000
    16  N    0.000000  -0.000001   0.000000   0.000000   0.000000   0.000000
    17  H    0.034773   0.003198  -0.000102   0.000001   0.000000   0.000000
    18  H    0.001062  -0.047425   0.008121   0.001672  -0.000145  -0.000212
    19  H    0.008999  -0.000252  -0.000058  -0.000002   0.000000  -0.000001
    20  H   -0.000094   0.373062  -0.028704  -0.002835   0.000037  -0.000048
    21  H    0.000319   0.358046  -0.024236   0.000390  -0.000132   0.000190
    22  H    0.000000  -0.001926  -0.061548   0.381690  -0.042582   0.007711
    23  H    0.000000  -0.000192   0.002912   0.007605  -0.037558   0.383307
    24  H    0.000158  -0.003055  -0.025761   0.008591   0.004495  -0.020071
    25  H   -0.000033   0.000005   0.000000   0.000000   0.000000   0.000000
    26  H    0.000000   0.000063  -0.000001   0.000000   0.000000   0.000000
    27  H    0.000000   0.000001   0.000000   0.000000   0.000000   0.000000
    28  H    0.000000   0.000000   0.000000   0.000000   0.000000   0.000000
    29  H    0.000000   0.000000   0.000000   0.000000   0.000000   0.000000
    30  H    0.000000   0.000009   0.000001   0.000000   0.000000   0.000000
    31  H    0.000000   0.000000   0.000000   0.000000   0.000000   0.000000
              13         14         15         16         17         18
     1  O    0.000002  -0.083119   0.003189  -0.035135   0.002440   0.007250
     2  C    0.000004   0.317760  -0.027861  -0.002312  -0.016470  -0.001897
     3  N    0.000141  -0.101088  -0.000038  -0.000171   0.282653  -0.047879
     4  C   -0.000589   0.006880  -0.000154   0.000013  -0.035350   0.374374
     5  C   -0.001017  -0.000158   0.000003   0.000000  -0.005875  -0.029721
     6  O   -0.011508   0.000000   0.000000   0.000000   0.000751   0.001493
     7  O   -0.000025  -0.000054   0.000000   0.000000   0.034773   0.001062
     8  C   -0.073837  -0.000386  -0.000008  -0.000001   0.003198  -0.047425
     9  C    0.360756  -0.000007   0.000000   0.000000  -0.000102   0.008121
    10  C   -0.073117   0.000000   0.000000   0.000000   0.000001   0.001672
    11  N   -0.084332   0.000000   0.000000   0.000000   0.000000  -0.000145
    12  C    0.354967   0.000000   0.000000   0.000000   0.000000  -0.000212
    13  N    6.911433   0.000000   0.000000   0.000000   0.000000   0.000875
    14  C    0.000000   5.330339   0.324695  -0.041824  -0.001063   0.000359
    15  C    0.000000   0.324695   5.065051   0.210168   0.000003   0.000077
    16  N    0.000000  -0.041824   0.210168   6.839876   0.000015  -0.000002
    17  H    0.000000  -0.001063   0.000003   0.000015   0.361998   0.003556
    18  H    0.000875   0.000359   0.000077  -0.000002   0.003556   0.505660
    19  H    0.000374   0.000000   0.000000   0.000000  -0.000081  -0.000306
    20  H    0.003668  -0.000118   0.000002   0.000001  -0.000016  -0.000963
    21  H   -0.001795   0.000025   0.000000   0.000000   0.000028   0.004941
    22  H    0.004936   0.000000   0.000000   0.000000   0.000000   0.000014
    23  H   -0.057934   0.000000   0.000000   0.000000   0.000000   0.000003
    24  H    0.283072   0.000000   0.000000   0.000000  -0.000004   0.000329
    25  H    0.000000   0.361842  -0.028000   0.003226   0.003014  -0.000027
    26  H    0.000000   0.367350  -0.041111  -0.003464   0.000035  -0.000026
    27  H    0.000000  -0.033458   0.382711  -0.032978   0.000000  -0.000015
    28  H    0.000000  -0.032912   0.390271  -0.033885  -0.000004   0.000000
    29  H    0.000000  -0.000431  -0.021470   0.301831   0.000000   0.000000
    30  H    0.000000  -0.016461  -0.020527   0.216579  -0.000052  -0.000009
    31  H    0.000000   0.003642  -0.020066   0.303427   0.000000   0.000000
              19         20         21         22         23         24
     1  O    0.000000   0.004419   0.000135   0.000061   0.000000   0.000000
     2  C    0.000003   0.004169   0.000242  -0.000003   0.000000  -0.000001
     3  N   -0.000158  -0.011145   0.002450   0.000002   0.000000  -0.000024
     4  C    0.009519  -0.032757  -0.056132   0.000006  -0.000001  -0.000600
     5  C   -0.005588   0.002376  -0.002014  -0.000001   0.000001   0.001083
     6  O    0.226371   0.000087   0.000512   0.000000  -0.000008   0.025230
     7  O    0.008999  -0.000094   0.000319   0.000000   0.000000   0.000158
     8  C   -0.000252   0.373062   0.358046  -0.001926  -0.000192  -0.003055
     9  C   -0.000058  -0.028704  -0.024236  -0.061548   0.002912  -0.025761
    10  C   -0.000002  -0.002835   0.000390   0.381690   0.007605   0.008591
    11  N    0.000000   0.000037  -0.000132  -0.042582  -0.037558   0.004495
    12  C   -0.000001  -0.000048   0.000190   0.007711   0.383307  -0.020071
    13  N    0.000374   0.003668  -0.001795   0.004936  -0.057934   0.283072
    14  C    0.000000  -0.000118   0.000025   0.000000   0.000000   0.000000
    15  C    0.000000   0.000002   0.000000   0.000000   0.000000   0.000000
    16  N    0.000000   0.000001   0.000000   0.000000   0.000000   0.000000
    17  H   -0.000081  -0.000016   0.000028   0.000000   0.000000  -0.000004
    18  H   -0.000306  -0.000963   0.004941   0.000014   0.000003   0.000329
    19  H    0.319601   0.000009  -0.000157   0.000000   0.000001  -0.000407
    20  H    0.000009   0.526133  -0.028972   0.003266   0.000004  -0.000057
    21  H   -0.000157  -0.028972   0.562356  -0.000025  -0.000001   0.000584
    22  H    0.000000   0.003266  -0.000025   0.577930  -0.000147  -0.000107
    23  H    0.000001   0.000004  -0.000001  -0.000147   0.533197   0.000489
    24  H   -0.000407  -0.000057   0.000584  -0.000107   0.000489   0.370234
    25  H    0.000000  -0.000001  -0.000001   0.000000   0.000000   0.000000
    26  H    0.000000   0.000050  -0.000005   0.000000   0.000000   0.000000
    27  H    0.000000   0.000000   0.000000   0.000000   0.000000   0.000000
    28  H    0.000000   0.000000   0.000000   0.000000   0.000000   0.000000
    29  H    0.000000   0.000000   0.000000   0.000000   0.000000   0.000000
    30  H    0.000000  -0.000003   0.000000   0.000001   0.000000   0.000000
    31  H    0.000000   0.000000   0.000000   0.000000   0.000000   0.000000
              25         26         27         28         29         30
     1  O    0.002481   0.000693   0.000730   0.000006   0.000930   0.084342
     2  C   -0.025284  -0.029297  -0.003204   0.003315  -0.000207   0.001900
     3  N    0.004581  -0.001102   0.000567  -0.000094   0.000010   0.001672
     4  C    0.000126  -0.000079  -0.000020   0.000002  -0.000001  -0.000048
     5  C   -0.000056  -0.000002  -0.000001   0.000000   0.000000  -0.000001
     6  O    0.000000   0.000000   0.000000   0.000000   0.000000   0.000000
     7  O   -0.000033   0.000000   0.000000   0.000000   0.000000   0.000000
     8  C    0.000005   0.000063   0.000001   0.000000   0.000000   0.000009
     9  C    0.000000  -0.000001   0.000000   0.000000   0.000000   0.000001
    10  C    0.000000   0.000000   0.000000   0.000000   0.000000   0.000000
    11  N    0.000000   0.000000   0.000000   0.000000   0.000000   0.000000
    12  C    0.000000   0.000000   0.000000   0.000000   0.000000   0.000000
    13  N    0.000000   0.000000   0.000000   0.000000   0.000000   0.000000
    14  C    0.361842   0.367350  -0.033458  -0.032912  -0.000431  -0.016461
    15  C   -0.028000  -0.041111   0.382711   0.390271  -0.021470  -0.020527
    16  N    0.003226  -0.003464  -0.032978  -0.033885   0.301831   0.216579
    17  H    0.003014   0.000035   0.000000  -0.000004   0.000000  -0.000052
    18  H   -0.000027  -0.000026  -0.000015   0.000000   0.000000  -0.000009
    19  H    0.000000   0.000000   0.000000   0.000000   0.000000   0.000000
    20  H   -0.000001   0.000050   0.000000   0.000000   0.000000  -0.000003
    21  H   -0.000001  -0.000005   0.000000   0.000000   0.000000   0.000000
    22  H    0.000000   0.000000   0.000000   0.000000   0.000000   0.000001
    23  H    0.000000   0.000000   0.000000   0.000000   0.000000   0.000000
    24  H    0.000000   0.000000   0.000000   0.000000   0.000000   0.000000
    25  H    0.483910  -0.017386  -0.000998  -0.002920  -0.000034   0.000274
    26  H   -0.017386   0.505433   0.004313  -0.003229   0.003664   0.000728
    27  H   -0.000998   0.004313   0.468824  -0.025441   0.003604  -0.000372
    28  H   -0.002920  -0.003229  -0.025441   0.471049  -0.003995   0.002783
    29  H   -0.000034   0.003664   0.003604  -0.003995   0.314661  -0.007528
    30  H    0.000274   0.000728  -0.000372   0.002783  -0.007528   0.301629
    31  H   -0.000072   0.000008  -0.002783  -0.001176  -0.012695  -0.005378
              31
     1  O    0.000703
     2  C    0.000074
     3  N    0.000009
     4  C    0.000000
     5  C    0.000000
     6  O    0.000000
     7  O    0.000000
     8  C    0.000000
     9  C    0.000000
    10  C    0.000000
    11  N    0.000000
    12  C    0.000000
    13  N    0.000000
    14  C    0.003642
    15  C   -0.020066
    16  N    0.303427
    17  H    0.000000
    18  H    0.000000
    19  H    0.000000
    20  H    0.000000
    21  H    0.000000
    22  H    0.000000
    23  H    0.000000
    24  H    0.000000
    25  H   -0.000072
    26  H    0.000008
    27  H   -0.002783
    28  H   -0.001176
    29  H   -0.012695
    30  H   -0.005378
    31  H    0.304468
 Mulliken charges:
               1
     1  O   -0.535074
     2  C    0.639073
     3  N   -0.607179
     4  C   -0.029207
     5  C    0.592866
     6  O   -0.576851
     7  O   -0.444261
     8  C   -0.368724
     9  C    0.323969
    10  C   -0.077585
    11  N   -0.418956
    12  C    0.212614
    13  N   -0.616074
    14  C   -0.401814
    15  C   -0.216935
    16  N   -0.725362
    17  H    0.366550
    18  H    0.218839
    19  H    0.442135
    20  H    0.188429
    21  H    0.183253
    22  H    0.130723
    23  H    0.168320
    24  H    0.355826
    25  H    0.215352
    26  H    0.213365
    27  H    0.238519
    28  H    0.236231
    29  H    0.421660
    30  H    0.440462
    31  H    0.429839
 Sum of Mulliken charges =   1.00000
 Mulliken charges with hydrogens summed into heavy atoms:
               1
     1  O   -0.535074
     2  C    0.639073
     3  N   -0.240629
     4  C    0.189632
     5  C    0.592866
     6  O   -0.134717
     7  O   -0.444261
     8  C    0.002958
     9  C    0.323969
    10  C    0.053138
    11  N   -0.418956
    12  C    0.380934
    13  N   -0.260249
    14  C    0.026904
    15  C    0.257814
    16  N    0.566599
 APT charges:
               1
     1  O   -0.569169
     2  C    0.416854
     3  N   -0.792927
     4  C   -0.298602
     5  C   -0.337162
     6  O   -0.832222
     7  O    0.248525
     8  C   -0.933244
     9  C   -0.429987
    10  C   -0.304483
    11  N    0.084935
    12  C   -0.466243
    13  N   -0.689457
    14  C   -0.818013
    15  C   -1.067537
    16  N   -1.314482
    17  H    0.681304
    18  H    0.323330
    19  H    1.071061
    20  H    0.291788
    21  H    0.550140
    22  H    0.384905
    23  H    1.007173
    24  H    0.531778
    25  H    0.483309
    26  H    0.481138
    27  H    0.344169
    28  H    0.920833
    29  H    0.850928
    30  H    0.126020
    31  H    1.055339
 Sum of APT charges =   1.00000
 APT charges with hydrogens summed into heavy atoms:
               1
     1  O   -0.569169
     2  C    0.416854
     3  N   -0.111623
     4  C    0.024728
     5  C   -0.337162
     6  O    0.238838
     7  O    0.248525
     8  C   -0.091315
     9  C   -0.429987
    10  C    0.080423
    11  N    0.084935
    12  C    0.540930
    13  N   -0.157679
    14  C    0.146434
    15  C    0.197465
    16  N    0.717805
 Electronic spatial extent (au):  <R**2>=           4692.6971
 Charge=              1.0000 electrons
 Dipole moment (field-independent basis, Debye):
    X=            -14.2642    Y=             -3.6575    Z=              1.8976  Tot=             14.8474
 Quadrupole moment (field-independent basis, Debye-Ang):
   XX=             -4.8744   YY=            -86.2684   ZZ=            -92.9709
   XY=             -6.9973   XZ=             28.0208   YZ=              4.7466
 Traceless Quadrupole moment (field-independent basis, Debye-Ang):
   XX=             56.4968   YY=            -24.8972   ZZ=            -31.5997
   XY=             -6.9973   XZ=             28.0208   YZ=              4.7466
 Octapole moment (field-independent basis, Debye-Ang**2):
  XXX=           -366.5701  YYY=            -17.0675  ZZZ=             45.4041  XYY=            -64.8895
  XXY=            -71.1887  XXZ=            -15.0560  XZZ=           -110.7600  YZZ=            -23.0195
  YYZ=             13.3980  XYZ=              7.8142
 Hexadecapole moment (field-independent basis, Debye-Ang**3):
 XXXX=          -2281.5441 YYYY=           -494.6866 ZZZZ=          -1637.3529 XXXY=           -322.5534
 XXXZ=            665.5655 YYYX=           -213.7210 YYYZ=            270.2998 ZZZX=            440.0961
 ZZZY=            354.2006 XXYY=           -688.4736 XXZZ=           -747.0545 YYZZ=           -339.4022
 XXYZ=            135.1466 YYXZ=            141.4400 ZZXY=           -138.0018
 N-N= 1.138691802501D+03 E-N=-4.118741356727D+03  KE= 7.895202682878D+02
  Exact polarizability:   0.000   0.000   0.000   0.000   0.000   0.000
 Approx polarizability: 183.332 -21.250 135.015 -11.459 -26.240 207.175
 Calling FoFJK, ICntrl=    100147 FMM=F ISym2X=0 I1Cent= 0 IOpClX= 0 NMat=1 NMatS=1 NMatT=0.
 -------------------------------------------------------------------
 Center     Atomic                   Forces (Hartrees/Bohr)
 Number     Number              X              Y              Z
 -------------------------------------------------------------------
      1        8          -0.013837173    0.000810415   -0.024642891
      2        6           0.010041513   -0.003000256    0.022985865
      3        7          -0.007648388   -0.002658337   -0.005566480
      4        6          -0.002165421    0.000038645    0.001468740
      5        6           0.008238723    0.000600608   -0.007904466
      6        8          -0.006793891    0.001755913   -0.003602990
      7        8          -0.007254483   -0.003220146    0.012123185
      8        6           0.006494063    0.001218106   -0.007383228
      9        6          -0.007417615    0.001601310    0.005042450
     10        6           0.006129489    0.001053768   -0.011171966
     11        7          -0.005818985    0.005604738   -0.002040382
     12        6          -0.001941817    0.000706198   -0.000563931
     13        7           0.007068438   -0.004512981    0.005154307
     14        6           0.004978732    0.005789998   -0.001092993
     15        6          -0.000351953   -0.012555503    0.023767239
     16        7          -0.003745930    0.000765023   -0.004970101
     17        1           0.000359361   -0.001063271    0.006843429
     18        1           0.002158331    0.001836092   -0.001615332
     19        1           0.005760684   -0.002832077    0.005818433
     20        1          -0.002226690    0.000732323   -0.000162836
     21        1           0.001584057    0.001433238    0.005118719
     22        1          -0.000418271    0.001028639   -0.000482234
     23        1           0.003904397   -0.001956260   -0.002935376
     24        1           0.003382506   -0.001213741    0.001030056
     25        1          -0.005458571   -0.001337621    0.000692963
     26        1          -0.001540639    0.003423096    0.003157470
     27        1          -0.000353589   -0.000240721   -0.006366619
     28        1          -0.002716595    0.000780111   -0.003609100
     29        1          -0.004359743    0.004596005   -0.001952939
     30        1           0.018068838    0.002513339   -0.003005226
     31        1          -0.004119381   -0.001696650   -0.004133765
 -------------------------------------------------------------------
 Cartesian Forces:  Max     0.024642891 RMS     0.006586666
 FormGI is forming the generalized inverse of G from B-inverse, IUseBI=4.

 GradGradGradGradGradGradGradGradGradGradGradGradGradGradGradGradGradGrad
 Berny optimization.
 Internal  Forces:  Max     0.025399679 RMS     0.005822518
 Search for a local minimum.
 Step number   1 out of a maximum of  167
 All quantities printed in internal units (Hartrees-Bohrs-Radians)
 Mixed Optimization -- RFO/linear search
 Second derivative matrix not updated -- analytic derivatives used.
 ITU=  0
     Eigenvalues ---    0.00160   0.00236   0.00328   0.00357   0.00400
     Eigenvalues ---    0.00702   0.00824   0.00839   0.01012   0.01199
     Eigenvalues ---    0.02035   0.02145   0.02195   0.02610   0.03586
     Eigenvalues ---    0.03984   0.04091   0.04211   0.04323   0.04559
     Eigenvalues ---    0.04662   0.04946   0.05167   0.05232   0.05334
     Eigenvalues ---    0.05809   0.06170   0.06271   0.06462   0.07878
     Eigenvalues ---    0.08183   0.08449   0.10727   0.11169   0.11241
     Eigenvalues ---    0.11858   0.12001   0.12583   0.13468   0.13688
     Eigenvalues ---    0.15733   0.15878   0.16657   0.16888   0.18924
     Eigenvalues ---    0.19145   0.21252   0.21931   0.22525   0.23281
     Eigenvalues ---    0.23629   0.24420   0.25202   0.25335   0.26944
     Eigenvalues ---    0.27303   0.31284   0.32384   0.33070   0.33452
     Eigenvalues ---    0.34456   0.34531   0.34706   0.34994   0.35162
     Eigenvalues ---    0.35687   0.35774   0.36360   0.37831   0.38098
     Eigenvalues ---    0.38923   0.40580   0.41902   0.42614   0.44764
     Eigenvalues ---    0.45033   0.45459   0.47543   0.47584   0.48066
     Eigenvalues ---    0.49315   0.51713   0.55343   0.58348   0.60495
     Eigenvalues ---    0.83815   0.94367
 RFO step:  Lambda=-1.65902076D-02 EMin= 1.60495044D-03
 Linear search not attempted -- first point.
 Iteration  1 RMS(Cart)=  0.08513163 RMS(Int)=  0.00270412
 Iteration  2 RMS(Cart)=  0.00549260 RMS(Int)=  0.00030725
 Iteration  3 RMS(Cart)=  0.00002541 RMS(Int)=  0.00030683
 Iteration  4 RMS(Cart)=  0.00000002 RMS(Int)=  0.00030683
 Variable       Old X    -DE/DX   Delta X   Delta X   Delta X     New X
                                 (Linear)    (Quad)   (Total)
    R1        2.32213   0.02144   0.00000   0.04055   0.04055   2.36268
    R2        2.54369   0.00197   0.00000  -0.02721  -0.02721   2.51648
    R3        2.87610   0.00056   0.00000   0.01267   0.01267   2.88877
    R4        2.74472   0.01051   0.00000   0.02285   0.02285   2.76757
    R5        1.90449   0.00672   0.00000   0.01679   0.01679   1.92128
    R6        2.86114   0.00625   0.00000   0.01957   0.01957   2.88071
    R7        2.92971   0.01115   0.00000   0.02850   0.02850   2.95820
    R8        2.07104   0.00014   0.00000  -0.00036  -0.00036   2.07068
    R9        2.55511  -0.00139   0.00000  -0.01430  -0.01430   2.54081
   R10        2.27190   0.01432   0.00000   0.01643   0.01643   2.28833
   R11        1.83167   0.00834   0.00000   0.01550   0.01550   1.84716
   R12        2.81860   0.00760   0.00000   0.00562   0.00562   2.82421
   R13        2.05594   0.00220   0.00000   0.00791   0.00791   2.06386
   R14        2.06102   0.00531   0.00000   0.01389   0.01389   2.07491
   R15        2.58041   0.01092   0.00000   0.01930   0.01932   2.59974
   R16        2.59035   0.01172   0.00000   0.02536   0.02539   2.61574
   R17        2.61630  -0.00542   0.00000  -0.01995  -0.01997   2.59633
   R18        2.04192   0.00110   0.00000   0.00368   0.00368   2.04561
   R19        2.47704   0.00447   0.00000   0.00777   0.00774   2.48478
   R20        2.57016   0.00720   0.00000   0.01192   0.01192   2.58209
   R21        2.03170   0.00501   0.00000   0.01204   0.01204   2.04374
   R22        1.90397   0.00257   0.00000   0.00544   0.00544   1.90941
   R23        2.87632   0.00150   0.00000   0.02035   0.02035   2.89667
   R24        2.06229   0.00107   0.00000   0.00422   0.00422   2.06652
   R25        2.06639   0.00399   0.00000   0.00917   0.00917   2.07556
   R26        2.79945   0.01494   0.00000   0.05313   0.05313   2.85259
   R27        2.06342   0.00079   0.00000   0.00121   0.00121   2.06462
   R28        2.06208   0.00087   0.00000   0.00039   0.00039   2.06247
   R29        1.92647   0.00602   0.00000   0.01040   0.01040   1.93687
   R30        1.94599   0.01827   0.00000   0.06954   0.06954   2.01553
   R31        1.92645   0.00564   0.00000   0.00939   0.00939   1.93584
    A1        2.11235   0.01637   0.00000   0.03074   0.03073   2.14308
    A2        2.14529  -0.02540   0.00000  -0.07024  -0.07026   2.07503
    A3        2.02518   0.00905   0.00000   0.03975   0.03973   2.06491
    A4        2.08757   0.01076   0.00000   0.05327   0.05292   2.14050
    A5        2.13018  -0.00410   0.00000  -0.01173  -0.01204   2.11814
    A6        2.04224  -0.00631   0.00000  -0.03214  -0.03252   2.00972
    A7        1.86090  -0.00848   0.00000  -0.02829  -0.02828   1.83261
    A8        1.94119   0.00551   0.00000   0.02522   0.02525   1.96645
    A9        1.88102   0.00152   0.00000   0.01401   0.01413   1.89514
   A10        1.96587   0.00354   0.00000   0.00535   0.00548   1.97135
   A11        1.89543   0.00178   0.00000   0.00637   0.00642   1.90185
   A12        1.91651  -0.00402   0.00000  -0.02229  -0.02241   1.89410
   A13        1.96436   0.00273   0.00000  -0.00101  -0.00101   1.96335
   A14        2.17577  -0.00378   0.00000  -0.01383  -0.01383   2.16193
   A15        2.14302   0.00105   0.00000   0.01482   0.01482   2.15784
   A16        1.85385   0.00403   0.00000   0.02140   0.02140   1.87525
   A17        1.97288   0.01219   0.00000   0.02476   0.02477   1.99764
   A18        1.89055  -0.00467   0.00000  -0.02169  -0.02172   1.86882
   A19        1.91832  -0.00397   0.00000  -0.01126  -0.01152   1.90680
   A20        1.87115  -0.00391   0.00000  -0.00296  -0.00276   1.86839
   A21        1.94553  -0.00211   0.00000   0.00779   0.00778   1.95332
   A22        1.86051   0.00179   0.00000   0.00126   0.00106   1.86156
   A23        2.29123  -0.00474   0.00000  -0.01039  -0.01048   2.28075
   A24        2.15795   0.00806   0.00000   0.01959   0.01951   2.17746
   A25        1.83366  -0.00329   0.00000  -0.00870  -0.00871   1.82495
   A26        1.92994   0.00373   0.00000   0.01099   0.01098   1.94093
   A27        2.23391  -0.00155   0.00000  -0.00885  -0.00885   2.22507
   A28        2.11933  -0.00218   0.00000  -0.00214  -0.00214   2.11719
   A29        1.83395   0.00058   0.00000   0.00070   0.00063   1.83457
   A30        1.94692   0.00249   0.00000   0.00582   0.00580   1.95272
   A31        2.21064  -0.00282   0.00000  -0.01309  -0.01308   2.19756
   A32        2.12563   0.00032   0.00000   0.00726   0.00728   2.13290
   A33        1.88018  -0.00349   0.00000  -0.00861  -0.00857   1.87160
   A34        2.16888   0.00397   0.00000   0.01866   0.01864   2.18752
   A35        2.23402  -0.00049   0.00000  -0.01003  -0.01005   2.22397
   A36        1.95753  -0.02263   0.00000  -0.05143  -0.05128   1.90625
   A37        1.91311   0.01328   0.00000   0.05453   0.05423   1.96734
   A38        1.87471   0.00477   0.00000   0.00939   0.00893   1.88364
   A39        1.92780   0.00307   0.00000  -0.00919  -0.00850   1.91930
   A40        1.91259   0.00601   0.00000   0.00700   0.00694   1.91953
   A41        1.87557  -0.00371   0.00000  -0.00813  -0.00861   1.86696
   A42        1.93124  -0.01421   0.00000  -0.04011  -0.04018   1.89106
   A43        1.91332   0.00730   0.00000   0.02471   0.02249   1.93580
   A44        1.91781   0.00661   0.00000   0.04413   0.04362   1.96143
   A45        1.90987  -0.00210   0.00000  -0.04750  -0.04745   1.86242
   A46        1.91745   0.00419   0.00000  -0.00078  -0.00002   1.91743
   A47        1.87323  -0.00135   0.00000   0.02120   0.01994   1.89317
   A48        1.94063   0.00276   0.00000   0.01630   0.01634   1.95697
   A49        1.86510  -0.00418   0.00000  -0.05924  -0.05917   1.80592
   A50        1.96579   0.00153   0.00000   0.00697   0.00694   1.97273
   A51        1.87487   0.00102   0.00000   0.01921   0.01936   1.89424
   A52        1.90529  -0.00264   0.00000  -0.01558  -0.01563   1.88966
   A53        1.90949   0.00151   0.00000   0.03324   0.03323   1.94272
    D1       -0.10094   0.00160   0.00000   0.03374   0.03408  -0.06686
    D2       -3.00586   0.00064   0.00000  -0.00943  -0.00940  -3.01527
    D3        3.06898   0.00122   0.00000   0.02562   0.02559   3.09457
    D4        0.16405   0.00025   0.00000  -0.01755  -0.01789   0.14616
    D5        0.74208  -0.00216   0.00000  -0.05104  -0.05053   0.69154
    D6        2.89009  -0.00432   0.00000  -0.05917  -0.05963   2.83046
    D7       -1.36043   0.00093   0.00000  -0.03483  -0.03448  -1.39491
    D8       -2.42843  -0.00101   0.00000  -0.04090  -0.04066  -2.46909
    D9       -0.28041  -0.00317   0.00000  -0.04904  -0.04976  -0.33017
   D10        1.75225   0.00208   0.00000  -0.02470  -0.02461   1.72764
   D11       -2.83312   0.00133   0.00000  -0.00833  -0.00827  -2.84139
   D12        1.30073  -0.00081   0.00000  -0.01168  -0.01139   1.28934
   D13       -0.80087  -0.00015   0.00000  -0.00836  -0.00843  -0.80930
   D14        0.08352   0.00240   0.00000   0.03470   0.03457   0.11809
   D15       -2.06582   0.00025   0.00000   0.03135   0.03145  -2.03436
   D16        2.11577   0.00092   0.00000   0.03466   0.03441   2.15019
   D17        3.09017  -0.00181   0.00000   0.00111   0.00113   3.09130
   D18       -0.06077  -0.00155   0.00000  -0.00111  -0.00108  -0.06185
   D19       -1.05915   0.00146   0.00000   0.01656   0.01657  -1.04258
   D20        2.07309   0.00172   0.00000   0.01434   0.01436   2.08745
   D21        1.06756  -0.00006   0.00000  -0.00370  -0.00374   1.06382
   D22       -2.08338   0.00020   0.00000  -0.00592  -0.00595  -2.08933
   D23       -2.48974  -0.00059   0.00000  -0.01892  -0.01879  -2.50853
   D24       -0.41889  -0.00114   0.00000  -0.02195  -0.02196  -0.44086
   D25        1.60750  -0.00380   0.00000  -0.03886  -0.03865   1.56885
   D26        1.70550   0.00400   0.00000  -0.00400  -0.00399   1.70151
   D27       -2.50683   0.00344   0.00000  -0.00702  -0.00716  -2.51400
   D28       -0.48044   0.00078   0.00000  -0.02393  -0.02385  -0.50429
   D29       -0.40923   0.00218   0.00000  -0.00001  -0.00007  -0.40930
   D30        1.66162   0.00163   0.00000  -0.00303  -0.00324   1.65838
   D31       -2.59517  -0.00104   0.00000  -0.01994  -0.01993  -2.61510
   D32       -3.13129  -0.00060   0.00000  -0.01744  -0.01745   3.13444
   D33        0.01944  -0.00083   0.00000  -0.01509  -0.01507   0.00437
   D34        2.13140  -0.00163   0.00000  -0.03260  -0.03265   2.09875
   D35       -0.97723  -0.00263   0.00000  -0.05625  -0.05634  -1.03358
   D36        0.04933  -0.00049   0.00000  -0.01849  -0.01850   0.03083
   D37       -3.05930  -0.00150   0.00000  -0.04214  -0.04219  -3.10150
   D38       -1.98062   0.00080   0.00000  -0.02246  -0.02234  -2.00296
   D39        1.19393  -0.00020   0.00000  -0.04611  -0.04604   1.14790
   D40       -3.12715  -0.00024   0.00000  -0.01128  -0.01099  -3.13814
   D41        0.01521  -0.00032   0.00000  -0.00813  -0.00796   0.00726
   D42       -0.01398   0.00081   0.00000   0.00954   0.00956  -0.00441
   D43        3.12839   0.00073   0.00000   0.01269   0.01260   3.14099
   D44        3.13134  -0.00034   0.00000   0.00636   0.00660   3.13794
   D45        0.00467  -0.00017   0.00000   0.00524   0.00540   0.01006
   D46        0.01540  -0.00104   0.00000  -0.01187  -0.01179   0.00361
   D47       -3.11128  -0.00087   0.00000  -0.01298  -0.01299  -3.12427
   D48        0.00699  -0.00031   0.00000  -0.00352  -0.00354   0.00345
   D49       -3.13532  -0.00023   0.00000  -0.00644  -0.00636   3.14151
   D50        0.00315  -0.00031   0.00000  -0.00411  -0.00418  -0.00103
   D51       -3.13628   0.00009   0.00000  -0.00312  -0.00313  -3.13941
   D52       -0.01199   0.00084   0.00000   0.01027   0.01031  -0.00168
   D53        3.11396   0.00071   0.00000   0.01176   0.01187   3.12583
   D54        3.12757   0.00046   0.00000   0.00931   0.00927   3.13684
   D55       -0.02967   0.00033   0.00000   0.01080   0.01083  -0.01884
   D56       -1.06719   0.00672   0.00000   0.06819   0.06831  -0.99887
   D57        1.04085  -0.00023   0.00000  -0.00053  -0.00103   1.03982
   D58        3.09553   0.00639   0.00000   0.06616   0.06682  -3.12084
   D59        3.07629   0.00331   0.00000   0.04072   0.04059   3.11688
   D60       -1.09886  -0.00364   0.00000  -0.02800  -0.02875  -1.12761
   D61        0.95582   0.00298   0.00000   0.03869   0.03910   0.99492
   D62        1.01322   0.00232   0.00000   0.05194   0.05204   1.06526
   D63        3.12126  -0.00463   0.00000  -0.01678  -0.01731   3.10395
   D64       -1.10725   0.00199   0.00000   0.04991   0.05054  -1.05671
   D65       -1.24344  -0.00123   0.00000  -0.02922  -0.02868  -1.27213
   D66        0.79754  -0.00098   0.00000  -0.03231  -0.03188   0.76566
   D67        2.89484  -0.00096   0.00000  -0.02613  -0.02566   2.86918
   D68        2.92966   0.00010   0.00000  -0.00353  -0.00403   2.92562
   D69       -1.31255   0.00035   0.00000  -0.00662  -0.00723  -1.31977
   D70        0.78475   0.00037   0.00000  -0.00044  -0.00101   0.78374
   D71        0.87724   0.00053   0.00000  -0.00069  -0.00056   0.87668
   D72        2.91822   0.00078   0.00000  -0.00379  -0.00376   2.91447
   D73       -1.26767   0.00080   0.00000   0.00239   0.00246  -1.26520
         Item               Value     Threshold  Converged?
 Maximum Force            0.025400     0.000450     NO 
 RMS     Force            0.005823     0.000300     NO 
 Maximum Displacement     0.337031     0.001800     NO 
 RMS     Displacement     0.087875     0.001200     NO 
 Predicted change in Energy=-9.166847D-03
 GradGradGradGradGradGradGradGradGradGradGradGradGradGradGradGradGradGrad

                          Input orientation:                          
 ---------------------------------------------------------------------
 Center     Atomic      Atomic             Coordinates (Angstroms)
 Number     Number       Type             X           Y           Z
 ---------------------------------------------------------------------
      1          8           0       -1.411812    0.060331   -0.827008
      2          6           0       -1.533025   -0.109942    0.405673
      3          7           0       -0.490068   -0.277341    1.216563
      4          6           0        0.887309   -0.358409    0.725520
      5          6           0        1.680078   -0.972280    1.873776
      6          8           0        2.971267   -1.173700    1.557483
      7          8           0        1.205158   -1.238025    2.955525
      8          6           0        1.448262    1.030347    0.270315
      9          6           0        2.350222    0.973311   -0.919968
     10          6           0        2.243475    1.569274   -2.155298
     11          7           0        3.307417    1.239714   -2.959705
     12          6           0        4.057765    0.446002   -2.227634
     13          7           0        3.527400    0.247966   -0.984054
     14          6           0       -2.933574   -0.101437    1.018224
     15          6           0       -3.899402   -0.833143    0.079383
     16          7           0       -3.856452   -0.155529   -1.268821
     17          1           0       -0.614858   -0.521786    2.195518
     18          1           0        0.913183   -1.041873   -0.130568
     19          1           0        3.408260   -1.560081    2.341836
     20          1           0        0.590782    1.647315   -0.006925
     21          1           0        1.928471    1.524643    1.125107
     22          1           0        1.454676    2.222635   -2.505581
     23          1           0        4.988333   -0.010225   -2.536744
     24          1           0        3.901155   -0.326271   -0.241421
     25          1           0       -2.962580   -0.556283    2.012273
     26          1           0       -3.244894    0.945311    1.135459
     27          1           0       -3.582130   -1.866658   -0.078262
     28          1           0       -4.922765   -0.839620    0.458683
     29          1           0       -4.327818    0.754540   -1.258662
     30          1           0       -2.814845    0.004029   -1.433650
     31          1           0       -4.268971   -0.722532   -2.015639
 ---------------------------------------------------------------------
                    Distance matrix (angstroms):
                    1          2          3          4          5
     1  O    0.000000
     2  C    1.250275   0.000000
     3  N    2.267117   1.331663   0.000000
     4  C    2.805645   2.453987   1.464535   0.000000
     5  C    4.233237   3.636342   2.371582   1.524405   0.000000
     6  O    5.140040   4.769371   3.591730   2.387414   1.344538
     7  O    4.779312   3.907936   2.611646   2.418197   1.210930
     8  C    3.213265   3.194785   2.522411   1.565415   2.575915
     9  C    3.872347   4.243863   3.767777   2.573174   3.469787
    10  C    4.171616   4.862128   4.717170   3.722131   4.796910
    11  N    5.311352   6.047910   5.844961   4.689542   5.559108
    12  C    5.659219   6.204862   5.750522   4.406811   4.948382
    13  N    4.945269   5.259976   4.610717   3.203189   3.615079
    14  C    2.397251   1.528670   2.457846   3.840685   4.772434
    15  C    2.794271   2.495842   3.636709   4.853398   5.862576
    16  N    2.493604   2.864319   4.186230   5.149935   6.418424
    17  H    3.179569   2.053336   1.016699   2.108101   2.360761
    18  H    2.665611   2.672075   2.090069   1.095756   2.147176
    19  H    5.991694   5.501629   4.255422   3.226714   1.884464
    20  H    2.683549   2.787247   2.523779   2.155767   3.403803
    21  H    4.136720   3.895049   3.017423   2.188509   2.618555
    22  H    3.963574   4.779401   4.887358   4.174171   5.425593
    23  H    6.624954   7.155128   6.646167   5.251856   5.596676
    24  H    5.359103   5.476846   4.627197   3.165324   3.134417
    25  H    3.293419   2.196363   2.612332   4.064053   4.663315
    26  H    2.827482   2.139309   3.015049   4.352337   5.336442
    27  H    2.997364   2.742093   3.709899   4.785057   5.683414
    28  H    3.845739   3.467791   4.532035   5.836071   6.754081
    29  H    3.028423   3.365741   4.681864   5.689744   6.992059
    30  H    1.529603   2.244807   3.536578   4.301083   5.665383
    31  H    3.192033   3.704513   4.992538   5.850962   7.112039
                    6          7          8          9         10
     6  O    0.000000
     7  O    2.253398   0.000000
     8  C    2.972233   3.523488   0.000000
     9  C    3.336632   4.606585   1.494510   0.000000
    10  C    4.673150   5.922798   2.608908   1.375721   0.000000
    11  N    5.132499   6.748973   3.732736   2.268859   1.373919
    12  C    4.258054   6.151297   3.659333   2.214440   2.135093
    13  N    2.964764   4.808458   2.551153   1.384190   2.183148
    14  C    6.025588   4.708936   4.587024   5.729763   6.297964
    15  C    7.036111   5.873045   5.666265   6.581777   6.964219
    16  N    7.459385   6.681078   5.649357   6.318132   6.400773
    17  H    3.700321   2.098349   3.220557   4.553380   5.610008
    18  H    2.665072   3.106075   2.177410   2.597922   3.561923
    19  H    0.977477   2.309544   3.852676   4.263435   5.601232
    20  H    4.009016   4.180760   1.092146   2.093695   2.711639
    21  H    2.924966   3.392042   1.097998   2.159670   3.295797
    22  H    5.508505   6.470094   3.021124   2.208389   1.082489
    23  H    4.710087   6.781219   4.636213   3.246680   3.189759
    24  H    2.195196   4.280206   2.849381   2.134181   3.162897
    25  H    5.983191   4.327186   5.000734   6.258080   6.999260
    26  H    6.580955   5.280394   4.772988   5.960779   6.429665
    27  H    6.789910   5.702383   5.815410   6.630739   7.075124
    28  H    7.977137   6.629056   6.642457   7.621269   7.999416
    29  H    8.057632   7.234882   5.981383   6.690202   6.682038
    30  H    6.619140   6.080130   4.704349   5.280274   5.343909
    31  H    8.086520   7.412442   6.401947   6.920267   6.905348
                   11         12         13         14         15
    11  N    0.000000
    12  C    1.314887   0.000000
    13  N    2.221520   1.366381   0.000000
    14  C    7.521474   7.727490   6.773138   0.000000
    15  C    8.091417   8.383021   7.580046   1.532853   0.000000
    16  N    7.491783   7.994748   7.400350   2.466821   1.509523
    17  H    6.712931   6.506481   5.278305   2.634228   3.919592
    18  H    4.352242   4.062001   3.037475   4.123310   4.821683
    19  H    5.996278   5.032523   3.787449   6.640666   7.684338
    20  H    4.033008   4.288901   3.396570   4.065729   5.130485
    21  H    4.320690   4.115608   2.938544   5.127870   6.373131
    22  H    2.145929   3.163819   3.241998   6.088945   6.684757
    23  H    2.136989   1.081503   2.147517   8.683474   9.301244
    24  H    3.192788   2.136814   1.010417   6.953473   7.823588
    25  H    8.201160   8.262362   7.193374   1.093554   2.165722
    26  H    7.732388   8.055342   7.130399   1.098337   2.169464
    27  H    8.088147   8.266571   7.472451   2.176904   1.092550
    28  H    9.151224   9.461450   8.641159   2.194283   1.091413
    29  H    7.837459   8.447018   7.876325   2.803716   2.120057
    30  H    6.429452   6.932425   6.362838   2.457011   2.041174
    31  H    7.883104   8.411001   7.923979   3.372442   2.130242
                   16         17         18         19         20
    16  N    0.000000
    17  H    4.758542   0.000000
    18  H    4.983036   2.831268   0.000000
    19  H    8.233204   4.157516   3.550595   0.000000
    20  H    4.961907   3.318030   2.711266   4.872602   0.000000
    21  H    6.482223   3.435429   3.032249   3.631216   1.756689
    22  H    5.949228   5.823671   4.073194   6.451580   2.705659
    23  H    8.936384   7.351989   4.843637   5.357166   5.337216
[...]
 ,0.00005882,-0.00003079,-0.00006092,0.00000544,-0.00001684,0.00000828,
 -0.00003273,-0.00002137,0.00001378,0.00002212,0.00000051,-0.00000527,0
 .00002050,0.00002868,-0.00001582,0.00000898,0.00107240,0.11866501,-0.2
 4956966,0.00031441,0.00990265,-0.01627898,-0.00278462,-0.00239446,-0.0
 0141236,0.00029971,0.00039653,0.00108259,0.00000329,0.00005529,0.00002
 648,0.00000801,0.00000594,0.00000655,-0.00000304,-0.00002244,-0.000011
 70,-0.00000292,-0.00001867,0.00000693,0.00000028,-0.00001097,0.0000037
 2,0.00000060,0.00000030,0.00000119,0.00000896,0.00000558,-0.00000418,0
 .00042293,-0.12783475,0.26933071,-0.00026050,-0.00362053,0.00051803,-0
 .00718961,0.03225104,0.00487306,-0.00190653,-0.00204950,0.00047179,-0.
 00016688,-0.00171697,-0.00026773,0.00026631,-0.00022720,0.00026720,-0.
 00021102,0.00008674,-0.00006675,-0.00015725,0.00003888,-0.00017333,-0.
 00037041,0.00039797,-0.00012545,-0.00003863,-0.00016049,0.00003951,-0.
 00002331,0.00000386,-0.00008447,-0.00007278,0.00002945,0.00004847,-0.0
 0000159,-0.00000832,0.00005876,0.00004911,-0.00004397,0.00000477,-0.06
 148456,0.05910670,0.01326714,0.00520553,-0.02726332,-0.00563242,0.0012
 1602,0.00069064,0.00128891,-0.00010431,0.00097562,0.00048556,0.0001234
 3,0.00001183,-0.00002591,0.00001763,0.00000852,0.00001893,-0.00001968,
 0.00010294,0.00007073,-0.00009481,-0.00009478,-0.00000022,0.00000579,0
 .00000932,-0.00000227,0.00000013,0.00000403,0.00000151,0.00002784,0.00
 001446,-0.00000459,-0.00000938,-0.00015222,-0.00009924,0.06789757,-0.0
 0012864,-0.00002078,0.00064062,0.00229734,0.00125488,0.00010464,-0.000
 23992,0.00044839,-0.00062935,0.00019532,0.00003747,0.00004013,0.000055
 13,-0.00004249,-0.00001162,-0.00002533,0.00001028,0.00000451,-0.000026
 74,0.00004110,0.00000141,-0.00000766,-0.00000957,-0.00002747,0.0000135
 8,-0.00000872,0.00000279,0.00000134,0.00000044,0.00000137,-0.00000395,
 -0.00000209,0.00000591,-0.00000219,0.00000151,-0.00000185,0.00000258,0
 .00000763,0.00000087,0.05309395,-0.28329673,-0.05143448,0.00135641,-0.
 01228422,-0.00196017,0.00023045,0.00146722,0.00029172,-0.00003503,-0.0
 0032606,-0.00011912,-0.00005916,-0.00001934,0.00001175,0.00000509,-0.0
 0000728,-0.00000031,0.00002010,-0.00000417,0.00001360,0.00001069,0.000
 00217,0.00000214,0.00000130,0.00000463,-0.00000266,-0.00000106,-0.0000
 0113,-0.00000050,0.00000289,-0.00000054,-0.00000127,0.00345893,-0.0151
 9679,-0.00357688,-0.05777104,0.30679100,0.00066392,0.00277827,-0.00061
 476,0.00425300,-0.01454977,-0.00380498,-0.00073783,0.00014850,-0.00027
 136,0.00023844,0.00016930,0.00003398,0.00007074,0.00003735,0.00006766,
 -0.00004110,0.00000686,-0.00001951,-0.00004834,-0.00002948,-0.00004991
 ,0.00003405,0.00002266,0.00004413,-0.00000591,-0.00001423,-0.00000698,
 0.00000969,-0.00000474,-0.00000207,-0.00001536,0.00000774,0.00000460,-
 0.00000455,-0.00000019,0.00000528,-0.00000510,0.00000188,0.00000052,0.
 01250916,-0.05305250,-0.05945012,0.00290967,-0.02129332,-0.00629988,0.
 00084136,-0.00035481,0.00153727,0.00000691,0.00031857,0.00020176,-0.00
 008799,0.00002338,-0.00001190,0.00000618,-0.00000189,0.00000691,0.0000
 2045,-0.00002070,-0.00000836,-0.00000568,-0.00000266,-0.00000440,0.000
 00005,-0.00000344,-0.00000223,-0.00000122,0.00000017,0.00000035,0.0000
 0596,0.00000209,0.00000294,-0.00650815,0.02766818,0.00770915,-0.011781
 28,0.05872283,0.06260643,-0.00015917,0.00062797,0.00074455,0.00157677,
 -0.00131327,-0.00083826,0.00005335,0.00037381,0.00001120,-0.00006174,-
 0.00003574,0.00001131,-0.00010477,0.00003216,-0.00006798,0.00007636,-0
 .00001387,0.00002018,0.00005587,0.00000027,0.00004554,-0.00000668,-0.0
 0004177,0.00002764,0.00000276,0.00002420,-0.00000365,0.00000266,0.0000
 0410,0.00001993,0.00002102,0.00000036,-0.00001396,-0.00000102,-0.00000
 165,-0.00000550,-0.00000572,0.00001364,-0.00000476,0.00412917,-0.02440
 514,-0.00497627,-0.06448869,0.05183936,0.01216422,-0.00016015,-0.00085
 577,-0.00061084,0.00002787,-0.00011204,-0.00008683,-0.00002794,-0.0000
 1563,0.00001881,-0.00001482,-0.00000207,-0.00000946,-0.00000042,-0.000
 02312,-0.00001240,0.00001962,0.00001273,-0.00000021,-0.00000172,-0.000
 00869,0.00000312,0.00000003,-0.00000189,-0.00000004,-0.00001336,-0.000
 00906,0.00000062,0.00092698,0.00061352,0.00057404,-0.00338394,-0.00192
 093,-0.00298068,0.06356712,-0.00022590,0.00056919,0.00072212,0.0004230
 2,0.00018993,-0.00098423,-0.00009133,0.00001121,0.00010905,-0.00003638
 ,-0.00005033,0.00000432,-0.00003999,0.00002450,-0.00003085,0.00002814,
 -0.00000903,0.00000874,0.00002276,-0.00000945,0.00002149,-0.00001310,-
 0.00000829,0.00001262,-0.00000150,0.00000814,-0.00000105,0.00000267,0.
 00000164,0.00000726,0.00000660,0.00000138,-0.00000394,0.00000017,-0.00
 000073,-0.00000245,-0.00000211,0.00000346,-0.00000124,0.00046287,-0.00
 913286,-0.00366931,0.05001905,-0.30516167,-0.04991475,0.00336088,-0.01
 580415,0.00122399,0.00001943,-0.00004019,-0.00003237,-0.00000410,0.000
 00149,0.00000779,-0.00000371,0.00000194,-0.00000230,-0.00000448,-0.000
 01328,-0.00000508,0.00000717,0.00000213,-0.00000006,-0.00000034,-0.000
 00484,0.00000086,0.00000011,-0.00000044,-0.00000015,-0.00000435,-0.000
 00229,0.,-0.00004706,0.00045442,-0.00014988,-0.00131272,0.00082939,-0.
 00113088,-0.05343655,0.32774935,0.00033708,-0.00025765,0.00102227,0.00
 160659,0.00032266,-0.00073664,-0.00041104,0.00029238,0.00007976,0.0000
 7538,-0.00005151,-0.00006061,0.00003799,-0.00006164,0.00007447,-0.0000
 4390,0.00002387,-0.00002281,-0.00002508,0.00006097,-0.00003581,-0.0000
 1446,0.00001289,0.00000180,0.00000101,-0.00000826,-0.00000607,-0.00000
 736,0.00000468,-0.00001701,-0.00001620,0.00000230,0.00001284,-0.000003
 71,-0.00000027,0.00000942,0.00000767,-0.00000394,0.00001048,0.00291049
 ,-0.02007772,-0.00396803,0.01464102,-0.06195422,-0.06217446,-0.0079323
 0,0.03957098,-0.00226454,0.00005873,-0.00016103,0.00004757,-0.00002426
 ,-0.00000302,0.00002269,0.00000047,-0.00001161,0.00000176,-0.00000145,
 0.00001309,-0.00002082,0.00000317,-0.00000489,0.00000477,-0.00000063,0
 .00000250,-0.00000312,-0.00000065,-0.00000029,0.00000099,0.00000611,-0
 .00000254,-0.00000046,0.00040169,0.00007560,0.00046721,-0.00382422,-0.
 00108027,-0.00172373,-0.00829617,0.05246881,0.07396725,0.00085284,0.00
 010439,0.00069457,-0.00017860,-0.00169002,-0.00469691,-0.00139743,-0.0
 0000581,0.00082455,0.00013239,0.00019898,-0.00029905,0.00006071,-0.000
 08266,0.00021253,-0.00013843,0.00005075,-0.00006985,-0.00007063,0.0000
 4882,-0.00007814,0.00002377,0.00006447,-0.00002206,-0.00000387,-0.0000
 2795,-0.00000522,-0.00000659,0.00000249,-0.00002906,-0.00002938,0.0000
 0624,0.00002645,-0.00000401,0.00000009,0.00001120,0.00001561,-0.000013
 48,0.00001446,-0.01850449,0.00221728,0.00773279,-0.28781524,0.02561064
 ,0.10258660,0.00651900,-0.00004533,-0.00271524,0.00007158,-0.00009396,
 0.00015862,-0.00006424,0.00000375,-0.00000023,0.00000238,-0.00000807,0
 .00000899,0.00001258,0.00001602,-0.00000445,-0.00001034,-0.00001359,0.
 00000536,0.00000134,0.00000341,-0.00000373,-0.00000101,0.00000030,0.00
 000094,0.00001663,0.00000624,-0.00000449,0.00031144,0.00028310,-0.0001
 3355,0.00110199,-0.00013751,0.00048090,-0.00321714,0.00055028,0.001248
 81,0.30218241,0.00026719,0.00030882,-0.00004873,-0.00153895,-0.0002502
 9,-0.00316171,-0.00101110,0.00012009,0.00040266,0.00002919,0.00006466,
 -0.00020128,-0.00001993,-0.00002721,0.00008094,-0.00004050,0.00002023,
 -0.00002917,-0.00001513,0.00001448,-0.00002290,0.00000121,0.00001349,0
 .00001090,-0.00000189,-0.00000986,-0.00000311,0.00000008,-0.00000120,-
 0.00000438,-0.00000592,0.00000237,0.00000518,-0.00000184,-0.00000026,0
 .00000350,0.00000345,-0.00000099,0.00000175,-0.01355133,0.00103668,0.0
 0522400,0.03098518,-0.05722146,-0.01494854,-0.01902913,-0.00134738,0.0
 1346584,0.00002289,-0.00004064,0.00003729,-0.00002859,-0.00000652,0.00
 001171,-0.00000611,-0.00000073,0.00000062,-0.00000412,0.00000014,0.000
 00050,-0.00000410,0.00000064,-0.00000181,0.00000141,0.00000124,0.00000
 016,-0.00000044,-0.00000011,0.00000027,0.00000271,0.00000133,-0.000001
 71,0.00059703,0.00044050,0.00012272,0.00019439,0.00049465,0.00092399,0
 .02899716,0.00001368,-0.01286257,-0.02683043,0.05666165,0.00090375,-0.
 00024206,0.00212640,-0.00100510,-0.00203936,-0.00528346,-0.00160368,0.
 00007714,0.00116357,0.00006880,0.00024752,-0.00035749,0.00006842,-0.00
 009022,0.00023243,-0.00016651,0.00005908,-0.00007783,-0.00008370,0.000
 04789,-0.00007697,0.00003309,0.00007944,-0.00003283,-0.00000877,-0.000
 02863,-0.00001153,-0.00001756,0.00001045,-0.00003836,-0.00002932,0.000
 00705,0.00003599,-0.00000477,-0.00000031,0.00001191,0.00002605,-0.0000
 2001,0.00002457,-0.02009044,0.00183830,0.01107188,0.09375788,-0.010444
 80,-0.09166768,0.03056046,0.00134060,-0.01987011,0.00008521,-0.0001141
 6,0.00018588,-0.00007269,0.00000660,-0.00000196,0.00000092,-0.00000725
 ,0.00000841,0.00000903,0.00001557,-0.00000889,-0.00001132,-0.00001698,
 0.00000846,0.00000059,-0.00000102,-0.00000367,-0.00000063,-0.00000017,
 0.00000163,0.00001968,0.00000817,-0.00000790,0.00046253,0.00043659,0.0
 0055555,0.00071989,0.00017053,0.00072768,0.00490984,-0.00096190,-0.001
 00167,-0.10566287,0.00823562,0.10590838,-0.00230218,-0.00252432,-0.001
 30397,-0.00100438,0.00015152,0.00008092,0.00028436,0.00016302,-0.00003
 504,-0.00008128,0.00002991,0.00007556,-0.00013858,0.00006314,-0.000103
 14,0.00010753,-0.00003882,0.00002977,0.00006847,-0.00003933,0.00006121
 ,-0.00002539,-0.00001000,-0.00002059,-0.00001462,0.00001492,-0.0000008
 0,-0.00005689,0.00002720,0.00000229,0.00006111,-0.00001722,-0.00001511
 ,0.00001214,-0.00000359,-0.00000910,0.00002776,-0.00000730,0.00000207,
 -0.00055574,0.00075670,0.00004975,0.00169491,-0.00556053,-0.00102308,-
 0.11644823,0.13336871,0.00508198,-0.00005787,0.00010522,-0.00008068,0.
 00000476,-0.00000169,-0.00001981,-0.00002094,0.00001233,-0.00000987,-0
 .00001511,-0.00001180,-0.00000054,0.00000877,0.00000325,0.00000235,-0.
 00000691,-0.00001159,0.00002022,0.00000477,-0.00000216,0.00000168,-0.0
 0001685,0.00000179,-0.00000505,0.00005789,-0.00024989,-0.00007546,0.00
 023803,-0.00020635,-0.00050617,0.00043237,-0.00082182,0.00152296,0.000
 40516,-0.00094720,0.00035607,0.11095847,-0.00190366,-0.00046511,-0.001
 57902,0.00042818,-0.00019661,0.00115167,-0.00058240,0.00007021,-0.0005
 5508,0.00022708,0.00003186,-0.00006710,0.00015246,-0.00005882,0.000041
 91,-0.00013817,0.00002246,-0.00001868,-0.00011523,0.00002433,-0.000023
 31,0.00000258,0.00008357,-0.00003469,-0.00001104,-0.00004052,0.0000000
 4,-0.00003791,0.00000464,-0.00004568,-0.00002100,-0.00001303,0.0000293
 3,0.00000087,0.00000236,0.00001066,0.00002937,-0.00002927,0.00002086,0
 .00017360,0.00162453,0.00004652,0.00440098,-0.01288700,0.00106414,0.12
 316574,-0.35382140,-0.02442421,-0.00001072,0.00003321,0.00010854,-0.00
 001274,-0.00000356,0.00000633,0.00001681,0.00000248,0.00000865,0.00000
 937,0.00004513,0.00000359,-0.00001923,-0.00001226,0.00000017,0.0000040
 5,0.00002046,0.00000307,0.00000177,0.00000273,0.00000195,0.00001979,0.
 00001775,-0.00000696,-0.00016226,-0.00016517,-0.00025779,0.00032306,-0
 .00009428,0.00014177,-0.00041174,0.00065940,0.00288477,-0.00062460,0.0
 0099338,-0.00084341,-0.13695810,0.37230631,0.00064344,0.00043702,0.000
 12190,-0.00066788,0.00013019,0.00007559,0.00038595,-0.00007890,0.00009
 926,-0.00014063,0.00005862,0.00007030,-0.00013689,0.00005306,-0.000009
 15,0.00012329,-0.00002962,0.00000489,0.00009221,-0.00003360,-0.0000067
 1,-0.00001387,-0.00004320,0.00002531,0.00000774,0.00001430,0.00002067,
 0.00003771,-0.00002304,0.00004850,0.00001877,0.00000063,-0.00004838,0.
 00000913,-0.00000303,-0.00000353,-0.00003773,0.00002600,-0.00004703,0.
 00029204,0.00070567,0.00110610,-0.01342784,0.03108870,0.00568611,0.002
 38682,-0.02034500,-0.06309980,-0.00003589,0.00002442,-0.00007461,0.000
 01306,-0.00000100,-0.00000619,-0.00001428,0.00000834,-0.00000223,-0.00
 000524,-0.00002480,0.00002533,0.00000549,0.00001018,-0.00001378,0.0000
 0144,0.00000024,0.00001000,-0.00000037,0.00000101,-0.00000198,-0.00001
 697,-0.00000529,0.00001211,0.00028727,-0.00044197,-0.00003168,-0.00032
 533,-0.00096983,-0.00063000,0.00004047,0.00236966,-0.00621706,0.000509
 95,-0.00017731,0.00138019,-0.00573465,0.02134013,0.06210475,0.00420050
 ,-0.00454774,0.03817372,0.00960346,0.00357120,-0.04551536,0.00589303,-
 0.00153539,0.01738784,-0.00376967,0.00041075,0.00068708,-0.00245951,0.
 00129581,-0.00116230,0.00180697,-0.00054356,0.00035585,0.00162479,-0.0
 0085504,0.00102093,-0.00027162,-0.00065642,0.00023244,-0.00008336,0.00
 044528,0.00006215,0.00001322,0.00002724,0.00046914,0.00054728,-0.00007
 319,-0.00042517,0.00012822,-0.00004473,-0.00017232,-0.00015265,0.00018
 086,-0.00024391,-0.00039551,0.00186645,0.00205585,0.00428972,-0.008136
 53,0.01794582,-0.21947549,-0.01171021,0.04275037,0.00171804,0.00009828
 ,-0.00107829,-0.00008568,0.00020781,-0.00024586,-0.00025015,0.00013172
 ,-0.00011551,-0.00014261,-0.00076553,-0.00002285,0.00028769,0.00009206
 ,-0.00000706,-0.00003997,-0.00017842,0.00014349,0.00002454,-0.00001219
 ,-0.00000836,-0.00025491,-0.00006430,0.00004042,-0.00298856,-0.0007047
 5,0.00013313,-0.00071827,-0.00019444,0.00084101,0.00021408,0.00076292,
 -0.00169776,-0.00032642,0.00167479,-0.00424320,-0.00368269,0.00277353,
 0.00076276,0.20916596,-0.00139746,-0.01265406,-0.00134422,0.00088184,-
 0.00112927,0.00210782,0.00001034,0.00117529,-0.00015569,0.00000603,-0.
 00008412,0.00012674,0.00006670,0.00001246,-0.00002971,-0.00006868,-0.0
 0000510,0.00000748,-0.00010337,-0.00004970,0.00000043,0.00002733,0.000
 01149,-0.00007985,-0.00002319,-0.00002737,-0.00000047,-0.00010976,0.00
 003859,-0.00006967,0.00002504,-0.00003443,0.00002348,0.00001845,-0.000
 00269,0.00000746,0.00006052,-0.00004300,0.00002909,0.00031339,0.000297
 07,-0.00080425,-0.01556186,-0.00026917,0.00742137,-0.01779738,-0.07047
 683,-0.00209939,0.00003615,0.00106123,0.00022600,-0.00008805,0.0000086
 5,-0.00010947,0.00001181,0.00001159,0.00000850,-0.00000299,0.00007904,
 -0.00001271,-0.00001501,-0.00000710,0.00001191,-0.00001058,0.00000800,
 0.00002570,0.00000698,0.00000160,0.00000423,0.00001431,0.00002346,-0.0
 0000953,-0.00022825,-0.00035320,-0.00016077,0.00025571,-0.00018873,-0.
 00049794,-0.00061148,-0.00056753,0.00011498,0.00060081,-0.00124214,0.0
 0224926,0.03356826,0.00682474,-0.00875045,0.01787445,0.07867886,0.0133
 6070,-0.00142574,-0.00237480,-0.00987128,0.00185909,-0.01750987,0.0027
 8154,-0.00006213,0.00246508,-0.00096065,0.00005936,0.00027898,-0.00075
 355,0.00040194,-0.00028258,0.00061410,-0.00016986,0.00008330,0.0004615
 9,-0.00021663,0.00019263,-0.00012019,-0.00023175,0.00014104,0.00000949
 ,0.00010103,0.00009644,0.00011553,-0.00009877,0.00021121,0.00012186,-0
 .00003101,-0.00020941,0.00004833,-0.00000886,-0.00004415,-0.00015423,0
 .00010683,-0.00017585,0.00004246,-0.00050362,-0.00075264,0.03108627,0.
 00463460,-0.01293788,0.05537096,-0.00263629,-0.07251609,-0.00006126,0.
 00012233,-0.00030349,-0.00003549,0.00008752,-0.00002342,-0.00006964,0.
 00003523,-0.00002361,-0.00004113,-0.00024525,0.00004240,0.00008743,0.0
 0004251,-0.00003858,0.00000517,0.00002410,0.00004229,0.00000254,0.0000
 0491,-0.00000889,-0.00008249,-0.00002251,0.00004599,-0.00012566,0.0000
 1833,0.00060723,-0.00011116,-0.00025951,-0.00025051,-0.00024450,-0.000
 09501,0.00057278,-0.00117146,0.00349661,-0.00493508,0.00137739,0.00056
 918,-0.00123363,-0.06599488,-0.00578396,0.09958206,-0.00425292,0.00174
 962,-0.00063199,-0.00034243,-0.00012735,0.00151836,0.00005553,-0.00004
 372,-0.00009149,-0.00001229,-0.00000238,0.00000885,-0.00004071,0.00001
 416,-0.00006175,0.00003256,-0.00000744,0.00002008,0.00001778,-0.000002
 45,0.00003443,0.00000550,-0.00000190,-0.00000578,-0.00000668,0.0000156
 4,-0.00002185,-0.00002599,0.00002895,-0.00000458,0.00002796,0.00000623
 ,0.00001456,-0.00000748,-0.00000051,-0.00000614,0.00002817,-0.00000675
 ,0.00002456,0.00055914,-0.00030719,0.00073148,0.00148750,0.00392085,0.
 00223967,-0.14394555,-0.09117281,-0.12576980,0.00002777,-0.00002737,-0
 .00011580,-0.00000163,-0.00001776,-0.00000970,-0.00001256,0.00000096,-
 0.00000881,-0.00000083,0.00000010,-0.00000746,0.00000065,0.00000366,0.
 00000604,-0.00000314,-0.00002459,-0.00000093,0.00000103,-0.00000403,0.
 00000147,-0.00000895,-0.00000501,-0.00000939,0.00013103,-0.00006663,0.
 00025740,0.00006408,0.00001487,-0.00016212,0.00054124,0.00037938,-0.00
 055999,0.00005799,0.00026004,0.00101837,0.01006116,0.00927956,0.014940
 04,-0.00442043,-0.01776006,-0.02568780,0.13998248,0.00083351,-0.000045
 90,-0.00007335,-0.00086688,0.00010083,0.00020455,0.00028044,-0.0000862
 4,0.00000237,-0.00010443,0.00000633,0.00005832,-0.00009782,0.00005108,
 -0.00002608,0.00009086,-0.00003777,0.00000678,0.00007000,-0.00003548,0
 .00000722,-0.00000547,-0.00001686,-0.00000149,-0.00000420,0.00001175,0
 .00000099,-0.00002591,0.00000688,0.00000587,0.00002891,-0.00001854,-0.
 00001439,0.00000776,0.00000030,-0.00000708,0.00000434,-0.00000729,-0.0
 0000190,-0.00059520,-0.00254447,0.00363574,0.01153665,0.01267917,0.011
 57005,-0.08400420,-0.15853378,-0.12844840,-0.00009193,0.00004675,-0.00
 006436,0.00003589,0.00001261,-0.00000495,-0.00000842,0.00001576,0.0000
 0040,-0.00000055,-0.00001548,0.00000314,0.00000242,0.00000092,-0.00000
 238,-0.00000165,0.00000022,0.00000505,0.00000368,0.00000190,0.00000093
 ,-0.00000716,0.00000661,0.00000351,0.00085807,0.00066268,0.00082924,-0
 .00008411,0.00011214,-0.00001696,0.00068111,0.00028385,0.00069095,-0.0
 0019464,-0.00003924,-0.00001953,-0.02085427,-0.01498257,-0.02534111,-0
 .00139072,-0.00109766,0.00022737,0.09390391,0.16346150,0.00316146,-0.0
 0097333,0.00188088,-0.00007833,0.00035553,-0.00205132,0.00048615,-0.00
 004377,0.00069617,-0.00022031,-0.00000150,0.00008061,-0.00018914,0.000
 07655,-0.00004395,0.00015568,-0.00004028,0.00001382,0.00012219,-0.0000
 4322,0.00002767,-0.00004435,-0.00004719,0.00003541,0.00000094,0.000019
 05,0.00002129,0.00001056,-0.00001598,0.00004639,0.00003510,-0.00001246
 ,-0.00005983,0.00001848,-0.00000657,-0.00000037,-0.00003164,0.00002398
 ,-0.00005010,0.00167174,0.00434441,-0.00447840,-0.01469752,-0.01535565
 ,-0.01792741,-0.11991160,-0.13180515,-0.23252539,0.00008854,0.00002712
 ,-0.00006364,-0.00000231,0.00000374,-0.00000377,-0.00002003,0.00000939
 ,-0.00000448,-0.00001056,-0.00004135,0.00000991,0.00001675,0.00000941,
 -0.00001189,-0.00000266,0.00000381,0.00002029,0.00000190,0.00000151,-0
 .00000050,-0.00002079,-0.00000428,0.00001282,-0.00135972,-0.00074773,-
 0.00046332,0.00039010,0.00006049,0.00020205,-0.00043997,0.00002875,0.0
 0195680,0.00037960,-0.00056103,-0.00006749,0.00027884,0.00042264,0.000
 63475,-0.00212916,0.00754361,0.00925906,0.13234008,0.13676950,0.242853
 93\\0.00000173,-0.00000178,-0.00000295,0.00000635,0.00000005,0.0000041
 1,-0.00000532,0.00000564,-0.00000055,-0.00000183,-0.00000117,-0.000001
 24,0.00000245,0.00000100,0.00000009,-0.00000393,-0.00000206,-0.0000011
 7,-0.00000082,-0.00000052,0.00000341,-0.00000028,-0.00000158,-0.000001
 15,0.00000131,0.00000131,0.00000100,0.00000145,0.00000041,-0.00000254,
 -0.00000147,-0.00000002,0.00000013,-0.00000144,-0.00000091,0.00000053,
 0.00000054,-0.00000293,0.00000117,0.00000077,-0.00000088,-0.00000026,-
 0.00000082,0.00000227,-0.00000229,-0.00001275,-0.00000570,0.00000357,0
 .,-0.00000196,0.00000096,-0.00000029,-0.00000026,0.00000005,0.00000139
 ,-0.00000029,0.00000062,-0.00000046,-0.00000007,0.00000029,0.00000077,
 0.00000031,0.00000020,0.00000021,-0.00000015,-0.00000025,0.00000068,-0
 .00000068,-0.00000008,0.00000223,0.00000159,0.00000022,0.00000042,0.00
 000032,0.00000037,0.00000047,0.00000050,-0.00000026,-0.00000068,0.0000
 0025,-0.00000053,-0.00000058,0.00000025,-0.00000067,0.00000079,0.00000
 100,-0.00000075,0.00001069,0.00000573,-0.00000196,-0.00000161,0.000000
 34,-0.00000007\\\@


 IT IS A SIMPLE TASK TO MAKE THINGS COMPLEX,
 BUT A COMPLEX TASK TO MAKE THEM SIMPLE.
 Job cpu time:       0 days  1 hours  3 minutes 24.5 seconds.
 File lengths (MBytes):  RWF=    277 Int=      0 D2E=      0 Chk=      8 Scr=      1
 Normal termination of Gaussian 09 at Wed Jul 28 22:41:14 2021.
