 Entering Gaussian System, Link 0=g09
 Input=opt_freq-conf-580.com
 Output=opt_freq-conf-580.log
 Initial command:
 /aerosol/software/g09/l1.exe "/scratch/nicole/10661/Gau-82944.inp" -scrdir="/scratch/nicole/10661/"
 Entering Link 1 = /aerosol/software/g09/l1.exe PID=     82950.
  
 Copyright (c) 1988,1990,1992,1993,1995,1998,2003,2009,2013,
            Gaussian, Inc.  All Rights Reserved.
  
 This is part of the Gaussian(R) 09 program.  It is based on
 the Gaussian(R) 03 system (copyright 2003, Gaussian, Inc.),
 the Gaussian(R) 98 system (copyright 1998, Gaussian, Inc.),
 the Gaussian(R) 94 system (copyright 1995, Gaussian, Inc.),
 the Gaussian 92(TM) system (copyright 1992, Gaussian, Inc.),
 the Gaussian 90(TM) system (copyright 1990, Gaussian, Inc.),
 the Gaussian 88(TM) system (copyright 1988, Gaussian, Inc.),
 the Gaussian 86(TM) system (copyright 1986, Carnegie Mellon
 University), and the Gaussian 82(TM) system (copyright 1983,
 Carnegie Mellon University). Gaussian is a federally registered
 trademark of Gaussian, Inc.
  
 This software contains proprietary and confidential information,
 including trade secrets, belonging to Gaussian, Inc.
  
 This software is provided under written license and may be
 used, copied, transmitted, or stored only in accord with that
 written license.
  
 The following legend is applicable only to US Government
 contracts under FAR:
  
                    RESTRICTED RIGHTS LEGEND
  
 Use, reproduction and disclosure by the US Government is
 subject to restrictions as set forth in subparagraphs (a)
 and (c) of the Commercial Computer Software - Restricted
 Rights clause in FAR 52.227-19.
  
 Gaussian, Inc.
 340 Quinnipiac St., Bldg. 40, Wallingford CT 06492
  
  
 ---------------------------------------------------------------
 Warning -- This program may not be used in any manner that
 competes with the business of Gaussian, Inc. or will provide
 assistance to any competitor of Gaussian, Inc.  The licensee
 of this program is prohibited from giving any competitor of
 Gaussian, Inc. access to this program.  By using this program,
 the user acknowledges that Gaussian, Inc. is engaged in the
 business of creating and licensing software in the field of
 computational chemistry and represents and warrants to the
 licensee that it is not a competitor of Gaussian, Inc. and that
 it will not use this program in any manner prohibited above.
 ---------------------------------------------------------------
  

 Cite this work as:
 Gaussian 09, Revision D.01,
 M. J. Frisch, G. W. Trucks, H. B. Schlegel, G. E. Scuseria, 
 M. A. Robb, J. R. Cheeseman, G. Scalmani, V. Barone, B. Mennucci, 
 G. A. Petersson, H. Nakatsuji, M. Caricato, X. Li, H. P. Hratchian, 
 A. F. Izmaylov, J. Bloino, G. Zheng, J. L. Sonnenberg, M. Hada, 
 M. Ehara, K. Toyota, R. Fukuda, J. Hasegawa, M. Ishida, T. Nakajima, 
 Y. Honda, O. Kitao, H. Nakai, T. Vreven, J. A. Montgomery, Jr., 
 J. E. Peralta, F. Ogliaro, M. Bearpark, J. J. Heyd, E. Brothers, 
 K. N. Kudin, V. N. Staroverov, T. Keith, R. Kobayashi, J. Normand, 
 K. Raghavachari, A. Rendell, J. C. Burant, S. S. Iyengar, J. Tomasi, 
 M. Cossi, N. Rega, J. M. Millam, M. Klene, J. E. Knox, J. B. Cross, 
 V. Bakken, C. Adamo, J. Jaramillo, R. Gomperts, R. E. Stratmann, 
 O. Yazyev, A. J. Austin, R. Cammi, C. Pomelli, J. W. Ochterski, 
 R. L. Martin, K. Morokuma, V. G. Zakrzewski, G. A. Voth, 
 P. Salvador, J. J. Dannenberg, S. Dapprich, A. D. Daniels, 
 O. Farkas, J. B. Foresman, J. V. Ortiz, J. Cioslowski, 
 and D. J. Fox, Gaussian, Inc., Wallingford CT, 2013.
 
 ******************************************
 Gaussian 09:  ES64L-G09RevD.01 24-Apr-2013
                28-Jul-2021 
 ******************************************
 %mem=2gb
 %nproc=4
 Will use up to    4 processors via shared memory.
 %chk=conf-580.chk
 ----------------------------------------------------------------------
 # B3LYP/6-31G(d) opt=calcfc freq=noraman nosymm integral(ultrafinegrid
 )
 ----------------------------------------------------------------------
 1/10=4,14=-1,18=20,19=15,26=4,38=1/1,3;
 2/9=110,12=2,15=1,17=6,18=5,40=1/2;
 3/5=1,6=6,7=1,11=2,16=1,25=1,30=1,71=2,74=-5,75=-5,140=1/1,2,3;
 4//1;
 5/5=2,38=5/2;
 8/6=4,10=90,11=11/1;
 11/6=1,8=1,9=11,15=111,16=1,31=1/1,2,10;
 10/6=1,13=1,31=1/2;
 6/7=2,8=2,9=2,10=2,28=1/1;
 7/10=1,18=20,25=1,30=1/1,2,3,16;
 1/10=4,14=-1,18=20,19=15,26=4/3(2);
 2/9=110,15=1/2;
 99//99;
 2/9=110,15=1/2;
 3/5=1,6=6,7=1,11=2,16=1,25=1,30=1,71=1,74=-5,75=-5/1,2,3;
 4/5=5,16=3,69=1/1;
 5/5=2,38=5/2;
 7/30=1/1,2,3,16;
 1/14=-1,18=20,19=15,26=4/3(-5);
 2/9=110,15=1/2;
 6/7=2,8=2,9=2,10=2,19=2,28=1/1;
 99/9=1/99;
 ------------------------------------------------------------
 Candidate Structure: Conf:580 OPT and FREQ calc in gas phase
 ------------------------------------------------------------
 Symbolic Z-matrix:
 Charge =  1 Multiplicity = 1
 O                     1.1626    0.47867  -1.24083 
 C                     1.43062   0.39643  -0.04924 
 N                     0.44893   0.32097   0.88846 
 C                    -0.95542   0.32737   0.51041 
 C                    -1.72354   0.76875   1.73533 
 O                    -2.59503   1.76808   1.49955 
 O                    -1.57563   0.26701   2.82237 
 C                    -1.39558  -1.08541   0.07214 
 C                    -2.827    -1.1616   -0.34837 
 C                    -3.94651  -1.63385   0.27999 
 N                    -5.07043  -1.45394  -0.50815 
 C                    -4.63104  -0.88057  -1.60483 
 N                    -3.28184  -0.68161  -1.55821 
 C                     2.85113   0.35726   0.49446 
 C                     3.88925   0.67519  -0.5716 
 N                     5.27509   0.60883  -0.03633 
 H                     0.66614   0.21415   1.86708 
 H                    -1.09215   1.03096  -0.31002 
 H                    -3.03128   1.94422   2.34426 
 H                    -1.24299  -1.76764   0.90622 
 H                    -0.73868  -1.39207  -0.73967 
 H                    -4.00148  -2.07935   1.265 
 H                    -5.22149  -0.59048  -2.45542 
 H                    -2.71356  -0.26592  -2.27903 
 H                     3.04083  -0.64193   0.90267 
 H                     2.93715   1.06208   1.32718 
 H                     3.77607  -0.02889  -1.39457 
 H                     3.69767   1.66864  -0.97572 
 H                     5.96943   0.81982  -0.75442 
 H                     5.41211   1.27593   0.72291 
 H                     5.48682  -0.32092   0.32558 
 

 GradGradGradGradGradGradGradGradGradGradGradGradGradGradGradGradGradGrad
 Berny optimization.
 Initialization pass.
                           ----------------------------
                           !    Initial Parameters    !
                           ! (Angstroms and Degrees)  !
 --------------------------                            --------------------------
 ! Name  Definition              Value          Derivative Info.                !
 --------------------------------------------------------------------------------
 ! R1    R(1,2)                  1.2241         calculate D2E/DX2 analytically  !
 ! R2    R(2,3)                  1.3597         calculate D2E/DX2 analytically  !
 ! R3    R(2,14)                 1.5215         calculate D2E/DX2 analytically  !
 ! R4    R(3,4)                  1.4544         calculate D2E/DX2 analytically  !
 ! R5    R(3,17)                 1.0081         calculate D2E/DX2 analytically  !
 ! R6    R(4,5)                  1.5117         calculate D2E/DX2 analytically  !
 ! R7    R(4,8)                  1.5433         calculate D2E/DX2 analytically  !
 ! R8    R(4,18)                 1.0894         calculate D2E/DX2 analytically  !
 ! R9    R(5,6)                  1.3468         calculate D2E/DX2 analytically  !
 ! R10   R(5,7)                  1.2064         calculate D2E/DX2 analytically  !
 ! R11   R(6,19)                 0.9669         calculate D2E/DX2 analytically  !
 ! R12   R(8,9)                  1.4938         calculate D2E/DX2 analytically  !
 ! R13   R(8,20)                 1.0883         calculate D2E/DX2 analytically  !
 ! R14   R(8,21)                 1.0884         calculate D2E/DX2 analytically  !
 ! R15   R(9,10)                 1.3679         calculate D2E/DX2 analytically  !
 ! R16   R(9,13)                 1.3788         calculate D2E/DX2 analytically  !
 ! R17   R(10,11)                1.3845         calculate D2E/DX2 analytically  !
 ! R18   R(10,22)                1.0825         calculate D2E/DX2 analytically  !
 ! R19   R(11,12)                1.3132         calculate D2E/DX2 analytically  !
 ! R20   R(12,13)                1.3646         calculate D2E/DX2 analytically  !
 ! R21   R(12,23)                1.0753         calculate D2E/DX2 analytically  !
 ! R22   R(13,24)                1.0076         calculate D2E/DX2 analytically  !
 ! R23   R(14,15)                1.5216         calculate D2E/DX2 analytically  !
 ! R24   R(14,25)                1.0959         calculate D2E/DX2 analytically  !
 ! R25   R(14,26)                1.0943         calculate D2E/DX2 analytically  !
 ! R26   R(15,16)                1.4871         calculate D2E/DX2 analytically  !
 ! R27   R(15,27)                1.089          calculate D2E/DX2 analytically  !
 ! R28   R(15,28)                1.0895         calculate D2E/DX2 analytically  !
 ! R29   R(16,29)                1.0209         calculate D2E/DX2 analytically  !
 ! R30   R(16,30)                1.0199         calculate D2E/DX2 analytically  !
 ! R31   R(16,31)                1.0199         calculate D2E/DX2 analytically  !
 ! A1    A(1,2,3)              121.1297         calculate D2E/DX2 analytically  !
 ! A2    A(1,2,14)             123.6408         calculate D2E/DX2 analytically  !
 ! A3    A(3,2,14)             115.227          calculate D2E/DX2 analytically  !
 ! A4    A(2,3,4)              121.176          calculate D2E/DX2 analytically  !
 ! A5    A(2,3,17)             121.3189         calculate D2E/DX2 analytically  !
 ! A6    A(4,3,17)             117.442          calculate D2E/DX2 analytically  !
 ! A7    A(3,4,5)              106.3383         calculate D2E/DX2 analytically  !
 ! A8    A(3,4,8)              110.1931         calculate D2E/DX2 analytically  !
 ! A9    A(3,4,18)             108.6502         calculate D2E/DX2 analytically  !
 ! A10   A(5,4,8)              110.6385         calculate D2E/DX2 analytically  !
 ! A11   A(5,4,18)             110.9702         calculate D2E/DX2 analytically  !
 ! A12   A(8,4,18)             109.9717         calculate D2E/DX2 analytically  !
 ! A13   A(4,5,6)              113.8036         calculate D2E/DX2 analytically  !
 ! A14   A(4,5,7)              123.1211         calculate D2E/DX2 analytically  !
 ! A15   A(6,5,7)              123.0739         calculate D2E/DX2 analytically  !
 ! A16   A(5,6,19)             105.914          calculate D2E/DX2 analytically  !
 ! A17   A(4,8,9)              113.5732         calculate D2E/DX2 analytically  !
 ! A18   A(4,8,20)             108.435          calculate D2E/DX2 analytically  !
 ! A19   A(4,8,21)             107.3141         calculate D2E/DX2 analytically  !
 ! A20   A(9,8,20)             108.5493         calculate D2E/DX2 analytically  !
 ! A21   A(9,8,21)             110.7317         calculate D2E/DX2 analytically  !
 ! A22   A(20,8,21)            108.0823         calculate D2E/DX2 analytically  !
 ! A23   A(8,9,10)             132.2612         calculate D2E/DX2 analytically  !
 ! A24   A(8,9,13)             123.049          calculate D2E/DX2 analytically  !
 ! A25   A(10,9,13)            104.6715         calculate D2E/DX2 analytically  !
 ! A26   A(9,10,11)            110.9795         calculate D2E/DX2 analytically  !
 ! A27   A(9,10,22)            126.988          calculate D2E/DX2 analytically  !
 ! A28   A(11,10,22)           122.0242         calculate D2E/DX2 analytically  !
 ! A29   A(10,11,12)           105.1009         calculate D2E/DX2 analytically  !
 ! A30   A(11,12,13)           111.4658         calculate D2E/DX2 analytically  !
 ! A31   A(11,12,23)           126.488          calculate D2E/DX2 analytically  !
 ! A32   A(13,12,23)           122.046          calculate D2E/DX2 analytically  !
 ! A33   A(9,13,12)            107.782          calculate D2E/DX2 analytically  !
 ! A34   A(9,13,24)            125.8228         calculate D2E/DX2 analytically  !
 ! A35   A(12,13,24)           126.3934         calculate D2E/DX2 analytically  !
 ! A36   A(2,14,15)            112.4095         calculate D2E/DX2 analytically  !
 ! A37   A(2,14,25)            108.5535         calculate D2E/DX2 analytically  !
 ! A38   A(2,14,26)            109.1908         calculate D2E/DX2 analytically  !
 ! A39   A(15,14,25)           109.474          calculate D2E/DX2 analytically  !
 ! A40   A(15,14,26)           110.1769         calculate D2E/DX2 analytically  !
 ! A41   A(25,14,26)           106.8689         calculate D2E/DX2 analytically  !
 ! A42   A(14,15,16)           111.9807         calculate D2E/DX2 analytically  !
 ! A43   A(14,15,27)           108.8738         calculate D2E/DX2 analytically  !
 ! A44   A(14,15,28)           109.2953         calculate D2E/DX2 analytically  !
 ! A45   A(16,15,27)           109.8784         calculate D2E/DX2 analytically  !
 ! A46   A(16,15,28)           109.7596         calculate D2E/DX2 analytically  !
 ! A47   A(27,15,28)           106.9165         calculate D2E/DX2 analytically  !
 ! A48   A(15,16,29)           111.8023         calculate D2E/DX2 analytically  !
 ! A49   A(15,16,30)           111.3432         calculate D2E/DX2 analytically  !
 ! A50   A(15,16,31)           111.2144         calculate D2E/DX2 analytically  !
 ! A51   A(29,16,30)           107.2805         calculate D2E/DX2 analytically  !
 ! A52   A(29,16,31)           107.266          calculate D2E/DX2 analytically  !
 ! A53   A(30,16,31)           107.7099         calculate D2E/DX2 analytically  !
 ! D1    D(1,2,3,4)              0.3576         calculate D2E/DX2 analytically  !
 ! D2    D(1,2,3,17)           177.3943         calculate D2E/DX2 analytically  !
 ! D3    D(14,2,3,4)          -179.0877         calculate D2E/DX2 analytically  !
 ! D4    D(14,2,3,17)           -2.0511         calculate D2E/DX2 analytically  !
 ! D5    D(1,2,14,15)           10.0468         calculate D2E/DX2 analytically  !
 ! D6    D(1,2,14,25)         -111.2039         calculate D2E/DX2 analytically  !
 ! D7    D(1,2,14,26)          132.6334         calculate D2E/DX2 analytically  !
 ! D8    D(3,2,14,15)         -170.5235         calculate D2E/DX2 analytically  !
 ! D9    D(3,2,14,25)           68.2258         calculate D2E/DX2 analytically  !
 ! D10   D(3,2,14,26)          -47.9369         calculate D2E/DX2 analytically  !
 ! D11   D(2,3,4,5)           -158.491          calculate D2E/DX2 analytically  !
 ! D12   D(2,3,4,8)             81.5636         calculate D2E/DX2 analytically  !
 ! D13   D(2,3,4,18)           -38.9825         calculate D2E/DX2 analytically  !
 ! D14   D(17,3,4,5)            24.3615         calculate D2E/DX2 analytically  !
 ! D15   D(17,3,4,8)           -95.584          calculate D2E/DX2 analytically  !
 ! D16   D(17,3,4,18)          143.87           calculate D2E/DX2 analytically  !
 ! D17   D(3,4,5,6)            129.6372         calculate D2E/DX2 analytically  !
 ! D18   D(3,4,5,7)            -50.781          calculate D2E/DX2 analytically  !
 ! D19   D(8,4,5,6)           -110.7067         calculate D2E/DX2 analytically  !
 ! D20   D(8,4,5,7)             68.875          calculate D2E/DX2 analytically  !
 ! D21   D(18,4,5,6)            11.6523         calculate D2E/DX2 analytically  !
 ! D22   D(18,4,5,7)          -168.7659         calculate D2E/DX2 analytically  !
 ! D23   D(3,4,8,9)           -179.3492         calculate D2E/DX2 analytically  !
 ! D24   D(3,4,8,20)            59.9            calculate D2E/DX2 analytically  !
 ! D25   D(3,4,8,21)           -56.6265         calculate D2E/DX2 analytically  !
 ! D26   D(5,4,8,9)             63.3402         calculate D2E/DX2 analytically  !
 ! D27   D(5,4,8,20)           -57.4105         calculate D2E/DX2 analytically  !
 ! D28   D(5,4,8,21)          -173.9371         calculate D2E/DX2 analytically  !
 ! D29   D(18,4,8,9)           -59.6006         calculate D2E/DX2 analytically  !
 ! D30   D(18,4,8,20)          179.6487         calculate D2E/DX2 analytically  !
 ! D31   D(18,4,8,21)           63.1221         calculate D2E/DX2 analytically  !
 ! D32   D(4,5,6,19)           178.8089         calculate D2E/DX2 analytically  !
 ! D33   D(7,5,6,19)            -0.7731         calculate D2E/DX2 analytically  !
 ! D34   D(4,8,9,10)          -102.7806         calculate D2E/DX2 analytically  !
 ! D35   D(4,8,9,13)            75.411          calculate D2E/DX2 analytically  !
 ! D36   D(20,8,9,10)           17.9057         calculate D2E/DX2 analytically  !
 ! D37   D(20,8,9,13)         -163.9026         calculate D2E/DX2 analytically  !
 ! D38   D(21,8,9,10)          136.3996         calculate D2E/DX2 analytically  !
 ! D39   D(21,8,9,13)          -45.4088         calculate D2E/DX2 analytically  !
 ! D40   D(8,9,10,11)          178.3004         calculate D2E/DX2 analytically  !
 ! D41   D(8,9,10,22)           -0.6592         calculate D2E/DX2 analytically  !
 ! D42   D(13,9,10,11)          -0.1328         calculate D2E/DX2 analytically  !
 ! D43   D(13,9,10,22)        -179.0924         calculate D2E/DX2 analytically  !
 ! D44   D(8,9,13,12)         -178.5556         calculate D2E/DX2 analytically  !
 ! D45   D(8,9,13,24)            1.9074         calculate D2E/DX2 analytically  !
 ! D46   D(10,9,13,12)           0.0611         calculate D2E/DX2 analytically  !
 ! D47   D(10,9,13,24)        -179.4759         calculate D2E/DX2 analytically  !
 ! D48   D(9,10,11,12)           0.1538         calculate D2E/DX2 analytically  !
 ! D49   D(22,10,11,12)        179.1736         calculate D2E/DX2 analytically  !
 ! D50   D(10,11,12,13)         -0.1125         calculate D2E/DX2 analytically  !
 ! D51   D(10,11,12,23)        179.7345         calculate D2E/DX2 analytically  !
 ! D52   D(11,12,13,9)           0.034          calculate D2E/DX2 analytically  !
 ! D53   D(11,12,13,24)        179.5676         calculate D2E/DX2 analytically  !
 ! D54   D(23,12,13,9)        -179.821          calculate D2E/DX2 analytically  !
 ! D55   D(23,12,13,24)         -0.2873         calculate D2E/DX2 analytically  !
 ! D56   D(2,14,15,16)        -178.9104         calculate D2E/DX2 analytically  !
 ! D57   D(2,14,15,27)         -57.2083         calculate D2E/DX2 analytically  !
 ! D58   D(2,14,15,28)          59.2471         calculate D2E/DX2 analytically  !
 ! D59   D(25,14,15,16)        -58.188          calculate D2E/DX2 analytically  !
 ! D60   D(25,14,15,27)         63.5141         calculate D2E/DX2 analytically  !
 ! D61   D(25,14,15,28)        179.9695         calculate D2E/DX2 analytically  !
 ! D62   D(26,14,15,16)         59.0607         calculate D2E/DX2 analytically  !
 ! D63   D(26,14,15,27)       -179.2371         calculate D2E/DX2 analytically  !
 ! D64   D(26,14,15,28)        -62.7818         calculate D2E/DX2 analytically  !
 ! D65   D(14,15,16,29)        179.8294         calculate D2E/DX2 analytically  !
 ! D66   D(14,15,16,30)        -60.1839         calculate D2E/DX2 analytically  !
 ! D67   D(14,15,16,31)         59.9494         calculate D2E/DX2 analytically  !
 ! D68   D(27,15,16,29)         58.7058         calculate D2E/DX2 analytically  !
 ! D69   D(27,15,16,30)        178.6925         calculate D2E/DX2 analytically  !
 ! D70   D(27,15,16,31)        -61.1741         calculate D2E/DX2 analytically  !
 ! D71   D(28,15,16,29)        -58.5946         calculate D2E/DX2 analytically  !
 ! D72   D(28,15,16,30)         61.3921         calculate D2E/DX2 analytically  !
 ! D73   D(28,15,16,31)       -178.4746         calculate D2E/DX2 analytically  !
 --------------------------------------------------------------------------------
 Trust Radius=3.00D-01 FncErr=1.00D-07 GrdErr=1.00D-06
 Number of steps in this run=    167 maximum allowed number of steps=    186.
 GradGradGradGradGradGradGradGradGradGradGradGradGradGradGradGradGradGrad

                          Input orientation:                          
 ---------------------------------------------------------------------
 Center     Atomic      Atomic             Coordinates (Angstroms)
 Number     Number       Type             X           Y           Z
 ---------------------------------------------------------------------
      1          8           0        1.162603    0.478671   -1.240831
      2          6           0        1.430616    0.396434   -0.049241
      3          7           0        0.448932    0.320965    0.888456
      4          6           0       -0.955423    0.327373    0.510414
      5          6           0       -1.723545    0.768751    1.735326
      6          8           0       -2.595029    1.768084    1.499553
      7          8           0       -1.575633    0.267005    2.822369
      8          6           0       -1.395584   -1.085407    0.072144
      9          6           0       -2.826998   -1.161603   -0.348369
     10          6           0       -3.946509   -1.633854    0.279987
     11          7           0       -5.070431   -1.453941   -0.508152
     12          6           0       -4.631038   -0.880572   -1.604833
     13          7           0       -3.281841   -0.681612   -1.558207
     14          6           0        2.851131    0.357259    0.494464
     15          6           0        3.889249    0.675187   -0.571600
     16          7           0        5.275090    0.608825   -0.036333
     17          1           0        0.666139    0.214146    1.867082
     18          1           0       -1.092150    1.030957   -0.310017
     19          1           0       -3.031278    1.944219    2.344257
     20          1           0       -1.242985   -1.767641    0.906216
     21          1           0       -0.738682   -1.392072   -0.739669
     22          1           0       -4.001481   -2.079351    1.264996
     23          1           0       -5.221486   -0.590477   -2.455421
     24          1           0       -2.713556   -0.265923   -2.279028
     25          1           0        3.040831   -0.641932    0.902672
     26          1           0        2.937152    1.062081    1.327175
     27          1           0        3.776071   -0.028894   -1.394566
     28          1           0        3.697671    1.668637   -0.975717
     29          1           0        5.969430    0.819825   -0.754425
     30          1           0        5.412113    1.275928    0.722911
     31          1           0        5.486815   -0.320917    0.325582
 ---------------------------------------------------------------------
                    Distance matrix (angstroms):
                    1          2          3          4          5
     1  O    0.000000
     2  C    1.224125   0.000000
     3  N    2.251236   1.359660   0.000000
     4  C    2.752414   2.451768   1.454363   0.000000
     5  C    4.155900   3.643080   2.374312   1.511700   0.000000
     6  O    4.826188   4.526147   3.425389   2.396321   1.346752
     7  O    4.904318   4.159378   2.800320   2.394461   1.206354
     8  C    3.273311   3.193430   2.458961   1.543298   2.512297
     9  C    4.404986   4.543592   3.802560   2.541131   3.047238
    10  C    5.733993   5.757076   4.848861   3.584145   3.582191
    11  N    6.566774   6.774813   5.963571   4.598244   4.601652
    12  C    5.962073   6.387038   5.785004   4.409483   4.725510
    13  N    4.604353   5.064228   4.572744   3.272531   3.921632
    14  C    2.424277   1.521517   2.434566   3.806705   4.757807
    15  C    2.814443   2.528921   3.754067   4.976201   6.069112
    16  N    4.287226   3.850358   4.922388   6.260786   7.221166
    17  H    3.158413   2.071219   1.008116   2.117270   2.456732
    18  H    2.501068   2.614377   2.077344   1.089418   2.156580
    19  H    5.708706   5.294617   4.106844   3.207233   1.860830
    20  H    3.929705   3.569910   2.687969   2.151380   2.711392
    21  H    2.713987   2.895047   2.644942   2.136860   3.429972
    22  H    6.284140   6.112643   5.070452   3.954767   3.677213
    23  H    6.585962   7.142419   6.645742   5.276165   5.625429
    24  H    4.081284   4.752350   4.514280   3.350226   4.262125
    25  H    3.062369   2.139424   2.765016   4.130795   5.038116
    26  H    3.175539   2.146453   2.633052   4.044631   4.687720
    27  H    2.666734   2.737145   4.050240   5.113014   6.377949
    28  H    2.812983   2.759782   3.980662   5.065458   6.127734
    29  H    4.843404   4.612741   5.781334   7.056622   8.085996
    30  H    4.748710   4.149946   5.056929   6.441307   7.224945
    31  H    4.668169   4.136163   5.109708   6.477413   7.427251
                    6          7          8          9         10
     6  O    0.000000
     7  O    2.245495   0.000000
     8  C    3.408604   3.070045   0.000000
     9  C    3.471554   3.695999   1.493848   0.000000
    10  C    3.858370   3.962073   2.617481   1.367902   0.000000
    11  N    4.532101   5.125196   3.738591   2.268035   1.384461
    12  C    4.560474   5.500231   3.649982   2.216357   2.142092
    13  N    3.977766   4.795880   2.525680   1.378761   2.174283
    14  C    5.715006   5.002353   4.504912   5.937883   7.086497
    15  C    6.894198   6.445974   5.607456   6.966463   8.213158
    16  N    8.101951   7.431112   6.883320   8.299133   9.495660
    17  H    3.631118   2.437398   3.026771   4.359233   5.216368
    18  H    2.465065   3.260248   2.171892   2.796156   3.949264
    19  H    0.966882   2.271682   4.125121   4.115591   4.231012
    20  H    3.831635   2.814620   1.088304   2.109588   2.778327
    21  H    4.294965   4.017603   1.088395   2.137123   3.374657
    22  H    4.103156   3.716926   3.033400   2.196501   1.082466
    23  H    5.301218   6.471676   4.612057   3.240282   3.193221
    24  H    4.292891   5.253869   2.817200   2.131328   3.152771
    25  H    6.158520   5.081648   4.535221   6.022174   7.084812
    26  H    5.579712   4.820060   4.995939   6.401378   7.466555
    27  H    7.224678   6.819885   5.478456   6.780713   8.063390
    28  H    6.762760   6.648140   5.884218   7.139687   8.421207
    29  H    8.906715   8.368216   7.652226   9.025967  10.267248
    30  H    8.059760   7.365749   7.234926   8.658646   9.810546
    31  H    8.429611   7.513839   6.929365   8.383344   9.524363
                   11         12         13         14         15
    11  N    0.000000
    12  C    1.313212   0.000000
    13  N    2.213179   1.364585   0.000000
    14  C    8.187603   7.869061   6.550272   0.000000
    15  C    9.209402   8.722571   7.364701   1.521597   0.000000
    16  N   10.559708  10.139520   8.786489   2.494115   1.487101
    17  H    6.429035   6.427494   5.302974   2.584329   4.067944
    18  H    4.694752   4.225425   3.047231   4.080505   5.000933
    19  H    4.882814   5.112141   4.710307   6.367332   7.616190
    20  H    4.092455   4.309426   3.377835   4.631040   5.872919
    21  H    4.338373   4.020021   2.764492   4.179713   5.071445
    22  H    2.162833   3.173221   3.231413   7.313623   8.557113
    23  H    2.135473   1.075307   2.139047   8.646802   9.389152
    24  H    3.178403   2.123457   1.007635   6.248709   6.884623
    25  H    8.272990   8.074782   6.784813   1.095903   2.151300
    26  H    8.591867   8.345542   7.074021   1.094341   2.159056
    27  H    9.004281   8.452753   7.089918   2.138472   1.088950
    28  H    9.319266   8.732791   7.387594   2.144242   1.089475
    29  H   11.274271  10.769608   9.406721   3.390793   2.093203
    30  H   10.901901  10.532510   9.198930   2.730342   2.087047
    31  H   10.650555  10.315555   8.975973   2.726770   2.085516
                   16         17         18         19         20
    16  N    0.000000
    17  H    5.002119   0.000000
    18  H    6.387084   2.915222   0.000000
    19  H    8.743354   4.109956   3.411662   0.000000
    20  H    7.001521   2.914704   3.055180   4.363927   0.000000
    21  H    6.376812   3.368770   2.486083   5.088952   1.761905
    22  H    9.745487   5.235391   4.540803   4.277291   2.799140
    23  H   10.838285   7.348168   4.927801   5.853085   5.339924
    24  H    8.343460   5.370571   2.861444   5.134242   3.816217
    25  H    2.727277   2.702243   4.620682   6.755505   4.429257
    26  H    2.744185   2.483544   4.349326   6.118396   5.065380
    27  H    2.120976   4.513213   5.098931   8.013237   5.788589
    28  H    2.119881   4.403094   4.877722   7.508457   6.305534
    29  H    1.020923   5.946768   7.078699   9.585345   7.840385
    30  H    1.019928   4.996077   6.590325   8.623586   7.320331
    31  H    1.019917   5.089346   6.746431   9.042334   6.907993
                   21         22         23         24         25
    21  H    0.000000
    22  H    3.890616   0.000000
    23  H    4.866404   4.188873   0.000000
    24  H    2.745535   4.184182   2.534988   0.000000
    25  H    4.188641   7.196639   8.918819   6.586165   0.000000
    26  H    4.879187   7.616895   9.143432   6.833652   1.759151
    27  H    4.761317   8.471597   9.077269   6.553908   2.488714
    28  H    5.394895   8.851280   9.319039   6.822388   3.049347
    29  H    7.063390  10.578391  11.406969   8.882427   3.668705
    30  H    6.862190  10.008372  11.254275   8.798605   3.055074
    31  H    6.406165   9.695482  11.066814   8.604250   2.533559
                   26         27         28         29         30
    26  H    0.000000
    27  H    3.049900   0.000000
    28  H    2.499923   1.750198   0.000000
    29  H    3.685981   2.437402   2.435230   0.000000
    30  H    2.556619   2.977063   2.445173   1.643519   0.000000
    31  H    3.068657   2.443529   2.975356   1.643357   1.647229
                   31
    31  H    0.000000
 Symmetry turned off by external request.
 Stoichiometry    C9H15N4O3(1+)
 Framework group  C1[X(C9H15N4O3)]
 Deg. of freedom    87
 Full point group                 C1      NOp   1
 Rotational constants (GHZ):      1.0449480      0.2251058      0.2000292
 Standard basis: 6-31G(d) (6D, 7F)
   270 basis functions,   508 primitive gaussians,   270 cartesian basis functions
    60 alpha electrons       60 beta electrons
       nuclear repulsion energy      1111.5256414978 Hartrees.
 NAtoms=   31 NActive=   31 NUniq=   31 SFac= 1.00D+00 NAtFMM=   60 NAOKFM=F Big=F
 Integral buffers will be    131072 words long.
 Raffenetti 2 integral format.
 Two-electron integral symmetry is turned off.
 One-electron integrals computed using PRISM.
 NBasis=   270 RedAO= T EigKep=  1.19D-03  NBF=   270
 NBsUse=   270 1.00D-06 EigRej= -1.00D+00 NBFU=   270
 ExpMin= 1.61D-01 ExpMax= 5.48D+03 ExpMxC= 8.25D+02 IAcc=3 IRadAn=         5 AccDes= 0.00D+00
 Harris functional with IExCor=  402 and IRadAn=       5 diagonalized for initial guess.
 HarFok:  IExCor=  402 AccDes= 0.00D+00 IRadAn=         5 IDoV= 1 UseB2=F ITyADJ=14
 ICtDFT=  3500011 ScaDFX=  1.000000  1.000000  1.000000  1.000000
 FoFCou: FMM=F IPFlag=           0 FMFlag=      100000 FMFlg1=           0
         NFxFlg=           0 DoJE=T BraDBF=F KetDBF=T FulRan=T
         wScrn=  0.000000 ICntrl=     500 IOpCl=  0 I1Cent=   200000004 NGrid=           0
         NMat0=    1 NMatS0=      1 NMatT0=    0 NMatD0=    1 NMtDS0=    0 NMtDT0=    0
 Symmetry not used in FoFCou.
 Requested convergence on RMS density matrix=1.00D-08 within 128 cycles.
 Requested convergence on MAX density matrix=1.00D-06.
 Requested convergence on             energy=1.00D-06.
 No special actions if energy rises.
 Integral accuracy reduced to 1.0D-05 until final iterations.
 EnCoef did     2 forward-backward iterations
 Initial convergence to 1.0D-05 achieved.  Increase integral accuracy.
 SCF Done:  E(RB3LYP) =  -796.437815240     A.U. after   17 cycles
            NFock= 17  Conv=0.81D-08     -V/T= 2.0089
 DoSCS=F DFT=T ScalE2(SS,OS)=  1.000000  1.000000
 Range of M.O.s used for correlation:     1   270
 NBasis=   270 NAE=    60 NBE=    60 NFC=     0 NFV=     0
 NROrb=    270 NOA=    60 NOB=    60 NVA=   210 NVB=   210
 Symmetrizing basis deriv contribution to polar:
 IMax=3 JMax=2 DiffMx= 0.00D+00
 G2DrvN: will do    32 centers at a time, making    1 passes.
 Calling FoFCou, ICntrl=  3107 FMM=F I1Cent=   0 AccDes= 0.00D+00.
 End of G2Drv F.D. properties file   721 does not exist.
 End of G2Drv F.D. properties file   722 does not exist.
 End of G2Drv F.D. properties file   788 does not exist.
          IDoAtm=1111111111111111111111111111111
          Differentiating once with respect to nuclear coordinates.
          There are    96 degrees of freedom in the 1st order CPHF.  IDoFFX=6 NUNeed=     0.
     90 vectors produced by pass  0 Test12= 1.31D-14 1.04D-09 XBig12= 1.44D-01 1.24D-01.
 AX will form    90 AO Fock derivatives at one time.
     90 vectors produced by pass  1 Test12= 1.31D-14 1.04D-09 XBig12= 1.20D-02 3.40D-02.
     90 vectors produced by pass  2 Test12= 1.31D-14 1.04D-09 XBig12= 1.18D-04 1.71D-03.
     90 vectors produced by pass  3 Test12= 1.31D-14 1.04D-09 XBig12= 4.51D-07 1.17D-04.
     90 vectors produced by pass  4 Test12= 1.31D-14 1.04D-09 XBig12= 6.77D-10 3.70D-06.
     68 vectors produced by pass  5 Test12= 1.31D-14 1.04D-09 XBig12= 5.00D-13 8.57D-08.
     11 vectors produced by pass  6 Test12= 1.31D-14 1.04D-09 XBig12= 3.67D-16 2.69D-09.
 InvSVY:  IOpt=1 It=  1 EMax= 6.66D-16
 Solved reduced A of dimension   529 with    96 vectors.
 End of Minotr F.D. properties file   721 does not exist.
 End of Minotr F.D. properties file   722 does not exist.
 End of Minotr F.D. properties file   788 does not exist.

 **********************************************************************

            Population analysis using the SCF density.

 **********************************************************************

 Alpha  occ. eigenvalues --  -19.29406 -19.25195 -19.24249 -14.67797 -14.48947
 Alpha  occ. eigenvalues --  -14.45789 -14.37308 -10.43774 -10.43225 -10.42298
 Alpha  occ. eigenvalues --  -10.37880 -10.34713 -10.30232 -10.29467 -10.28837
 Alpha  occ. eigenvalues --  -10.26160  -1.22570  -1.20933  -1.17435  -1.12053
 Alpha  occ. eigenvalues --   -1.08009  -1.05438  -0.97540  -0.93500  -0.90207
 Alpha  occ. eigenvalues --   -0.85825  -0.82355  -0.80787  -0.79845  -0.76646
 Alpha  occ. eigenvalues --   -0.72689  -0.70666  -0.70496  -0.67971  -0.65822
 Alpha  occ. eigenvalues --   -0.65237  -0.64606  -0.61192  -0.59974  -0.59299
 Alpha  occ. eigenvalues --   -0.57602  -0.57238  -0.56749  -0.54992  -0.53611
 Alpha  occ. eigenvalues --   -0.52808  -0.51604  -0.50202  -0.49533  -0.48550
 Alpha  occ. eigenvalues --   -0.47526  -0.47077  -0.46371  -0.41762  -0.39683
 Alpha  occ. eigenvalues --   -0.38652  -0.37616  -0.34278  -0.32620  -0.29286
 Alpha virt. eigenvalues --   -0.17439  -0.12332  -0.10963  -0.10441  -0.09259
 Alpha virt. eigenvalues --   -0.07228  -0.04190  -0.03579  -0.02712  -0.02218
 Alpha virt. eigenvalues --   -0.00681  -0.00390   0.00349   0.01041   0.02251
 Alpha virt. eigenvalues --    0.03325   0.04354   0.05612   0.07252   0.08019
 Alpha virt. eigenvalues --    0.09139   0.11005   0.11161   0.13171   0.14579
 Alpha virt. eigenvalues --    0.15707   0.17340   0.19263   0.20856   0.21451
 Alpha virt. eigenvalues --    0.25319   0.26591   0.27761   0.31923   0.33752
 Alpha virt. eigenvalues --    0.34300   0.34682   0.36151   0.39073   0.40006
 Alpha virt. eigenvalues --    0.40417   0.42471   0.44629   0.45365   0.47770
 Alpha virt. eigenvalues --    0.48794   0.49185   0.49614   0.50384   0.51627
 Alpha virt. eigenvalues --    0.52532   0.54159   0.54638   0.56737   0.57273
 Alpha virt. eigenvalues --    0.57999   0.58902   0.60531   0.60569   0.61033
 Alpha virt. eigenvalues --    0.61310   0.61887   0.63473   0.65200   0.66906
 Alpha virt. eigenvalues --    0.67777   0.68809   0.68969   0.69727   0.71361
 Alpha virt. eigenvalues --    0.72463   0.73272   0.74677   0.74829   0.75438
 Alpha virt. eigenvalues --    0.75576   0.76844   0.77163   0.77720   0.79273
 Alpha virt. eigenvalues --    0.79412   0.80422   0.81517   0.81772   0.82587
 Alpha virt. eigenvalues --    0.83312   0.85420   0.86354   0.87558   0.89296
 Alpha virt. eigenvalues --    0.91379   0.93582   0.94778   0.97375   1.00240
 Alpha virt. eigenvalues --    1.00643   1.02570   1.07927   1.10922   1.13951
 Alpha virt. eigenvalues --    1.14052   1.16511   1.18798   1.21265   1.21938
 Alpha virt. eigenvalues --    1.25389   1.28284   1.28702   1.29922   1.30511
 Alpha virt. eigenvalues --    1.30558   1.34724   1.36036   1.37329   1.39123
 Alpha virt. eigenvalues --    1.39922   1.44904   1.46225   1.47790   1.50003
 Alpha virt. eigenvalues --    1.52489   1.54178   1.56117   1.60274   1.62287
 Alpha virt. eigenvalues --    1.63069   1.65967   1.66634   1.67743   1.68699
 Alpha virt. eigenvalues --    1.69299   1.70781   1.72156   1.72900   1.75418
 Alpha virt. eigenvalues --    1.76360   1.78156   1.78245   1.79801   1.80964
 Alpha virt. eigenvalues --    1.81867   1.83949   1.84988   1.86404   1.87497
 Alpha virt. eigenvalues --    1.90124   1.93295   1.94967   2.00379   2.02125
 Alpha virt. eigenvalues --    2.03226   2.05099   2.06458   2.07939   2.08477
 Alpha virt. eigenvalues --    2.10214   2.14384   2.14705   2.15685   2.17127
 Alpha virt. eigenvalues --    2.18080   2.20626   2.24739   2.24927   2.28046
 Alpha virt. eigenvalues --    2.29134   2.30289   2.31969   2.34693   2.35178
 Alpha virt. eigenvalues --    2.40304   2.40550   2.42670   2.44951   2.51221
 Alpha virt. eigenvalues --    2.52190   2.52650   2.53775   2.56392   2.59128
 Alpha virt. eigenvalues --    2.63453   2.64383   2.67758   2.70245   2.73717
 Alpha virt. eigenvalues --    2.77852   2.82920   2.87584   2.89033   2.93524
 Alpha virt. eigenvalues --    2.96160   2.99346   3.05638   3.07620   3.53188
 Alpha virt. eigenvalues --    3.74409   3.85658   3.91653   3.92221   3.97493
 Alpha virt. eigenvalues --    4.02350   4.07508   4.12147   4.19009   4.23568
 Alpha virt. eigenvalues --    4.28144   4.32971   4.36810   4.50388   4.59217
          Condensed to atoms (all electrons):
               1          2          3          4          5          6
     1  O    8.090343   0.570947  -0.097589   0.005194   0.000549   0.000000
     2  C    0.570947   4.273764   0.321173  -0.029214   0.006243  -0.000094
     3  N   -0.097589   0.321173   7.162255   0.198806  -0.022417   0.000539
     4  C    0.005194  -0.029214   0.198806   5.170948   0.280620  -0.079251
     5  C    0.000549   0.006243  -0.022417   0.280620   4.389063   0.296547
     6  O    0.000000  -0.000094   0.000539  -0.079251   0.296547   8.185768
     7  O   -0.000004   0.000472  -0.006713  -0.085604   0.543013  -0.086101
     8  C   -0.004042  -0.003117  -0.047974   0.323811  -0.032467  -0.000878
     9  C   -0.000142   0.000080   0.003829  -0.051552   0.004201   0.001269
    10  C   -0.000001  -0.000002  -0.000045  -0.004256   0.005251  -0.000558
    11  N    0.000000   0.000000   0.000000  -0.000074  -0.000045  -0.000029
    12  C    0.000000   0.000000   0.000000   0.000227  -0.000075   0.000109
    13  N    0.000002  -0.000008   0.000018   0.000397  -0.001157  -0.000168
    14  C   -0.096100   0.280235  -0.132388   0.006865  -0.000162   0.000000
    15  C    0.009412  -0.019122   0.004111  -0.000136   0.000000   0.000000
    16  N    0.000337   0.002127  -0.000013   0.000000   0.000000   0.000000
    17  H    0.002906  -0.021108   0.291427  -0.033714  -0.001896   0.000602
    18  H    0.009120  -0.002099  -0.045141   0.367151  -0.031769   0.004681
    19  H    0.000000   0.000003  -0.000240   0.010283  -0.007991   0.224596
    20  H    0.000027   0.000300  -0.001055  -0.038207  -0.007978   0.000240
    21  H    0.005890   0.005246  -0.008186  -0.043899   0.005469  -0.000098
    22  H    0.000000   0.000000  -0.000001   0.000064   0.000163  -0.000030
    23  H    0.000000   0.000000   0.000000   0.000000  -0.000001   0.000001
    24  H    0.000062   0.000005  -0.000033   0.000215   0.000104  -0.000019
    25  H    0.000392  -0.015185  -0.000373  -0.000048  -0.000003   0.000000
    26  H    0.001348  -0.015965   0.002680  -0.000019  -0.000019   0.000000
    27  H    0.008178   0.001549   0.000384  -0.000004   0.000000   0.000000
    28  H    0.003491   0.000540   0.000249  -0.000004   0.000000   0.000000
    29  H    0.000014   0.000037   0.000001   0.000000   0.000000   0.000000
    30  H    0.000006  -0.000023   0.000000   0.000000   0.000000   0.000000
    31  H    0.000011  -0.000001   0.000001   0.000000   0.000000   0.000000
               7          8          9         10         11         12
     1  O   -0.000004  -0.004042  -0.000142  -0.000001   0.000000   0.000000
     2  C    0.000472  -0.003117   0.000080  -0.000002   0.000000   0.000000
     3  N   -0.006713  -0.047974   0.003829  -0.000045   0.000000   0.000000
     4  C   -0.085604   0.323811  -0.051552  -0.004256  -0.000074   0.000227
     5  C    0.543013  -0.032467   0.004201   0.005251  -0.000045  -0.000075
     6  O   -0.086101  -0.000878   0.001269  -0.000558  -0.000029   0.000109
     7  O    8.059770  -0.000618  -0.002195   0.000140   0.000003   0.000000
     8  C   -0.000618   5.214868   0.349390  -0.055174   0.007035   0.005990
     9  C   -0.002195   0.349390   4.740948   0.563639  -0.043485  -0.089182
    10  C    0.000140  -0.055174   0.563639   4.939128   0.419927  -0.116388
    11  N    0.000003   0.007035  -0.043485   0.419927   6.651850   0.535612
    12  C    0.000000   0.005990  -0.089182  -0.116388   0.535612   4.729691
    13  N    0.000004  -0.071824   0.340682  -0.072610  -0.081528   0.348798
    14  C   -0.000035  -0.000586  -0.000004   0.000000   0.000000   0.000000
    15  C    0.000000   0.000005   0.000000   0.000000   0.000000   0.000000
    16  N    0.000000   0.000000   0.000000   0.000000   0.000000   0.000000
    17  H    0.019045   0.001488  -0.000022  -0.000002   0.000000   0.000000
    18  H    0.002983  -0.037189  -0.002373  -0.000066   0.000010  -0.000008
    19  H    0.008673  -0.000362   0.000124   0.000124  -0.000004  -0.000008
    20  H    0.006015   0.362411  -0.024695  -0.003281   0.000069  -0.000044
    21  H    0.000037   0.355600  -0.019966   0.002696  -0.000159   0.000036
    22  H    0.000146  -0.001341  -0.059937   0.382759  -0.040791   0.007410
    23  H    0.000000  -0.000163   0.002986   0.007365  -0.037319   0.383015
    24  H    0.000000  -0.002353  -0.029382   0.008777   0.005123  -0.022267
    25  H    0.000000   0.000077   0.000000   0.000000   0.000000   0.000000
    26  H   -0.000001   0.000004   0.000000   0.000000   0.000000   0.000000
    27  H    0.000000   0.000000   0.000000   0.000000   0.000000   0.000000
    28  H    0.000000   0.000001   0.000000   0.000000   0.000000   0.000000
    29  H    0.000000   0.000000   0.000000   0.000000   0.000000   0.000000
    30  H    0.000000   0.000000   0.000000   0.000000   0.000000   0.000000
    31  H    0.000000   0.000000   0.000000   0.000000   0.000000   0.000000
              13         14         15         16         17         18
     1  O    0.000002  -0.096100   0.009412   0.000337   0.002906   0.009120
     2  C   -0.000008   0.280235  -0.019122   0.002127  -0.021108  -0.002099
     3  N    0.000018  -0.132388   0.004111  -0.000013   0.291427  -0.045141
     4  C    0.000397   0.006865  -0.000136   0.000000  -0.033714   0.367151
     5  C   -0.001157  -0.000162   0.000000   0.000000  -0.001896  -0.031769
     6  O   -0.000168   0.000000   0.000000   0.000000   0.000602   0.004681
     7  O    0.000004  -0.000035   0.000000   0.000000   0.019045   0.002983
     8  C   -0.071824  -0.000586   0.000005   0.000000   0.001488  -0.037189
     9  C    0.340682  -0.000004   0.000000   0.000000  -0.000022  -0.002373
    10  C   -0.072610   0.000000   0.000000   0.000000  -0.000002  -0.000066
    11  N   -0.081528   0.000000   0.000000   0.000000   0.000000   0.000010
    12  C    0.348798   0.000000   0.000000   0.000000   0.000000  -0.000008
    13  N    6.892152   0.000000   0.000000   0.000000   0.000000   0.003047
    14  C    0.000000   5.424721   0.322092  -0.042683   0.001383   0.000716
    15  C    0.000000   0.322092   5.119025   0.155875  -0.000036   0.000008
    16  N    0.000000  -0.042683   0.155875   6.756153  -0.000009   0.000000
    17  H    0.000000   0.001383  -0.000036  -0.000009   0.383159   0.004226
    18  H    0.003047   0.000716   0.000008   0.000000   0.004226   0.529063
    19  H    0.000007   0.000000   0.000000   0.000000  -0.000085  -0.000396
    20  H    0.003651   0.000042   0.000000   0.000000   0.001786   0.005149
    21  H   -0.003895   0.000137  -0.000002   0.000000  -0.000383  -0.004686
    22  H    0.004814   0.000000   0.000000   0.000000   0.000000   0.000008
    23  H   -0.057877   0.000000   0.000000   0.000000   0.000000   0.000004
    24  H    0.301934   0.000000   0.000000   0.000000   0.000000   0.000529
    25  H    0.000000   0.358574  -0.037755  -0.002016   0.000497  -0.000014
    26  H    0.000000   0.353774  -0.038036  -0.001954   0.001061  -0.000027
    27  H    0.000000  -0.038704   0.381421  -0.030461  -0.000013  -0.000002
    28  H    0.000000  -0.036384   0.385111  -0.031275  -0.000009  -0.000004
    29  H    0.000000   0.003530  -0.022163   0.309122   0.000000   0.000000
    30  H    0.000000  -0.001041  -0.018038   0.301874   0.000000   0.000000
    31  H    0.000000  -0.000569  -0.019533   0.301959   0.000000   0.000000
              19         20         21         22         23         24
     1  O    0.000000   0.000027   0.005890   0.000000   0.000000   0.000062
     2  C    0.000003   0.000300   0.005246   0.000000   0.000000   0.000005
     3  N   -0.000240  -0.001055  -0.008186  -0.000001   0.000000  -0.000033
     4  C    0.010283  -0.038207  -0.043899   0.000064   0.000000   0.000215
     5  C   -0.007991  -0.007978   0.005469   0.000163  -0.000001   0.000104
     6  O    0.224596   0.000240  -0.000098  -0.000030   0.000001  -0.000019
     7  O    0.008673   0.006015   0.000037   0.000146   0.000000   0.000000
     8  C   -0.000362   0.362411   0.355600  -0.001341  -0.000163  -0.002353
     9  C    0.000124  -0.024695  -0.019966  -0.059937   0.002986  -0.029382
    10  C    0.000124  -0.003281   0.002696   0.382759   0.007365   0.008777
    11  N   -0.000004   0.000069  -0.000159  -0.040791  -0.037319   0.005123
    12  C   -0.000008  -0.000044   0.000036   0.007410   0.383015  -0.022267
    13  N    0.000007   0.003651  -0.003895   0.004814  -0.057877   0.301934
    14  C    0.000000   0.000042   0.000137   0.000000   0.000000   0.000000
    15  C    0.000000   0.000000  -0.000002   0.000000   0.000000   0.000000
    16  N    0.000000   0.000000   0.000000   0.000000   0.000000   0.000000
    17  H   -0.000085   0.001786  -0.000383   0.000000   0.000000   0.000000
    18  H   -0.000396   0.005149  -0.004686   0.000008   0.000004   0.000529
    19  H    0.336227  -0.000023   0.000009   0.000006   0.000000   0.000000
    20  H   -0.000023   0.539419  -0.028530   0.002601   0.000004  -0.000063
    21  H    0.000009  -0.028530   0.557530  -0.000021  -0.000005   0.001834
    22  H    0.000006   0.002601  -0.000021   0.557973  -0.000140  -0.000094
    23  H    0.000000   0.000004  -0.000005  -0.000140   0.530820   0.000551
    24  H    0.000000  -0.000063   0.001834  -0.000094   0.000551   0.400620
    25  H    0.000000  -0.000013  -0.000020   0.000000   0.000000   0.000000
    26  H    0.000000   0.000001   0.000000   0.000000   0.000000   0.000000
    27  H    0.000000   0.000000  -0.000001   0.000000   0.000000   0.000000
    28  H    0.000000   0.000000   0.000000   0.000000   0.000000   0.000000
    29  H    0.000000   0.000000   0.000000   0.000000   0.000000   0.000000
    30  H    0.000000   0.000000   0.000000   0.000000   0.000000   0.000000
    31  H    0.000000   0.000000   0.000000   0.000000   0.000000   0.000000
              25         26         27         28         29         30
     1  O    0.000392   0.001348   0.008178   0.003491   0.000014   0.000006
     2  C   -0.015185  -0.015965   0.001549   0.000540   0.000037  -0.000023
     3  N   -0.000373   0.002680   0.000384   0.000249   0.000001   0.000000
     4  C   -0.000048  -0.000019  -0.000004  -0.000004   0.000000   0.000000
     5  C   -0.000003  -0.000019   0.000000   0.000000   0.000000   0.000000
     6  O    0.000000   0.000000   0.000000   0.000000   0.000000   0.000000
     7  O    0.000000  -0.000001   0.000000   0.000000   0.000000   0.000000
     8  C    0.000077   0.000004   0.000000   0.000001   0.000000   0.000000
     9  C    0.000000   0.000000   0.000000   0.000000   0.000000   0.000000
    10  C    0.000000   0.000000   0.000000   0.000000   0.000000   0.000000
    11  N    0.000000   0.000000   0.000000   0.000000   0.000000   0.000000
    12  C    0.000000   0.000000   0.000000   0.000000   0.000000   0.000000
    13  N    0.000000   0.000000   0.000000   0.000000   0.000000   0.000000
    14  C    0.358574   0.353774  -0.038704  -0.036384   0.003530  -0.001041
    15  C   -0.037755  -0.038036   0.381421   0.385111  -0.022163  -0.018038
    16  N   -0.002016  -0.001954  -0.030461  -0.031275   0.309122   0.301874
    17  H    0.000497   0.001061  -0.000013  -0.000009   0.000000   0.000000
    18  H   -0.000014  -0.000027  -0.000002  -0.000004   0.000000   0.000000
    19  H    0.000000   0.000000   0.000000   0.000000   0.000000   0.000000
    20  H   -0.000013   0.000001   0.000000   0.000000   0.000000   0.000000
    21  H   -0.000020   0.000000  -0.000001   0.000000   0.000000   0.000000
    22  H    0.000000   0.000000   0.000000   0.000000   0.000000   0.000000
    23  H    0.000000   0.000000   0.000000   0.000000   0.000000   0.000000
    24  H    0.000000   0.000000   0.000000   0.000000   0.000000   0.000000
    25  H    0.520423  -0.030239  -0.004253   0.004316  -0.000026  -0.000366
    26  H   -0.030239   0.530676   0.004450  -0.004260  -0.000023   0.004367
    27  H   -0.004253   0.004450   0.443072  -0.022244  -0.001494   0.003412
    28  H    0.004316  -0.004260  -0.022244   0.450157  -0.001711  -0.002861
    29  H   -0.000026  -0.000023  -0.001494  -0.001711   0.297295  -0.013515
    30  H   -0.000366   0.004367   0.003412  -0.002861  -0.013515   0.308499
    31  H    0.004784  -0.000289  -0.002735   0.003544  -0.013193  -0.014969
              31
     1  O    0.000011
     2  C   -0.000001
     3  N    0.000001
     4  C    0.000000
     5  C    0.000000
     6  O    0.000000
     7  O    0.000000
     8  C    0.000000
     9  C    0.000000
    10  C    0.000000
    11  N    0.000000
    12  C    0.000000
    13  N    0.000000
    14  C   -0.000569
    15  C   -0.019533
    16  N    0.301959
    17  H    0.000000
    18  H    0.000000
    19  H    0.000000
    20  H    0.000000
    21  H    0.000000
    22  H    0.000000
    23  H    0.000000
    24  H    0.000000
    25  H    0.004784
    26  H   -0.000289
    27  H   -0.002735
    28  H    0.003544
    29  H   -0.013193
    30  H   -0.014969
    31  H    0.308367
 Mulliken charges:
               1
     1  O   -0.510349
     2  C    0.643218
     3  N   -0.623305
     4  C    0.001401
     5  C    0.574756
     6  O   -0.547125
     7  O   -0.459029
     8  C   -0.362594
     9  C    0.315787
    10  C   -0.077422
    11  N   -0.416194
    12  C    0.217083
    13  N   -0.606440
    14  C   -0.403415
    15  C   -0.222241
    16  N   -0.719036
    17  H    0.349696
    18  H    0.197078
    19  H    0.429056
    20  H    0.182175
    21  H    0.175367
    22  H    0.146414
    23  H    0.170760
    24  H    0.334455
    25  H    0.201247
    26  H    0.192472
    27  H    0.257445
    28  H    0.251342
    29  H    0.442125
    30  H    0.432655
    31  H    0.432623
 Sum of Mulliken charges =   1.00000
 Mulliken charges with hydrogens summed into heavy atoms:
               1
     1  O   -0.510349
     2  C    0.643218
     3  N   -0.273610
     4  C    0.198479
     5  C    0.574756
     6  O   -0.118070
     7  O   -0.459029
     8  C   -0.005052
     9  C    0.315787
    10  C    0.068991
    11  N   -0.416194
    12  C    0.387843
    13  N   -0.271985
    14  C   -0.009696
    15  C    0.286546
    16  N    0.588366
 APT charges:
               1
     1  O   -0.414309
     2  C    0.206971
     3  N   -0.747689
     4  C   -0.319865
     5  C   -0.345951
     6  O   -0.705621
     7  O    0.152263
     8  C   -0.852594
     9  C   -0.715022
    10  C   -0.169853
    11  N    0.451415
    12  C   -0.613426
    13  N   -0.658947
    14  C   -0.703417
    15  C   -0.258757
    16  N   -2.000132
    17  H    0.620117
    18  H    0.356426
    19  H    1.014756
    20  H    0.432335
    21  H    0.288711
    22  H    0.563533
    23  H    0.991026
    24  H    0.316253
    25  H    0.396086
    26  H    0.446748
    27  H    0.287890
    28  H    0.363185
    29  H    1.225578
    30  H    0.744292
    31  H    0.647997
 Sum of APT charges =   1.00000
 APT charges with hydrogens summed into heavy atoms:
               1
     1  O   -0.414309
     2  C    0.206971
     3  N   -0.127572
     4  C    0.036561
     5  C   -0.345951
     6  O    0.309135
     7  O    0.152263
     8  C   -0.131548
     9  C   -0.715022
    10  C    0.393680
    11  N    0.451415
    12  C    0.377600
    13  N   -0.342693
    14  C    0.139417
    15  C    0.392318
    16  N    0.617736
 Electronic spatial extent (au):  <R**2>=           5468.5145
 Charge=              1.0000 electrons
 Dipole moment (field-independent basis, Debye):
    X=             23.6611    Y=              4.3202    Z=              0.3971  Tot=             24.0556
 Quadrupole moment (field-independent basis, Debye-Ang):
   XX=             20.4468   YY=            -87.1506   ZZ=            -83.3245
   XY=              2.9579   XZ=              5.9531   YZ=              3.6232
 Traceless Quadrupole moment (field-independent basis, Debye-Ang):
   XX=             70.4563   YY=            -37.1412   ZZ=            -33.3151
   XY=              2.9579   XZ=              5.9531   YZ=              3.6232
 Octapole moment (field-independent basis, Debye-Ang**2):
  XXX=            968.9925  YYY=             32.0559  ZZZ=            -63.7006  XYY=             98.5949
  XXY=            138.2366  XXZ=            -24.5550  XZZ=             41.1538  YZZ=             17.4078
  YYZ=              3.8217  XYZ=             -6.9137
 Hexadecapole moment (field-independent basis, Debye-Ang**3):
 XXXX=          -2414.8209 YYYY=           -595.7044 ZZZZ=           -874.2161 XXXY=           -364.5848
 XXXZ=            -37.4821 YYYX=           -477.6281 YYYZ=           -115.0691 ZZZX=             41.3332
 ZZZY=            -79.6418 XXYY=           -948.0118 XXZZ=           -792.0264 YYZZ=           -209.2438
 XXYZ=            -24.5117 YYXZ=            -64.3734 ZZXY=           -173.3164
 N-N= 1.111525641498D+03 E-N=-4.065656801778D+03  KE= 7.893981244193D+02
  Exact polarizability:   0.000   0.000   0.000   0.000   0.000   0.000
 Approx polarizability: 199.328   4.019 131.233   0.738 -25.237 198.960
 Calling FoFJK, ICntrl=    100147 FMM=F ISym2X=0 I1Cent= 0 IOpClX= 0 NMat=1 NMatS=1 NMatT=0.
 -------------------------------------------------------------------
 Center     Atomic                   Forces (Hartrees/Bohr)
 Number     Number              X              Y              Z
 -------------------------------------------------------------------
      1        8           0.013713278    0.001708018   -0.008655173
      2        6          -0.023599409   -0.000951264    0.002233668
      3        7           0.016344699    0.004412724   -0.002507266
      4        6           0.000834204   -0.001075486   -0.002729360
      5        6          -0.013090751    0.010029930   -0.002466279
      6        8           0.009736906   -0.005708818   -0.010390757
      7        8           0.006730664   -0.005263897    0.009883098
      8        6          -0.009780490   -0.001299254   -0.001634698
      9        6           0.005986486    0.000208913    0.000553728
     10        6          -0.009414154    0.000147407    0.000330599
     11        7           0.002290466   -0.002079474    0.004752977
     12        6           0.002142680   -0.001968813    0.005089670
     13        7           0.001379976    0.003267723   -0.005105378
     14        6           0.011806013   -0.002245313    0.010473218
     15        6          -0.030930657    0.001465644   -0.011914895
     16        7           0.003997065    0.000378559   -0.000511660
     17        1          -0.001151406   -0.001742336    0.005223155
     18        1           0.000101837    0.001789164   -0.000006086
     19        1          -0.006998878    0.002449248    0.007891597
     20        1           0.001545948   -0.002180854    0.003389524
     21        1           0.003953811   -0.001559178   -0.003211107
     22        1          -0.001578458   -0.000947812   -0.000600725
     23        1          -0.003404162    0.000835597   -0.003358755
     24        1           0.001001844    0.000791920   -0.002752450
     25        1          -0.000986969   -0.002446740    0.001929592
     26        1          -0.000427598    0.001420515    0.002805802
     27        1           0.005563031   -0.001534920   -0.002324616
     28        1           0.006091775    0.002945746   -0.000898405
     29        1           0.004275816    0.001391286   -0.004843782
     30        1           0.001682834    0.003845474    0.005871608
     31        1           0.002183600   -0.006083710    0.003483155
 -------------------------------------------------------------------
 Cartesian Forces:  Max     0.030930657 RMS     0.006564710
 FormGI is forming the generalized inverse of G from B-inverse, IUseBI=4.

 GradGradGradGradGradGradGradGradGradGradGradGradGradGradGradGradGradGrad
 Berny optimization.
 Internal  Forces:  Max     0.018491379 RMS     0.003977048
 Search for a local minimum.
 Step number   1 out of a maximum of  167
 All quantities printed in internal units (Hartrees-Bohrs-Radians)
 Mixed Optimization -- RFO/linear search
 Second derivative matrix not updated -- analytic derivatives used.
 ITU=  0
     Eigenvalues ---   -0.00058   0.00074   0.00182   0.00211   0.00222
     Eigenvalues ---    0.00345   0.00448   0.00463   0.00524   0.00924
     Eigenvalues ---    0.01962   0.02041   0.02346   0.02572   0.03374
     Eigenvalues ---    0.03898   0.03977   0.04045   0.04243   0.04384
     Eigenvalues ---    0.04449   0.04535   0.04741   0.05161   0.05198
     Eigenvalues ---    0.05271   0.05339   0.05739   0.06120   0.07542
     Eigenvalues ---    0.08115   0.08491   0.10353   0.10829   0.11055
     Eigenvalues ---    0.11200   0.11866   0.12130   0.13544   0.13583
     Eigenvalues ---    0.14105   0.14763   0.15651   0.16084   0.16198
     Eigenvalues ---    0.16362   0.16550   0.18730   0.19635   0.20223
     Eigenvalues ---    0.21450   0.23036   0.23245   0.24549   0.24806
     Eigenvalues ---    0.25404   0.27221   0.30204   0.31979   0.32752
     Eigenvalues ---    0.33504   0.33858   0.34254   0.34371   0.35014
     Eigenvalues ---    0.35131   0.35301   0.35414   0.35835   0.36133
     Eigenvalues ---    0.37513   0.37686   0.38869   0.41708   0.42920
     Eigenvalues ---    0.44331   0.44513   0.45025   0.45055   0.47329
     Eigenvalues ---    0.47895   0.48091   0.48721   0.52785   0.58817
     Eigenvalues ---    0.84258   0.92310
 RFO step:  Lambda=-1.12490266D-02 EMin=-5.78710405D-04
 Linear search not attempted -- first point.
 Iteration  1 RMS(Cart)=  0.14906480 RMS(Int)=  0.01896178
 Iteration  2 RMS(Cart)=  0.03818810 RMS(Int)=  0.00076849
 Iteration  3 RMS(Cart)=  0.00132042 RMS(Int)=  0.00036197
 Iteration  4 RMS(Cart)=  0.00000206 RMS(Int)=  0.00036197
 Iteration  5 RMS(Cart)=  0.00000000 RMS(Int)=  0.00036197
 Variable       Old X    -DE/DX   Delta X   Delta X   Delta X     New X
                                 (Linear)    (Quad)   (Total)
    R1        2.31326   0.00554   0.00000   0.00802   0.00802   2.32128
    R2        2.56938  -0.00317   0.00000  -0.02657  -0.02657   2.54281
    R3        2.87525   0.00451   0.00000   0.03474   0.03474   2.90999
    R4        2.74835   0.00835   0.00000   0.01770   0.01770   2.76605
    R5        1.90506   0.00501   0.00000   0.01165   0.01165   1.91672
    R6        2.85670   0.00626   0.00000   0.02242   0.02242   2.87912
    R7        2.91641   0.00678   0.00000   0.02541   0.02541   2.94182
    R8        2.05870   0.00115   0.00000   0.00325   0.00325   2.06195
    R9        2.54499  -0.00375   0.00000  -0.01984  -0.01984   2.52515
   R10        2.27968   0.01192   0.00000   0.01299   0.01299   2.29267
   R11        1.82714   0.01050   0.00000   0.01977   0.01977   1.84691
   R12        2.82296   0.00182   0.00000  -0.00079  -0.00079   2.82218
   R13        2.05660   0.00418   0.00000   0.01188   0.01188   2.06847
   R14        2.05677   0.00522   0.00000   0.01570   0.01570   2.07247
   R15        2.58496   0.00799   0.00000   0.01559   0.01559   2.60055
   R16        2.60548   0.00588   0.00000   0.01427   0.01428   2.61976
   R17        2.61625  -0.00601   0.00000  -0.01854  -0.01855   2.59770
   R18        2.04556  -0.00008   0.00000   0.00038   0.00038   2.04594
   R19        2.48161   0.00151   0.00000   0.00176   0.00175   2.48336
   R20        2.57869   0.00342   0.00000   0.00562   0.00562   2.58431
   R21        2.03204   0.00475   0.00000   0.01189   0.01189   2.04393
   R22        1.90415   0.00286   0.00000   0.00531   0.00531   1.90946
   R23        2.87540   0.00344   0.00000   0.00339   0.00339   2.87879
   R24        2.07096   0.00278   0.00000   0.00760   0.00760   2.07856
   R25        2.06800   0.00302   0.00000   0.00298   0.00298   2.07098
   R26        2.81021   0.01277   0.00000   0.06198   0.06198   2.87219
   R27        2.05782   0.00217   0.00000   0.00314   0.00314   2.06096
   R28        2.05881   0.00195   0.00000   0.00320   0.00320   2.06201
   R29        1.92927   0.00660   0.00000   0.01284   0.01284   1.94211
   R30        1.92739   0.00711   0.00000   0.01382   0.01382   1.94121
   R31        1.92736   0.00723   0.00000   0.01441   0.01441   1.94177
    A1        2.11411   0.01849   0.00000   0.06124   0.06123   2.17535
    A2        2.15794  -0.01691   0.00000  -0.07443  -0.07443   2.08351
    A3        2.01109  -0.00158   0.00000   0.01316   0.01316   2.02425
    A4        2.11492   0.00409   0.00000   0.02343   0.02315   2.13807
    A5        2.11741   0.00016   0.00000   0.00703   0.00673   2.12414
    A6        2.04975  -0.00427   0.00000  -0.03239  -0.03264   2.01711
    A7        1.85595  -0.00069   0.00000  -0.00526  -0.00521   1.85075
    A8        1.92323   0.00342   0.00000   0.01610   0.01607   1.93930
    A9        1.89630  -0.00074   0.00000   0.00365   0.00358   1.89988
   A10        1.93101  -0.00188   0.00000  -0.00872  -0.00871   1.92230
   A11        1.93680   0.00009   0.00000  -0.00628  -0.00630   1.93050
   A12        1.91937  -0.00013   0.00000   0.00083   0.00071   1.92008
   A13        1.98625  -0.00480   0.00000  -0.01676  -0.01676   1.96949
   A14        2.14887  -0.00232   0.00000  -0.01449  -0.01449   2.13438
   A15        2.14804   0.00712   0.00000   0.03125   0.03125   2.17929
   A16        1.84855   0.00396   0.00000   0.02990   0.02990   1.87845
   A17        1.98223   0.00039   0.00000   0.00449   0.00449   1.98671
   A18        1.89255  -0.00099   0.00000  -0.00971  -0.00973   1.88282
   A19        1.87298  -0.00029   0.00000  -0.00515  -0.00523   1.86776
   A20        1.89454   0.00048   0.00000   0.00310   0.00311   1.89765
   A21        1.93263   0.00054   0.00000   0.01328   0.01328   1.94591
   A22        1.88639  -0.00020   0.00000  -0.00713  -0.00721   1.87918
   A23        2.30839  -0.00094   0.00000  -0.00957  -0.00959   2.29880
   A24        2.14761   0.00206   0.00000   0.01391   0.01389   2.16150
   A25        1.82686  -0.00112   0.00000  -0.00439  -0.00435   1.82251
   A26        1.93696   0.00123   0.00000   0.00525   0.00521   1.94216
   A27        2.21636   0.00116   0.00000   0.00686   0.00680   2.22316
   A28        2.12972  -0.00238   0.00000  -0.01181  -0.01186   2.11786
   A29        1.83436   0.00082   0.00000   0.00128   0.00127   1.83563
   A30        1.94545   0.00257   0.00000   0.00626   0.00627   1.95171
   A31        2.20763  -0.00229   0.00000  -0.00959  -0.00960   2.19803
   A32        2.13010  -0.00028   0.00000   0.00332   0.00332   2.13342
   A33        1.88115  -0.00349   0.00000  -0.00839  -0.00839   1.87276
   A34        2.19602   0.00255   0.00000   0.01189   0.01184   2.20786
   A35        2.20598   0.00094   0.00000  -0.00360  -0.00365   2.20234
   A36        1.96192  -0.01703   0.00000  -0.10095  -0.10116   1.86076
   A37        1.89462   0.00400   0.00000  -0.00455  -0.00574   1.88888
   A38        1.90574   0.00522   0.00000   0.04810   0.04887   1.95461
   A39        1.91068   0.00583   0.00000   0.01901   0.01693   1.92761
   A40        1.92295   0.00537   0.00000   0.03218   0.03293   1.95588
   A41        1.86521  -0.00273   0.00000   0.01125   0.01043   1.87564
   A42        1.95443  -0.00259   0.00000  -0.00774  -0.00734   1.94709
   A43        1.90021   0.00402   0.00000   0.02291   0.02223   1.92244
   A44        1.90756   0.00443   0.00000   0.05123   0.05067   1.95824
   A45        1.91774  -0.00277   0.00000  -0.03313  -0.03319   1.88455
   A46        1.91567  -0.00313   0.00000  -0.05149  -0.05139   1.86428
   A47        1.86604   0.00025   0.00000   0.02051   0.01812   1.88417
   A48        1.95132  -0.00071   0.00000  -0.00672  -0.00671   1.94461
   A49        1.94330   0.00111   0.00000   0.00779   0.00780   1.95110
   A50        1.94106   0.00114   0.00000   0.00242   0.00242   1.94348
   A51        1.87240  -0.00013   0.00000   0.00221   0.00222   1.87462
   A52        1.87215  -0.00014   0.00000   0.00191   0.00192   1.87406
   A53        1.87989  -0.00137   0.00000  -0.00791  -0.00792   1.87198
    D1        0.00624   0.00087   0.00000   0.04806   0.04824   0.05448
    D2        3.09611   0.00028   0.00000   0.00176   0.00142   3.09754
    D3       -3.12567   0.00065   0.00000   0.05197   0.05231  -3.07336
    D4       -0.03580   0.00005   0.00000   0.00567   0.00549  -0.03031
    D5        0.17535  -0.00027   0.00000   0.22593   0.22688   0.40223
    D6       -1.94087   0.00059   0.00000   0.27002   0.26937  -1.67150
    D7        2.31489  -0.00122   0.00000   0.23293   0.23244   2.54733
    D8       -2.97620   0.00018   0.00000   0.22278   0.22385  -2.75234
    D9        1.19077   0.00104   0.00000   0.26687   0.26634   1.45711
   D10       -0.83666  -0.00077   0.00000   0.22978   0.22941  -0.60724
   D11       -2.76619   0.00024   0.00000  -0.00221  -0.00202  -2.76821
   D12        1.42355   0.00103   0.00000   0.00250   0.00272   1.42627
   D13       -0.68037  -0.00042   0.00000  -0.01061  -0.01045  -0.69082
   D14        0.42519   0.00070   0.00000   0.04130   0.04111   0.46630
   D15       -1.66826   0.00149   0.00000   0.04602   0.04585  -1.62240
   D16        2.51100   0.00003   0.00000   0.03290   0.03269   2.54369
   D17        2.26260  -0.00032   0.00000   0.10353   0.10353   2.36613
   D18       -0.88630   0.00030   0.00000   0.10415   0.10415  -0.78215
   D19       -1.93220   0.00234   0.00000   0.11493   0.11493  -1.81727
   D20        1.20210   0.00296   0.00000   0.11555   0.11554   1.31764
   D21        0.20337   0.00093   0.00000   0.10563   0.10564   0.30901
   D22       -2.94552   0.00155   0.00000   0.10624   0.10625  -2.83927
   D23       -3.13023  -0.00057   0.00000  -0.01954  -0.01956   3.13339
   D24        1.04545  -0.00074   0.00000  -0.01952  -0.01952   1.02593
   D25       -0.98832   0.00016   0.00000  -0.00344  -0.00350  -0.99182
   D26        1.10549  -0.00067   0.00000  -0.01765  -0.01763   1.08786
   D27       -1.00200  -0.00084   0.00000  -0.01764  -0.01759  -1.01959
   D28       -3.03578   0.00005   0.00000  -0.00156  -0.00157  -3.03735
   D29       -1.04023   0.00058   0.00000  -0.00437  -0.00436  -1.04459
   D30        3.13546   0.00041   0.00000  -0.00436  -0.00432   3.13114
   D31        1.10169   0.00130   0.00000   0.01172   0.01170   1.11339
   D32        3.12080  -0.00106   0.00000  -0.04295  -0.04294   3.07786
   D33       -0.01349  -0.00163   0.00000  -0.04334  -0.04335  -0.05684
   D34       -1.79386   0.00041   0.00000   0.00860   0.00861  -1.78525
   D35        1.31617   0.00043   0.00000   0.00589   0.00592   1.32209
   D36        0.31251  -0.00024   0.00000   0.00138   0.00137   0.31388
   D37       -2.86064  -0.00023   0.00000  -0.00133  -0.00132  -2.86196
   D38        2.38062   0.00012   0.00000   0.00238   0.00235   2.38297
   D39       -0.79253   0.00014   0.00000  -0.00033  -0.00034  -0.79287
   D40        3.11193   0.00021   0.00000   0.00111   0.00117   3.11310
   D41       -0.01151  -0.00044   0.00000  -0.01762  -0.01765  -0.02916
   D42       -0.00232   0.00015   0.00000   0.00318   0.00319   0.00088
   D43       -3.12575  -0.00050   0.00000  -0.01555  -0.01563  -3.14138
   D44       -3.11638  -0.00011   0.00000  -0.00068  -0.00069  -3.11707
   D45        0.03329   0.00022   0.00000   0.01288   0.01296   0.04625
   D46        0.00107  -0.00011   0.00000  -0.00294  -0.00294  -0.00187
   D47       -3.13245   0.00022   0.00000   0.01063   0.01071  -3.12174
   D48        0.00268  -0.00014   0.00000  -0.00219  -0.00218   0.00050
   D49        3.12717   0.00051   0.00000   0.01567   0.01554  -3.14047
   D50       -0.00196   0.00007   0.00000   0.00024   0.00021  -0.00175
   D51        3.13696  -0.00012   0.00000  -0.00314  -0.00309   3.13387
   D52        0.00059   0.00002   0.00000   0.00173   0.00176   0.00235
   D53        3.13405  -0.00030   0.00000  -0.01184  -0.01174   3.12231
   D54       -3.13847   0.00020   0.00000   0.00495   0.00494  -3.13352
   D55       -0.00501  -0.00012   0.00000  -0.00862  -0.00856  -0.01357
   D56       -3.12258   0.00038   0.00000   0.17399   0.17372  -2.94886
   D57       -0.99847  -0.00204   0.00000   0.14292   0.14221  -0.85626
   D58        1.03406   0.00299   0.00000   0.20881   0.20912   1.24317
   D59       -1.01557  -0.00171   0.00000   0.11508   0.11497  -0.90060
   D60        1.10853  -0.00413   0.00000   0.08401   0.08347   1.19200
   D61        3.14106   0.00090   0.00000   0.14990   0.15038  -2.99175
   D62        1.03080   0.00160   0.00000   0.15898   0.15922   1.19002
   D63       -3.12828  -0.00082   0.00000   0.12791   0.12771  -3.00057
   D64       -1.09575   0.00421   0.00000   0.19380   0.19462  -0.90113
   D65        3.13861  -0.00009   0.00000  -0.00857  -0.00857   3.13005
   D66       -1.05041   0.00002   0.00000  -0.00498  -0.00498  -1.05539
   D67        1.04631  -0.00020   0.00000  -0.00811  -0.00811   1.03821
   D68        1.02461  -0.00155   0.00000  -0.00960  -0.00936   1.01525
   D69        3.11877  -0.00144   0.00000  -0.00601  -0.00577   3.11300
   D70       -1.06769  -0.00167   0.00000  -0.00914  -0.00890  -1.07659
   D71       -1.02267   0.00163   0.00000   0.01552   0.01529  -1.00738
   D72        1.07149   0.00174   0.00000   0.01911   0.01887   1.09036
   D73       -3.11497   0.00152   0.00000   0.01598   0.01574  -3.09922
         Item               Value     Threshold  Converged?
 Maximum Force            0.018491     0.000450     NO 
 RMS     Force            0.003977     0.000300     NO 
 Maximum Displacement     0.830482     0.001800     NO 
 RMS     Displacement     0.171915     0.001200     NO 
 Predicted change in Energy=-6.732189D-03
 GradGradGradGradGradGradGradGradGradGradGradGradGradGradGradGradGradGrad

                          Input orientation:                          
 ---------------------------------------------------------------------
 Center     Atomic      Atomic             Coordinates (Angstroms)
 Number     Number       Type             X           Y           Z
 ---------------------------------------------------------------------
      1          8           0        1.338390    0.427274   -1.228526
      2          6           0        1.478494    0.357522   -0.010169
      3          7           0        0.466377    0.341053    0.876386
      4          6           0       -0.938665    0.338987    0.466076
      5          6           0       -1.727641    0.853889    1.663425
      6          8           0       -2.659678    1.749352    1.324276
      7          8           0       -1.515338    0.468121    2.793927
      8          6           0       -1.410905   -1.095918    0.089921
      9          6           0       -2.842688   -1.169698   -0.328283
     10          6           0       -3.970615   -1.591443    0.337833
     11          7           0       -5.093842   -1.445391   -0.441062
     12          6           0       -4.662816   -0.939819   -1.574894
     13          7           0       -3.308610   -0.749466   -1.564488
     14          6           0        2.896433    0.262953    0.582961
     15          6           0        3.843569    0.847423   -0.457255
     16          7           0        5.296512    0.568662   -0.108917
     17          1           0        0.631744    0.244386    1.872417
     18          1           0       -1.057504    1.007194   -0.388302
     19          1           0       -3.154747    1.982419    2.134083
     20          1           0       -1.266927   -1.737296    0.965153
     21          1           0       -0.742220   -1.456847   -0.700868
     22          1           0       -4.029438   -1.994175    1.341084
     23          1           0       -5.272995   -0.696806   -2.434247
     24          1           0       -2.751064   -0.388482   -2.325954
     25          1           0        3.125917   -0.798395    0.758221
     26          1           0        2.973566    0.779608    1.546366
     27          1           0        3.642320    0.410578   -1.436080
     28          1           0        3.742141    1.930328   -0.544909
     29          1           0        5.933011    0.954377   -0.817650
     30          1           0        5.557612    0.980359    0.795274
     31          1           0        5.479801   -0.440601   -0.048606
 ---------------------------------------------------------------------
                    Distance matrix (angstroms):
                    1          2          3          4          5
     1  O    0.000000
     2  C    1.228368   0.000000
     3  N    2.280022   1.345598   0.000000
     4  C    2.839797   2.463698   1.463728   0.000000
     5  C    4.236264   3.650561   2.386660   1.523566   0.000000
     6  O    4.924352   4.565348   3.457764   2.384853   1.336252
     7  O    4.932095   4.103439   2.760489   2.401691   1.213228
     8  C    3.408378   3.235913   2.491505   1.556745   2.525467
     9  C    4.565323   4.594149   3.831906   2.555864   3.050432
    10  C    5.891879   5.797617   4.869443   3.596628   3.573203
    11  N    6.745412   6.828745   5.986910   4.612202   4.587686
    12  C    6.164689   6.468937   5.827352   4.435111   4.724336
    13  N    4.805434   5.153415   4.625756   3.305232   3.935687
    14  C    2.394992   1.539902   2.448953   3.837632   4.785255
    15  C    2.654676   2.456312   3.666120   4.897020   5.961183
    16  N    4.115853   3.825127   4.934860   6.265844   7.249916
    17  H    3.185695   2.067346   1.014282   2.110197   2.445786
    18  H    2.604341   2.645060   2.089352   1.091139   2.163832
    19  H    5.823564   5.357708   4.169943   3.223994   1.879290
    20  H    4.035501   3.588433   2.707721   2.160506   2.722881
    21  H    2.856095   2.949673   2.679717   2.150667   3.449701
    22  H    6.424943   6.139518   5.087394   3.970159   3.676090
    23  H    6.813790   7.250542   6.706551   5.317063   5.636054
    24  H    4.312012   4.879400   4.597731   3.407262   4.301863
    25  H    2.940184   2.154198   2.895766   4.230817   5.206386
    26  H    3.240056   2.199136   2.631957   4.082489   4.703250
    27  H    2.313321   2.591946   3.929243   4.960720   6.216103
    28  H    2.916251   2.807804   3.908517   5.046226   5.996164
    29  H    4.642973   4.566288   5.755868   7.017591   8.053038
    30  H    4.712060   4.204268   5.131858   6.536157   7.337888
    31  H    4.392801   4.080310   5.157617   6.486089   7.520237
                    6          7          8          9         10
     6  O    0.000000
     7  O    2.260739   0.000000
     8  C    3.343446   3.125503   0.000000
     9  C    3.359360   3.767294   1.493432   0.000000
    10  C    3.721900   4.037647   2.618993   1.376154   0.000000
    11  N    4.387249   5.189641   3.737393   2.270776   1.374644
    12  C    4.432763   5.565564   3.656625   2.218051   2.135949
    13  N    3.874295   4.867661   2.541335   1.386320   2.183117
    14  C    5.799078   4.939047   4.543432   5.985011   7.117248
    15  C    6.802907   6.279485   5.628984   6.985087   8.224458
    16  N    8.170009   7.405263   6.913741   8.325659   9.526033
    17  H    3.660443   2.347168   3.024256   4.349068   5.187189
    18  H    2.459814   3.259875   2.185560   2.815909   3.970693
    19  H    0.977344   2.327264   4.086043   4.012041   4.082235
    20  H    3.771663   2.875758   1.094589   2.116168   2.779341
    21  H    4.249420   4.064087   1.096702   2.152496   3.394046
    22  H    3.986291   3.807145   3.037925   2.207923   1.082666
    23  H    5.190338   6.542999   4.631032   3.250401   3.190767
    24  H    4.231178   5.336100   2.851832   2.146948   3.167046
    25  H    6.347011   5.223926   4.595421   6.078042   7.153071
    26  H    5.720417   4.669442   4.986222   6.414274   7.436672
    27  H    7.009070   6.670660   5.489380   6.766079   8.069179
    28  H    6.671574   6.397418   6.009580   7.281281   8.524595
    29  H    8.891240   8.292034   7.678574   9.042349  10.290683
    30  H    8.270130   7.367742   7.305387   8.743579   9.879805
    31  H    8.540013   7.605112   6.923182   8.359044   9.528071
                   11         12         13         14         15
    11  N    0.000000
    12  C    1.314138   0.000000
    13  N    2.221137   1.367559   0.000000
    14  C    8.234777   7.952688   6.643725   0.000000
    15  C    9.226840   8.763671   7.411456   1.523391   0.000000
    16  N   10.588966  10.179039   8.826340   2.516453   1.519899
    17  H    6.402333   6.427959   5.322260   2.606119   4.013333
    18  H    4.723345   4.265810   3.088163   4.138945   4.904161
    19  H    4.705459   4.956839   4.600684   6.479146   7.548488
    20  H    4.087534   4.315075   3.397552   4.634720   5.900947
    21  H    4.359386   4.049977   2.798676   4.224420   5.137944
    22  H    2.147130   3.164769   3.242105   7.323733   8.561129
    23  H    2.136646   1.081601   2.148967   8.761520   9.455415
    24  H    3.187237   2.126702   1.010444   6.385952   6.964817
    25  H    8.331946   8.131900   6.841090   1.099926   2.168207
    26  H    8.601370   8.426922   7.175041   1.095915   2.185406
    27  H    8.986391   8.415351   7.048236   2.157468   1.090611
    28  H    9.459432   8.941024   7.611434   2.183450   1.091170
    29  H   11.291244  10.790411   9.427004   3.414760   2.122992
    30  H   10.993920  10.665924   9.336523   2.764349   2.127074
    31  H   10.628525  10.268956   8.923534   2.750937   2.122088
                   16         17         18         19         20
    16  N    0.000000
    17  H    5.078475   0.000000
    18  H    6.375256   2.923403   0.000000
    19  H    8.857401   4.174535   3.422268   0.000000
    20  H    7.039162   2.890526   3.067234   4.332037   0.000000
    21  H    6.396826   3.376947   2.503718   5.068115   1.769066
[...]
 0.00000570,-0.00000529,0.00657246,-0.04409286,0.05742883,-0.00711923,0
 .00242135,-0.00369668,0.00657762,-0.01661903,-0.02709358,0.00007550,0.
 00119090,0.00176702,0.00001726,0.00008467,0.00004714,-0.00014182,0.000
 01159,-0.00036184,0.00009182,-0.00003730,0.00009697,0.00014473,0.00007
 534,0.00023264,0.00013668,0.00001318,0.00003030,-0.00001121,0.00003849
 ,0.00000146,0.00000609,0.00001143,-0.00000569,-0.00002085,-0.00000509,
 0.00000004,0.00001308,-0.00000081,0.00000249,-0.00001099,-0.00000473,0
 .00000690,-0.05158578,-0.01103448,-0.01335104,0.00054343,0.01171740,0.
 02210307,0.00130565,0.00042567,0.00022137,-0.00175311,-0.00058979,0.00
 017432,0.00014661,-0.00004469,0.00002976,-0.00003738,-0.00000679,0.000
 00245,-0.00000853,-0.00000545,0.00000787,0.00002699,0.00008924,0.00001
 179,-0.00000059,-0.00000382,0.00000121,-0.00000016,-0.00000011,-0.0000
 0004,0.00002784,-0.00000138,0.00000233,0.00034956,0.00356857,0.0071460
 6,0.05452179,0.00061101,0.00073640,0.00089993,0.00189388,0.00049910,0.
 00236509,-0.00040820,-0.00010538,0.00026017,-0.00005578,0.00004694,0.0
 0022521,-0.00004354,0.00000547,-0.00018776,0.00002539,-0.00001350,0.00
 005644,0.00003771,-0.00004328,0.00012877,0.00002861,-0.00001133,-0.000
 02343,-0.00001105,0.00001091,0.00000222,0.00000377,0.00001019,-0.00000
 839,-0.00001601,-0.00000653,0.00000045,0.00000801,0.00000196,-0.000000
 05,-0.00000711,-0.00000827,0.00001184,-0.01061511,-0.11597815,-0.11455
 766,0.00135260,0.00758627,0.01499796,0.00064812,0.00013119,-0.00012892
 ,-0.00061362,0.00034645,0.00006561,0.00006912,0.00000306,0.00001985,-0
 .00000208,0.00001190,-0.00000606,-0.00000480,-0.00001465,-0.00000622,0
 .00000550,0.00001172,0.00002781,-0.00000027,-0.00000123,0.00000052,0.0
 0000012,0.00000047,0.00000039,0.00001074,0.00000064,0.00000344,-0.0024
 7624,-0.01431061,-0.02789173,0.01103114,0.12039954,-0.00309701,0.00010
 650,0.00030127,0.00134041,-0.00425229,-0.01119542,0.00150746,0.0006520
 6,0.00115353,-0.00050683,0.00059253,-0.00000441,-0.00010237,-0.0000218
 0,-0.00003558,0.00003695,-0.00000511,0.00000561,0.00005362,0.00002504,
 0.00001845,0.00020146,-0.00007201,0.00003129,0.00000697,0.00007610,-0.
 00000286,-0.00001890,0.00000282,0.00001436,0.00001165,-0.00001528,0.00
 002242,0.00003464,0.00000717,-0.00000431,-0.00001479,0.00000650,-0.000
 01041,-0.01259336,-0.11296770,-0.24787580,-0.00261349,-0.00996431,-0.0
 1888808,0.00014460,0.00003336,0.00081362,-0.00010680,-0.00050482,0.000
 84529,0.00002022,-0.00005254,0.00004533,-0.00001252,-0.00000716,0.0000
 0317,-0.00000712,-0.00000447,0.00000404,0.00000749,0.00003524,0.000002
 51,-0.00000106,-0.00000160,0.00000038,0.00000134,-0.00000089,-0.000000
 06,0.00001453,-0.00000217,-0.00000752,0.00038452,0.00265993,0.00641569
 ,0.01203981,0.12199449,0.26939084,-0.00160672,-0.00073174,-0.00446181,
 0.00072785,0.00025205,0.00764693,0.00087242,-0.00010433,-0.00310450,-0
 .00045045,0.00003964,-0.00008476,-0.00020413,0.00017476,0.00025112,0.0
 0012773,-0.00007906,-0.00007225,0.00012168,-0.00010432,-0.00022889,-0.
 00003229,-0.00003553,0.00002582,0.00000394,0.00001491,0.00000752,-0.00
 003055,-0.00001870,0.00002978,0.00007836,0.00000597,0.00002283,-0.0000
 0570,-0.00000091,-0.00000246,0.00002395,0.00003156,-0.00003693,0.00501
 415,0.00952607,0.01762068,-0.05234826,-0.01640808,-0.03950926,-0.01744
 771,-0.01245352,-0.03336739,0.00063986,0.00007569,0.00006900,-0.000072
 57,0.00003925,0.00004290,-0.00001232,0.00001923,0.00001051,0.00001495,
 -0.00000257,-0.00001599,-0.00001576,-0.00010012,-0.00001600,-0.0000039
 0,-0.00000144,-0.00000139,0.00000206,-0.00000166,0.00000068,-0.0000431
 6,-0.00000359,-0.00002371,0.00055730,-0.00033113,-0.00038134,-0.003516
 56,-0.00243765,0.00251933,0.06919526,-0.00041501,-0.00184512,-0.000111
 07,-0.00037652,0.00082123,0.00007902,0.00025627,0.00018035,-0.00013559
 ,-0.00009523,0.00000131,-0.00012452,-0.00004180,0.00004212,0.00005194,
 0.00003798,-0.00002500,-0.00001533,0.00002270,-0.00002200,-0.00003532,
 -0.00001384,-0.00000398,0.00001679,-0.00000287,-0.00000115,-0.00001080
 ,-0.00000956,-0.00000775,0.00000694,0.00001791,-0.00000322,0.00001279,
 0.00000764,0.00000254,-0.00000120,0.00000660,-0.00000230,-0.00000938,0
 .00291967,0.00640404,0.01277278,-0.02241308,-0.10054223,-0.10440836,0.
 00560155,0.00345444,0.01241200,0.00015730,0.00012963,0.00005521,-0.000
 02537,-0.00000290,0.00002420,-0.00000359,0.00000462,0.00000153,-0.0000
 0302,-0.00000159,0.00000461,-0.00000489,-0.00000235,-0.00001052,-0.000
 00212,0.00000030,0.00000151,0.00000132,0.00000123,0.00000084,-0.000006
 32,0.00001560,-0.00000724,0.00079789,0.00063223,-0.00001105,-0.0022630
 4,-0.00034343,0.00177273,0.02104880,0.10035729,-0.00341175,-0.00005197
 ,0.00167320,-0.00105126,-0.00051493,-0.00312924,-0.00009345,0.00006495
 ,0.00002778,0.00003290,-0.00000481,0.00006312,0.00002467,-0.00004685,-
 0.00005561,-0.00002400,0.00001507,0.00001409,-0.00000576,0.00002083,0.
 00004495,0.00000586,0.00001548,0.00000427,0.00000296,-0.00000581,0.000
 01790,0.00001043,0.00000519,-0.00000738,-0.00001052,0.00000510,-0.0000
 1794,-0.00001954,-0.00000487,0.00000196,0.00000221,-0.00000440,0.00000
 054,0.00093662,-0.00833337,-0.02099682,-0.04918664,-0.10082799,-0.2798
 2567,-0.00096734,0.00017780,-0.00093885,-0.00004165,-0.00005093,0.0000
 7900,0.00002791,-0.00000692,0.00000743,0.00000164,-0.00000085,-0.00000
 010,-0.00000171,-0.00000192,-0.00000209,0.00001405,0.00002655,0.000012
 94,0.00000138,0.00000080,-0.00000109,-0.00000237,0.00000057,-0.0000000
 2,-0.00000177,-0.00000015,0.00001514,-0.00048757,0.00008751,0.00069113
 ,0.00193097,0.00253660,-0.00159814,0.05098704,0.10531081,0.29825691,-0
 .00049111,0.00072314,-0.00077440,0.00212692,-0.00079877,0.00116698,-0.
 00066521,0.00039743,0.00008079,0.00010347,-0.00006860,0.00010942,0.000
 05895,-0.00007660,-0.00002196,-0.00006604,0.00005458,0.00000679,-0.000
 04715,0.00004774,0.00000440,-0.00001999,0.00000263,-0.00001965,0.00000
 271,-0.00000703,0.00001115,0.00001242,0.00000639,-0.00000476,-0.000016
 89,0.00000789,-0.00001869,-0.00001954,-0.00000445,-0.00000038,-0.00000
 312,0.00000531,0.00000682,0.00304305,-0.02127778,0.00042036,-0.0495690
 7,0.00409416,-0.00137259,-0.01357694,0.04035155,-0.00266361,0.00008878
 ,-0.00013492,-0.00005863,-0.00004052,-0.00001534,-0.00003593,-0.000002
 69,-0.00001450,0.00000207,0.00001596,0.00001235,-0.00001022,0.00000158
 ,-0.00000298,0.00001945,0.00000280,-0.00000044,-0.00000191,-0.00000181
 ,-0.00000146,-0.00000135,0.00000261,-0.00001571,0.00000504,-0.00280613
 ,-0.00124899,0.00301520,0.00064638,0.00074046,-0.00036557,0.00223440,-
 0.00674793,0.00150507,0.06329759,-0.00017299,0.00066345,-0.00069835,0.
 00033049,-0.00007530,0.00121406,-0.00019460,-0.00002941,-0.00020946,0.
 00000749,-0.00001217,0.00003864,0.00000239,-0.00000518,0.00000016,-0.0
 0001092,0.00000496,0.00000090,-0.00000446,0.00000565,-0.00000601,-0.00
 001042,0.00001193,0.00000128,-0.00000056,-0.00000369,0.00000470,0.0000
 0402,0.00000047,-0.00000166,-0.00000219,0.00000302,-0.00000590,-0.0000
 0715,-0.00000162,0.00000024,0.00000052,0.00000092,0.00000029,-0.000842
 41,-0.00890389,0.00073240,0.01671830,-0.33095942,0.00949828,0.00129384
 ,-0.00302432,-0.00010513,0.00003275,-0.00006785,-0.00002034,-0.0000104
 1,0.00000429,-0.00001253,0.00000047,0.00000043,0.00000019,0.00000562,0
 .00000173,-0.00000384,-0.00000120,-0.00000840,0.00000207,0.00000069,0.
 00000017,-0.00000058,-0.00000055,-0.00000010,-0.00000016,-0.00000257,-
 0.00000307,0.00000244,-0.00125288,0.00085750,0.00107419,0.00014884,0.0
 0103556,-0.00003745,0.00059063,-0.00997915,0.00123887,-0.01746159,0.34
 894143,-0.00017759,0.00072637,0.00013183,-0.00057737,0.00000096,0.0001
 0737,0.00000331,-0.00038416,-0.00009202,0.00001983,-0.00001998,0.00000
 328,0.00004347,0.00001106,0.00005543,-0.00002691,0.00000532,-0.0000135
 9,-0.00002950,-0.00002898,-0.00003911,0.00000229,0.00002397,-0.0000035
 2,-0.00000062,-0.00001205,0.00000472,0.00000607,0.00000001,-0.00000340
 ,-0.00000213,0.00000337,-0.00000905,-0.00000935,-0.00000251,0.00000324
 ,0.00000367,0.,0.00000062,-0.00099311,0.02386727,-0.00099249,-0.000079
 79,0.00592118,-0.05298148,-0.00328554,0.00881612,-0.00142512,0.0000161
 5,0.00014157,-0.00000299,0.00000927,-0.00000003,0.00000805,0.00001106,
 0.00000447,0.00000066,-0.00000598,-0.00000151,0.00000381,0.00000308,-0
 .00000321,-0.00000648,0.00000027,0.00000164,-0.00000033,-0.00000098,-0
 .00000001,0.,-0.00000122,-0.00000472,0.00000625,0.00356421,0.00182632,
 -0.00238644,-0.00123336,-0.00009703,0.00093227,0.00342807,-0.02879635,
 0.00433208,0.00017586,-0.01284582,0.05194259,0.00064406,0.00027148,-0.
 00101658,0.00016006,-0.00059415,0.00357569,-0.00071443,-0.00000752,-0.
 00068084,0.00002464,0.00004677,0.00020668,-0.00008931,-0.00000323,-0.0
 0008412,0.00001206,0.00000336,0.00002790,0.00003504,-0.00000007,0.0000
 1848,-0.00002300,0.00001291,0.00000002,0.00000179,-0.00001460,0.000006
 59,-0.00000110,-0.00000299,0.00000087,0.00001676,0.00000692,-0.0000031
 4,-0.00001673,-0.00000430,0.00000220,0.00001221,0.00000619,-0.00000737
 ,-0.00622263,0.00233167,-0.00404854,-0.01739585,-0.01230650,0.02179020
 ,-0.18313631,-0.08243542,0.14967885,0.00001767,-0.00002022,-0.00004319
 ,-0.00001935,0.00000042,-0.00000233,-0.00001496,0.00000521,0.00000145,
 -0.00000074,-0.00000161,0.00000004,0.00000039,-0.00001273,-0.00000439,
 -0.00000183,-0.00000054,-0.00000009,-0.00000102,-0.00000059,0.00000028
 ,-0.00001137,-0.00000203,-0.00000008,0.00053028,0.00010467,-0.00041223
 ,0.00012340,0.00021961,0.00002409,0.00076669,-0.00102075,-0.00048282,0
 .00114578,0.00064623,0.00052239,0.18987657,0.00015246,-0.00014069,-0.0
 0000417,-0.00010161,0.00067243,-0.00038820,0.00036376,-0.00004657,0.00
 001606,-0.00006194,-0.00005067,-0.00008098,-0.00006608,0.00006337,0.00
 006313,0.00006975,-0.00004744,-0.00002002,0.00004610,-0.00003322,-0.00
 002947,-0.00001274,-0.00000884,0.00000168,-0.00000318,0.00000309,-0.00
 000337,-0.00000947,-0.00000583,0.00000500,0.00002070,-0.00000427,0.000
 01097,0.00000491,0.00000174,-0.00000041,0.00000672,-0.00000062,-0.0000
 1020,0.00166507,-0.00072460,0.00134132,0.00371327,0.00451783,-0.008411
 59,-0.07648472,-0.11529243,0.08851971,-0.00003200,0.00004734,0.0000564
 9,0.00001994,0.00000609,0.00000681,-0.00000391,0.00001199,0.00000149,-
 0.00000377,-0.00000120,0.00000418,-0.00000108,-0.00000488,-0.00000819,
 -0.00000251,0.00000042,0.00000157,0.00000081,0.00000166,0.00000131,-0.
 00000813,0.00001046,-0.00000579,-0.00006851,0.00031210,-0.00000690,-0.
 00026617,0.00004663,0.00010324,-0.00070811,0.00008402,-0.00004833,0.00
 084712,-0.00016999,-0.00050404,0.08394737,0.11366567,-0.00025783,-0.00
 002623,-0.00005460,-0.00011968,-0.00015825,0.00062517,-0.00046703,-0.0
 0000992,-0.00012701,0.00009976,0.00001293,0.00007792,0.00010743,-0.000
 06605,-0.00000037,-0.00010552,0.00004970,0.00000660,-0.00008243,0.0000
 1828,-0.00001226,0.00000343,0.00003964,0.00001441,0.00000389,-0.000019
 46,0.00001110,0.00002086,0.00000379,-0.00001086,-0.00002726,0.00000641
 ,-0.00002906,-0.00002316,-0.00000494,0.00000313,-0.00000097,-0.0000121
 7,0.00000658,-0.00147284,0.00084611,-0.00078092,-0.00313961,-0.0062322
 4,0.01003464,0.14024363,0.08964811,-0.23202175,0.00007927,-0.00001169,
 -0.00008311,-0.00001957,0.,-0.00000470,0.00001697,-0.00000242,-0.00000
 084,0.00000406,0.00000077,-0.00000468,0.00000473,0.00000739,0.00000821
 ,0.00000336,0.00000364,-0.00000135,-0.00000315,0.00000142,-0.00000030,
 0.00000288,0.00000353,0.00002211,0.00009477,0.00005293,-0.00019383,-0.
 00019096,0.00006867,0.00008757,-0.00075522,-0.00031714,0.00046680,0.00
 013504,-0.00008553,0.00029503,-0.15383175,-0.09833305,0.24105820,-0.00
 028562,-0.00026099,0.00163446,-0.00192365,0.00037575,-0.00203522,0.000
 68227,0.00004935,0.00028349,-0.00018307,-0.00000475,-0.00013055,-0.000
 16785,0.00009931,0.00004943,0.00016011,-0.00007547,-0.00002449,0.00012
 837,-0.00002800,-0.00001316,0.00000372,-0.00005446,-0.00001014,-0.0000
 0156,0.00002530,-0.00000125,-0.00002978,-0.00000724,0.00002066,0.00005
 230,-0.00000300,0.00002737,0.00001202,0.00000115,-0.00000019,0.0000122
 2,0.00002282,-0.00002381,0.00286077,-0.00079472,-0.00054122,-0.0072777
 2,-0.01387314,-0.03071452,-0.08484479,-0.03987543,-0.08594523,-0.00013
 357,-0.00001140,0.00012872,0.00002817,0.00000114,0.00001365,-0.0000274
 9,0.00000611,0.00000840,-0.00000647,-0.00000006,0.00000405,0.00000041,
 -0.00000974,-0.00001063,-0.00000520,-0.00000403,0.00000054,0.00000172,
 -0.00000148,0.00000088,-0.00001331,-0.00000489,-0.00002129,-0.00025138
 ,-0.00016919,0.00012096,-0.00060225,0.00031430,0.00105780,-0.00585906,
 0.00286458,0.00074434,0.00149498,0.00031156,0.00015804,0.00905945,0.01
 226120,0.02183515,0.08568183,0.00057023,0.00007169,-0.00002078,-0.0006
 6981,-0.00013477,0.00026756,0.00035802,-0.00008550,-0.00018654,-0.0001
 1299,0.00002874,-0.00006685,-0.00009533,0.00009332,0.00008458,0.000080
 71,-0.00005729,-0.00002347,0.00005689,-0.00005938,-0.00005267,0.000010
 40,-0.00001140,0.00000073,-0.00000277,0.00000877,-0.00000446,-0.000014
 30,-0.00000673,0.00000798,0.00003007,-0.00000528,0.00001520,0.00000687
 ,0.00000212,-0.00000010,0.00000878,0.00000391,-0.00001218,-0.00001621,
 -0.00014043,0.00034013,0.00006056,0.00545643,0.00915932,-0.03486774,-0
 .11504334,-0.11154545,-0.00002499,0.00007349,0.00005621,0.00000965,0.0
 0000911,0.00001549,-0.00000425,0.00001819,0.00000338,-0.00000582,-0.00
 000259,0.00000386,-0.00000300,-0.00002037,-0.00001304,-0.00000344,0.00
 000055,0.00000156,0.00000112,0.00000102,0.00000144,-0.00001136,0.00000
 689,-0.00000868,-0.00023308,-0.00042129,-0.00018507,-0.00001235,0.0002
 6081,-0.00025094,0.00223133,-0.00012809,0.00013677,0.00044103,0.000034
 04,0.00092858,0.00665793,0.00778336,0.01563128,0.03716184,0.11336252,0
 .00025070,0.00005782,-0.00029638,-0.00014335,0.00005766,-0.00022984,0.
 00043239,-0.00000686,-0.00014590,-0.00006917,-0.00002395,-0.00007720,0
 .00000066,0.00003857,0.00017823,0.00000977,-0.00001124,-0.00005103,-0.
 00000352,-0.00002528,-0.00012308,0.00000273,-0.00001123,0.00000787,0.0
 0000243,0.00000280,0.00000827,-0.00000433,-0.00000695,0.00001003,0.000
 01995,0.00000367,-0.00000430,-0.00000975,-0.00000250,0.00000199,0.0000
 0886,0.00000875,-0.00001615,0.00047359,0.00039553,0.00260060,-0.005318
 76,0.00056725,-0.00238924,-0.07592130,-0.11478842,-0.33111530,0.000063
 52,0.00002265,0.00008865,0.00000090,0.00000362,0.00000210,0.00000496,0
 .00000151,0.00000811,0.00000116,0.00000400,-0.00000143,-0.00000259,-0.
 00001555,-0.00000759,-0.00000042,0.00000170,-0.00000079,-0.00000086,0.
 00000021,0.00000012,-0.00001074,-0.00000027,0.00000095,-0.00004961,0.0
 0004733,0.00008483,-0.00010347,-0.00068380,-0.00032126,-0.00018058,0.0
 0075947,0.00120418,0.00038986,0.00032265,0.00004816,-0.00869085,-0.011
 62498,-0.02099889,0.08685164,0.12299627,0.34653774,0.00046372,-0.00021
 636,0.00049231,-0.00117821,-0.00033527,-0.00094150,0.00075407,-0.00001
 128,0.00000098,-0.00021895,0.00008292,-0.00014834,-0.00019410,0.000142
 46,0.00011601,0.00017242,-0.00009242,-0.00003861,0.00013254,-0.0000577
 5,-0.00006595,0.00001668,-0.00006395,-0.00000062,0.00000158,0.00002764
 ,-0.00000660,-0.00003786,-0.00001296,0.00002701,0.00006783,-0.00000470
 ,0.00003492,0.00001566,0.00000259,-0.00000041,0.00001718,0.00002382,-0
 .00003133,0.00209247,0.00141537,0.00009921,-0.00273250,0.03532110,-0.0
 0047510,-0.06631998,0.05280836,0.00025808,-0.00007639,0.00004279,0.000
 14219,0.00002402,0.00000600,0.00002154,-0.00002455,0.00001341,0.000009
 14,-0.00001075,-0.00000244,0.00000663,-0.00000636,-0.00002383,-0.00002
 324,-0.00000646,-0.00000314,0.00000099,0.00000230,-0.00000118,0.000001
 36,-0.00002014,0.00000207,-0.00002348,-0.00049241,-0.00158597,0.000889
 12,0.00005405,-0.00030865,0.00003294,0.00126852,-0.00029528,-0.0004398
 8,-0.00695216,-0.00011892,-0.00154360,0.00522177,-0.02528526,-0.002158
 24,0.00143442,-0.01160800,0.00199617,0.06653160,-0.00035079,-0.0002098
 0,0.00008861,0.00027260,-0.00011897,0.00024266,-0.00048340,-0.00005039
 ,0.00000525,0.00012729,0.00004555,0.00009065,0.00005052,-0.00004337,-0
 .00004397,-0.00006835,0.00002321,0.00002081,-0.00005863,-0.00000283,0.
 00002174,-0.00000092,0.00004238,0.00000901,-0.00000152,-0.00002154,-0.
 00000885,0.00001087,-0.00000010,-0.00001368,-0.00002055,-0.00000596,-0
 .00000726,-0.00000239,0.00000210,0.00000028,-0.00000113,-0.00002294,0.
 00001083,-0.00101210,0.00230856,-0.00154690,0.00581612,-0.00337080,0.0
 0179826,0.04156417,-0.39642425,0.00737942,0.00004001,0.00004934,-0.000
 06163,-0.00000690,-0.00000677,-0.00000158,0.00001291,0.00000958,-0.000
 00476,-0.00000870,-0.00000061,0.00001192,0.00000235,0.00002254,-0.0000
 0813,-0.00000015,0.00000468,0.00000289,-0.00000080,0.00000318,0.000001
 08,0.00000624,0.00001834,0.00001132,0.00043921,-0.00032889,-0.00014877
 ,0.00006722,-0.00030883,0.00009281,-0.00052742,0.00077933,0.00026118,0
 .00014532,0.00167800,0.00042220,0.00216649,-0.01069699,-0.00111553,0.0
 0168360,-0.01109853,0.00190958,-0.04986116,0.41772478,-0.00019080,-0.0
 0016675,-0.00069163,0.00084039,0.00035634,0.00057921,-0.00018491,0.000
 01202,-0.00008719,0.00008384,-0.00003968,0.00002120,0.00008960,-0.0000
 4733,0.00004634,-0.00007854,0.00003549,-0.00000889,-0.00006554,0.00002
 003,-0.00004023,-0.00001459,0.00003181,0.00002198,0.00000311,-0.000019
 19,0.00001138,0.00001702,-0.00000070,-0.00000629,-0.00001715,0.0000070
 4,-0.00002496,-0.00002250,-0.00000464,0.00000234,0.00000208,-0.0000101
 6,-0.00000142,-0.00007165,-0.00158710,0.00006213,-0.00108303,0.0081191
 7,0.00006836,0.00069407,0.00951708,-0.06688392,0.00005962,-0.00002749,
 -0.00002590,-0.00001064,0.00000105,-0.00000709,0.00001402,-0.00000412,
 0.00000052,0.00000536,0.00000191,-0.00000359,0.00000203,0.00000965,0.0
 0000499,0.00000278,0.00000335,-0.00000104,-0.00000272,0.00000185,-0.00
 000017,-0.00000142,0.00000844,0.00001829,0.00012029,0.00059701,0.00033
 291,0.00018068,-0.00007440,-0.00014377,-0.00041974,0.00071069,-0.00034
 046,-0.00170467,-0.00009860,0.00008064,-0.00654741,0.02934673,0.001607
 05,0.00653213,-0.03728007,0.00499652,0.00176829,-0.00941945,0.06041267
 \\-0.00000267,-0.00000109,-0.00000173,0.00000006,0.00000195,0.00000059
 ,0.00000169,-0.00000065,-0.00000091,-0.00000047,-0.00000090,-0.0000014
 2,0.00000160,0.00000138,0.00000023,-0.00000019,-0.00000097,-0.00000170
 ,-0.00000085,0.00000032,-0.00000021,-0.00000018,0.00000048,0.00000137,
 0.00000012,0.00000028,0.00000097,-0.00000023,0.,0.00000052,0.00000040,
 -0.00000024,0.00000053,-0.00000033,-0.00000084,0.00000062,0.00000024,-
 0.00000015,-0.00000011,-0.00000027,0.00000068,-0.00000045,0.00000357,-
 0.00000119,0.00000038,0.00000006,0.00000072,0.00000091,-0.00000021,0.0
 0000105,-0.00000040,-0.00000008,-0.00000017,0.00000003,0.00000009,0.00
 000087,0.00000029,0.00000013,0.00000005,0.00000065,0.00000053,0.000000
 04,0.00000021,0.00000010,0.00000043,0.00000066,-0.00000008,-0.00000082
 ,0.00000013,-0.00000009,-0.00000084,-0.00000011,-0.00000014,-0.0000004
 0,0.00000100,-0.00000008,0.,-0.00000026,-0.00000244,0.00000022,0.00000
 014,-0.00000058,-0.00000012,-0.00000101,-0.00000012,-0.00000017,-0.000
 00050,0.00000033,0.00000022,-0.00000046,0.00000009,-0.00000012,0.00000
 005\\\@


 THE ENLIGHTENED ONE, BECAUSE HE SAW MANKIND DROWNING  
 IN THE GREAT SEA OF BIRTH, DEATH, AND SORROW, LONGED TO SAVE 
 THEM, FOR THIS HE WAS MOVED TO PITY.                         
 BECAUSE HE SAW MEN OF THE WORLD STRAYING IN FALSE PATHS, AND 
 NONE TO GUIDE THEM, FOR THIS HE WAS MOVED TO PITY.           
                     ..................                       
 BECAUSE HE SAW THE MEN OF THE WORLD PLOUGHING THEIR FIELDS,  
 SOWING THE SEED, TRAFFICKING, HUCKSTERING, BUYING, SELLING,  
 AND AT THE END WINNOWING NOTHING BUT BITTERNESS,             
 FOR THIS HE WAS MOVED TO PITY......                   
                   BUDAH'S PITY - UPSAKA SILA SUTRA           
 Job cpu time:       0 days  0 hours 59 minutes  6.4 seconds.
 File lengths (MBytes):  RWF=    277 Int=      0 D2E=      0 Chk=      8 Scr=      1
 Normal termination of Gaussian 09 at Wed Jul 28 23:18:29 2021.
