 Entering Gaussian System, Link 0=g09
 Input=opt_freq-conf-719.com
 Output=opt_freq-conf-719.log
 Initial command:
 /aerosol/software/g09/l1.exe "/scratch/nicole/10664/Gau-82498.inp" -scrdir="/scratch/nicole/10664/"
 Entering Link 1 = /aerosol/software/g09/l1.exe PID=     82505.
  
 Copyright (c) 1988,1990,1992,1993,1995,1998,2003,2009,2013,
            Gaussian, Inc.  All Rights Reserved.
  
 This is part of the Gaussian(R) 09 program.  It is based on
 the Gaussian(R) 03 system (copyright 2003, Gaussian, Inc.),
 the Gaussian(R) 98 system (copyright 1998, Gaussian, Inc.),
 the Gaussian(R) 94 system (copyright 1995, Gaussian, Inc.),
 the Gaussian 92(TM) system (copyright 1992, Gaussian, Inc.),
 the Gaussian 90(TM) system (copyright 1990, Gaussian, Inc.),
 the Gaussian 88(TM) system (copyright 1988, Gaussian, Inc.),
 the Gaussian 86(TM) system (copyright 1986, Carnegie Mellon
 University), and the Gaussian 82(TM) system (copyright 1983,
 Carnegie Mellon University). Gaussian is a federally registered
 trademark of Gaussian, Inc.
  
 This software contains proprietary and confidential information,
 including trade secrets, belonging to Gaussian, Inc.
  
 This software is provided under written license and may be
 used, copied, transmitted, or stored only in accord with that
 written license.
  
 The following legend is applicable only to US Government
 contracts under FAR:
  
                    RESTRICTED RIGHTS LEGEND
  
 Use, reproduction and disclosure by the US Government is
 subject to restrictions as set forth in subparagraphs (a)
 and (c) of the Commercial Computer Software - Restricted
 Rights clause in FAR 52.227-19.
  
 Gaussian, Inc.
 340 Quinnipiac St., Bldg. 40, Wallingford CT 06492
  
  
 ---------------------------------------------------------------
 Warning -- This program may not be used in any manner that
 competes with the business of Gaussian, Inc. or will provide
 assistance to any competitor of Gaussian, Inc.  The licensee
 of this program is prohibited from giving any competitor of
 Gaussian, Inc. access to this program.  By using this program,
 the user acknowledges that Gaussian, Inc. is engaged in the
 business of creating and licensing software in the field of
 computational chemistry and represents and warrants to the
 licensee that it is not a competitor of Gaussian, Inc. and that
 it will not use this program in any manner prohibited above.
 ---------------------------------------------------------------
  

 Cite this work as:
 Gaussian 09, Revision D.01,
 M. J. Frisch, G. W. Trucks, H. B. Schlegel, G. E. Scuseria, 
 M. A. Robb, J. R. Cheeseman, G. Scalmani, V. Barone, B. Mennucci, 
 G. A. Petersson, H. Nakatsuji, M. Caricato, X. Li, H. P. Hratchian, 
 A. F. Izmaylov, J. Bloino, G. Zheng, J. L. Sonnenberg, M. Hada, 
 M. Ehara, K. Toyota, R. Fukuda, J. Hasegawa, M. Ishida, T. Nakajima, 
 Y. Honda, O. Kitao, H. Nakai, T. Vreven, J. A. Montgomery, Jr., 
 J. E. Peralta, F. Ogliaro, M. Bearpark, J. J. Heyd, E. Brothers, 
 K. N. Kudin, V. N. Staroverov, T. Keith, R. Kobayashi, J. Normand, 
 K. Raghavachari, A. Rendell, J. C. Burant, S. S. Iyengar, J. Tomasi, 
 M. Cossi, N. Rega, J. M. Millam, M. Klene, J. E. Knox, J. B. Cross, 
 V. Bakken, C. Adamo, J. Jaramillo, R. Gomperts, R. E. Stratmann, 
 O. Yazyev, A. J. Austin, R. Cammi, C. Pomelli, J. W. Ochterski, 
 R. L. Martin, K. Morokuma, V. G. Zakrzewski, G. A. Voth, 
 P. Salvador, J. J. Dannenberg, S. Dapprich, A. D. Daniels, 
 O. Farkas, J. B. Foresman, J. V. Ortiz, J. Cioslowski, 
 and D. J. Fox, Gaussian, Inc., Wallingford CT, 2013.
 
 ******************************************
 Gaussian 09:  ES64L-G09RevD.01 24-Apr-2013
                28-Jul-2021 
 ******************************************
 %mem=2gb
 %nproc=4
 Will use up to    4 processors via shared memory.
 %chk=conf-719.chk
 ----------------------------------------------------------------------
 # B3LYP/6-31G(d) opt=calcfc freq=noraman nosymm integral(ultrafinegrid
 )
 ----------------------------------------------------------------------
 1/10=4,14=-1,18=20,19=15,26=4,38=1/1,3;
 2/9=110,12=2,15=1,17=6,18=5,40=1/2;
 3/5=1,6=6,7=1,11=2,16=1,25=1,30=1,71=2,74=-5,75=-5,140=1/1,2,3;
 4//1;
 5/5=2,38=5/2;
 8/6=4,10=90,11=11/1;
 11/6=1,8=1,9=11,15=111,16=1,31=1/1,2,10;
 10/6=1,13=1,31=1/2;
 6/7=2,8=2,9=2,10=2,28=1/1;
 7/10=1,18=20,25=1,30=1/1,2,3,16;
 1/10=4,14=-1,18=20,19=15,26=4/3(2);
 2/9=110,15=1/2;
 99//99;
 2/9=110,15=1/2;
 3/5=1,6=6,7=1,11=2,16=1,25=1,30=1,71=1,74=-5,75=-5/1,2,3;
 4/5=5,16=3,69=1/1;
 5/5=2,38=5/2;
 7/30=1/1,2,3,16;
 1/14=-1,18=20,19=15,26=4/3(-5);
 2/9=110,15=1/2;
 6/7=2,8=2,9=2,10=2,19=2,28=1/1;
 99/9=1/99;
 ------------------------------------------------------------
 Candidate Structure: Conf:719 OPT and FREQ calc in gas phase
 ------------------------------------------------------------
 Symbolic Z-matrix:
 Charge =  1 Multiplicity = 1
 O                    -0.72005  -0.63766   1.42408 
 C                    -1.30854  -0.35072   0.39193 
 N                    -0.64886   0.02779  -0.73425 
 C                     0.78942   0.22717  -0.70361 
 C                     1.13934   1.06531  -1.91425 
 O                     2.46404   1.31793  -2.00859 
 O                     0.34195   1.46947  -2.71894 
 C                     1.53736  -1.12922  -0.66353 
 C                     2.755    -1.09635   0.19636 
 C                     3.09564  -1.82049   1.30301 
 N                     4.33164  -1.42286   1.78318 
 C                     4.71835  -0.46405   0.97732 
 N                     3.79481  -0.22334   0.00813 
 C                    -2.81985  -0.36212   0.28429 
 C                    -3.40988   0.91549   0.86784 
 N                    -4.89591   0.90764   0.82254 
 H                    -1.13699   0.44142  -1.51384 
 H                     1.02385   0.8044    0.19829 
 H                     2.57954   1.86672  -2.79947 
 H                     0.86206  -1.86744  -0.23474 
 H                     1.76766  -1.4608   -1.67591 
 H                     2.52688  -2.60269   1.78513 
 H                     5.63852   0.08929   1.03276 
 H                     3.82338   0.4747   -0.71798 
 H                    -3.18715  -1.21463   0.85492 
 H                    -3.13759  -0.46911  -0.75496 
 H                    -3.04499   1.77791   0.30734 
 H                    -3.07045   1.02624   1.89791 
 H                    -5.2757    0.11714   1.34345 
 H                    -5.29549   1.75648   1.22538 
 H                    -5.23775   0.83645  -0.1361 
 

 GradGradGradGradGradGradGradGradGradGradGradGradGradGradGradGradGradGrad
 Berny optimization.
 Initialization pass.
                           ----------------------------
                           !    Initial Parameters    !
                           ! (Angstroms and Degrees)  !
 --------------------------                            --------------------------
 ! Name  Definition              Value          Derivative Info.                !
 --------------------------------------------------------------------------------
 ! R1    R(1,2)                  1.2223         calculate D2E/DX2 analytically  !
 ! R2    R(2,3)                  1.3589         calculate D2E/DX2 analytically  !
 ! R3    R(2,14)                 1.5152         calculate D2E/DX2 analytically  !
 ! R4    R(3,4)                  1.4524         calculate D2E/DX2 analytically  !
 ! R5    R(3,17)                 1.0085         calculate D2E/DX2 analytically  !
 ! R6    R(4,5)                  1.5135         calculate D2E/DX2 analytically  !
 ! R7    R(4,8)                  1.5495         calculate D2E/DX2 analytically  !
 ! R8    R(4,18)                 1.0962         calculate D2E/DX2 analytically  !
 ! R9    R(5,6)                  1.3519         calculate D2E/DX2 analytically  !
 ! R10   R(5,7)                  1.2028         calculate D2E/DX2 analytically  !
 ! R11   R(6,19)                 0.9695         calculate D2E/DX2 analytically  !
 ! R12   R(8,9)                  1.491          calculate D2E/DX2 analytically  !
 ! R13   R(8,20)                 1.0885         calculate D2E/DX2 analytically  !
 ! R14   R(8,21)                 1.0899         calculate D2E/DX2 analytically  !
 ! R15   R(9,10)                 1.3657         calculate D2E/DX2 analytically  !
 ! R16   R(9,13)                 1.3707         calculate D2E/DX2 analytically  !
 ! R17   R(10,11)                1.3843         calculate D2E/DX2 analytically  !
 ! R18   R(10,22)                1.0806         calculate D2E/DX2 analytically  !
 ! R19   R(11,12)                1.3108         calculate D2E/DX2 analytically  !
 ! R20   R(12,13)                1.3602         calculate D2E/DX2 analytically  !
 ! R21   R(12,23)                1.0752         calculate D2E/DX2 analytically  !
 ! R22   R(13,24)                1.0076         calculate D2E/DX2 analytically  !
 ! R23   R(14,15)                1.5235         calculate D2E/DX2 analytically  !
 ! R24   R(14,25)                1.0896         calculate D2E/DX2 analytically  !
 ! R25   R(14,26)                1.092          calculate D2E/DX2 analytically  !
 ! R26   R(15,16)                1.4867         calculate D2E/DX2 analytically  !
 ! R27   R(15,27)                1.0914         calculate D2E/DX2 analytically  !
 ! R28   R(15,28)                1.0902         calculate D2E/DX2 analytically  !
 ! R29   R(16,29)                1.02           calculate D2E/DX2 analytically  !
 ! R30   R(16,30)                1.021          calculate D2E/DX2 analytically  !
 ! R31   R(16,31)                1.0202         calculate D2E/DX2 analytically  !
 ! A1    A(1,2,3)              122.1047         calculate D2E/DX2 analytically  !
 ! A2    A(1,2,14)             122.5785         calculate D2E/DX2 analytically  !
 ! A3    A(3,2,14)             115.3041         calculate D2E/DX2 analytically  !
 ! A4    A(2,3,4)              120.0984         calculate D2E/DX2 analytically  !
 ! A5    A(2,3,17)             121.3245         calculate D2E/DX2 analytically  !
 ! A6    A(4,3,17)             116.06           calculate D2E/DX2 analytically  !
 ! A7    A(3,4,5)              106.7453         calculate D2E/DX2 analytically  !
 ! A8    A(3,4,8)              111.0018         calculate D2E/DX2 analytically  !
 ! A9    A(3,4,18)             107.5444         calculate D2E/DX2 analytically  !
 ! A10   A(5,4,8)              113.1954         calculate D2E/DX2 analytically  !
 ! A11   A(5,4,18)             108.4867         calculate D2E/DX2 analytically  !
 ! A12   A(8,4,18)             109.6613         calculate D2E/DX2 analytically  !
 ! A13   A(4,5,6)              112.698          calculate D2E/DX2 analytically  !
 ! A14   A(4,5,7)              124.6084         calculate D2E/DX2 analytically  !
 ! A15   A(6,5,7)              122.6933         calculate D2E/DX2 analytically  !
 ! A16   A(5,6,19)             106.227          calculate D2E/DX2 analytically  !
 ! A17   A(4,8,9)              112.9434         calculate D2E/DX2 analytically  !
 ! A18   A(4,8,20)             107.7227         calculate D2E/DX2 analytically  !
 ! A19   A(4,8,21)             110.1385         calculate D2E/DX2 analytically  !
 ! A20   A(9,8,20)             107.1225         calculate D2E/DX2 analytically  !
 ! A21   A(9,8,21)             111.7052         calculate D2E/DX2 analytically  !
 ! A22   A(20,8,21)            106.8981         calculate D2E/DX2 analytically  !
 ! A23   A(8,9,10)             131.2491         calculate D2E/DX2 analytically  !
 ! A24   A(8,9,13)             123.6667         calculate D2E/DX2 analytically  !
 ! A25   A(10,9,13)            105.0567         calculate D2E/DX2 analytically  !
 ! A26   A(9,10,11)            110.5779         calculate D2E/DX2 analytically  !
 ! A27   A(9,10,22)            127.8827         calculate D2E/DX2 analytically  !
 ! A28   A(11,10,22)           121.5393         calculate D2E/DX2 analytically  !
 ! A29   A(10,11,12)           105.0849         calculate D2E/DX2 analytically  !
 ! A30   A(11,12,13)           111.5417         calculate D2E/DX2 analytically  !
 ! A31   A(11,12,23)           126.6715         calculate D2E/DX2 analytically  !
 ! A32   A(13,12,23)           121.7867         calculate D2E/DX2 analytically  !
 ! A33   A(9,13,12)            107.7286         calculate D2E/DX2 analytically  !
 ! A34   A(9,13,24)            124.1734         calculate D2E/DX2 analytically  !
 ! A35   A(12,13,24)           128.0822         calculate D2E/DX2 analytically  !
 ! A36   A(2,14,15)            110.6579         calculate D2E/DX2 analytically  !
 ! A37   A(2,14,25)            107.7526         calculate D2E/DX2 analytically  !
 ! A38   A(2,14,26)            111.0128         calculate D2E/DX2 analytically  !
 ! A39   A(15,14,25)           108.964          calculate D2E/DX2 analytically  !
 ! A40   A(15,14,26)           109.5123         calculate D2E/DX2 analytically  !
 ! A41   A(25,14,26)           108.8845         calculate D2E/DX2 analytically  !
 ! A42   A(14,15,16)           111.7778         calculate D2E/DX2 analytically  !
 ! A43   A(14,15,27)           109.6626         calculate D2E/DX2 analytically  !
 ! A44   A(14,15,28)           109.0578         calculate D2E/DX2 analytically  !
 ! A45   A(16,15,27)           108.8269         calculate D2E/DX2 analytically  !
 ! A46   A(16,15,28)           109.9093         calculate D2E/DX2 analytically  !
 ! A47   A(27,15,28)           107.5104         calculate D2E/DX2 analytically  !
 ! A48   A(15,16,29)           111.1423         calculate D2E/DX2 analytically  !
 ! A49   A(15,16,30)           112.0089         calculate D2E/DX2 analytically  !
 ! A50   A(15,16,31)           111.3396         calculate D2E/DX2 analytically  !
 ! A51   A(29,16,30)           107.2825         calculate D2E/DX2 analytically  !
 ! A52   A(29,16,31)           107.5184         calculate D2E/DX2 analytically  !
 ! A53   A(30,16,31)           107.3143         calculate D2E/DX2 analytically  !
 ! D1    D(1,2,3,4)             -5.9537         calculate D2E/DX2 analytically  !
 ! D2    D(1,2,3,17)          -167.2503         calculate D2E/DX2 analytically  !
 ! D3    D(14,2,3,4)           172.7854         calculate D2E/DX2 analytically  !
 ! D4    D(14,2,3,17)           11.4887         calculate D2E/DX2 analytically  !
 ! D5    D(1,2,14,15)           80.5041         calculate D2E/DX2 analytically  !
 ! D6    D(1,2,14,25)          -38.5329         calculate D2E/DX2 analytically  !
 ! D7    D(1,2,14,26)         -157.6785         calculate D2E/DX2 analytically  !
 ! D8    D(3,2,14,15)          -98.2283         calculate D2E/DX2 analytically  !
 ! D9    D(3,2,14,25)          142.7347         calculate D2E/DX2 analytically  !
 ! D10   D(3,2,14,26)           23.5891         calculate D2E/DX2 analytically  !
 ! D11   D(2,3,4,5)           -161.334          calculate D2E/DX2 analytically  !
 ! D12   D(2,3,4,8)             74.8806         calculate D2E/DX2 analytically  !
 ! D13   D(2,3,4,18)           -45.0767         calculate D2E/DX2 analytically  !
 ! D14   D(17,3,4,5)             0.9122         calculate D2E/DX2 analytically  !
 ! D15   D(17,3,4,8)          -122.8732         calculate D2E/DX2 analytically  !
 ! D16   D(17,3,4,18)          117.1695         calculate D2E/DX2 analytically  !
 ! D17   D(3,4,5,6)           -179.5997         calculate D2E/DX2 analytically  !
 ! D18   D(3,4,5,7)              0.1965         calculate D2E/DX2 analytically  !
 ! D19   D(8,4,5,6)            -57.1805         calculate D2E/DX2 analytically  !
 ! D20   D(8,4,5,7)            122.6157         calculate D2E/DX2 analytically  !
 ! D21   D(18,4,5,6)            64.7729         calculate D2E/DX2 analytically  !
 ! D22   D(18,4,5,7)          -115.4308         calculate D2E/DX2 analytically  !
 ! D23   D(3,4,8,9)           -142.7371         calculate D2E/DX2 analytically  !
 ! D24   D(3,4,8,20)           -24.6433         calculate D2E/DX2 analytically  !
 ! D25   D(3,4,8,21)            91.6021         calculate D2E/DX2 analytically  !
 ! D26   D(5,4,8,9)             97.2454         calculate D2E/DX2 analytically  !
 ! D27   D(5,4,8,20)          -144.6608         calculate D2E/DX2 analytically  !
 ! D28   D(5,4,8,21)           -28.4154         calculate D2E/DX2 analytically  !
 ! D29   D(18,4,8,9)           -24.0484         calculate D2E/DX2 analytically  !
 ! D30   D(18,4,8,20)           94.0454         calculate D2E/DX2 analytically  !
 ! D31   D(18,4,8,21)         -149.7092         calculate D2E/DX2 analytically  !
 ! D32   D(4,5,6,19)          -179.099          calculate D2E/DX2 analytically  !
 ! D33   D(7,5,6,19)             1.1003         calculate D2E/DX2 analytically  !
 ! D34   D(4,8,9,10)           120.2227         calculate D2E/DX2 analytically  !
 ! D35   D(4,8,9,13)           -57.5692         calculate D2E/DX2 analytically  !
 ! D36   D(20,8,9,10)            1.7786         calculate D2E/DX2 analytically  !
 ! D37   D(20,8,9,13)         -176.0133         calculate D2E/DX2 analytically  !
 ! D38   D(21,8,9,10)         -114.9644         calculate D2E/DX2 analytically  !
 ! D39   D(21,8,9,13)           67.2437         calculate D2E/DX2 analytically  !
 ! D40   D(8,9,10,11)         -179.0325         calculate D2E/DX2 analytically  !
 ! D41   D(8,9,10,22)            0.8577         calculate D2E/DX2 analytically  !
 ! D42   D(13,9,10,11)          -0.9355         calculate D2E/DX2 analytically  !
 ! D43   D(13,9,10,22)         178.9547         calculate D2E/DX2 analytically  !
 ! D44   D(8,9,13,12)          179.2791         calculate D2E/DX2 analytically  !
 ! D45   D(8,9,13,24)            0.6241         calculate D2E/DX2 analytically  !
 ! D46   D(10,9,13,12)           0.9981         calculate D2E/DX2 analytically  !
 ! D47   D(10,9,13,24)        -177.6569         calculate D2E/DX2 analytically  !
 ! D48   D(9,10,11,12)           0.5011         calculate D2E/DX2 analytically  !
 ! D49   D(22,10,11,12)       -179.3972         calculate D2E/DX2 analytically  !
 ! D50   D(10,11,12,13)          0.156          calculate D2E/DX2 analytically  !
 ! D51   D(10,11,12,23)       -179.7186         calculate D2E/DX2 analytically  !
 ! D52   D(11,12,13,9)          -0.7455         calculate D2E/DX2 analytically  !
 ! D53   D(11,12,13,24)        177.8408         calculate D2E/DX2 analytically  !
 ! D54   D(23,12,13,9)         179.1361         calculate D2E/DX2 analytically  !
 ! D55   D(23,12,13,24)         -2.2776         calculate D2E/DX2 analytically  !
 ! D56   D(2,14,15,16)        -177.8071         calculate D2E/DX2 analytically  !
 ! D57   D(2,14,15,27)          61.41           calculate D2E/DX2 analytically  !
 ! D58   D(2,14,15,28)         -56.0723         calculate D2E/DX2 analytically  !
 ! D59   D(25,14,15,16)        -59.5052         calculate D2E/DX2 analytically  !
 ! D60   D(25,14,15,27)        179.7119         calculate D2E/DX2 analytically  !
 ! D61   D(25,14,15,28)         62.2295         calculate D2E/DX2 analytically  !
 ! D62   D(26,14,15,16)         59.4978         calculate D2E/DX2 analytically  !
 ! D63   D(26,14,15,27)        -61.2851         calculate D2E/DX2 analytically  !
 ! D64   D(26,14,15,28)       -178.7675         calculate D2E/DX2 analytically  !
 ! D65   D(14,15,16,29)         59.1679         calculate D2E/DX2 analytically  !
 ! D66   D(14,15,16,30)        179.1595         calculate D2E/DX2 analytically  !
 ! D67   D(14,15,16,31)        -60.6717         calculate D2E/DX2 analytically  !
 ! D68   D(27,15,16,29)       -179.5642         calculate D2E/DX2 analytically  !
 ! D69   D(27,15,16,30)        -59.5726         calculate D2E/DX2 analytically  !
 ! D70   D(27,15,16,31)         60.5963         calculate D2E/DX2 analytically  !
 ! D71   D(28,15,16,29)        -62.0751         calculate D2E/DX2 analytically  !
 ! D72   D(28,15,16,30)         57.9166         calculate D2E/DX2 analytically  !
 ! D73   D(28,15,16,31)        178.0854         calculate D2E/DX2 analytically  !
 --------------------------------------------------------------------------------
 Trust Radius=3.00D-01 FncErr=1.00D-07 GrdErr=1.00D-06
 Number of steps in this run=    167 maximum allowed number of steps=    186.
 GradGradGradGradGradGradGradGradGradGradGradGradGradGradGradGradGradGrad

                          Input orientation:                          
 ---------------------------------------------------------------------
 Center     Atomic      Atomic             Coordinates (Angstroms)
 Number     Number       Type             X           Y           Z
 ---------------------------------------------------------------------
      1          8           0       -0.720054   -0.637656    1.424079
      2          6           0       -1.308542   -0.350722    0.391926
      3          7           0       -0.648861    0.027789   -0.734248
      4          6           0        0.789418    0.227174   -0.703607
      5          6           0        1.139344    1.065305   -1.914246
      6          8           0        2.464037    1.317927   -2.008589
      7          8           0        0.341951    1.469473   -2.718944
      8          6           0        1.537357   -1.129224   -0.663526
      9          6           0        2.754998   -1.096350    0.196361
     10          6           0        3.095644   -1.820487    1.303006
     11          7           0        4.331642   -1.422865    1.783184
     12          6           0        4.718350   -0.464049    0.977320
     13          7           0        3.794806   -0.223340    0.008132
     14          6           0       -2.819851   -0.362120    0.284292
     15          6           0       -3.409884    0.915491    0.867843
     16          7           0       -4.895913    0.907638    0.822538
     17          1           0       -1.136988    0.441420   -1.513845
     18          1           0        1.023851    0.804405    0.198290
     19          1           0        2.579543    1.866720   -2.799467
     20          1           0        0.862055   -1.867444   -0.234739
     21          1           0        1.767665   -1.460804   -1.675913
     22          1           0        2.526878   -2.602694    1.785128
     23          1           0        5.638517    0.089285    1.032764
     24          1           0        3.823382    0.474704   -0.717982
     25          1           0       -3.187149   -1.214629    0.854924
     26          1           0       -3.137595   -0.469107   -0.754956
     27          1           0       -3.044991    1.777907    0.307343
     28          1           0       -3.070450    1.026240    1.897911
     29          1           0       -5.275703    0.117144    1.343445
     30          1           0       -5.295491    1.756479    1.225383
     31          1           0       -5.237750    0.836447   -0.136097
 ---------------------------------------------------------------------
                    Distance matrix (angstroms):
                    1          2          3          4          5
     1  O    0.000000
     2  C    1.222289   0.000000
     3  N    2.259704   1.358940   0.000000
     4  C    2.748360   2.436307   1.452357   0.000000
     5  C    4.183521   3.649069   2.380444   1.513459   0.000000
     6  O    5.074047   4.772757   3.602573   2.386853   1.351861
     7  O    4.767860   3.964183   2.645596   2.409381   1.202800
     8  C    3.113782   3.133558   2.474516   1.549463   2.557082
     9  C    3.713984   4.136009   3.703510   2.534791   3.426040
    10  C    3.996661   4.731504   4.646272   3.679414   4.744008
    11  N    5.124953   5.907348   5.766045   4.631858   5.482038
    12  C    5.459484   6.056315   5.654938   4.328951   4.848645
    13  N    4.749792   5.119345   4.512247   3.121201   3.522445
    14  C    2.405033   1.515180   2.429537   3.788144   4.748299
    15  C    3.155448   2.499086   3.313301   4.536229   5.334599
    16  N    4.493060   3.825980   4.608163   5.925802   6.628663
    17  H    3.157473   2.070962   1.008528   2.100815   2.394001
    18  H    2.573578   2.609956   2.066574   1.096163   2.131717
    19  H    5.915876   5.497203   4.250811   3.207068   1.870844
    20  H    2.601369   2.721148   2.474729   2.147682   3.390966
    21  H    4.059097   3.869275   2.990358   2.179820   2.613965
    22  H    3.812387   4.660776   4.832393   4.149786   5.391181
    23  H    6.411942   6.990416   6.531251   5.152452   5.466263
    24  H    5.144763   5.315061   4.494548   3.044079   2.997318
    25  H    2.596804   2.118930   3.242217   4.507870   5.620048
    26  H    3.259004   2.162126   2.537938   3.988593   4.689412
    27  H    3.533748   2.748357   3.144719   4.257873   4.790816
    28  H    2.918463   2.695984   3.713389   4.722815   5.679475
    29  H    4.618459   4.106416   5.072717   6.402204   7.257024
    30  H    5.167784   4.585925   5.331012   6.563984   7.193198
    31  H    5.001671   4.138460   4.697831   6.084409   6.624313
                    6          7          8          9         10
     6  O    0.000000
     7  O    2.242949   0.000000
     8  C    2.942189   3.522352   0.000000
     9  C    3.282560   4.572226   1.491019   0.000000
    10  C    4.605999   5.880709   2.602567   1.365678   0.000000
    11  N    5.037602   6.674759   3.725674   2.260625   1.384329
    12  C    4.144034   6.045969   3.640543   2.205550   2.139900
    13  N    2.865940   4.714316   2.523456   1.370685   2.171729
    14  C    5.999944   4.729815   4.524607   5.623680   6.177191
    15  C    6.552768   5.219981   5.567867   6.519522   7.070844
    16  N    7.896359   6.347674   6.909714   7.933758   8.458043
    17  H    3.739039   2.167122   3.215911   4.520741   5.564714
    18  H    2.684801   3.068804   2.178379   2.570942   3.521758
    19  H    0.969538   2.274008   3.824144   4.217292   5.540048
    20  H    3.982396   4.192469   1.088512   2.088939   2.712155
    21  H    2.883912   3.421563   1.089915   2.147805   3.281289
    22  H    5.455961   6.453148   3.024264   2.201202   1.080641
    23  H    4.564725   6.635800   4.602356   3.228000   3.191624
    24  H    2.055362   4.136880   2.793110   2.108478   3.143549
    25  H    6.822715   5.694864   4.963259   5.979700   6.327822
    26  H    6.011935   4.441011   4.722212   6.001757   6.701843
    27  H    5.993706   4.552462   5.512885   6.474067   7.186597
    28  H    6.780588   5.758149   5.695513   6.429347   6.817513
    29  H    8.519483   7.063273   7.211044   8.202471   8.592759
    30  H    8.417908   6.886278   7.653957   8.602784   9.122053
    31  H    7.940754   6.181010   7.074186   8.229840   8.864298
                   11         12         13         14         15
    11  N    0.000000
    12  C    1.310835   0.000000
    13  N    2.208588   1.360220   0.000000
    14  C    7.383476   7.570677   6.621874   0.000000
    15  C    8.138611   8.245199   7.344631   1.523470   0.000000
    16  N    9.565660   9.712854   8.801760   2.492394   1.486740
    17  H    6.652208   6.427345   5.203933   2.590560   3.326145
    18  H    4.291165   3.983112   2.961522   4.017739   4.485382
    19  H    5.906937   4.926570   3.705108   6.605358   7.087119
    20  H    4.038279   4.278973   3.370919   4.011462   5.216309
    21  H    4.305900   4.091419   2.911465   5.108308   6.238949
    22  H    2.156194   3.166845   3.229038   5.988338   6.961622
    23  H    2.134866   1.075156   2.132340   8.503410   9.087540
    24  H    3.180398   2.134543   1.007633   6.770331   7.418173
    25  H    7.578736   7.941993   7.102634   1.089632   2.141772
    26  H    7.946150   8.044667   6.978602   1.091990   2.150519
    27  H    8.175436   8.108310   7.132836   2.151961   1.091361
    28  H    7.797579   7.983349   7.229416   2.143387   1.090193
    29  H    9.739922  10.017631   9.174592   2.717114   2.084427
    30  H   10.153869  10.260082   9.382691   3.391594   2.095378
    31  H   10.018053  10.102223   9.095660   2.731213   2.086921
                   16         17         18         19         20
    16  N    0.000000
    17  H    4.450344   0.000000
    18  H    5.953482   2.780718   0.000000
    19  H    8.361890   4.182931   3.540514   0.000000
    20  H    6.478666   3.311063   2.711543   4.844747   0.000000
    21  H    7.500336   3.475878   3.032667   3.604710   1.749991
    22  H    8.267214   5.794287   4.047897   6.402886   2.718840
    23  H   10.568260   7.246840   4.743721   5.215610   5.315067
    24  H    8.864917   5.023921   2.964057   2.795965   3.806395
    25  H    2.724874   3.543546   4.715950   7.490262   4.243770
    26  H    2.734154   2.325382   4.455126   6.505519   4.268860
    27  H    2.109196   2.956923   4.185102   6.426161   5.370981
    28  H    2.121982   3.964892   4.438606   7.395552   5.327870
    29  H    1.020032   5.039665   6.439572   9.051499   6.640883
    30  H    1.021018   5.150329   6.472669   8.844644   7.292472
    31  H    1.020246   4.344017   6.270605   8.322565   6.672959
                   21         22         23         24         25
    21  H    0.000000
    22  H    3.722785   0.000000
    23  H    4.972244   4.182715   0.000000
    24  H    2.981577   4.173352   2.551151   0.000000
    25  H    5.569193   5.953327   8.923239   7.380747   0.000000
    26  H    5.088536   6.564333   8.973733   7.024767   1.774815
    27  H    6.130596   7.240113   8.875866   7.065705   3.045541
    28  H    6.508837   6.671728   8.801845   7.394053   2.474456
    29  H    7.824032   8.274834  10.918677   9.336525   2.524744
    30  H    8.285927   8.972467  11.062060   9.411347   3.661943
    31  H    7.531549   8.706793  10.964382   9.087000   3.064963
                   26         27         28         29         30
    26  H    0.000000
    27  H    2.487192   0.000000
    28  H    3.046026   1.759420   0.000000
    29  H    3.052619   2.967780   2.448883   0.000000
    30  H    3.678518   2.430639   2.436463   1.643701   0.000000
    31  H    2.549139   2.427175   2.978322   1.645565   1.644208
                   31
    31  H    0.000000
 Symmetry turned off by external request.
 Stoichiometry    C9H15N4O3(1+)
 Framework group  C1[X(C9H15N4O3)]
 Deg. of freedom    87
 Full point group                 C1      NOp   1
 Rotational constants (GHZ):      0.8514921      0.2642997      0.2133469
 Standard basis: 6-31G(d) (6D, 7F)
   270 basis functions,   508 primitive gaussians,   270 cartesian basis functions
    60 alpha electrons       60 beta electrons
       nuclear repulsion energy      1124.7477579563 Hartrees.
 NAtoms=   31 NActive=   31 NUniq=   31 SFac= 1.00D+00 NAtFMM=   60 NAOKFM=F Big=F
 Integral buffers will be    131072 words long.
 Raffenetti 2 integral format.
 Two-electron integral symmetry is turned off.
 One-electron integrals computed using PRISM.
 NBasis=   270 RedAO= T EigKep=  1.23D-03  NBF=   270
 NBsUse=   270 1.00D-06 EigRej= -1.00D+00 NBFU=   270
 ExpMin= 1.61D-01 ExpMax= 5.48D+03 ExpMxC= 8.25D+02 IAcc=3 IRadAn=         5 AccDes= 0.00D+00
 Harris functional with IExCor=  402 and IRadAn=       5 diagonalized for initial guess.
 HarFok:  IExCor=  402 AccDes= 0.00D+00 IRadAn=         5 IDoV= 1 UseB2=F ITyADJ=14
 ICtDFT=  3500011 ScaDFX=  1.000000  1.000000  1.000000  1.000000
 FoFCou: FMM=F IPFlag=           0 FMFlag=      100000 FMFlg1=           0
         NFxFlg=           0 DoJE=T BraDBF=F KetDBF=T FulRan=T
         wScrn=  0.000000 ICntrl=     500 IOpCl=  0 I1Cent=   200000004 NGrid=           0
         NMat0=    1 NMatS0=      1 NMatT0=    0 NMatD0=    1 NMtDS0=    0 NMtDT0=    0
 Symmetry not used in FoFCou.
 Requested convergence on RMS density matrix=1.00D-08 within 128 cycles.
 Requested convergence on MAX density matrix=1.00D-06.
 Requested convergence on             energy=1.00D-06.
 No special actions if energy rises.
 Integral accuracy reduced to 1.0D-05 until final iterations.
 EnCoef did     2 forward-backward iterations
 Initial convergence to 1.0D-05 achieved.  Increase integral accuracy.
 SCF Done:  E(RB3LYP) =  -796.433665145     A.U. after   17 cycles
            NFock= 17  Conv=0.87D-08     -V/T= 2.0088
 DoSCS=F DFT=T ScalE2(SS,OS)=  1.000000  1.000000
 Range of M.O.s used for correlation:     1   270
 NBasis=   270 NAE=    60 NBE=    60 NFC=     0 NFV=     0
 NROrb=    270 NOA=    60 NOB=    60 NVA=   210 NVB=   210
 Symmetrizing basis deriv contribution to polar:
 IMax=3 JMax=2 DiffMx= 0.00D+00
 G2DrvN: will do    32 centers at a time, making    1 passes.
 Calling FoFCou, ICntrl=  3107 FMM=F I1Cent=   0 AccDes= 0.00D+00.
 End of G2Drv F.D. properties file   721 does not exist.
 End of G2Drv F.D. properties file   722 does not exist.
 End of G2Drv F.D. properties file   788 does not exist.
          IDoAtm=1111111111111111111111111111111
          Differentiating once with respect to nuclear coordinates.
          There are    96 degrees of freedom in the 1st order CPHF.  IDoFFX=6 NUNeed=     0.
     90 vectors produced by pass  0 Test12= 1.31D-14 1.04D-09 XBig12= 1.75D-01 1.17D-01.
 AX will form    90 AO Fock derivatives at one time.
     90 vectors produced by pass  1 Test12= 1.31D-14 1.04D-09 XBig12= 4.37D-02 6.13D-02.
     90 vectors produced by pass  2 Test12= 1.31D-14 1.04D-09 XBig12= 2.99D-04 3.37D-03.
     90 vectors produced by pass  3 Test12= 1.31D-14 1.04D-09 XBig12= 1.12D-06 1.61D-04.
     90 vectors produced by pass  4 Test12= 1.31D-14 1.04D-09 XBig12= 1.33D-09 3.38D-06.
     70 vectors produced by pass  5 Test12= 1.31D-14 1.04D-09 XBig12= 1.14D-12 9.78D-08.
      9 vectors produced by pass  6 Test12= 1.31D-14 1.04D-09 XBig12= 9.77D-16 2.60D-09.
 InvSVY:  IOpt=1 It=  1 EMax= 6.66D-16
 Solved reduced A of dimension   529 with    96 vectors.
 End of Minotr F.D. properties file   721 does not exist.
 End of Minotr F.D. properties file   722 does not exist.
 End of Minotr F.D. properties file   788 does not exist.

 **********************************************************************

            Population analysis using the SCF density.

 **********************************************************************

 Alpha  occ. eigenvalues --  -19.32375 -19.26979 -19.24658 -14.67841 -14.49007
 Alpha  occ. eigenvalues --  -14.44678 -14.36609 -10.44781 -10.44308 -10.42670
 Alpha  occ. eigenvalues --  -10.37308 -10.35734 -10.29642 -10.29452 -10.28104
 Alpha  occ. eigenvalues --  -10.25425  -1.23716  -1.22679  -1.17082  -1.14910
 Alpha  occ. eigenvalues --   -1.07562  -1.05692  -0.97801  -0.93004  -0.90330
 Alpha  occ. eigenvalues --   -0.85743  -0.82795  -0.80847  -0.80045  -0.76590
 Alpha  occ. eigenvalues --   -0.74182  -0.71094  -0.70833  -0.67790  -0.65534
 Alpha  occ. eigenvalues --   -0.65259  -0.64656  -0.62590  -0.60627  -0.59401
 Alpha  occ. eigenvalues --   -0.58970  -0.58620  -0.57098  -0.54701  -0.54056
 Alpha  occ. eigenvalues --   -0.53313  -0.52875  -0.50773  -0.49215  -0.48279
 Alpha  occ. eigenvalues --   -0.47396  -0.47193  -0.46386  -0.44735  -0.40646
 Alpha  occ. eigenvalues --   -0.38821  -0.38371  -0.33641  -0.32010  -0.28650
 Alpha virt. eigenvalues --   -0.17372  -0.12919  -0.11327  -0.10987  -0.10514
 Alpha virt. eigenvalues --   -0.07198  -0.03802  -0.03445  -0.03198  -0.02783
 Alpha virt. eigenvalues --   -0.01312   0.00111   0.01020   0.01886   0.02268
 Alpha virt. eigenvalues --    0.03889   0.05050   0.05495   0.05929   0.07225
 Alpha virt. eigenvalues --    0.09497   0.10603   0.11559   0.12492   0.15294
 Alpha virt. eigenvalues --    0.16398   0.17646   0.18796   0.21126   0.22792
 Alpha virt. eigenvalues --    0.24778   0.26951   0.28048   0.32586   0.32727
 Alpha virt. eigenvalues --    0.33754   0.34380   0.36384   0.37446   0.41703
 Alpha virt. eigenvalues --    0.42349   0.43709   0.44868   0.45482   0.46493
 Alpha virt. eigenvalues --    0.48139   0.48513   0.49654   0.49800   0.52358
 Alpha virt. eigenvalues --    0.53191   0.53782   0.55390   0.56865   0.57562
 Alpha virt. eigenvalues --    0.57922   0.58686   0.59770   0.60303   0.61135
 Alpha virt. eigenvalues --    0.61191   0.62084   0.62609   0.64255   0.65265
 Alpha virt. eigenvalues --    0.66279   0.67980   0.69373   0.69811   0.70898
 Alpha virt. eigenvalues --    0.71573   0.72016   0.73935   0.75198   0.75531
 Alpha virt. eigenvalues --    0.75973   0.76440   0.76932   0.77342   0.77456
 Alpha virt. eigenvalues --    0.79092   0.80067   0.81849   0.82112   0.83777
 Alpha virt. eigenvalues --    0.84753   0.85598   0.87822   0.89613   0.92639
 Alpha virt. eigenvalues --    0.93693   0.94756   0.96492   0.96806   1.00433
 Alpha virt. eigenvalues --    1.02547   1.05128   1.07382   1.09085   1.11223
 Alpha virt. eigenvalues --    1.15881   1.17779   1.18864   1.21947   1.24754
 Alpha virt. eigenvalues --    1.25609   1.26914   1.28493   1.29894   1.30329
 Alpha virt. eigenvalues --    1.31137   1.34440   1.36471   1.38733   1.39796
 Alpha virt. eigenvalues --    1.43371   1.44393   1.46713   1.48601   1.50247
 Alpha virt. eigenvalues --    1.50939   1.54142   1.56456   1.57954   1.59360
 Alpha virt. eigenvalues --    1.62451   1.64292   1.65874   1.66638   1.67706
 Alpha virt. eigenvalues --    1.69114   1.70519   1.71786   1.72755   1.73695
 Alpha virt. eigenvalues --    1.74676   1.75147   1.77759   1.79129   1.80718
 Alpha virt. eigenvalues --    1.81757   1.82874   1.83992   1.86615   1.87243
 Alpha virt. eigenvalues --    1.89852   1.93645   1.96637   1.97958   2.00906
 Alpha virt. eigenvalues --    2.04782   2.05068   2.06336   2.07649   2.08929
 Alpha virt. eigenvalues --    2.10490   2.14078   2.15244   2.16821   2.18400
 Alpha virt. eigenvalues --    2.19443   2.20767   2.23387   2.25360   2.28791
 Alpha virt. eigenvalues --    2.29925   2.32045   2.32799   2.35036   2.36308
 Alpha virt. eigenvalues --    2.38368   2.42572   2.43163   2.45144   2.50426
 Alpha virt. eigenvalues --    2.52855   2.53567   2.54051   2.55108   2.58742
 Alpha virt. eigenvalues --    2.62255   2.63329   2.67041   2.69432   2.72731
 Alpha virt. eigenvalues --    2.77815   2.81024   2.85880   2.88467   2.94574
 Alpha virt. eigenvalues --    2.98095   2.99110   3.07139   3.08207   3.53319
 Alpha virt. eigenvalues --    3.76774   3.86615   3.90606   3.95102   3.99479
 Alpha virt. eigenvalues --    4.01852   4.04606   4.10210   4.17654   4.20641
 Alpha virt. eigenvalues --    4.24187   4.32128   4.41567   4.52529   4.53174
          Condensed to atoms (all electrons):
               1          2          3          4          5          6
     1  O    8.052202   0.579311  -0.104182   0.006786   0.000656  -0.000001
     2  C    0.579311   4.331178   0.271849  -0.026109   0.006206  -0.000043
     3  N   -0.104182   0.271849   7.215993   0.202220  -0.025053   0.001923
     4  C    0.006786  -0.026109   0.202220   5.202323   0.292535  -0.093103
     5  C    0.000656   0.006206  -0.025053   0.292535   4.349626   0.277337
     6  O   -0.000001  -0.000043   0.001923  -0.093103   0.277337   8.226828
     7  O   -0.000005   0.000593  -0.014944  -0.080884   0.574429  -0.083873
     8  C   -0.003234  -0.005290  -0.041781   0.295527  -0.022160   0.005687
     9  C   -0.000620   0.000046   0.003343  -0.035886  -0.001917  -0.001149
    10  C    0.000133   0.000013  -0.000124  -0.000816   0.000080   0.000030
    11  N    0.000000   0.000001   0.000000  -0.000088  -0.000002  -0.000006
    12  C    0.000000   0.000000   0.000000   0.000289  -0.000032   0.000156
    13  N    0.000004   0.000005   0.000138  -0.000510  -0.001054  -0.011632
    14  C   -0.077771   0.301463  -0.122217   0.007114  -0.000166   0.000000
    15  C   -0.003556  -0.022829  -0.005541  -0.000059   0.000007   0.000000
    16  N   -0.000011   0.001172  -0.000028   0.000001   0.000000   0.000000
    17  H    0.002793  -0.014980   0.275758  -0.038550  -0.006836   0.000778
    18  H    0.008471   0.000617  -0.052537   0.374477  -0.030442   0.001050
    19  H    0.000000   0.000004  -0.000152   0.009444  -0.005364   0.225165
    20  H    0.005453   0.004205  -0.011172  -0.032518   0.002556   0.000098
    21  H    0.000137   0.000351   0.002404  -0.056717  -0.002284   0.000617
    22  H    0.000079  -0.000004   0.000002   0.000014  -0.000001   0.000000
    23  H    0.000000   0.000000   0.000000   0.000000   0.000001  -0.000008
    24  H    0.000000  -0.000001  -0.000025  -0.000599   0.001163   0.024655
    25  H    0.003526  -0.015669   0.003237  -0.000085   0.000000   0.000000
    26  H    0.002391  -0.021262   0.008187   0.000060  -0.000044   0.000000
    27  H   -0.000093  -0.000718   0.004105  -0.000098  -0.000007   0.000000
    28  H    0.006002   0.002174   0.000676  -0.000006  -0.000001   0.000000
    29  H    0.000012  -0.000012   0.000003   0.000000   0.000000   0.000000
    30  H    0.000003   0.000005   0.000004   0.000000   0.000000   0.000000
    31  H    0.000003  -0.000011   0.000017   0.000000   0.000000   0.000000
               7          8          9         10         11         12
     1  O   -0.000005  -0.003234  -0.000620   0.000133   0.000000   0.000000
     2  C    0.000593  -0.005290   0.000046   0.000013   0.000001   0.000000
     3  N   -0.014944  -0.041781   0.003343  -0.000124   0.000000   0.000000
     4  C   -0.080884   0.295527  -0.035886  -0.000816  -0.000088   0.000289
     5  C    0.574429  -0.022160  -0.001917   0.000080  -0.000002  -0.000032
     6  O   -0.083873   0.005687  -0.001149   0.000030  -0.000006   0.000156
     7  O    8.013848  -0.000454   0.000119   0.000001   0.000000   0.000000
     8  C   -0.000454   5.243547   0.329911  -0.054205   0.007106   0.006034
     9  C    0.000119   0.329911   4.719609   0.570536  -0.042813  -0.093064
    10  C    0.000001  -0.054205   0.570536   4.926364   0.424853  -0.117686
    11  N    0.000000   0.007106  -0.042813   0.424853   6.654832   0.536476
    12  C    0.000000   0.006034  -0.093064  -0.117686   0.536476   4.732386
    13  N   -0.000025  -0.073673   0.358711  -0.072634  -0.084896   0.354339
    14  C   -0.000075  -0.000426  -0.000004   0.000000   0.000000   0.000000
    15  C    0.000002  -0.000008   0.000000   0.000000   0.000000   0.000000
    16  N    0.000000   0.000000   0.000000   0.000000   0.000000   0.000000
    17  H    0.036070   0.003611  -0.000134   0.000001   0.000000   0.000000
    18  H    0.000959  -0.047069   0.008151   0.001828  -0.000149  -0.000203
    19  H    0.009203  -0.000262  -0.000058  -0.000002   0.000000  -0.000001
    20  H   -0.000095   0.373588  -0.028308  -0.002837   0.000039  -0.000046
    21  H    0.000256   0.356537  -0.024420   0.000544  -0.000136   0.000180
    22  H    0.000000  -0.001925  -0.059719   0.382215  -0.042145   0.007634
    23  H    0.000000  -0.000193   0.002915   0.007618  -0.037785   0.383003
    24  H    0.000154  -0.003130  -0.025759   0.008619   0.004570  -0.020503
    25  H    0.000000   0.000026  -0.000001   0.000000   0.000000   0.000000
    26  H   -0.000009   0.000021   0.000001   0.000000   0.000000   0.000000
    27  H    0.000000   0.000005   0.000000   0.000000   0.000000   0.000000
    28  H    0.000000   0.000000   0.000000   0.000000   0.000000   0.000000
    29  H    0.000000   0.000000   0.000000   0.000000   0.000000   0.000000
    30  H    0.000000   0.000000   0.000000   0.000000   0.000000   0.000000
    31  H    0.000000   0.000000   0.000000   0.000000   0.000000   0.000000
              13         14         15         16         17         18
     1  O    0.000004  -0.077771  -0.003556  -0.000011   0.002793   0.008471
     2  C    0.000005   0.301463  -0.022829   0.001172  -0.014980   0.000617
     3  N    0.000138  -0.122217  -0.005541  -0.000028   0.275758  -0.052537
     4  C   -0.000510   0.007114  -0.000059   0.000001  -0.038550   0.374477
     5  C   -0.001054  -0.000166   0.000007   0.000000  -0.006836  -0.030442
     6  O   -0.011632   0.000000   0.000000   0.000000   0.000778   0.001050
     7  O   -0.000025  -0.000075   0.000002   0.000000   0.036070   0.000959
     8  C   -0.073673  -0.000426  -0.000008   0.000000   0.003611  -0.047069
     9  C    0.358711  -0.000004   0.000000   0.000000  -0.000134   0.008151
    10  C   -0.072634   0.000000   0.000000   0.000000   0.000001   0.001828
    11  N   -0.084896   0.000000   0.000000   0.000000   0.000000  -0.000149
    12  C    0.354339   0.000000   0.000000   0.000000   0.000000  -0.000203
    13  N    6.914601   0.000000   0.000000   0.000000   0.000000   0.000663
    14  C    0.000000   5.358381   0.336157  -0.045745   0.000287   0.000491
    15  C    0.000000   0.336157   5.131092   0.174376  -0.000015   0.000062
    16  N    0.000000  -0.045745   0.174376   6.750887  -0.000026   0.000000
    17  H    0.000000   0.000287  -0.000015  -0.000026   0.390680   0.003721
    18  H    0.000663   0.000491   0.000062   0.000000   0.003721   0.509090
    19  H    0.000386   0.000000   0.000000   0.000000  -0.000088  -0.000308
    20  H    0.003644  -0.000048   0.000003   0.000000   0.000073  -0.001077
    21  H   -0.001911   0.000027   0.000000   0.000000  -0.000020   0.005037
    22  H    0.004883   0.000000   0.000000   0.000000   0.000000   0.000015
    23  H   -0.058590   0.000000   0.000000   0.000000   0.000000   0.000003
    24  H    0.283299   0.000000   0.000000   0.000000  -0.000004   0.000313
    25  H    0.000000   0.359633  -0.037897  -0.003566   0.000013  -0.000021
    26  H    0.000000   0.344416  -0.039792  -0.003703   0.000786  -0.000002
    27  H    0.000000  -0.036225   0.378178  -0.032996   0.000413  -0.000040
    28  H    0.000000  -0.038910   0.376628  -0.031610  -0.000061  -0.000002
    29  H    0.000000   0.000000  -0.020416   0.301719   0.000000   0.000000
    30  H    0.000000   0.003540  -0.016706   0.302969   0.000000   0.000000
    31  H    0.000000  -0.000052  -0.019473   0.301728   0.000000   0.000000
              19         20         21         22         23         24
     1  O    0.000000   0.005453   0.000137   0.000079   0.000000   0.000000
     2  C    0.000004   0.004205   0.000351  -0.000004   0.000000  -0.000001
     3  N   -0.000152  -0.011172   0.002404   0.000002   0.000000  -0.000025
     4  C    0.009444  -0.032518  -0.056717   0.000014   0.000000  -0.000599
     5  C   -0.005364   0.002556  -0.002284  -0.000001   0.000001   0.001163
     6  O    0.225165   0.000098   0.000617   0.000000  -0.000008   0.024655
     7  O    0.009203  -0.000095   0.000256   0.000000   0.000000   0.000154
     8  C   -0.000262   0.373588   0.356537  -0.001925  -0.000193  -0.003130
     9  C   -0.000058  -0.028308  -0.024420  -0.059719   0.002915  -0.025759
    10  C   -0.000002  -0.002837   0.000544   0.382215   0.007618   0.008619
    11  N    0.000000   0.000039  -0.000136  -0.042145  -0.037785   0.004570
    12  C   -0.000001  -0.000046   0.000180   0.007634   0.383003  -0.020503
    13  N    0.000386   0.003644  -0.001911   0.004883  -0.058590   0.283299
    14  C    0.000000  -0.000048   0.000027   0.000000   0.000000   0.000000
    15  C    0.000000   0.000003   0.000000   0.000000   0.000000   0.000000
    16  N    0.000000   0.000000   0.000000   0.000000   0.000000   0.000000
    17  H   -0.000088   0.000073  -0.000020   0.000000   0.000000  -0.000004
    18  H   -0.000308  -0.001077   0.005037   0.000015   0.000003   0.000313
    19  H    0.323706   0.000009  -0.000162   0.000000   0.000001  -0.000389
    20  H    0.000009   0.514838  -0.028292   0.003206   0.000004  -0.000059
    21  H   -0.000162  -0.028292   0.570982  -0.000028  -0.000001   0.000618
    22  H    0.000000   0.003206  -0.000028   0.567505  -0.000145  -0.000109
    23  H    0.000001   0.000004  -0.000001  -0.000145   0.538733   0.000512
    24  H   -0.000389  -0.000059   0.000618  -0.000109   0.000512   0.374412
    25  H    0.000000   0.000037  -0.000002   0.000000   0.000000   0.000000
    26  H    0.000000  -0.000032  -0.000003   0.000000   0.000000   0.000000
    27  H    0.000000   0.000001   0.000000   0.000000   0.000000   0.000000
    28  H    0.000000  -0.000001   0.000000   0.000000   0.000000   0.000000
    29  H    0.000000   0.000000   0.000000   0.000000   0.000000   0.000000
    30  H    0.000000   0.000000   0.000000   0.000000   0.000000   0.000000
    31  H    0.000000   0.000000   0.000000   0.000000   0.000000   0.000000
              25         26         27         28         29         30
     1  O    0.003526   0.002391  -0.000093   0.006002   0.000012   0.000003
     2  C   -0.015669  -0.021262  -0.000718   0.002174  -0.000012   0.000005
     3  N    0.003237   0.008187   0.004105   0.000676   0.000003   0.000004
     4  C   -0.000085   0.000060  -0.000098  -0.000006   0.000000   0.000000
     5  C    0.000000  -0.000044  -0.000007  -0.000001   0.000000   0.000000
     6  O    0.000000   0.000000   0.000000   0.000000   0.000000   0.000000
     7  O    0.000000  -0.000009   0.000000   0.000000   0.000000   0.000000
     8  C    0.000026   0.000021   0.000005   0.000000   0.000000   0.000000
     9  C   -0.000001   0.000001   0.000000   0.000000   0.000000   0.000000
    10  C    0.000000   0.000000   0.000000   0.000000   0.000000   0.000000
    11  N    0.000000   0.000000   0.000000   0.000000   0.000000   0.000000
    12  C    0.000000   0.000000   0.000000   0.000000   0.000000   0.000000
    13  N    0.000000   0.000000   0.000000   0.000000   0.000000   0.000000
    14  C    0.359633   0.344416  -0.036225  -0.038910   0.000000   0.003540
    15  C   -0.037897  -0.039792   0.378178   0.376628  -0.020416  -0.016706
    16  N   -0.003566  -0.003703  -0.032996  -0.031610   0.301719   0.302969
    17  H    0.000013   0.000786   0.000413  -0.000061   0.000000   0.000000
    18  H   -0.000021  -0.000002  -0.000040  -0.000002   0.000000   0.000000
    19  H    0.000000   0.000000   0.000000   0.000000   0.000000   0.000000
    20  H    0.000037  -0.000032   0.000001  -0.000001   0.000000   0.000000
    21  H   -0.000002  -0.000003   0.000000   0.000000   0.000000   0.000000
    22  H    0.000000   0.000000   0.000000   0.000000   0.000000   0.000000
    23  H    0.000000   0.000000   0.000000   0.000000   0.000000   0.000000
    24  H    0.000000   0.000000   0.000000   0.000000   0.000000   0.000000
    25  H    0.499394  -0.025656   0.004608  -0.003166   0.004626   0.000008
    26  H   -0.025656   0.546507  -0.003917   0.004989  -0.000256   0.000036
    27  H    0.004608  -0.003917   0.475582  -0.023177   0.003750  -0.001746
    28  H   -0.003166   0.004989  -0.023177   0.445690  -0.002404  -0.001217
    29  H    0.004626  -0.000256   0.003750  -0.002404   0.304530  -0.013039
    30  H    0.000008   0.000036  -0.001746  -0.001217  -0.013039   0.298939
    31  H   -0.000222   0.004629  -0.002873   0.003445  -0.014540  -0.013215
              31
     1  O    0.000003
     2  C   -0.000011
     3  N    0.000017
     4  C    0.000000
     5  C    0.000000
     6  O    0.000000
     7  O    0.000000
     8  C    0.000000
     9  C    0.000000
    10  C    0.000000
    11  N    0.000000
    12  C    0.000000
    13  N    0.000000
    14  C   -0.000052
    15  C   -0.019473
    16  N    0.301728
    17  H    0.000000
    18  H    0.000000
    19  H    0.000000
    20  H    0.000000
    21  H    0.000000
    22  H    0.000000
    23  H    0.000000
    24  H    0.000000
    25  H   -0.000222
    26  H    0.004629
    27  H   -0.002873
    28  H    0.003445
    29  H   -0.014540
    30  H   -0.013215
    31  H    0.308015
 Mulliken charges:
               1
     1  O   -0.478487
     2  C    0.607735
     3  N   -0.612102
     4  C   -0.024763
     5  C    0.590767
     6  O   -0.574510
     7  O   -0.455267
     8  C   -0.367793
     9  C    0.320508
    10  C   -0.074533
    11  N   -0.419857
    12  C    0.211039
    13  N   -0.615750
    14  C   -0.389870
    15  C   -0.230214
    16  N   -0.715169
    17  H    0.345729
    18  H    0.216902
    19  H    0.438867
    20  H    0.196736
    21  H    0.176287
    22  H    0.138524
    23  H    0.163932
    24  H    0.352263
    25  H    0.211178
    26  H    0.182655
    27  H    0.235250
    28  H    0.260949
    29  H    0.436026
    30  H    0.440418
    31  H    0.432550
 Sum of Mulliken charges =   1.00000
 Mulliken charges with hydrogens summed into heavy atoms:
               1
     1  O   -0.478487
     2  C    0.607735
     3  N   -0.266373
     4  C    0.192139
     5  C    0.590767
     6  O   -0.135643
     7  O   -0.455267
     8  C    0.005230
     9  C    0.320508
    10  C    0.063990
    11  N   -0.419857
    12  C    0.374971
    13  N   -0.263487
    14  C    0.003963
    15  C    0.265985
    16  N    0.593825
 APT charges:
               1
     1  O   -0.342174
     2  C    0.194337
     3  N   -0.711610
     4  C   -0.299193
     5  C   -0.229334
     6  O   -0.764362
     7  O    0.104135
     8  C   -0.962268
     9  C   -0.504859
    10  C   -0.271833
    11  N    0.181150
    12  C   -0.506381
    13  N   -0.664903
    14  C   -0.830771
    15  C   -0.172818
    16  N   -1.994085
    17  H    0.588901
    18  H    0.328935
    19  H    1.013885
    20  H    0.315474
    21  H    0.535454
    22  H    0.415293
    23  H    1.015123
    24  H    0.474269
    25  H    0.540210
    26  H    0.397539
    27  H    0.210770
    28  H    0.325828
    29  H    0.827805
    30  H    1.088840
    31  H    0.696642
 Sum of APT charges =   1.00000
 APT charges with hydrogens summed into heavy atoms:
               1
     1  O   -0.342174
     2  C    0.194337
     3  N   -0.122709
     4  C    0.029743
     5  C   -0.229334
     6  O    0.249523
     7  O    0.104135
     8  C   -0.111340
     9  C   -0.504859
    10  C    0.143459
    11  N    0.181150
    12  C    0.508742
    13  N   -0.190633
    14  C    0.106978
    15  C    0.363780
    16  N    0.619203
 Electronic spatial extent (au):  <R**2>=           5042.5594
 Charge=              1.0000 electrons
 Dipole moment (field-independent basis, Debye):
    X=            -20.6411    Y=              6.9291    Z=             -1.8904  Tot=             21.8550
 Quadrupole moment (field-independent basis, Debye-Ang):
   XX=             18.7784   YY=            -83.5616   ZZ=            -91.2497
   XY=             -4.2615   XZ=            -34.3767   YZ=              5.7291
 Traceless Quadrupole moment (field-independent basis, Debye-Ang):
   XX=             70.7894   YY=            -31.5506   ZZ=            -39.2388
   XY=             -4.2615   XZ=            -34.3767   YZ=              5.7291
 Octapole moment (field-independent basis, Debye-Ang**2):
  XXX=           -709.2170  YYY=             42.1103  ZZZ=            -10.0227  XYY=            -90.4003
  XXY=            170.2007  XXZ=             23.9930  XZZ=            -84.5887  YZZ=             29.0114
  YYZ=              0.2775  XYZ=            -15.5354
 Hexadecapole moment (field-independent basis, Debye-Ang**3):
 XXXX=          -1823.4543 YYYY=           -625.6222 ZZZZ=          -1004.8880 XXXY=            165.5931
 XXXZ=           -652.4387 YYYX=            341.3841 YYYZ=            210.1269 ZZZX=           -141.1863
 ZZZY=            232.0873 XXYY=           -784.8243 XXZZ=           -851.3531 YYZZ=           -257.6369
 XXYZ=            191.0333 YYXZ=            -78.7048 ZZXY=            180.0779
 N-N= 1.124747757956D+03 E-N=-4.091744299987D+03  KE= 7.895018638102D+02
  Exact polarizability:   0.000   0.000   0.000   0.000   0.000   0.000
 Approx polarizability: 195.705   8.699 145.931  22.983 -37.866 187.850
 Calling FoFJK, ICntrl=    100147 FMM=F ISym2X=0 I1Cent= 0 IOpClX= 0 NMat=1 NMatS=1 NMatT=0.
 -------------------------------------------------------------------
 Center     Atomic                   Forces (Hartrees/Bohr)
 Number     Number              X              Y              Z
 -------------------------------------------------------------------
      1        8          -0.008286735   -0.000876968    0.005587700
      2        6           0.020235069    0.003367867   -0.002330032
      3        7          -0.008569635    0.002500070    0.001648403
      4        6          -0.005225912   -0.000252309    0.001660471
      5        6           0.010673674   -0.002677351    0.006534653
      6        8          -0.005018337   -0.002198282    0.004336724
      7        8          -0.011526057    0.005597108   -0.009784041
      8        6           0.007360376   -0.001060959    0.006382861
      9        6          -0.008291879   -0.002110447   -0.002369571
     10        6           0.009080301   -0.001937835    0.008125760
     11        7          -0.004153658   -0.006043723    0.003026465
     12        6          -0.001719934   -0.000817326    0.001149019
     13        7           0.005110986    0.005868165   -0.007043102
     14        6          -0.015797429   -0.001394643   -0.002288637
     15        6           0.029782338    0.001117987   -0.000194979
     16        7          -0.005789373    0.002718186    0.002016856
     17        1          -0.001230359   -0.000143764   -0.006588863
     18        1           0.003911397   -0.001565757    0.001102028
     19        1           0.003130833    0.003833862   -0.006497612
     20        1          -0.001520186   -0.000900993    0.000512421
     21        1          -0.000001051   -0.000782903   -0.005854329
     22        1          -0.000036772   -0.000908719    0.000511028
     23        1           0.004548717    0.002056900    0.001761563
     24        1           0.002937451    0.001187484   -0.001564425
     25        1           0.000609009   -0.005300530    0.000600824
     26        1          -0.000622502   -0.002409580   -0.003732160
     27        1          -0.005341164    0.003816713   -0.000536108
     28        1          -0.005457171    0.001073065    0.003917679
     29        1          -0.003249053   -0.006050945    0.003339745
     30        1          -0.002747623    0.005559551    0.002786693
     31        1          -0.002795322   -0.001263923   -0.006217035
 -------------------------------------------------------------------
 Cartesian Forces:  Max     0.029782338 RMS     0.005964789
 FormGI is forming the generalized inverse of G from B-inverse, IUseBI=4.

 GradGradGradGradGradGradGradGradGradGradGradGradGradGradGradGradGradGrad
 Berny optimization.
 Internal  Forces:  Max     0.016067534 RMS     0.004283026
 Search for a local minimum.
 Step number   1 out of a maximum of  167
 All quantities printed in internal units (Hartrees-Bohrs-Radians)
 Mixed Optimization -- RFO/linear search
 Second derivative matrix not updated -- analytic derivatives used.
 ITU=  0
     Eigenvalues ---   -0.00119   0.00143   0.00202   0.00222   0.00296
     Eigenvalues ---    0.00347   0.00636   0.00681   0.00785   0.01006
     Eigenvalues ---    0.02033   0.02095   0.02186   0.02597   0.03585
     Eigenvalues ---    0.03782   0.04080   0.04159   0.04355   0.04406
     Eigenvalues ---    0.04608   0.04684   0.05138   0.05166   0.05253
     Eigenvalues ---    0.05341   0.05805   0.06172   0.06487   0.07615
     Eigenvalues ---    0.08046   0.08175   0.10549   0.10725   0.11204
     Eigenvalues ---    0.11859   0.11960   0.12550   0.13168   0.13582
     Eigenvalues ---    0.13867   0.15341   0.15863   0.16360   0.16754
     Eigenvalues ---    0.18871   0.19238   0.20481   0.21440   0.21992
     Eigenvalues ---    0.23317   0.23412   0.23778   0.25180   0.25358
     Eigenvalues ---    0.27388   0.29487   0.31498   0.31754   0.33179
     Eigenvalues ---    0.34022   0.34537   0.34796   0.34957   0.35032
     Eigenvalues ---    0.35418   0.35747   0.35819   0.36993   0.37919
     Eigenvalues ---    0.38382   0.38894   0.41956   0.42611   0.44284
     Eigenvalues ---    0.44450   0.44991   0.45450   0.47300   0.47516
     Eigenvalues ---    0.48139   0.49335   0.51619   0.58800   0.60736
     Eigenvalues ---    0.84779   0.94202
 RFO step:  Lambda=-1.15172010D-02 EMin=-1.18537954D-03
 Linear search not attempted -- first point.
 Iteration  1 RMS(Cart)=  0.14574651 RMS(Int)=  0.04170210
 Iteration  2 RMS(Cart)=  0.12054950 RMS(Int)=  0.00639909
 Iteration  3 RMS(Cart)=  0.01233455 RMS(Int)=  0.00044903
 Iteration  4 RMS(Cart)=  0.00012931 RMS(Int)=  0.00044633
 Iteration  5 RMS(Cart)=  0.00000016 RMS(Int)=  0.00044633
 Variable       Old X    -DE/DX   Delta X   Delta X   Delta X     New X
                                 (Linear)    (Quad)   (Total)
    R1        2.30979   0.00093   0.00000   0.00478   0.00478   2.31457
    R2        2.56802   0.00208   0.00000  -0.02066  -0.02066   2.54736
    R3        2.86328   0.01142   0.00000   0.04640   0.04640   2.90967
    R4        2.74456   0.00884   0.00000   0.01678   0.01678   2.76134
    R5        1.90584   0.00563   0.00000   0.01146   0.01146   1.91730
    R6        2.86002   0.00622   0.00000   0.01911   0.01911   2.87913
    R7        2.92806   0.01132   0.00000   0.03035   0.03035   2.95841
    R8        2.07145   0.00092   0.00000   0.00177   0.00177   2.07322
    R9        2.55465  -0.00139   0.00000  -0.01062  -0.01062   2.54403
   R10        2.27296   0.01607   0.00000   0.01751   0.01751   2.29047
   R11        1.83216   0.00784   0.00000   0.01449   0.01449   1.84665
   R12        2.81762   0.00812   0.00000   0.00660   0.00660   2.82422
   R13        2.05699   0.00176   0.00000   0.00645   0.00645   2.06344
   R14        2.05964   0.00568   0.00000   0.01539   0.01539   2.07503
   R15        2.58076   0.01083   0.00000   0.01943   0.01945   2.60021
   R16        2.59022   0.01215   0.00000   0.02595   0.02599   2.61621
   R17        2.61600  -0.00505   0.00000  -0.01879  -0.01881   2.59719
   R18        2.04211   0.00091   0.00000   0.00322   0.00322   2.04534
   R19        2.47712   0.00429   0.00000   0.00786   0.00782   2.48494
   R20        2.57044   0.00706   0.00000   0.01125   0.01125   2.58169
   R21        2.03175   0.00504   0.00000   0.01230   0.01230   2.04405
   R22        1.90415   0.00203   0.00000   0.00467   0.00467   1.90882
   R23        2.87894   0.00610   0.00000   0.00157   0.00157   2.88051
   R24        2.05911   0.00426   0.00000   0.01302   0.01302   2.07212
   R25        2.06356   0.00397   0.00000   0.00662   0.00662   2.07019
   R26        2.80953   0.01451   0.00000   0.06440   0.06440   2.87393
   R27        2.06237   0.00151   0.00000   0.00275   0.00275   2.06513
   R28        2.06017   0.00211   0.00000   0.00417   0.00417   2.06433
   R29        1.92758   0.00760   0.00000   0.01500   0.01500   1.94258
   R30        1.92945   0.00680   0.00000   0.01313   0.01313   1.94258
   R31        1.92799   0.00687   0.00000   0.01331   0.01331   1.94129
    A1        2.13113   0.01123   0.00000   0.05088   0.05088   2.18200
    A2        2.13940  -0.01176   0.00000  -0.07135  -0.07135   2.06805
    A3        2.01244   0.00053   0.00000   0.02039   0.02039   2.03283
    A4        2.09611   0.00511   0.00000   0.02786   0.02686   2.12297
    A5        2.11751  -0.00085   0.00000   0.00903   0.00810   2.12561
    A6        2.02563  -0.00375   0.00000  -0.01437  -0.01545   2.01018
    A7        1.86306  -0.00897   0.00000  -0.02641  -0.02637   1.83669
    A8        1.93735   0.00505   0.00000   0.02608   0.02609   1.96344
    A9        1.87700   0.00247   0.00000   0.02280   0.02295   1.89996
   A10        1.97563   0.00437   0.00000   0.00300   0.00310   1.97873
   A11        1.89345   0.00148   0.00000   0.00267   0.00270   1.89615
   A12        1.91395  -0.00452   0.00000  -0.02699  -0.02721   1.88674
   A13        1.96695   0.00325   0.00000   0.00140   0.00140   1.96835
   A14        2.17483  -0.00282   0.00000  -0.00836  -0.00836   2.16647
   A15        2.14140  -0.00043   0.00000   0.00696   0.00696   2.14836
   A16        1.85401   0.00390   0.00000   0.01729   0.01729   1.87130
   A17        1.97123   0.01320   0.00000   0.03207   0.03209   2.00332
   A18        1.88012  -0.00461   0.00000  -0.01989  -0.01998   1.86014
   A19        1.92228  -0.00441   0.00000  -0.01468  -0.01495   1.90733
   A20        1.86964  -0.00406   0.00000  -0.00291  -0.00269   1.86695
   A21        1.94962  -0.00264   0.00000   0.00373   0.00376   1.95338
   A22        1.86572   0.00186   0.00000  -0.00068  -0.00093   1.86479
   A23        2.29073  -0.00459   0.00000  -0.00943  -0.00959   2.28114
   A24        2.15839   0.00800   0.00000   0.01949   0.01934   2.17773
   A25        1.83359  -0.00338   0.00000  -0.00923  -0.00928   1.82431
   A26        1.92995   0.00362   0.00000   0.01122   0.01122   1.94117
   A27        2.23197  -0.00138   0.00000  -0.00828  -0.00829   2.22369
   A28        2.12126  -0.00224   0.00000  -0.00293  -0.00294   2.11832
   A29        1.83408   0.00072   0.00000   0.00030   0.00022   1.83430
   A30        1.94677   0.00246   0.00000   0.00604   0.00600   1.95278
   A31        2.21083  -0.00281   0.00000  -0.01375  -0.01373   2.19710
   A32        2.12558   0.00035   0.00000   0.00771   0.00772   2.13330
   A33        1.88022  -0.00339   0.00000  -0.00804  -0.00800   1.87222
   A34        2.16723   0.00404   0.00000   0.01819   0.01817   2.18540
   A35        2.23546  -0.00065   0.00000  -0.01014  -0.01015   2.22530
   A36        1.93134  -0.00677   0.00000  -0.08196  -0.08244   1.84890
   A37        1.88064  -0.00041   0.00000  -0.02691  -0.02860   1.85204
   A38        1.93754   0.00200   0.00000   0.05440   0.05581   1.99335
   A39        1.90178   0.00289   0.00000   0.00428   0.00139   1.90317
   A40        1.91135   0.00423   0.00000   0.05413   0.05494   1.96629
   A41        1.90039  -0.00194   0.00000  -0.00511  -0.00517   1.89522
   A42        1.95089  -0.00095   0.00000   0.00184   0.00204   1.95293
   A43        1.91397   0.00395   0.00000   0.04741   0.04724   1.96122
   A44        1.90342   0.00328   0.00000   0.00911   0.00847   1.91189
   A45        1.89939  -0.00297   0.00000  -0.03828  -0.03847   1.86091
   A46        1.91828  -0.00413   0.00000  -0.04714  -0.04736   1.87092
   A47        1.87641   0.00089   0.00000   0.02836   0.02648   1.90289
   A48        1.93980   0.00037   0.00000  -0.00216  -0.00216   1.93764
   A49        1.95492   0.00005   0.00000  -0.00501  -0.00501   1.94992
   A50        1.94324   0.00055   0.00000   0.00480   0.00480   1.94804
   A51        1.87243  -0.00016   0.00000   0.00262   0.00261   1.87504
   A52        1.87655  -0.00082   0.00000  -0.00386  -0.00385   1.87270
   A53        1.87299  -0.00007   0.00000   0.00374   0.00374   1.87673
    D1       -0.10391   0.00024   0.00000   0.03761   0.03802  -0.06589
    D2       -2.91907  -0.00093   0.00000  -0.04107  -0.04133  -2.96040
    D3        3.01567   0.00041   0.00000   0.03291   0.03317   3.04884
    D4        0.20052  -0.00077   0.00000  -0.04577  -0.04618   0.15433
    D5        1.40506  -0.00184   0.00000  -0.43879  -0.43753   0.96754
    D6       -0.67253  -0.00120   0.00000  -0.38044  -0.38153  -1.05405
    D7       -2.75201   0.00026   0.00000  -0.38916  -0.38917  -3.14118
    D8       -1.71441  -0.00233   0.00000  -0.43578  -0.43462  -2.14903
    D9        2.49119  -0.00169   0.00000  -0.37743  -0.37863   2.11256
   D10        0.41171  -0.00023   0.00000  -0.38615  -0.38627   0.02544
   D11       -2.81581   0.00131   0.00000  -0.02482  -0.02464  -2.84045
   D12        1.30691  -0.00127   0.00000  -0.02715  -0.02673   1.28018
   D13       -0.78674  -0.00025   0.00000  -0.02375  -0.02385  -0.81059
   D14        0.01592   0.00285   0.00000   0.05360   0.05344   0.06936
   D15       -2.14454   0.00027   0.00000   0.05126   0.05135  -2.09319
   D16        2.04499   0.00129   0.00000   0.05467   0.05423   2.09923
   D17       -3.13461  -0.00137   0.00000  -0.00640  -0.00636  -3.14097
   D18        0.00343  -0.00106   0.00000  -0.00742  -0.00737  -0.00394
   D19       -0.99799   0.00146   0.00000   0.00980   0.00985  -0.98814
   D20        2.14005   0.00176   0.00000   0.00879   0.00883   2.14888
   D21        1.13050  -0.00035   0.00000  -0.02066  -0.02075   1.10975
   D22       -2.01465  -0.00005   0.00000  -0.02168  -0.02176  -2.03641
   D23       -2.49123  -0.00118   0.00000  -0.03282  -0.03266  -2.52389
   D24       -0.43011  -0.00143   0.00000  -0.03048  -0.03049  -0.46060
   D25        1.59876  -0.00419   0.00000  -0.05045  -0.05019   1.54857
   D26        1.69725   0.00375   0.00000  -0.01955  -0.01950   1.67775
   D27       -2.52481   0.00350   0.00000  -0.01721  -0.01734  -2.54214
   D28       -0.49594   0.00073   0.00000  -0.03718  -0.03703  -0.53298
   D29       -0.41972   0.00213   0.00000  -0.00561  -0.00575  -0.42547
   D30        1.64140   0.00188   0.00000  -0.00328  -0.00359   1.63782
   D31       -2.61292  -0.00089   0.00000  -0.02325  -0.02328  -2.63620
   D32       -3.12587  -0.00057   0.00000  -0.01963  -0.01964   3.13768
   D33        0.01920  -0.00086   0.00000  -0.01860  -0.01860   0.00060
   D34        2.09828  -0.00139   0.00000  -0.03510  -0.03512   2.06316
   D35       -1.00477  -0.00255   0.00000  -0.06810  -0.06820  -1.07297
   D36        0.03104  -0.00074   0.00000  -0.02732  -0.02733   0.00371
   D37       -3.07201  -0.00190   0.00000  -0.06032  -0.06041  -3.13242
   D38       -2.00651   0.00091   0.00000  -0.02678  -0.02663  -2.03314
   D39        1.17362  -0.00025   0.00000  -0.05978  -0.05971   1.11391
   D40       -3.12471  -0.00031   0.00000  -0.01700  -0.01661  -3.14131
   D41        0.01497  -0.00045   0.00000  -0.01443  -0.01419   0.00078
   D42       -0.01633   0.00089   0.00000   0.01195   0.01197  -0.00435
   D43        3.12335   0.00076   0.00000   0.01452   0.01439   3.13774
   D44        3.12901  -0.00035   0.00000   0.01095   0.01126   3.14027
   D45        0.01089  -0.00015   0.00000   0.01068   0.01089   0.02178
   D46        0.01742  -0.00116   0.00000  -0.01457  -0.01447   0.00295
   D47       -3.10070  -0.00096   0.00000  -0.01483  -0.01484  -3.11554
   D48        0.00875  -0.00033   0.00000  -0.00470  -0.00471   0.00403
   D49       -3.13107  -0.00020   0.00000  -0.00707  -0.00696  -3.13803
   D50        0.00272  -0.00035   0.00000  -0.00468  -0.00477  -0.00205
   D51       -3.13668   0.00012   0.00000  -0.00398  -0.00397  -3.14065
   D52       -0.01301   0.00094   0.00000   0.01237   0.01242  -0.00059
   D53        3.10391   0.00081   0.00000   0.01315   0.01330   3.11721
   D54        3.12652   0.00049   0.00000   0.01167   0.01162   3.13814
   D55       -0.03975   0.00036   0.00000   0.01245   0.01250  -0.02725
   D56       -3.10332   0.00220   0.00000   0.11422   0.11377  -2.98955
   D57        1.07181   0.00388   0.00000   0.12911   0.12883   1.20064
   D58       -0.97865  -0.00138   0.00000   0.06228   0.06141  -0.91724
   D59       -1.03856  -0.00055   0.00000   0.03533   0.03558  -1.00298
   D60        3.13656   0.00113   0.00000   0.05022   0.05064  -3.09598
   D61        1.08611  -0.00413   0.00000  -0.01661  -0.01678   1.06933
   D62        1.03843   0.00130   0.00000   0.06358   0.06403   1.10246
   D63       -1.06963   0.00299   0.00000   0.07847   0.07909  -0.99054
   D64       -3.12008  -0.00227   0.00000   0.01164   0.01167  -3.10841
   D65        1.03267  -0.00069   0.00000  -0.01753  -0.01738   1.01530
   D66        3.12692  -0.00061   0.00000  -0.01909  -0.01892   3.10800
   D67       -1.05892  -0.00027   0.00000  -0.01441  -0.01425  -1.07317
   D68       -3.13399   0.00165   0.00000   0.01725   0.01690  -3.11709
   D69       -1.03974   0.00173   0.00000   0.01570   0.01535  -1.02438
   D70        1.05760   0.00207   0.00000   0.02038   0.02002   1.07763
   D71       -1.08341  -0.00138   0.00000   0.00209   0.00228  -1.08114
   D72        1.01083  -0.00129   0.00000   0.00053   0.00073   1.01156
   D73        3.10818  -0.00096   0.00000   0.00521   0.00540   3.11358
         Item               Value     Threshold  Converged?
 Maximum Force            0.016068     0.000450     NO 
 RMS     Force            0.004283     0.000300     NO 
 Maximum Displacement     1.077521     0.001800     NO 
 RMS     Displacement     0.257625     0.001200     NO 
 Predicted change in Energy=-9.718387D-03
 GradGradGradGradGradGradGradGradGradGradGradGradGradGradGradGradGradGrad

                          Input orientation:                          
 ---------------------------------------------------------------------
 Center     Atomic      Atomic             Coordinates (Angstroms)
 Number     Number       Type             X           Y           Z
 ---------------------------------------------------------------------
      1          8           0       -0.928207   -0.388102    1.327587
      2          6           0       -1.370778   -0.171347    0.206279
      3          7           0       -0.622941    0.108909   -0.879684
      4          6           0        0.827787    0.260778   -0.792894
      5          6           0        1.232125    0.981806   -2.072698
      6          8           0        2.558037    1.201508   -2.150503
      7          8           0        0.453218    1.321392   -2.937041
      8          6           0        1.562326   -1.107066   -0.592095
      9          6           0        2.774475   -1.045103    0.279923
     10          6           0        3.050840   -1.663756    1.477499
     11          7           0        4.299912   -1.321626    1.937576
     12          6           0        4.783654   -0.497333    1.034419
     13          7           0        3.904508   -0.292602    0.008935
     14          6           0       -2.897219   -0.180925    0.004625
     15          6           0       -3.457281    0.827652    1.000912
     16          7           0       -4.975746    0.775658    1.067618
     17          1           0       -1.039535    0.431371   -1.746787
     18          1           0        1.066400    0.904669    0.062731
     19          1           0        2.725999    1.660630   -2.996625
     20          1           0        0.850438   -1.773881   -0.101305
     21          1           0        1.785331   -1.546375   -1.573428
     22          1           0        2.411928   -2.339399    2.031366
     23          1           0        5.755185   -0.022772    1.064779
     24          1           0        4.025756    0.307633   -0.794386
     25          1           0       -3.234902   -1.185849    0.284725
     26          1           0       -3.215751    0.020431   -1.024017
     27          1           0       -3.190606    1.856278    0.745829
     28          1           0       -3.082088    0.600085    2.001299
     29          1           0       -5.301412   -0.164013    1.327766
     30          1           0       -5.348794    1.434372    1.763068
     31          1           0       -5.402442    1.007035    0.162238
 ---------------------------------------------------------------------
                    Distance matrix (angstroms):
                    1          2          3          4          5
     1  O    0.000000
     2  C    1.224819   0.000000
     3  N    2.283036   1.348006   0.000000
     4  C    2.828604   2.453318   1.461236   0.000000
     5  C    4.255070   3.646725   2.372025   1.523571   0.000000
     6  O    5.174733   4.782754   3.595466   2.392037   1.346241
     7  O    4.797682   3.928829   2.619342   2.421275   1.212066
     8  C    3.225654   3.180577   2.517279   1.565524   2.581589
     9  C    3.903730   4.236980   3.770792   2.577955   3.467280
    10  C    4.181218   4.836733   4.711191   3.714899   4.786504
    11  N    5.345725   6.039640   5.849604   4.692026   5.549721
    12  C    5.720422   6.218449   5.767372   4.422972   4.945238
    13  N    5.010299   5.280369   4.631269   3.227285   3.619247
    14  C    2.381210   1.539733   2.457305   3.834946   4.766413
    15  C    2.825065   2.446004   3.476596   4.679840   5.609044
    16  N    4.219537   3.825509   4.814920   6.116176   6.960010
    17  H    3.183662   2.070618   1.014593   2.103784   2.360007
    18  H    2.692503   2.668005   2.091711   1.097099   2.143239
    19  H    6.020741   5.513466   4.254959   3.227882   1.883110
    20  H    2.669400   2.756179   2.514283   2.149103   3.409675
    21  H    4.137726   3.875446   3.003501   2.189046   2.635717
    22  H    3.931840   4.726548   4.866093   4.152935   5.409777
    23  H    6.698526   7.179027   6.669240   5.273575   5.595624
    24  H    5.434019   5.509386   4.653725   3.198313   3.145309
    25  H    2.654205   2.123753   3.139201   4.445159   5.496408
    26  H    3.306024   2.225833   2.598331   4.057264   4.669858
    27  H    3.239465   2.777436   3.505495   4.589202   5.316893
    28  H    2.463657   2.597265   3.819519   4.817652   5.946057
    29  H    4.378943   4.087502   5.180291   6.499595   7.454070
    30  H    4.801316   4.563610   5.574466   6.786783   7.630623
    31  H    4.829413   4.200576   4.973516   6.347042   7.000933
                    6          7          8          9         10
     6  O    0.000000
     7  O    2.250173   0.000000
     8  C    2.957970   3.553351   0.000000
     9  C    3.316787   4.619241   1.494511   0.000000
    10  C    4.649192   5.928483   2.609367   1.375971   0.000000
    11  N    5.110060   6.748665   3.733584   2.269633   1.374374
    12  C    4.240655   6.150848   3.659819   2.214975   2.135300
    13  N    2.951020   4.816135   2.551550   1.384437   2.183001
    14  C    6.026236   4.704868   4.593621   5.743754   6.304566
    15  C    6.801120   5.571648   5.610460   6.546895   6.984976
    16  N    8.203386   6.768218   7.003262   8.000098   8.399097
    17  H    3.701165   2.106455   3.235704   4.564450   5.613977
    18  H    2.685424   3.090030   2.172975   2.601212   3.540675
    19  H    0.977203   2.298731   3.846562   4.249600   5.583444
    20  H    3.996003   4.216622   1.091925   2.092456   2.710445
    21  H    2.912206   3.443552   1.098061   2.159766   3.305064
    22  H    5.481551   6.474798   3.020434   2.207759   1.082345
    23  H    4.696663   6.777329   4.636916   3.247427   3.190086
    24  H    2.189124   4.287390   2.847944   2.133011   3.162008
    25  H    6.722198   5.501660   4.877336   6.011027   6.415735
    26  H    6.000046   4.337453   4.928268   6.222414   6.954439
    27  H    6.470268   5.208367   5.758629   6.649607   7.202890
    28  H    7.029237   6.116034   5.586648   6.322113   6.558364
    29  H    8.702525   7.315106   7.189305   8.191108   8.487153
    30  H    8.825431   7.467739   7.731059   8.621775   8.957331
    31  H    8.291913   6.632730   7.317543   8.431317   8.962199
                   11         12         13         14         15
    11  N    0.000000
    12  C    1.314974   0.000000
    13  N    2.221461   1.366173   0.000000
    14  C    7.538978   7.756055   6.802646   0.000000
    15  C    8.103751   8.346839   7.512319   1.524299   0.000000
    16  N    9.549516   9.842128   9.006715   2.522951   1.520818
    17  H    6.719912   6.519749   5.296250   2.625517   3.681357
    18  H    4.350521   4.089959   3.080781   4.110008   4.620585
    19  H    5.976402   5.013986   3.773246   6.634712   7.409933
    20  H    4.032423   4.288312   3.396128   4.073532   5.151631
    21  H    4.324440   4.109902   2.926898   5.126498   6.304619
    22  H    2.146891   3.164205   3.241513   6.078958   6.748309
    23  H    2.136964   1.081666   2.147700   8.718545   9.251855
    24  H    3.192688   2.137032   1.010103   6.986036   7.712935
    25  H    7.715165   8.082903   7.200356   1.096521   2.148620
    26  H    8.188854   8.276214   7.201602   1.095495   2.193235
    27  H    8.223575   8.319350   7.449923   2.187614   1.092819
    28  H    7.628299   8.000567   7.319763   2.151944   1.092397
    29  H    9.690065  10.094835   9.300797   2.744291   2.119210
    30  H   10.036109  10.340643   9.575125   3.422210   2.127630
    31  H   10.134602  10.333459   9.398505   2.777091   2.125842
                   16         17         18         19         20
    16  N    0.000000
    17  H    4.851100   0.000000
    18  H    6.126497   2.816616   0.000000
    19  H    8.753178   4.153603   3.561658   0.000000
    20  H    6.466139   3.338075   2.692243   4.867902   0.000000
    21  H    7.620966   3.452738   3.033397   3.632522   1.758673
[...]
 0.00001319,0.00001207,0.00000998,-0.00000103,0.00001244,-0.00000714,-0
 .00000918,0.00001345,-0.01189739,-0.04821527,-0.06083653,-0.00759609,-
 0.02916461,-0.00660424,-0.00112310,0.00037795,0.00182122,0.00008013,0.
 00051782,0.00022818,0.00008285,0.00002540,-0.00005082,-0.00000675,-0.0
 0000038,0.00001227,-0.00001336,-0.00000547,-0.00000053,0.00001678,-0.0
 0002866,-0.00000532,-0.00000171,-0.00000520,-0.00000248,0.00000180,0.0
 0000045,0.00000051,-0.00001333,0.00000614,0.00000271,0.01199023,0.0557
 8345,0.06387821,-0.00813711,-0.00210197,-0.00225038,0.00127593,0.01988
 094,-0.02761449,0.00072406,-0.00126783,0.00174745,-0.00003067,-0.00032
 925,-0.00002577,-0.00026069,0.00008659,-0.00030609,0.00015420,-0.00000
 990,0.00005870,0.00020228,-0.00012108,0.00019883,0.00017041,0.00002248
 ,0.00004785,0.00003176,-0.00003471,-0.00001780,0.00002032,0.00001595,-
 0.00000724,-0.00000912,0.00000477,0.00002047,-0.00001962,-0.00000541,-
 0.00000402,-0.00001843,-0.00001091,0.00001991,-0.06337023,0.03717776,-
 0.04542602,0.00342905,-0.01104608,0.01618831,0.00130006,-0.00042892,0.
 00008959,-0.00169185,0.00052358,0.00074866,0.00007782,0.00005773,0.000
 01466,-0.00002726,0.00001028,0.00000738,0.00003528,-0.00010326,-0.0000
 2694,-0.00001677,0.00000040,0.00001302,0.00000571,-0.00002478,0.000013
 45,-0.00000199,-0.00000095,0.00000126,-0.00001235,0.00001372,-0.000014
 57,0.00216484,-0.00519042,0.00808656,0.06643994,-0.00050140,0.00077676
 ,-0.00081574,-0.00218838,0.00030037,-0.00084970,0.00023067,-0.00007192
 ,-0.00042423,0.00006594,0.00013274,-0.00021939,0.00008412,-0.00003597,
 0.00017062,-0.00003307,0.00001533,-0.00004464,-0.00005977,-0.00002972,
 -0.00012634,-0.00004811,-0.00003748,0.00000816,-0.00001543,0.00001165,
 -0.00000532,-0.00000988,-0.00000754,0.00000842,0.00000846,-0.00000128,
 -0.00000370,0.00000449,0.00000298,-0.00000276,0.00001392,0.00000421,-0
 .00000416,0.03679782,-0.13982885,0.12049690,-0.00354346,0.00775663,-0.
 01183652,-0.00062312,0.00011043,0.00019865,0.00054860,0.00038907,-0.00
 023470,-0.00006238,-0.00000215,-0.00000154,0.00000650,0.00000839,0.000
 00690,-0.00000951,0.00002060,-0.00000788,0.00001097,-0.00000714,-0.000
 00524,-0.00000250,0.00000670,-0.00000764,0.00000130,0.00000051,-0.0000
 0043,-0.00000079,0.00000090,0.00000753,0.00753200,-0.01668295,0.024602
 70,-0.03901374,0.14614108,-0.00142474,0.00036360,0.00129101,-0.0013143
 1,0.00133780,-0.00541556,0.00144817,-0.00038456,0.00032667,-0.00045265
 ,-0.00059808,0.00001849,-0.00006903,0.00002670,0.00005068,0.00002029,0
 .00000199,-0.00002059,0.00002354,-0.00001620,-0.00004307,0.00013486,0.
 00008083,0.00000273,0.00002371,-0.00004951,-0.00000107,0.00000790,0.00
 000580,-0.00003331,0.00002285,0.00001059,0.00001284,0.00000774,-0.0000
 0271,0.00001620,-0.00002031,-0.00001173,0.00001785,-0.04450990,0.11882
 679,-0.21197658,-0.00739572,0.01512794,-0.02182422,0.00000023,-0.00002
 862,0.00071424,0.00048371,0.00029267,0.00080645,-0.00002803,0.00004985
 ,0.00002428,-0.00000203,0.00000495,0.00000432,0.00000183,-0.00000873,-
 0.00001233,0.00000478,-0.00001638,0.00000573,0.00000062,-0.00000720,0.
 00000154,-0.00000012,0.00000040,0.00000116,-0.00000614,0.00000261,-0.0
 0000102,0.00197760,-0.00401660,0.00690668,0.04745754,-0.12914690,0.231
 39291,-0.00067112,-0.00077809,-0.00066637,0.00213258,0.00065681,0.0007
 9469,-0.00063372,-0.00029434,0.00016397,0.00013145,0.00006199,0.000080
 75,0.00004261,0.00003905,-0.00002983,-0.00006330,-0.00002798,0.0000256
 8,-0.00004706,-0.00003946,0.00000914,-0.00001021,-0.00001186,-0.000018
 40,0.00000673,0.00000551,0.00000884,0.00001000,-0.00000376,0.00000631,
 -0.00002358,-0.00001177,-0.00001114,-0.00001075,0.00000030,-0.00000281
 ,0.00000057,-0.00000399,-0.00001350,0.00296276,0.01569004,0.00109605,-
 0.05024324,-0.00714464,-0.00266933,-0.01458424,-0.04106602,-0.00370651
 ,0.00007395,0.00011595,-0.00006051,-0.00005160,0.00001624,-0.00001932,
 0.00000254,0.00001335,0.00000235,0.00001132,-0.00000308,0.00001685,0.0
 0000576,-0.00000395,-0.00000636,0.00000262,0.00000451,0.00000566,-0.00
 000243,0.00000194,0.00000031,0.00000588,0.00000645,0.00000268,-0.00146
 197,0.00060320,0.00283121,0.00033476,-0.00066223,-0.00030235,0.0631844
 7,0.00033859,0.00065686,0.00066456,-0.00047586,0.00002937,-0.00112707,
 0.00022024,-0.00008466,0.00017565,-0.00001567,-0.00001067,-0.00003133,
 -0.00000677,0.00000430,-0.00000511,0.00001310,0.00000129,-0.00000327,0
 .00000860,-0.00000079,0.00001083,0.00000545,0.00001377,-0.00000064,0.0
 0000182,0.00000029,-0.00000386,0.00000006,0.00000342,-0.00000352,0.000
 00407,0.00000292,0.00000555,0.00000130,-0.00000020,-0.00000083,-0.0000
 0212,-0.00000172,0.00000722,0.00072364,-0.00625902,-0.00136401,-0.0203
 4242,-0.32748436,-0.03145587,-0.00109364,-0.00270158,0.00020237,-0.000
 03109,-0.00005871,0.00001831,0.00001146,0.00000418,0.00000706,-0.00000
 086,0.00000002,-0.00000023,0.00000012,-0.00000848,-0.00000547,-0.00000
 249,-0.00000134,0.00000283,-0.00000054,-0.00000417,-0.00000115,0.00000
 014,-0.00000033,0.00000009,-0.00000190,0.00000002,-0.00000175,0.000719
 23,0.00110596,-0.00085471,-0.00001896,0.00103100,0.00005412,0.02207264
 ,0.34448730,-0.00000447,-0.00054951,0.00032928,-0.00103925,-0.00015511
 ,-0.00012980,0.00016421,0.00043542,-0.00005654,-0.00001436,0.00001821,
 -0.00002243,0.00005935,-0.00003605,0.00005285,-0.00002663,0.00000820,-
 0.00001337,-0.00003106,0.00004858,-0.00003282,0.00000978,-0.00001734,0
 .00000740,-0.00000433,0.00000479,0.00000010,0.00000134,-0.00000073,0.0
 0000151,-0.00000094,-0.00000239,-0.00000754,0.00000151,-0.00000088,0.0
 0000573,0.00000320,0.00000476,-0.00000638,-0.00197887,-0.02823194,-0.0
 0346474,-0.00258490,-0.03055915,-0.05583180,-0.00066873,-0.00038211,-0
 .00074683,-0.00000117,-0.00017038,-0.00001237,0.00002998,-0.00000512,0
 .00001255,0.00000807,-0.00000723,-0.00000250,0.00000001,0.00000169,-0.
 00001521,-0.00000722,0.00000238,0.00000247,0.00000164,0.00000311,0.000
 00107,0.00000032,0.00000002,0.00000052,0.00000349,-0.00000463,0.000003
 55,0.00344921,-0.00162880,-0.00398217,-0.00112019,0.00023845,0.0012817
 3,-0.00012866,0.03613445,0.05651959,-0.00320363,0.00109899,-0.00345949
 ,0.00180180,-0.00068920,0.00679138,0.00025520,0.00023894,-0.00326325,-
 0.00048806,-0.00000666,0.00003301,-0.00015883,-0.00015219,0.00029080,0
 .00011904,0.00005439,-0.00010581,0.00008223,0.00012525,-0.00024293,-0.
 00003397,0.00002457,0.00000816,-0.00002925,-0.00004637,0.00000905,-0.0
 0003408,-0.00002214,-0.00002039,0.00007277,0.00000484,0.00000550,0.000
 02414,0.00000709,0.00001563,0.00001053,-0.00000462,0.00000198,0.007524
 94,-0.00863140,0.01059226,-0.07940559,0.04414862,-0.07742003,-0.023732
 42,0.01488095,-0.02725339,0.00064231,-0.00004723,-0.00003162,-0.000028
 63,-0.00002920,0.00006739,-0.00001481,-0.00001582,0.00001895,-0.000016
 61,0.00010949,0.00001977,0.00003278,-0.00000521,-0.00002208,-0.0000121
 3,0.00003162,-0.00001800,0.00000509,0.00000247,-0.00000158,-0.00002038
 ,0.00000274,0.00001262,0.00036660,0.00033215,-0.00024869,-0.00252954,0
 .00162629,0.00285908,0.00343882,-0.00130819,0.00375486,0.09925423,0.00
 068784,-0.00187441,-0.00034180,0.00053031,0.00077612,0.00019555,-0.000
 22492,0.00018576,0.00019075,0.00011658,0.00000283,0.00008669,0.0000233
 5,0.00002838,-0.00005805,-0.00003319,-0.00001771,0.00002584,-0.0000130
 9,-0.00001969,0.00003369,0.00001528,-0.00000219,-0.00001098,0.00000961
 ,-0.00000052,0.00000609,0.00001964,0.00000177,-0.00000669,-0.00002183,
 -0.00001147,-0.00000584,-0.00000868,-0.00000144,0.00000245,-0.00000771
 ,-0.00000374,-0.00000526,-0.00502988,0.00642974,-0.00915027,0.05164748
 ,-0.12021420,0.11015985,-0.00825238,0.00472160,-0.01089048,-0.00015040
 ,0.00012857,-0.00001931,0.00001384,-0.00000302,-0.00002668,0.00000324,
 0.00000481,-0.00000278,0.00000700,-0.00000148,-0.00000030,-0.00000231,
 -0.00000046,-0.00000075,0.00000518,0.00000500,0.00000924,-0.00000229,0
 .00000094,0.00000122,0.00000470,0.00000379,-0.00000072,-0.00071997,0.0
 0061213,0.00014964,0.00167548,0.00007808,-0.00195512,0.01228426,-0.012
 32800,0.02528615,-0.05075255,0.12064649,-0.00249691,-0.00050630,0.0031
 0903,-0.00200082,0.00104225,-0.00430981,-0.00017975,-0.00006083,0.0007
 1785,0.00017023,-0.00000323,0.00004679,0.00005010,0.00007821,-0.000120
 90,-0.00005349,-0.00002426,0.00004548,-0.00001919,-0.00005238,0.000092
 55,0.00003193,-0.00001570,0.00001369,0.00001482,0.00000885,0.00001566,
 -0.00000140,-0.00000829,0.00002672,-0.00002815,-0.00000470,-0.00002187
 ,-0.00001315,-0.00000327,-0.00000105,0.00000659,0.00000927,-0.00002988
 ,-0.00537782,0.01290900,-0.02355500,-0.08649536,0.10800066,-0.23277425
 ,0.00314732,-0.00288795,0.00414142,-0.00016625,0.00004917,0.00009303,0
 .00003121,0.00001043,-0.00001796,0.00000435,0.00000422,-0.00000479,0.0
 0001856,-0.00005501,0.00000064,-0.00001792,0.00000379,0.00000272,0.000
 00276,0.00000012,0.00001174,-0.00000164,0.00000067,-0.00000072,0.00001
 107,-0.00000023,0.00000031,-0.00048618,-0.00017139,0.00080948,0.002213
 72,-0.00275299,-0.00304600,0.00286673,-0.00255601,0.00550775,0.0879638
 4,-0.11281564,0.24789161,0.00047444,0.00021285,0.00025958,-0.00109693,
 0.00031840,-0.00056185,0.00067733,-0.00001655,-0.00016041,-0.00022538,
 -0.00005208,-0.00009725,-0.00015274,-0.00008888,0.00016729,0.00015966,
 0.00004780,-0.00008492,0.00010449,0.00005253,-0.00009503,-0.00000472,0
 .00004736,-0.00000032,-0.00000909,-0.00003085,-0.00000745,-0.00002295,
 -0.00000552,-0.00002433,0.00006414,0.00001103,0.00001696,0.00001497,0.
 00000226,0.00001123,0.00000228,-0.00000899,0.00001875,0.00198571,-0.00
 100949,-0.00040559,-0.00327856,-0.03612725,-0.00316223,-0.06685330,-0.
 05581172,-0.00501394,-0.00003388,-0.00005014,0.00014444,0.00003141,-0.
 00000222,0.00001148,-0.00001917,-0.00001211,0.00001587,-0.00001285,0.0
 0003395,-0.00001313,0.00001168,-0.00001131,0.00000141,-0.00000654,0.00
 000763,-0.00001218,0.00000397,0.00000116,-0.00000055,-0.00002375,0.000
 00446,0.00000363,-0.00018593,0.00135201,0.00116492,0.00010205,0.000319
 76,0.00000789,-0.00731495,0.00020104,0.00005314,0.00102389,0.00020488,
 -0.00071918,0.06771837,0.00035687,-0.00022034,-0.00011957,-0.00041608,
 -0.00003998,-0.00022964,0.00049543,-0.00005680,-0.00010562,-0.00014735
 ,0.00004892,-0.00006660,-0.00008233,-0.00002693,0.00005980,0.00009570,
 0.00001058,-0.00004434,0.00007200,-0.00000183,-0.00002959,-0.00000706,
 0.00004412,-0.00001241,0.00000561,-0.00002931,-0.00000418,0.00000833,-
 0.00000305,-0.00002683,0.00002009,-0.00000819,0.00001329,0.00000161,0.
 00000261,0.00000429,-0.00001059,-0.00001740,0.00001591,0.00136277,0.00
 197866,0.00149355,-0.00601070,-0.00295375,-0.00085794,-0.04446000,-0.3
 9336590,-0.02829721,-0.00003004,0.00003758,0.00007973,0.00000866,-0.00
 000204,-0.00000047,-0.00000924,0.00000654,0.00000918,-0.00000344,0.000
 02953,0.00000876,0.00001543,-0.00000711,-0.00000862,-0.00000277,0.0000
 1264,0.00000109,-0.00000031,0.00000257,0.00000117,-0.00001476,0.000015
 16,-0.00000085,-0.00041764,-0.00025071,0.00017875,-0.00009706,-0.00030
 095,-0.00009893,-0.00015536,0.00170023,-0.00026310,0.00051433,0.000876
 76,-0.00028062,0.05304313,0.41431155,-0.00039365,0.00016938,-0.0007059
 4,0.00116136,-0.00048726,0.00048501,-0.00031137,-0.00000224,-0.0000285
 1,0.00012642,0.00004549,0.00001885,0.00013843,0.00003118,-0.00000759,-
 0.00011864,-0.00002085,0.00002740,-0.00009568,-0.00002063,-0.00001214,
 0.00000480,-0.00003488,0.00002284,-0.00000217,0.00001530,0.00001435,-0
 .00000911,-0.00000964,0.00003786,-0.00003125,-0.00000114,-0.00003063,-
 0.00000633,-0.00000240,0.00000067,0.00001477,0.00001572,-0.00003996,-0
 .00033936,0.00203382,0.00046470,-0.00098906,-0.00085032,0.00012582,-0.
 00352559,-0.02799731,-0.06948222,0.00005699,0.00004956,-0.00006045,-0.
 00001856,-0.00000167,-0.00000460,0.00001569,0.00000784,-0.00000449,0.0
 0000366,-0.00001974,0.00001632,-0.00000499,0.00000724,-0.00000938,0.00
 000238,-0.00000184,0.00000563,-0.00000082,0.00000025,-0.00000076,0.000
 01800,-0.00000550,0.00000666,0.00018873,-0.00096741,-0.00001219,0.0001
 1719,-0.00002054,-0.00018461,-0.00014095,0.00018997,0.00042192,-0.0006
 8237,-0.00066594,-0.00018234,0.00521759,0.03115905,0.06270966,0.000370
 37,-0.00016507,-0.00111996,0.00084990,0.00026206,0.00357175,-0.0009072
 0,0.00004929,-0.00052680,0.00007257,-0.00003938,0.00020198,-0.00008541
 ,0.00001550,-0.00005781,-0.00000052,-0.00001241,0.00002847,0.00001929,
 -0.00000760,0.00000809,-0.00000897,-0.00002139,0.00000202,-0.00000532,
 0.00000524,0.00000832,-0.00001397,-0.00000964,0.00001285,0.00000760,-0
 .00000329,-0.00001053,-0.00000147,0.00000118,-0.00000016,0.00001369,0.
 00000398,-0.00001442,-0.00709306,-0.00212360,-0.00291293,-0.01238598,0
 .01095578,0.02781070,-0.12476118,0.05003348,0.13113395,0.00002256,0.00
 002916,-0.00006240,-0.00001978,-0.00000092,0.00000470,-0.00001319,0.00
 000018,0.00000587,0.00000136,0.00001029,0.00000346,-0.00000042,0.00000
 281,-0.00000367,-0.00000165,0.00000787,-0.00000209,0.00000067,0.000001
 62,-0.00000101,-0.00000090,0.00000058,0.00000497,0.00043808,-0.0000695
 2,-0.00055797,0.00006599,-0.00022342,0.00001126,0.00123389,-0.00065372
 ,0.00027058,0.00050277,0.00110724,-0.00038960,0.00339513,-0.00133387,-
 0.00730338,0.12802237,-0.00011984,-0.00014181,0.00000612,0.00021029,0.
 00060911,0.00041282,-0.00033599,-0.00003917,0.00004783,0.00007175,-0.0
 0005008,0.00005628,0.00003304,0.00003967,-0.00007547,-0.00005189,-0.00
 002621,0.00003414,-0.00002826,-0.00003313,0.00003903,0.00001079,-0.000
 00786,-0.00000304,0.00000661,0.00000645,0.00000067,0.00001414,0.000001
 89,-0.00000043,-0.00002067,-0.00000990,-0.00000285,-0.00000598,-0.0000
 0003,-0.00000322,-0.00000395,-0.00000449,-0.00000094,-0.00185610,-0.00
 056014,-0.00103268,-0.00192437,0.00331622,0.00863907,0.04535724,-0.098
 53292,-0.08597551,0.00001437,0.00005045,-0.00004574,-0.00002240,0.0000
 0463,-0.00000036,0.00000327,0.00001196,-0.00000186,0.00000476,-0.00000
 702,0.00000293,-0.00000145,0.00000147,-0.00000212,0.00000164,0.0000010
 2,0.00000474,-0.00000227,0.00000129,0.00000099,0.00000567,0.00000464,-
 0.00000088,0.00008288,0.00031049,0.00003475,0.00026231,0.00006537,-0.0
 0014997,-0.00072872,-0.00023673,0.00063041,0.00077150,0.00007618,-0.00
 015869,0.01859973,-0.00777492,-0.03500181,-0.04945647,0.09525969,-0.00
 036731,0.00005602,0.00024896,-0.00013684,0.00010419,-0.00008077,-0.000
 33891,0.00001239,0.00009091,0.00010968,-0.00001701,0.00001302,0.000148
 96,0.00002892,-0.00002293,-0.00012744,-0.00002137,0.00003364,-0.000100
 21,-0.00001110,0.00000458,0.00002238,-0.00003691,0.00001686,-0.0000003
 7,0.00001704,0.00001236,-0.00000028,-0.00000625,0.00003124,-0.00003536
 ,-0.00000389,-0.00002968,-0.00000739,-0.00000333,0.00000334,0.00001006
 ,0.00001398,-0.00003634,-0.00030218,-0.00042390,0.00000025,0.00152681,
 0.00333099,0.00611578,0.12126021,-0.08826810,-0.30704712,0.00005824,0.
 00002360,-0.00008932,-0.00001883,-0.00000272,0.00000244,0.00001755,0.0
 0000519,-0.00000621,0.00000921,-0.00001826,0.00000765,-0.00000775,0.00
 000651,-0.00000682,0.00000403,-0.00000113,0.00000817,-0.00000137,0.000
 00021,0.00000001,0.00001908,-0.00000643,0.00000532,-0.00003227,0.00001
 534,-0.00009708,-0.00017099,-0.00002154,0.00010421,-0.00013922,0.00017
 928,0.00028125,-0.00069399,0.00003509,0.00074444,-0.00080643,0.0005210
 3,0.00049775,-0.13392155,0.09571308,0.32130575,0.00004390,0.00011052,0
 .00159813,-0.00230114,-0.00018275,-0.00169189,0.00078631,-0.00007188,0
 .00009483,-0.00020931,0.00002061,-0.00010140,-0.00016637,-0.00005817,0
 .00012628,0.00017170,0.00003886,-0.00007865,0.00012129,0.00002558,-0.0
 0006024,-0.00000961,0.00005222,-0.00000697,-0.00000202,-0.00003293,-0.
 00000689,-0.00001072,-0.00000195,-0.00003112,0.00005440,0.00000594,0.0
 0002008,0.00000879,0.00000185,0.00000947,-0.00000486,-0.00001432,0.000
 02243,0.00286461,0.00069173,-0.00048079,-0.01427837,0.01611938,-0.0268
 4233,-0.12810223,0.07473820,-0.12239096,-0.00008405,-0.00001252,0.0001
 6585,0.00003125,0.00000299,0.00000304,-0.00002100,-0.00000820,0.000016
 94,-0.00000625,0.00002193,-0.00001066,0.00001086,-0.00001318,0.0000027
 3,-0.00000427,0.00000737,-0.00000779,0.00000265,0.00000145,0.00000005,
 -0.00002527,0.00000950,0.00000104,-0.00023286,0.00015529,0.00020616,-0
 .00040884,-0.00025364,0.00103173,0.00153746,-0.00036726,-0.00019991,-0
 .00544919,-0.00313670,0.00191355,0.00347121,-0.00280137,0.00690725,0.0
 1028277,-0.01089166,0.01402249,0.13192917,-0.00056991,0.00007309,0.000
 19397,0.00057731,-0.00012016,-0.00039830,-0.00034212,-0.00007993,0.000
 26522,0.00013656,0.00001981,0.00004679,0.00005920,0.00007513,-0.000120
 77,-0.00006975,-0.00003624,0.00004945,-0.00003892,-0.00006624,0.000072
 61,-0.00000229,-0.00001055,0.00000124,0.00001008,0.00001406,0.00000227
 ,0.00001302,0.00000206,0.00001041,-0.00003236,-0.00000869,-0.00000625,
 -0.00000979,-0.00000072,-0.00000796,-0.00000166,-0.00000136,-0.0000069
 1,-0.00010483,-0.00001572,-0.00057650,-0.00154034,0.00648189,-0.008583
 08,0.06823358,-0.13631625,0.11658282,0.00000386,0.00007885,-0.00005824
 ,-0.00001784,0.00000735,-0.00001290,0.00000520,0.00001699,-0.00000492,
 0.00000539,-0.00002710,0.00000867,-0.00000451,0.00000374,-0.00000191,0
 .00000250,-0.00000402,0.00000696,-0.00000274,0.00000083,0.00000055,0.0
 0000932,0.00000483,-0.00000236,0.00026395,-0.00043387,0.00007879,0.000
 07326,0.00015314,0.00030457,-0.00063697,0.00013983,-0.00080214,-0.0022
 6345,-0.00010061,0.00024085,0.01876710,-0.01401823,0.03238633,-0.00836
 597,0.00766388,-0.01122093,-0.07415689,0.13650420,0.00013064,-0.000044
 46,-0.00066657,0.00035651,0.00000393,0.00011172,0.00020061,0.00000304,
 -0.00023283,-0.00002943,0.00002765,-0.00003528,0.00007925,-0.00003783,
 0.00013702,-0.00004407,0.00000748,-0.00003349,-0.00005666,0.00003033,-
 0.00010132,0.00000573,-0.00000368,0.00000896,-0.00000719,-0.00000524,0
 .00000652,-0.00000918,-0.00000759,0.00000977,0.00000222,0.00000073,-0.
 00001536,0.00000318,-0.00000061,0.00000878,0.00000771,0.00000527,-0.00
 001906,0.00036132,-0.00078654,0.00247206,-0.00290759,-0.00329201,0.003
 69438,-0.11285795,0.11862291,-0.26676947,0.00009822,-0.00001070,0.0000
 3432,-0.00000241,-0.00000059,0.00000314,0.00001046,0.00000063,0.000004
 72,-0.00000362,0.00001198,0.00000336,0.00000413,-0.00000311,-0.0000070
 8,-0.00000018,0.00000471,-0.00000059,0.00000067,0.00000091,0.00000002,
 0.00000454,-0.00000230,0.00000852,0.00004631,-0.00014063,0.00006741,-0
 .00006006,0.00079353,-0.00042137,0.00000404,-0.00023746,-0.00010479,0.
 00101933,-0.00022563,0.00079367,0.00407061,-0.00309909,0.00591035,-0.0
 1619470,0.01683270,-0.02211166,0.12576754,-0.12844834,0.27724418\\-0.0
 0000137,-0.00000082,0.00000051,-0.00000343,0.00000181,0.00000247,0.000
 00016,0.00000166,-0.00000033,0.00000034,-0.00000016,-0.00000054,-0.000
 00017,-0.00000085,0.00000031,0.00000147,0.00000009,0.00000099,0.000000
 54,0.00000060,-0.00000052,0.00000075,-0.00000099,-0.00000034,-0.000001
 67,0.00000069,0.00000085,-0.00000012,-0.00000022,-0.00000012,0.0000002
 1,-0.00000027,-0.00000008,0.00000038,-0.00000063,0.00000004,0.00000060
 ,-0.00000101,-0.00000126,0.00000030,-0.00000150,-0.00000014,0.00000485
 ,0.00000119,0.00000027,-0.00000069,-0.00000048,-0.00000052,-0.00000106
 ,-0.00000025,-0.00000032,0.00000037,-0.00000034,-0.00000010,-0.0000002
 0,-0.00000005,-0.00000026,-0.00000017,0.00000002,0.00000010,-0.0000000
 5,-0.00000022,-0.00000033,-0.00000007,-0.00000023,-0.00000019,0.000000
 11,-0.00000031,-0.00000018,-0.00000109,0.00000101,-0.00000064,0.000001
 29,-0.00000068,0.00000005,-0.00000112,0.00000127,-0.00000050,0.0000007
 9,-0.00000057,0.00000049,-0.00000077,0.00000055,0.00000027,-0.00000034
 ,0.00000012,-0.00000003,0.00000017,0.00000026,0.00000015,0.,0.00000030
 ,-0.00000010\\\@


 UNDER MOST GREENE GRASSE LY MOST GREATE SNAKES.
 -- PROVERBS AND REASONS OF THE YEAR 1585
           AS REPRINTED IN PAISLEY MAGAZINE 1828.
 Job cpu time:       0 days  1 hours  0 minutes 41.1 seconds.
 File lengths (MBytes):  RWF=    277 Int=      0 D2E=      0 Chk=      8 Scr=      1
 Normal termination of Gaussian 09 at Wed Jul 28 22:43:24 2021.
