 Entering Gaussian System, Link 0=g09
 Input=opt_freq-conf-862.com
 Output=opt_freq-conf-862.log
 Initial command:
 /aerosol/software/g09/l1.exe "/scratch/nicole/10703/Gau-30113.inp" -scrdir="/scratch/nicole/10703/"
 Entering Link 1 = /aerosol/software/g09/l1.exe PID=     30117.
  
 Copyright (c) 1988,1990,1992,1993,1995,1998,2003,2009,2013,
            Gaussian, Inc.  All Rights Reserved.
  
 This is part of the Gaussian(R) 09 program.  It is based on
 the Gaussian(R) 03 system (copyright 2003, Gaussian, Inc.),
 the Gaussian(R) 98 system (copyright 1998, Gaussian, Inc.),
 the Gaussian(R) 94 system (copyright 1995, Gaussian, Inc.),
 the Gaussian 92(TM) system (copyright 1992, Gaussian, Inc.),
 the Gaussian 90(TM) system (copyright 1990, Gaussian, Inc.),
 the Gaussian 88(TM) system (copyright 1988, Gaussian, Inc.),
 the Gaussian 86(TM) system (copyright 1986, Carnegie Mellon
 University), and the Gaussian 82(TM) system (copyright 1983,
 Carnegie Mellon University). Gaussian is a federally registered
 trademark of Gaussian, Inc.
  
 This software contains proprietary and confidential information,
 including trade secrets, belonging to Gaussian, Inc.
  
 This software is provided under written license and may be
 used, copied, transmitted, or stored only in accord with that
 written license.
  
 The following legend is applicable only to US Government
 contracts under FAR:
  
                    RESTRICTED RIGHTS LEGEND
  
 Use, reproduction and disclosure by the US Government is
 subject to restrictions as set forth in subparagraphs (a)
 and (c) of the Commercial Computer Software - Restricted
 Rights clause in FAR 52.227-19.
  
 Gaussian, Inc.
 340 Quinnipiac St., Bldg. 40, Wallingford CT 06492
  
  
 ---------------------------------------------------------------
 Warning -- This program may not be used in any manner that
 competes with the business of Gaussian, Inc. or will provide
 assistance to any competitor of Gaussian, Inc.  The licensee
 of this program is prohibited from giving any competitor of
 Gaussian, Inc. access to this program.  By using this program,
 the user acknowledges that Gaussian, Inc. is engaged in the
 business of creating and licensing software in the field of
 computational chemistry and represents and warrants to the
 licensee that it is not a competitor of Gaussian, Inc. and that
 it will not use this program in any manner prohibited above.
 ---------------------------------------------------------------
  

 Cite this work as:
 Gaussian 09, Revision D.01,
 M. J. Frisch, G. W. Trucks, H. B. Schlegel, G. E. Scuseria, 
 M. A. Robb, J. R. Cheeseman, G. Scalmani, V. Barone, B. Mennucci, 
 G. A. Petersson, H. Nakatsuji, M. Caricato, X. Li, H. P. Hratchian, 
 A. F. Izmaylov, J. Bloino, G. Zheng, J. L. Sonnenberg, M. Hada, 
 M. Ehara, K. Toyota, R. Fukuda, J. Hasegawa, M. Ishida, T. Nakajima, 
 Y. Honda, O. Kitao, H. Nakai, T. Vreven, J. A. Montgomery, Jr., 
 J. E. Peralta, F. Ogliaro, M. Bearpark, J. J. Heyd, E. Brothers, 
 K. N. Kudin, V. N. Staroverov, T. Keith, R. Kobayashi, J. Normand, 
 K. Raghavachari, A. Rendell, J. C. Burant, S. S. Iyengar, J. Tomasi, 
 M. Cossi, N. Rega, J. M. Millam, M. Klene, J. E. Knox, J. B. Cross, 
 V. Bakken, C. Adamo, J. Jaramillo, R. Gomperts, R. E. Stratmann, 
 O. Yazyev, A. J. Austin, R. Cammi, C. Pomelli, J. W. Ochterski, 
 R. L. Martin, K. Morokuma, V. G. Zakrzewski, G. A. Voth, 
 P. Salvador, J. J. Dannenberg, S. Dapprich, A. D. Daniels, 
 O. Farkas, J. B. Foresman, J. V. Ortiz, J. Cioslowski, 
 and D. J. Fox, Gaussian, Inc., Wallingford CT, 2013.
 
 ******************************************
 Gaussian 09:  ES64L-G09RevD.01 24-Apr-2013
                29-Jul-2021 
 ******************************************
 %mem=2gb
 %nproc=4
 Will use up to    4 processors via shared memory.
 %chk=conf-862.chk
 ----------------------------------------------------------------------
 # B3LYP/6-311++G(2df,2pd) EmpiricalDispersion=GD3BJ guess=read geom=ch
 eckpoint opt=readfc freq=noraman nosymm integral(ultrafinegrid)
 ----------------------------------------------------------------------
 1/10=3,14=-1,18=20,19=15,26=4,29=2,38=1/1,3;
 2/9=110,12=2,15=1,40=1/2;
 3/5=4,6=6,7=1414,11=2,14=-4,16=1,25=1,30=1,71=1,74=-5,75=-5,116=-2,124=41/1,2,3;
 4/5=1/1;
 5/5=2,38=6/2;
 6/7=2,8=2,9=2,10=2,28=1/1;
 7/30=1/1,2,3,16;
 1/14=-1,18=20,19=15,26=4/3(2);
 2/9=110,15=1/2;
 99//99;
 2/9=110,15=1/2;
 3/5=4,6=6,7=1414,11=2,14=-2,16=1,25=1,30=1,71=1,74=-5,75=-5,124=41/1,2,3;
 4/5=5,16=3,69=1/1;
 5/5=2,38=5/2;
 7/30=1/1,2,3,16;
 1/14=-1,18=20,19=15,26=4/3(-5);
 2/9=110,15=1/2;
 6/7=2,8=2,9=2,10=2,19=2,28=1/1;
 99/9=1/99;
 ------------------------------------------------------------
 Candidate Structure: Conf:862 OPT and FREQ calc in gas phase
 ------------------------------------------------------------
 Structure from the checkpoint file:  "conf-862.chk"
 Charge =  1 Multiplicity = 1
 Redundant internal coordinates found in file.
 O,0,-0.7335300336,1.7731694425,-0.1613509532
 C,0,0.3315199667,1.2337647642,0.1721005154
 N,0,0.4876872951,0.5773764852,1.3382951072
 C,0,-0.6371166284,0.1770989354,2.1618669936
 C,0,-0.186388369,0.1989099316,3.6126963102
 O,0,-1.2294393084,0.191944339,4.449960381
 O,0,0.9776494692,0.1563334896,3.9445409375
 C,0,-1.1387077916,-1.282869295,1.8076129752
 C,0,-0.8854748917,-1.6032065703,0.3714272685
 C,0,-1.3918309648,-1.0647729033,-0.7849603649
 N,0,-0.6123240956,-1.4165936678,-1.8726354322
 C,0,0.3359705918,-2.2085785876,-1.3924446927
 N,0,0.2152297824,-2.3390749621,-0.0445670191
 C,0,1.5264522922,1.1801579421,-0.7817954548
 C,0,1.2036524895,1.7491009443,-2.1654535402
 N,0,-0.1213187365,1.2321882848,-2.6644409029
 H,0,1.4017764723,0.2727980132,1.6503998603
 H,0,-1.4478052407,0.8865762796,1.9962529303
 H,0,-0.886486742,0.1510418922,5.3604786428
 H,0,-2.1999793658,-1.351225288,2.055503684
 H,0,-0.6182483553,-2.0081832876,2.4415099115
 H,0,-2.2349804991,-0.3979651046,-0.8819912847
 H,0,1.1020424346,-2.7058391505,-1.969398561
 H,0,0.7834870287,-2.9315468701,0.5449607622
 H,0,1.8495033334,0.1379011427,-0.8657244512
 H,0,2.3710625242,1.7415793063,-0.3677071433
 H,0,1.9762585641,1.4786087088,-2.8858713081
 H,0,1.1149378063,2.8360890266,-2.1325013079
 H,0,-0.2030001303,0.1760406724,-2.6504232183
 H,0,-0.3467331599,1.5883674096,-3.594218765
 H,0,-0.8037641376,1.5710190469,-1.9539248299
 Recover connectivity data from disk.

 GradGradGradGradGradGradGradGradGradGradGradGradGradGradGradGradGradGrad
 Berny optimization.
 Initialization pass.
 Force constant matrix read from checkpoint file:
 "conf-862.chk"
                           ----------------------------
                           !    Initial Parameters    !
                           ! (Angstroms and Degrees)  !
 --------------------------                            --------------------------
 ! Name  Definition              Value          Derivative Info.                !
 --------------------------------------------------------------------------------
 ! R1    R(1,2)                  1.2395         D2E/DX2 =    0.7296             !
 ! R2    R(2,3)                  1.3473         D2E/DX2 =    0.519              !
 ! R3    R(2,14)                 1.5299         D2E/DX2 =    0.2893             !
 ! R4    R(3,4)                  1.4504         D2E/DX2 =    0.3546             !
 ! R5    R(3,17)                 1.0128         D2E/DX2 =    0.4623             !
 ! R6    R(4,5)                  1.5194         D2E/DX2 =    0.2837             !
 ! R7    R(4,8)                  1.5839         D2E/DX2 =    0.2628             !
 ! R8    R(4,18)                 1.09           D2E/DX2 =    0.35               !
 ! R9    R(5,6)                  1.3375         D2E/DX2 =    0.4452             !
 ! R10   R(5,7)                  1.2112         D2E/DX2 =    0.8663             !
 ! R11   R(6,19)                 0.9738         D2E/DX2 =    0.503              !
 ! R12   R(8,9)                  1.4931         D2E/DX2 =    0.3258             !
 ! R13   R(8,20)                 1.092          D2E/DX2 =    0.3451             !
 ! R14   R(8,21)                 1.0949         D2E/DX2 =    0.3361             !
 ! R15   R(9,10)                 1.3724         D2E/DX2 =    0.4245             !
 ! R16   R(9,13)                 1.3878         D2E/DX2 =    0.3555             !
 ! R17   R(10,11)                1.3836         D2E/DX2 =    0.3354             !
 ! R18   R(10,22)                1.0793         D2E/DX2 =    0.3767             !
 ! R19   R(11,12)                1.3256         D2E/DX2 =    0.4475             !
 ! R20   R(12,13)                1.3596         D2E/DX2 =    0.3873             !
 ! R21   R(12,23)                1.0803         D2E/DX2 =    0.3766             !
 ! R22   R(13,24)                1.0107         D2E/DX2 =    0.4724             !
 ! R23   R(14,15)                1.5305         D2E/DX2 =    0.3199             !
 ! R24   R(14,25)                1.0944         D2E/DX2 =    0.3393             !
 ! R25   R(14,26)                1.0955         D2E/DX2 =    0.3385             !
 ! R26   R(15,16)                1.5072         D2E/DX2 =    0.2825             !
 ! R27   R(15,27)                1.0905         D2E/DX2 =    0.3492             !
 ! R28   R(15,28)                1.0911         D2E/DX2 =    0.3478             !
 ! R29   R(16,29)                1.0594         D2E/DX2 =    0.2887             !
 ! R30   R(16,30)                1.0209         D2E/DX2 =    0.4418             !
 ! R31   R(16,31)                1.0418         D2E/DX2 =    0.3579             !
 ! A1    A(1,2,3)              122.9868         D2E/DX2 =    0.2224             !
 ! A2    A(1,2,14)             121.2392         D2E/DX2 =    0.2382             !
 ! A3    A(3,2,14)             115.5995         D2E/DX2 =    0.2089             !
 ! A4    A(2,3,4)              122.4153         D2E/DX2 =    0.2517             !
 ! A5    A(2,3,17)             121.1892         D2E/DX2 =    0.1233             !
 ! A6    A(4,3,17)             116.2289         D2E/DX2 =    0.1233             !
 ! A7    A(3,4,5)              107.9497         D2E/DX2 =    0.1117             !
 ! A8    A(3,4,8)              111.8998         D2E/DX2 =    0.3592             !
 ! A9    A(3,4,18)             108.113          D2E/DX2 =    0.0561             !
 ! A10   A(5,4,8)              108.7084         D2E/DX2 =    0.1767             !
 ! A11   A(5,4,18)             110.8786         D2E/DX2 =    0.0336             !
 ! A12   A(8,4,18)             109.2977         D2E/DX2 =    0.038              !
 ! A13   A(4,5,6)              111.4886         D2E/DX2 =    0.1585             !
 ! A14   A(4,5,7)              123.1087         D2E/DX2 =    0.1671             !
 ! A15   A(6,5,7)              125.2954         D2E/DX2 =    0.1939             !
 ! A16   A(5,6,19)             108.1114         D2E/DX2 =    0.172              !
 ! A17   A(4,8,9)              111.0505         D2E/DX2 =    0.7578             !
 ! A18   A(4,8,20)             108.3434         D2E/DX2 =    0.1059             !
 ! A19   A(4,8,21)             109.3055         D2E/DX2 =    0.1157             !
 ! A20   A(9,8,20)             111.7007         D2E/DX2 =    0.1006             !
 ! A21   A(9,8,21)             109.5204         D2E/DX2 =    0.1259             !
 ! A22   A(20,8,21)            106.8033         D2E/DX2 =    0.0315             !
 ! A23   A(8,9,10)             131.5843         D2E/DX2 =    0.1498             !
 ! A24   A(8,9,13)             122.4513         D2E/DX2 =    0.1534             !
 ! A25   A(10,9,13)            104.3638         D2E/DX2 =    0.1024             !
 ! A26   A(9,10,11)            110.7778         D2E/DX2 =    0.1202             !
 ! A27   A(9,10,22)            127.3255         D2E/DX2 =    0.085              !
 ! A28   A(11,10,22)           121.7705         D2E/DX2 =    0.0914             !
 ! A29   A(10,11,12)           105.6755         D2E/DX2 =    0.1393             !
 ! A30   A(11,12,13)           110.6686         D2E/DX2 =    0.1224             !
 ! A31   A(11,12,23)           126.0765         D2E/DX2 =    0.0898             !
 ! A32   A(13,12,23)           123.2496         D2E/DX2 =    0.0906             !
 ! A33   A(9,13,12)            108.4641         D2E/DX2 =    0.1057             !
 ! A34   A(9,13,24)            125.5849         D2E/DX2 =    0.0791             !
 ! A35   A(12,13,24)           125.7762         D2E/DX2 =    0.081              !
 ! A36   A(2,14,15)            112.7009         D2E/DX2 =    0.4044             !
 ! A37   A(2,14,25)            108.164          D2E/DX2 =    0.0708             !
 ! A38   A(2,14,26)            110.3987         D2E/DX2 =    0.0897             !
 ! A39   A(15,14,25)           110.3011         D2E/DX2 =    0.0859             !
 ! A40   A(15,14,26)           108.2908         D2E/DX2 =    0.0988             !
 ! A41   A(25,14,26)           106.8268         D2E/DX2 =    0.025              !
 ! A42   A(14,15,16)           110.9295         D2E/DX2 =    0.3449             !
 ! A43   A(14,15,27)           110.832          D2E/DX2 =    0.0625             !
 ! A44   A(14,15,28)           111.1114         D2E/DX2 =    0.063              !
 ! A45   A(16,15,27)           108.6056         D2E/DX2 =    0.0834             !
 ! A46   A(16,15,28)           106.2713         D2E/DX2 =    0.0766             !
 ! A47   A(27,15,28)           108.9462         D2E/DX2 =    0.0234             !
 ! A48   A(15,16,29)           113.9101         D2E/DX2 =    0.153              !
 ! A49   A(15,16,30)           112.0845         D2E/DX2 =    0.1021             !
 ! A50   A(15,16,31)           103.7992         D2E/DX2 =    0.1219             !
 ! A51   A(29,16,30)           110.051          D2E/DX2 =    0.0649             !
 ! A52   A(29,16,31)           105.3494         D2E/DX2 =    0.0565             !
 ! A53   A(30,16,31)           111.2867         D2E/DX2 =    0.0491             !
 ! D1    D(1,2,3,4)             14.5645         D2E/DX2 =    0.0229             !
 ! D2    D(1,2,3,17)          -170.3048         D2E/DX2 =    0.046              !
 ! D3    D(14,2,3,4)          -160.6823         D2E/DX2 =    0.0707             !
 ! D4    D(14,2,3,17)           14.4485         D2E/DX2 =    0.0244             !
 ! D5    D(1,2,14,15)           -4.5093         D2E/DX2 =    0.036              !
 ! D6    D(1,2,14,25)         -126.7218         D2E/DX2 =    0.0274             !
 ! D7    D(1,2,14,26)          116.7236         D2E/DX2 =    0.0182             !
 ! D8    D(3,2,14,15)          170.8278         D2E/DX2 =    0.0958             !
 ! D9    D(3,2,14,25)           48.6153         D2E/DX2 =    0.0372             !
 ! D10   D(3,2,14,26)          -67.9393         D2E/DX2 =    0.0471             !
 ! D11   D(2,3,4,5)           -149.0441         D2E/DX2 =    0.0523             !
 ! D12   D(2,3,4,8)             91.3777         D2E/DX2 =    0.1642             !
 ! D13   D(2,3,4,18)           -29.0361         D2E/DX2 =    0.0367             !
 ! D14   D(17,3,4,5)            35.599          D2E/DX2 =    0.0157             !
 ! D15   D(17,3,4,8)           -83.9792         D2E/DX2 =    0.0576             !
 ! D16   D(17,3,4,18)          155.6069         D2E/DX2 =    0.0172             !
 ! D17   D(3,4,5,6)            163.5004         D2E/DX2 =    0.0579             !
 ! D18   D(3,4,5,7)            -20.0867         D2E/DX2 =    0.0584             !
 ! D19   D(8,4,5,6)            -74.9227         D2E/DX2 =    0.0467             !
 ! D20   D(8,4,5,7)            101.4902         D2E/DX2 =    0.0473             !
 ! D21   D(18,4,5,6)            45.2496         D2E/DX2 =    0.0164             !
 ! D22   D(18,4,5,7)          -138.3374         D2E/DX2 =    0.0154             !
 ! D23   D(3,4,8,9)            -29.6597         D2E/DX2 =    0.0546             !
 ! D24   D(3,4,8,20)          -152.6855         D2E/DX2 =    0.043              !
 ! D25   D(3,4,8,21)            91.2836         D2E/DX2 =    0.0283             !
 ! D26   D(5,4,8,9)           -148.7911         D2E/DX2 =    0.0311             !
 ! D27   D(5,4,8,20)            88.1831         D2E/DX2 =    0.0201             !
 ! D28   D(5,4,8,21)           -27.8477         D2E/DX2 =    0.0226             !
 ! D29   D(18,4,8,9)            90.0612         D2E/DX2 =    0.0388             !
 ! D30   D(18,4,8,20)          -32.9646         D2E/DX2 =    0.0138             !
 ! D31   D(18,4,8,21)         -148.9954         D2E/DX2 =    0.034              !
 ! D32   D(4,5,6,19)           176.5634         D2E/DX2 =    0.0183             !
 ! D33   D(7,5,6,19)             0.2448         D2E/DX2 =    0.0169             !
 ! D34   D(4,8,9,10)           -65.025          D2E/DX2 =    0.0232             !
 ! D35   D(4,8,9,13)            98.168          D2E/DX2 =    0.0181             !
 ! D36   D(20,8,9,10)           56.0463         D2E/DX2 =    0.0185             !
 ! D37   D(20,8,9,13)         -140.7607         D2E/DX2 =    0.0313             !
 ! D38   D(21,8,9,10)          174.1583         D2E/DX2 =    0.0307             !
 ! D39   D(21,8,9,13)          -22.6487         D2E/DX2 =    0.0178             !
 ! D40   D(8,9,10,11)          163.5713         D2E/DX2 =    0.02               !
 ! D41   D(8,9,10,22)          -12.3621         D2E/DX2 =    0.0098             !
 ! D42   D(13,9,10,11)          -1.8404         D2E/DX2 =    0.0159             !
 ! D43   D(13,9,10,22)        -177.7739         D2E/DX2 =    0.0107             !
 ! D44   D(8,9,13,12)         -166.4547         D2E/DX2 =    0.0242             !
 ! D45   D(8,9,13,24)           18.1347         D2E/DX2 =    0.0109             !
 ! D46   D(10,9,13,12)           0.6449         D2E/DX2 =    0.0135             !
 ! D47   D(10,9,13,24)        -174.7657         D2E/DX2 =    0.0058             !
 ! D48   D(9,10,11,12)           2.3504         D2E/DX2 =    0.0198             !
 ! D49   D(22,10,11,12)        178.5471         D2E/DX2 =    0.011              !
 ! D50   D(10,11,12,13)         -1.9026         D2E/DX2 =    0.0196             !
 ! D51   D(10,11,12,23)        177.2717         D2E/DX2 =    0.0103             !
 ! D52   D(11,12,13,9)           0.8139         D2E/DX2 =    0.0177             !
 ! D53   D(11,12,13,24)        176.2134         D2E/DX2 =    0.0103             !
 ! D54   D(23,12,13,9)        -178.3882         D2E/DX2 =    0.0108             !
 ! D55   D(23,12,13,24)         -2.9886         D2E/DX2 =    0.0068             !
 ! D56   D(2,14,15,16)         -45.3063         D2E/DX2 =    0.0407             !
 ! D57   D(2,14,15,27)        -166.0372         D2E/DX2 =    0.028              !
 ! D58   D(2,14,15,28)          72.6778         D2E/DX2 =    0.0197             !
 ! D59   D(25,14,15,16)         75.6945         D2E/DX2 =    0.025              !
 ! D60   D(25,14,15,27)        -45.0364         D2E/DX2 =    0.0164             !
 ! D61   D(25,14,15,28)       -166.3214         D2E/DX2 =    0.0256             !
 ! D62   D(26,14,15,16)       -167.7314         D2E/DX2 =    0.0304             !
 ! D63   D(26,14,15,27)         71.5376         D2E/DX2 =    0.0193             !
 ! D64   D(26,14,15,28)        -49.7474         D2E/DX2 =    0.0181             !
 ! D65   D(14,15,16,29)        -53.2338         D2E/DX2 =    0.0204             !
 ! D66   D(14,15,16,30)       -179.0102         D2E/DX2 =    0.0154             !
 ! D67   D(14,15,16,31)         60.7859         D2E/DX2 =    0.0184             !
 ! D68   D(27,15,16,29)         68.8054         D2E/DX2 =    0.0191             !
 ! D69   D(27,15,16,30)        -56.9711         D2E/DX2 =    0.0149             !
 ! D70   D(27,15,16,31)       -177.1749         D2E/DX2 =    0.0193             !
 ! D71   D(28,15,16,29)       -174.1208         D2E/DX2 =    0.0214             !
 ! D72   D(28,15,16,30)         60.1028         D2E/DX2 =    0.0157             !
 ! D73   D(28,15,16,31)        -60.1011         D2E/DX2 =    0.0182             !
 --------------------------------------------------------------------------------
 Trust Radius=3.00D-01 FncErr=1.00D-07 GrdErr=1.00D-06
 Number of steps in this run=    167 maximum allowed number of steps=    186.
 GradGradGradGradGradGradGradGradGradGradGradGradGradGradGradGradGradGrad

                          Input orientation:                          
 ---------------------------------------------------------------------
 Center     Atomic      Atomic             Coordinates (Angstroms)
 Number     Number       Type             X           Y           Z
 ---------------------------------------------------------------------
      1          8           0       -0.733530    1.773169   -0.161351
      2          6           0        0.331520    1.233765    0.172101
      3          7           0        0.487687    0.577376    1.338295
      4          6           0       -0.637117    0.177099    2.161867
      5          6           0       -0.186388    0.198910    3.612696
      6          8           0       -1.229439    0.191944    4.449960
      7          8           0        0.977649    0.156333    3.944541
      8          6           0       -1.138708   -1.282869    1.807613
      9          6           0       -0.885475   -1.603207    0.371427
     10          6           0       -1.391831   -1.064773   -0.784960
     11          7           0       -0.612324   -1.416594   -1.872635
     12          6           0        0.335971   -2.208579   -1.392445
     13          7           0        0.215230   -2.339075   -0.044567
     14          6           0        1.526452    1.180158   -0.781795
     15          6           0        1.203652    1.749101   -2.165454
     16          7           0       -0.121319    1.232188   -2.664441
     17          1           0        1.401776    0.272798    1.650400
     18          1           0       -1.447805    0.886576    1.996253
     19          1           0       -0.886487    0.151042    5.360479
     20          1           0       -2.199979   -1.351225    2.055504
     21          1           0       -0.618248   -2.008183    2.441510
     22          1           0       -2.234980   -0.397965   -0.881991
     23          1           0        1.102042   -2.705839   -1.969399
     24          1           0        0.783487   -2.931547    0.544961
     25          1           0        1.849503    0.137901   -0.865724
     26          1           0        2.371063    1.741579   -0.367707
     27          1           0        1.976259    1.478609   -2.885871
     28          1           0        1.114938    2.836089   -2.132501
     29          1           0       -0.203000    0.176041   -2.650423
     30          1           0       -0.346733    1.588367   -3.594219
     31          1           0       -0.803764    1.571019   -1.953925
 ---------------------------------------------------------------------
                    Distance matrix (angstroms):
                    1          2          3          4          5
     1  O    0.000000
     2  C    1.239548   0.000000
     3  N    2.273814   1.347310   0.000000
     4  C    2.820298   2.452340   1.450406   0.000000
     5  C    4.125662   3.629994   2.402190   1.519387   0.000000
     6  O    4.900040   4.671410   3.574849   2.363565   1.337541
     7  O    4.732932   3.976135   2.685118   2.405375   1.211164
     8  C    3.657918   3.342143   2.515141   1.583855   2.522084
     9  C    3.421528   3.093415   2.752335   2.537094   3.773880
    10  C    2.979289   3.028065   3.276806   3.285671   4.731741
    11  N    3.621847   3.477957   3.936498   4.337935   5.734120
    12  C    4.302760   3.781210   3.904037   4.389930   5.578557
    13  N    4.221888   3.581292   3.239171   3.453401   4.469702
    14  C    2.417464   1.529920   2.436629   3.788444   4.817492
    15  C    2.787415   2.547616   3.763217   4.958359   6.141850
    16  N    2.633044   2.872461   4.101410   4.967143   6.361945
    17  H    3.176962   2.062589   1.012786   2.104244   2.525536
    18  H    2.439568   2.571783   2.067521   1.089955   2.162625
    19  H    5.757195   5.438299   4.271777   3.208423   1.883394
    20  H    4.102043   4.078955   3.384885   2.188522   2.980322
    21  H    4.592037   4.069706   3.020810   2.203183   2.535634
    22  H    2.736330   3.218785   3.646078   3.485533   4.975460
    23  H    5.167193   4.549747   4.700827   5.329480   6.423193
    24  H    4.993453   4.206319   3.609629   3.781029   4.489033
    25  H    3.137245   2.140624   2.627810   3.918051   4.919840
    26  H    3.111603   2.170023   2.795159   4.230306   4.976344
    27  H    3.853924   3.480848   4.568550   5.831237   6.967500
    28  H    2.903802   2.914168   4.188276   5.346169   6.454104
    29  H    3.004624   3.061231   4.067922   4.831831   6.263183
    30  H    3.459530   3.843297   5.103729   5.933677   7.341385
    31  H    1.805303   2.433638   3.673402   4.348624   5.766377
                    6          7          8          9         10
     6  O    0.000000
     7  O    2.264499   0.000000
     8  C    3.027426   3.334177   0.000000
     9  C    4.469375   4.397085   1.493108   0.000000
    10  C    5.386103   5.428971   2.614015   1.372421   0.000000
    11  N    6.553125   6.232307   3.720106   2.268315   1.383635
    12  C    6.507435   5.872646   3.643073   2.229271   2.159312
    13  N    5.356669   4.766690   2.525725   1.387842   2.180521
    14  C    5.995229   4.866997   4.458096   3.859331   3.681861
    15  C    7.218613   6.318229   5.519488   4.694484   4.069420
    16  N    7.274939   6.785561   5.230665   4.223730   3.228417
    17  H    3.842834   2.335922   2.983099   3.222838   3.940091
    18  H    2.559468   3.195608   2.199459   3.025771   3.397947
    19  H    0.973824   2.340921   3.839606   5.288480   6.284902
    20  H    3.009442   3.992308   1.091980   2.151169   2.967052
    21  H    3.041051   3.080767   1.094890   2.126184   3.449429
    22  H    5.457913   5.824401   3.036254   2.201098   1.079328
    23  H    7.418971   6.571315   4.616451   3.262743   3.211759
    24  H    5.390463   4.596722   2.829710   2.140102   3.159991
    25  H    6.143233   4.888673   4.253790   3.470174   3.458207
    26  H    6.210870   4.801051   5.118378   4.726410   4.712651
    27  H    8.108417   7.028525   6.273561   5.319502   4.714514
    28  H    7.471038   6.643070   6.129375   5.475277   4.828714
    29  H    7.174209   6.699841   4.783101   3.572544   2.536314
    30  H    8.212063   7.787015   6.168550   5.118861   4.002913
    31  H    6.564510   6.321920   4.733501   3.935689   2.942737
                   11         12         13         14         15
    11  N    0.000000
    12  C    1.325551   0.000000
    13  N    2.208541   1.359552   0.000000
    14  C    3.536582   3.643305   3.827246   0.000000
    15  C    3.661302   4.124760   4.710448   1.530492   0.000000
    16  N    2.807862   3.696751   4.441951   2.502441   1.507228
    17  H    4.395728   4.068424   3.332069   2.598927   4.096274
    18  H    4.579401   4.923933   4.163587   4.080435   5.009389
    19  H    7.406118   7.257009   6.052188   6.678988   7.972586
    20  H    4.237358   4.365140   3.349534   5.323952   6.246056
    21  H    4.354522   3.955995   2.642868   5.015472   6.217766
    22  H    2.156848   3.185698   3.236158   4.080305   4.252219
    23  H    2.147224   1.080282   2.150797   4.085523   4.460410
    24  H    3.176184   2.115773   1.010684   4.383879   5.425067
    25  H    3.080733   2.841511   3.079052   1.094397   2.168498
    26  H    4.597767   4.560201   4.626421   1.095459   2.143547
    27  H    4.013677   4.303048   5.074341   2.172219   1.090453
    28  H    4.597420   5.157824   5.652545   2.176203   1.091100
    29  H    1.819061   2.749438   3.645711   2.736974   2.165268
    30  H    3.473353   4.441924   5.323592   3.403701   2.114451
    31  H    2.994843   3.987432   4.469097   2.637531   2.026371
                   16         17         18         19         20
    16  N    0.000000
    17  H    4.675265   0.000000
    18  H    4.858094   2.935380   0.000000
    19  H    8.133492   4.360695   3.489141   0.000000
    20  H    5.768252   3.971675   2.361574   3.860690   0.000000
    21  H    6.067757   3.147893   3.044019   3.640685   1.755696
    22  H    3.209687   4.482068   3.248689   6.410014   3.088496
    23  H    4.181836   4.697346   5.927357   8.114377   5.379420
    24  H    5.334381   3.445592   4.654350   5.956541   3.698679
    25  H    2.883918   2.559207   4.429861   6.800840   5.210507
    26  H    3.427306   2.677609   4.571990   6.778905   6.027588
    27  H    2.123578   4.728823   5.992483   8.829498   7.061594
    28  H    2.093750   4.578545   5.235920   8.207309   6.786874
    29  H    1.059394   4.591487   4.862715   8.040045   5.335374
    30  H    1.020863   5.682784   5.740927   9.085364   6.632880
    31  H    1.041811   4.420514   4.060438   7.451421   5.154071
                   21         22         23         24         25
    21  H    0.000000
    22  H    4.031412   0.000000
    23  H    4.785628   4.200531   0.000000
    24  H    2.532659   4.191226   2.544489   0.000000
    25  H    4.651159   4.119518   3.140645   3.542306   0.000000
    26  H    5.557733   5.104681   4.894421   5.019110   1.758360
    27  H    6.875331   5.027087   4.371931   5.713386   2.427871
    28  H    6.884220   4.821290   5.544343   6.367440   3.069939
    29  H    5.556172   2.754229   3.236072   4.565165   2.720179
    30  H    7.031281   3.855797   4.814478   6.232161   3.791041
    31  H    5.671415   2.659759   4.682292   5.388589   3.205906
                   26         27         28         29         30
    26  H    0.000000
    27  H    2.562455   0.000000
    28  H    2.426994   1.775442   0.000000
    29  H    3.779881   2.549762   3.013480   0.000000
    30  H    4.221406   2.431068   2.414520   1.704722   0.000000
    31  H    3.553126   2.933529   2.305148   1.670926   1.702863
                   31
    31  H    0.000000
 Symmetry turned off by external request.
 Stoichiometry    C9H15N4O3(1+)
 Framework group  C1[X(C9H15N4O3)]
 Deg. of freedom    87
 Full point group                 C1      NOp   1
 Rotational constants (GHZ):      0.8471600      0.3952955      0.3225713
 Standard basis: 6-311++G(2df,2pd) (5D, 7F)
   769 basis functions,  1102 primitive gaussians,   864 cartesian basis functions
    60 alpha electrons       60 beta electrons
       nuclear repulsion energy      1206.7410445170 Hartrees.
 NAtoms=   31 NActive=   31 NUniq=   31 SFac= 1.00D+00 NAtFMM=   60 NAOKFM=F Big=F
 Integral buffers will be    131072 words long.
 Raffenetti 2 integral format.
 Two-electron integral symmetry is turned off.
 Nuclear repulsion after empirical dispersion term =     1206.6770973734 Hartrees.
 One-electron integrals computed using PRISM.
 NBasis=   769 RedAO= T EigKep=  2.16D-06  NBF=   769
 NBsUse=   769 1.00D-06 EigRej= -1.00D+00 NBFU=   769
 Initial guess from the checkpoint file:  "conf-862.chk"
 B after Tr=     0.000000    0.000000    0.000000
         Rot=    1.000000    0.000000    0.000000    0.000000 Ang=   0.00 deg.
 Requested convergence on RMS density matrix=1.00D-08 within 128 cycles.
 Requested convergence on MAX density matrix=1.00D-06.
 Requested convergence on             energy=1.00D-06.
 No special actions if energy rises.
 SCF Done:  E(RB3LYP) =  -796.834293383     A.U. after   13 cycles
            NFock= 13  Conv=0.36D-08     -V/T= 2.0043

 **********************************************************************

            Population analysis using the SCF density.

 **********************************************************************

 Alpha  occ. eigenvalues --  -19.30116 -19.24613 -19.24472 -14.55520 -14.51363
 Alpha  occ. eigenvalues --  -14.48663 -14.44859 -10.43641 -10.43120 -10.38639
 Alpha  occ. eigenvalues --  -10.37221 -10.36646 -10.34776 -10.34500 -10.32993
 Alpha  occ. eigenvalues --  -10.32407  -1.24098  -1.19622  -1.16211  -1.15360
 Alpha  occ. eigenvalues --   -1.13078  -1.08026  -1.01976  -0.95172  -0.92971
 Alpha  occ. eigenvalues --   -0.88824  -0.82810  -0.81027  -0.76444  -0.75649
 Alpha  occ. eigenvalues --   -0.74194  -0.73210  -0.72182  -0.71235  -0.68496
 Alpha  occ. eigenvalues --   -0.66451  -0.64222  -0.63362  -0.62415  -0.61706
 Alpha  occ. eigenvalues --   -0.60527  -0.59327  -0.59181  -0.58079  -0.56421
 Alpha  occ. eigenvalues --   -0.55798  -0.55462  -0.54721  -0.54407  -0.53985
 Alpha  occ. eigenvalues --   -0.53027  -0.51095  -0.50729  -0.45660  -0.44220
 Alpha  occ. eigenvalues --   -0.43199  -0.42517  -0.41436  -0.41223  -0.37149
 Alpha virt. eigenvalues --   -0.15039  -0.14493  -0.14102  -0.12896  -0.12266
 Alpha virt. eigenvalues --   -0.11010  -0.10472  -0.10228  -0.09281  -0.09244
 Alpha virt. eigenvalues --   -0.08498  -0.07735  -0.06972  -0.06591  -0.06289
 Alpha virt. eigenvalues --   -0.05751  -0.05430  -0.04897  -0.04132  -0.03767
 Alpha virt. eigenvalues --   -0.02944  -0.02560  -0.02069  -0.01861  -0.01415
 Alpha virt. eigenvalues --   -0.00871  -0.00740  -0.00117   0.00198   0.00365
 Alpha virt. eigenvalues --    0.00704   0.01124   0.01428   0.01571   0.01840
 Alpha virt. eigenvalues --    0.02226   0.02522   0.02745   0.02995   0.03321
 Alpha virt. eigenvalues --    0.03386   0.03886   0.04115   0.04381   0.04580
 Alpha virt. eigenvalues --    0.04771   0.05198   0.05600   0.05949   0.06508
 Alpha virt. eigenvalues --    0.06755   0.06947   0.07590   0.08006   0.08390
 Alpha virt. eigenvalues --    0.08699   0.08995   0.09283   0.09330   0.09972
 Alpha virt. eigenvalues --    0.10411   0.10884   0.11318   0.11420   0.11613
 Alpha virt. eigenvalues --    0.12059   0.12225   0.12925   0.13350   0.13565
 Alpha virt. eigenvalues --    0.14181   0.14442   0.14606   0.15126   0.15305
 Alpha virt. eigenvalues --    0.16166   0.16696   0.17239   0.17391   0.17946
 Alpha virt. eigenvalues --    0.18431   0.18640   0.18892   0.19185   0.19470
 Alpha virt. eigenvalues --    0.20099   0.20450   0.20605   0.21145   0.21793
 Alpha virt. eigenvalues --    0.22450   0.22741   0.22963   0.23509   0.23690
 Alpha virt. eigenvalues --    0.24197   0.24680   0.24902   0.25298   0.25869
 Alpha virt. eigenvalues --    0.26279   0.26949   0.27802   0.28409   0.29084
 Alpha virt. eigenvalues --    0.30175   0.30526   0.30823   0.31961   0.32447
 Alpha virt. eigenvalues --    0.33600   0.33744   0.34193   0.35335   0.36076
 Alpha virt. eigenvalues --    0.37339   0.37781   0.38347   0.38652   0.39225
 Alpha virt. eigenvalues --    0.40271   0.41110   0.41251   0.41952   0.42175
 Alpha virt. eigenvalues --    0.43933   0.44117   0.45169   0.45423   0.45875
 Alpha virt. eigenvalues --    0.46332   0.47333   0.47642   0.48289   0.49145
 Alpha virt. eigenvalues --    0.49863   0.50238   0.50305   0.50429   0.51312
 Alpha virt. eigenvalues --    0.52191   0.52892   0.53485   0.53623   0.54191
 Alpha virt. eigenvalues --    0.54733   0.54832   0.55497   0.56082   0.56759
 Alpha virt. eigenvalues --    0.56792   0.57563   0.58185   0.58457   0.59585
 Alpha virt. eigenvalues --    0.60258   0.60749   0.62440   0.62995   0.63488
 Alpha virt. eigenvalues --    0.64166   0.64378   0.65173   0.65583   0.66503
 Alpha virt. eigenvalues --    0.67526   0.67682   0.68338   0.68822   0.70500
 Alpha virt. eigenvalues --    0.71349   0.72184   0.72945   0.73761   0.74589
 Alpha virt. eigenvalues --    0.74912   0.75605   0.76265   0.77628   0.78205
 Alpha virt. eigenvalues --    0.78934   0.79418   0.81022   0.81775   0.82323
 Alpha virt. eigenvalues --    0.82789   0.83875   0.84804   0.85293   0.85978
 Alpha virt. eigenvalues --    0.86907   0.88057   0.89772   0.91285   0.91845
 Alpha virt. eigenvalues --    0.92685   0.94383   0.95155   0.95836   0.96764
 Alpha virt. eigenvalues --    0.97877   0.98711   0.98877   0.99620   0.99724
 Alpha virt. eigenvalues --    1.00929   1.01037   1.01768   1.01881   1.02834
 Alpha virt. eigenvalues --    1.03300   1.04827   1.05166   1.06690   1.07008
 Alpha virt. eigenvalues --    1.07787   1.08198   1.08941   1.09959   1.10630
 Alpha virt. eigenvalues --    1.11015   1.11793   1.12104   1.12833   1.13120
 Alpha virt. eigenvalues --    1.14021   1.14815   1.16027   1.16716   1.17207
 Alpha virt. eigenvalues --    1.17898   1.19364   1.19671   1.20132   1.21155
 Alpha virt. eigenvalues --    1.22125   1.22558   1.23488   1.24231   1.25535
 Alpha virt. eigenvalues --    1.26204   1.26736   1.27488   1.29215   1.29455
 Alpha virt. eigenvalues --    1.30244   1.30578   1.31594   1.32053   1.32459
 Alpha virt. eigenvalues --    1.32989   1.34046   1.35423   1.36016   1.36499
 Alpha virt. eigenvalues --    1.36635   1.37646   1.38759   1.39850   1.40502
 Alpha virt. eigenvalues --    1.40879   1.41322   1.42656   1.43853   1.44721
 Alpha virt. eigenvalues --    1.44882   1.46060   1.46903   1.47698   1.48287
 Alpha virt. eigenvalues --    1.48986   1.50824   1.51188   1.51324   1.52555
 Alpha virt. eigenvalues --    1.54383   1.56292   1.57596   1.58169   1.59040
 Alpha virt. eigenvalues --    1.60887   1.62595   1.63222   1.63958   1.66513
 Alpha virt. eigenvalues --    1.67014   1.67503   1.68651   1.70897   1.71989
 Alpha virt. eigenvalues --    1.72925   1.74714   1.75170   1.76874   1.78036
 Alpha virt. eigenvalues --    1.79532   1.81029   1.84130   1.85921   1.87105
 Alpha virt. eigenvalues --    1.88803   1.91440   1.93617   1.94369   1.96899
 Alpha virt. eigenvalues --    1.99799   2.01555   2.03408   2.04433   2.04879
 Alpha virt. eigenvalues --    2.08203   2.09369   2.19391   2.21338   2.29060
 Alpha virt. eigenvalues --    2.30532   2.34330   2.36732   2.38469   2.40239
 Alpha virt. eigenvalues --    2.41597   2.43298   2.43725   2.44929   2.46623
 Alpha virt. eigenvalues --    2.48231   2.48620   2.50221   2.53404   2.54579
 Alpha virt. eigenvalues --    2.55394   2.55642   2.57909   2.58864   2.60075
 Alpha virt. eigenvalues --    2.60792   2.62374   2.62842   2.63296   2.64514
 Alpha virt. eigenvalues --    2.65695   2.66763   2.67371   2.69020   2.70419
 Alpha virt. eigenvalues --    2.71581   2.72153   2.72713   2.73925   2.75273
 Alpha virt. eigenvalues --    2.76733   2.76809   2.78196   2.78710   2.79712
 Alpha virt. eigenvalues --    2.80414   2.80869   2.81265   2.81862   2.83391
 Alpha virt. eigenvalues --    2.83935   2.84481   2.85131   2.86071   2.87670
 Alpha virt. eigenvalues --    2.88077   2.88763   2.89289   2.89626   2.90524
 Alpha virt. eigenvalues --    2.91794   2.92387   2.93785   2.94227   2.95558
 Alpha virt. eigenvalues --    2.96070   2.97733   2.98159   2.98431   2.98675
 Alpha virt. eigenvalues --    3.00303   3.01163   3.01649   3.03567   3.03784
 Alpha virt. eigenvalues --    3.04328   3.05286   3.06151   3.06427   3.07474
 Alpha virt. eigenvalues --    3.08008   3.08645   3.08858   3.09863   3.10680
 Alpha virt. eigenvalues --    3.11550   3.12999   3.14254   3.14807   3.14877
 Alpha virt. eigenvalues --    3.15487   3.16267   3.16524   3.17711   3.18294
 Alpha virt. eigenvalues --    3.20194   3.20454   3.21362   3.21855   3.22739
 Alpha virt. eigenvalues --    3.23527   3.23668   3.24463   3.25282   3.26225
 Alpha virt. eigenvalues --    3.26960   3.27550   3.28653   3.29341   3.30130
 Alpha virt. eigenvalues --    3.30509   3.31784   3.32217   3.32836   3.33743
 Alpha virt. eigenvalues --    3.34700   3.35756   3.36582   3.37612   3.38224
 Alpha virt. eigenvalues --    3.38833   3.38959   3.39644   3.41083   3.41552
 Alpha virt. eigenvalues --    3.42155   3.43139   3.44341   3.44935   3.46040
 Alpha virt. eigenvalues --    3.47597   3.47947   3.48233   3.49274   3.49750
 Alpha virt. eigenvalues --    3.50654   3.51767   3.52118   3.53416   3.54222
 Alpha virt. eigenvalues --    3.54530   3.55361   3.56710   3.57089   3.58139
 Alpha virt. eigenvalues --    3.59584   3.60319   3.60468   3.61143   3.61821
 Alpha virt. eigenvalues --    3.63274   3.64269   3.64715   3.64967   3.66378
 Alpha virt. eigenvalues --    3.67402   3.68124   3.68917   3.69807   3.71581
 Alpha virt. eigenvalues --    3.71762   3.73021   3.74307   3.75213   3.75462
 Alpha virt. eigenvalues --    3.76328   3.76913   3.77588   3.77918   3.78339
 Alpha virt. eigenvalues --    3.79627   3.80498   3.81045   3.82694   3.82942
 Alpha virt. eigenvalues --    3.84612   3.86159   3.86505   3.87636   3.88347
 Alpha virt. eigenvalues --    3.88502   3.88625   3.90688   3.91386   3.92039
 Alpha virt. eigenvalues --    3.92560   3.93078   3.93684   3.95571   3.96955
 Alpha virt. eigenvalues --    3.97892   3.98238   3.98634   3.99498   4.00634
 Alpha virt. eigenvalues --    4.01531   4.02811   4.04367   4.04800   4.05608
 Alpha virt. eigenvalues --    4.06122   4.07007   4.07364   4.07760   4.09376
 Alpha virt. eigenvalues --    4.09883   4.12209   4.13948   4.14991   4.15961
 Alpha virt. eigenvalues --    4.16473   4.16991   4.17501   4.18652   4.19409
 Alpha virt. eigenvalues --    4.20157   4.21770   4.22388   4.23121   4.25047
 Alpha virt. eigenvalues --    4.26142   4.28028   4.28663   4.29328   4.32514
 Alpha virt. eigenvalues --    4.33364   4.34078   4.36266   4.37037   4.39447
 Alpha virt. eigenvalues --    4.40248   4.40901   4.42444   4.44241   4.46110
 Alpha virt. eigenvalues --    4.47755   4.48554   4.49779   4.51276   4.51922
 Alpha virt. eigenvalues --    4.53781   4.55155   4.56430   4.57967   4.60140
 Alpha virt. eigenvalues --    4.62174   4.63425   4.65460   4.69216   4.69316
 Alpha virt. eigenvalues --    4.70037   4.71826   4.72080   4.74280   4.75974
 Alpha virt. eigenvalues --    4.77100   4.78313   4.79547   4.80200   4.81027
 Alpha virt. eigenvalues --    4.82192   4.83284   4.85282   4.85943   4.87222
 Alpha virt. eigenvalues --    4.88408   4.89814   4.90168   4.91136   4.92920
 Alpha virt. eigenvalues --    4.94331   4.94890   4.95620   4.96607   4.97594
 Alpha virt. eigenvalues --    4.97981   4.98402   5.00084   5.00461   5.00944
 Alpha virt. eigenvalues --    5.03268   5.03500   5.04980   5.06175   5.06524
 Alpha virt. eigenvalues --    5.07311   5.07856   5.09910   5.10232   5.11108
 Alpha virt. eigenvalues --    5.11852   5.16519   5.16807   5.17256   5.18649
 Alpha virt. eigenvalues --    5.18953   5.20436   5.21695   5.22692   5.23704
 Alpha virt. eigenvalues --    5.24115   5.26580   5.27216   5.28129   5.29710
 Alpha virt. eigenvalues --    5.31030   5.33274   5.33680   5.36353   5.37656
 Alpha virt. eigenvalues --    5.38880   5.39786   5.41078   5.42825   5.44336
 Alpha virt. eigenvalues --    5.46030   5.46283   5.49179   5.51461   5.52426
 Alpha virt. eigenvalues --    5.55086   5.55508   5.58656   5.60088   5.62251
 Alpha virt. eigenvalues --    5.65689   5.68516   5.69755   5.70384   5.72500
 Alpha virt. eigenvalues --    5.76095   5.78938   5.81794   5.82885   5.84771
 Alpha virt. eigenvalues --    5.88204   5.88562   5.91810   5.93844   5.94818
 Alpha virt. eigenvalues --    5.97294   6.01708   6.07156   6.08854   6.11708
 Alpha virt. eigenvalues --    6.14685   6.16599   6.20357   6.21225   6.23791
 Alpha virt. eigenvalues --    6.25567   6.30056   6.31860   6.35086   6.36984
 Alpha virt. eigenvalues --    6.37555   6.43720   6.56321   6.58755   6.70662
 Alpha virt. eigenvalues --    6.74354   6.81169   6.85228   6.86084   6.90271
 Alpha virt. eigenvalues --    6.93870   7.01371   7.05772   7.07442   7.08721
 Alpha virt. eigenvalues --    7.09518   7.12131   7.12670   7.18945   7.20039
 Alpha virt. eigenvalues --    7.25997   7.45701   7.46483   7.49423   7.57841
 Alpha virt. eigenvalues --    7.62896   7.65314   7.87932  24.41750  24.61679
 Alpha virt. eigenvalues --   24.69632  24.75237  24.89747  24.91222  24.95161
 Alpha virt. eigenvalues --   24.97551  25.00338  35.85537  36.12930  36.15218
 Alpha virt. eigenvalues --   36.40612  50.05988  50.09945  50.16904
          Condensed to atoms (all electrons):
               1          2          3          4          5          6
     1  O    8.102475   0.502210  -0.114761   0.025625  -0.005882  -0.000362
     2  C    0.502210   8.192642  -0.078294  -1.444243   0.189070   0.002053
     3  N   -0.114761  -0.078294   6.694511  -0.122593   0.026229  -0.006271
     4  C    0.025625  -1.444243  -0.122593  10.004092  -1.320931   0.205571
     5  C   -0.005882   0.189070   0.026229  -1.320931   5.939087   0.144985
     6  O   -0.000362   0.002053  -0.006271   0.205571   0.144985   7.779029
     7  O   -0.000608   0.034720   0.007509   0.013260   0.404421  -0.101587
     8  C   -0.042372   0.530694   0.039783  -2.054915   0.247424  -0.163473
     9  C   -0.045345   0.270880  -0.028110  -0.223601   0.105921   0.056641
    10  C    0.057428  -1.102653   0.041028   0.942782  -0.133742   0.008602
    11  N   -0.008881   0.017674  -0.000061  -0.008951   0.008802   0.000005
    12  C    0.005048   0.191915  -0.007443   0.002880   0.009998   0.000519
    13  N    0.002855  -0.041408  -0.012856   0.073611  -0.002909   0.000347
    14  C   -0.038225  -1.148043   0.061619   0.038481   0.003541  -0.000489
    15  C   -0.015575   0.228017  -0.033457  -0.014201  -0.005704  -0.000229
    16  N   -0.075444  -0.158200   0.028295  -0.011645   0.002788  -0.000010
    17  H    0.001156  -0.119939   0.352843   0.030965  -0.007751  -0.002767
    18  H   -0.003973  -0.031580  -0.032599   0.388415   0.004470  -0.009946
    19  H   -0.000140   0.003809   0.003679  -0.155104   0.106537   0.236753
    20  H   -0.000012   0.028931   0.012365  -0.110717   0.012344  -0.006185
    21  H   -0.001018   0.011124   0.005023   0.012695  -0.033554   0.004701
    22  H   -0.012183  -0.033018  -0.000347   0.030676  -0.011428   0.000973
    23  H    0.000605  -0.000307  -0.000563  -0.000537  -0.000842   0.000028
    24  H   -0.000325   0.010456  -0.000814  -0.018988   0.003480   0.000239
    25  H   -0.012027  -0.019502  -0.010867   0.013280  -0.007028   0.000020
    26  H    0.006165  -0.115211   0.007651   0.006858  -0.000175   0.000168
    27  H    0.001570   0.006136  -0.000598  -0.004026   0.001063  -0.000014
    28  H   -0.008185   0.033779  -0.005110  -0.001576  -0.001333   0.000029
    29  H    0.009629  -0.005205  -0.002108   0.006691   0.000554  -0.000015
    30  H   -0.000915   0.014733  -0.000502  -0.001749   0.000040   0.000001
    31  H    0.078671   0.016717  -0.006436   0.013608   0.001032  -0.000025
               7          8          9         10         11         12
     1  O   -0.000608  -0.042372  -0.045345   0.057428  -0.008881   0.005048
     2  C    0.034720   0.530694   0.270880  -1.102653   0.017674   0.191915
     3  N    0.007509   0.039783  -0.028110   0.041028  -0.000061  -0.007443
     4  C    0.013260  -2.054915  -0.223601   0.942782  -0.008951   0.002880
     5  C    0.404421   0.247424   0.105921  -0.133742   0.008802   0.009998
     6  O   -0.101587  -0.163473   0.056641   0.008602   0.000005   0.000519
     7  O    8.042932  -0.084870   0.019235  -0.003156   0.000324   0.001196
     8  C   -0.084870   9.783257  -1.385379  -1.293546  -0.094411  -0.018891
     9  C    0.019235  -1.385379  10.340927  -3.796581   0.336417   0.097061
    10  C   -0.003156  -1.293546  -3.796581  12.448124  -0.424595  -0.922915
    11  N    0.000324  -0.094411   0.336417  -0.424595   7.201289   0.337720
    12  C    0.001196  -0.018891   0.097061  -0.922915   0.337720   5.683828
    13  N   -0.003162   0.014007   0.106661  -0.129351   0.022191   0.352814
    14  C   -0.021480  -0.043481   0.073280   0.000367   0.011940  -0.133389
    15  C   -0.001381  -0.041371  -0.015935   0.074523  -0.010986   0.046086
    16  N   -0.000107   0.028746   0.082459  -0.161104  -0.031101   0.021263
    17  H    0.012644   0.022882  -0.009308  -0.012220   0.004420   0.001158
    18  H    0.003981   0.038009  -0.101913   0.072068  -0.002599  -0.005513
    19  H    0.026936   0.020362   0.000362  -0.002460   0.000042   0.000103
    20  H   -0.002009   0.518468  -0.095184  -0.022536  -0.002958  -0.008719
    21  H    0.003470   0.261771   0.060233  -0.030352   0.003616   0.012552
    22  H   -0.000365  -0.072747  -0.108962   0.603039  -0.095278  -0.008987
    23  H    0.000035   0.006995   0.056454  -0.022392  -0.070881   0.452244
    24  H   -0.000089  -0.040517  -0.059837   0.075356  -0.003646  -0.041366
    25  H    0.000744  -0.013755   0.022149  -0.027029   0.002141  -0.006166
    26  H   -0.000589   0.003091  -0.002920   0.010746  -0.001486  -0.004342
    27  H   -0.000150   0.001755  -0.001372   0.006166  -0.001943  -0.007272
    28  H    0.000230  -0.000146  -0.001895   0.001124  -0.000688   0.000220
    29  H    0.000033  -0.008043   0.005269  -0.045250   0.104693   0.004442
    30  H   -0.000009   0.003595   0.000778   0.003372  -0.004254  -0.003695
    31  H   -0.000065  -0.001464  -0.019153   0.034467  -0.016447   0.000517
              13         14         15         16         17         18
     1  O    0.002855  -0.038225  -0.015575  -0.075444   0.001156  -0.003973
     2  C   -0.041408  -1.148043   0.228017  -0.158200  -0.119939  -0.031580
     3  N   -0.012856   0.061619  -0.033457   0.028295   0.352843  -0.032599
     4  C    0.073611   0.038481  -0.014201  -0.011645   0.030965   0.388415
     5  C   -0.002909   0.003541  -0.005704   0.002788  -0.007751   0.004470
     6  O    0.000347  -0.000489  -0.000229  -0.000010  -0.002767  -0.009946
     7  O   -0.003162  -0.021480  -0.001381  -0.000107   0.012644   0.003981
     8  C    0.014007  -0.043481  -0.041371   0.028746   0.022882   0.038009
     9  C    0.106661   0.073280  -0.015935   0.082459  -0.009308  -0.101913
    10  C   -0.129351   0.000367   0.074523  -0.161104  -0.012220   0.072068
    11  N    0.022191   0.011940  -0.010986  -0.031101   0.004420  -0.002599
    12  C    0.352814  -0.133389   0.046086   0.021263   0.001158  -0.005513
    13  N    6.208307   0.012715  -0.011314   0.000461   0.003540   0.002647
    14  C    0.012715   6.240274  -0.241072   0.166241   0.030061  -0.014654
    15  C   -0.011314  -0.241072   5.764519  -0.011087  -0.007162  -0.004498
    16  N    0.000461   0.166241  -0.011087   5.932954   0.002743  -0.001166
    17  H    0.003540   0.030061  -0.007162   0.002743   0.536949   0.007322
    18  H    0.002647  -0.014654  -0.004498  -0.001166   0.007322   0.572460
    19  H   -0.000089  -0.000485  -0.000089   0.000005   0.002032   0.001950
    20  H    0.002251  -0.002100   0.002438  -0.000462   0.000437  -0.008599
    21  H   -0.004321  -0.004444  -0.000625  -0.000021  -0.001427   0.002414
    22  H    0.010707   0.002429   0.008363   0.003217  -0.000579  -0.004606
    23  H   -0.070130   0.003286  -0.002614   0.004982  -0.000271   0.000020
    24  H    0.390103  -0.003419   0.001632  -0.000115  -0.001495  -0.000925
    25  H    0.007613   0.422229  -0.044022  -0.005227   0.003433  -0.000339
    26  H   -0.001052   0.509657  -0.074225   0.009167  -0.002564   0.000411
    27  H    0.001372  -0.008830   0.390487  -0.018811  -0.000281  -0.000118
    28  H   -0.000889  -0.057193   0.438031  -0.033250   0.000045   0.000334
    29  H    0.000832   0.010697  -0.032236   0.339662   0.000385   0.000821
    30  H    0.000382  -0.000842  -0.052781   0.386447   0.000027  -0.000121
    31  H    0.001129  -0.006909  -0.057325   0.328294  -0.000865   0.002010
              19         20         21         22         23         24
     1  O   -0.000140  -0.000012  -0.001018  -0.012183   0.000605  -0.000325
     2  C    0.003809   0.028931   0.011124  -0.033018  -0.000307   0.010456
     3  N    0.003679   0.012365   0.005023  -0.000347  -0.000563  -0.000814
     4  C   -0.155104  -0.110717   0.012695   0.030676  -0.000537  -0.018988
     5  C    0.106537   0.012344  -0.033554  -0.011428  -0.000842   0.003480
     6  O    0.236753  -0.006185   0.004701   0.000973   0.000028   0.000239
     7  O    0.026936  -0.002009   0.003470  -0.000365   0.000035  -0.000089
     8  C    0.020362   0.518468   0.261771  -0.072747   0.006995  -0.040517
     9  C    0.000362  -0.095184   0.060233  -0.108962   0.056454  -0.059837
    10  C   -0.002460  -0.022536  -0.030352   0.603039  -0.022392   0.075356
    11  N    0.000042  -0.002958   0.003616  -0.095278  -0.070881  -0.003646
    12  C    0.000103  -0.008719   0.012552  -0.008987   0.452244  -0.041366
    13  N   -0.000089   0.002251  -0.004321   0.010707  -0.070130   0.390103
    14  C   -0.000485  -0.002100  -0.004444   0.002429   0.003286  -0.003419
    15  C   -0.000089   0.002438  -0.000625   0.008363  -0.002614   0.001632
    16  N    0.000005  -0.000462  -0.000021   0.003217   0.004982  -0.000115
    17  H    0.002032   0.000437  -0.001427  -0.000579  -0.000271  -0.001495
    18  H    0.001950  -0.008599   0.002414  -0.004606   0.000020  -0.000925
    19  H    0.506615   0.000255  -0.001512  -0.000231   0.000000   0.000043
    20  H    0.000255   0.593101  -0.032949   0.001962  -0.000376   0.001802
    21  H   -0.001512  -0.032949   0.677150  -0.000894  -0.000100  -0.001128
    22  H   -0.000231   0.001962  -0.000894   0.574349  -0.001211   0.001755
    23  H    0.000000  -0.000376  -0.000100  -0.001211   0.517888  -0.002817
    24  H    0.000043   0.001802  -0.001128   0.001755  -0.002817   0.521502
    25  H   -0.000056   0.000520  -0.000297   0.000740  -0.003785  -0.001014
    26  H   -0.000040  -0.000304  -0.000145  -0.000155   0.000619  -0.000084
    27  H    0.000003  -0.000003   0.000040   0.000380  -0.000680   0.000101
    28  H   -0.000002   0.000036   0.000026  -0.000052  -0.000100  -0.000040
    29  H    0.000010  -0.000797   0.000322  -0.005656  -0.000425  -0.000716
    30  H   -0.000001   0.000044  -0.000012   0.000662  -0.000140   0.000041
    31  H    0.000004  -0.000194   0.000056  -0.002287   0.000251   0.000101
              25         26         27         28         29         30
     1  O   -0.012027   0.006165   0.001570  -0.008185   0.009629  -0.000915
     2  C   -0.019502  -0.115211   0.006136   0.033779  -0.005205   0.014733
     3  N   -0.010867   0.007651  -0.000598  -0.005110  -0.002108  -0.000502
     4  C    0.013280   0.006858  -0.004026  -0.001576   0.006691  -0.001749
     5  C   -0.007028  -0.000175   0.001063  -0.001333   0.000554   0.000040
     6  O    0.000020   0.000168  -0.000014   0.000029  -0.000015   0.000001
     7  O    0.000744  -0.000589  -0.000150   0.000230   0.000033  -0.000009
     8  C   -0.013755   0.003091   0.001755  -0.000146  -0.008043   0.003595
     9  C    0.022149  -0.002920  -0.001372  -0.001895   0.005269   0.000778
    10  C   -0.027029   0.010746   0.006166   0.001124  -0.045250   0.003372
    11  N    0.002141  -0.001486  -0.001943  -0.000688   0.104693  -0.004254
    12  C   -0.006166  -0.004342  -0.007272   0.000220   0.004442  -0.003695
    13  N    0.007613  -0.001052   0.001372  -0.000889   0.000832   0.000382
    14  C    0.422229   0.509657  -0.008830  -0.057193   0.010697  -0.000842
    15  C   -0.044022  -0.074225   0.390487   0.438031  -0.032236  -0.052781
    16  N   -0.005227   0.009167  -0.018811  -0.033250   0.339662   0.386447
    17  H    0.003433  -0.002564  -0.000281   0.000045   0.000385   0.000027
    18  H   -0.000339   0.000411  -0.000118   0.000334   0.000821  -0.000121
    19  H   -0.000056  -0.000040   0.000003  -0.000002   0.000010  -0.000001
    20  H    0.000520  -0.000304  -0.000003   0.000036  -0.000797   0.000044
    21  H   -0.000297  -0.000145   0.000040   0.000026   0.000322  -0.000012
    22  H    0.000740  -0.000155   0.000380  -0.000052  -0.005656   0.000662
    23  H   -0.003785   0.000619  -0.000680  -0.000100  -0.000425  -0.000140
    24  H   -0.001014  -0.000084   0.000101  -0.000040  -0.000716   0.000041
    25  H    0.647738  -0.051471  -0.010489   0.008065   0.004249  -0.000259
    26  H   -0.051471   0.610616   0.001449  -0.006944  -0.000422  -0.000476
    27  H   -0.010489   0.001449   0.592617  -0.040668  -0.006829   0.000805
    28  H    0.008065  -0.006944  -0.040668   0.574205   0.005923   0.000381
    29  H    0.004249  -0.000422  -0.006829   0.005923   0.434829  -0.033323
    30  H   -0.000259  -0.000476   0.000805   0.000381  -0.033323   0.528528
    31  H   -0.005043   0.003963   0.004127  -0.007060  -0.012774  -0.025594
              31
     1  O    0.078671
     2  C    0.016717
     3  N   -0.006436
     4  C    0.013608
     5  C    0.001032
     6  O   -0.000025
     7  O   -0.000065
     8  C   -0.001464
     9  C   -0.019153
    10  C    0.034467
    11  N   -0.016447
    12  C    0.000517
    13  N    0.001129
    14  C   -0.006909
    15  C   -0.057325
    16  N    0.328294
    17  H   -0.000865
    18  H    0.002010
    19  H    0.000004
    20  H   -0.000194
    21  H    0.000056
    22  H   -0.002287
    23  H    0.000251
    24  H    0.000101
    25  H   -0.005043
    26  H    0.003963
    27  H    0.004127
    28  H   -0.007060
    29  H   -0.012774
    30  H   -0.025594
    31  H    0.503175
 Mulliken charges:
               1
     1  O   -0.407203
     2  C    0.012043
     3  N    0.183258
     4  C   -0.315710
     5  C    0.319494
     6  O   -0.149288
     7  O   -0.352043
     8  C   -0.161459
     9  C    0.260769
    10  C   -0.249307
    11  N   -0.272107
    12  C   -0.052866
    13  N    0.062935
    14  C    0.138239
    15  C   -0.276205
    16  N    0.170027
    17  H    0.153587
    18  H    0.125818
    19  H    0.250708
    20  H    0.119149
    21  H    0.057606
    22  H    0.119735
    23  H    0.134764
    24  H    0.170725
    25  H    0.085453
    26  H    0.092046
    27  H    0.094017
    28  H    0.102701
    29  H    0.224759
    30  H    0.184837
    31  H    0.173518
 Sum of Mulliken charges =   1.00000
 Mulliken charges with hydrogens summed into heavy atoms:
               1
     1  O   -0.407203
     2  C    0.012043
     3  N    0.336845
     4  C   -0.189892
     5  C    0.319494
     6  O    0.101420
     7  O   -0.352043
     8  C    0.015296
     9  C    0.260769
    10  C   -0.129572
    11  N   -0.272107
    12  C    0.081898
    13  N    0.233660
    14  C    0.315738
    15  C   -0.079487
    16  N    0.753141
 Electronic spatial extent (au):  <R**2>=           3634.2553
 Charge=              1.0000 electrons
 Dipole moment (field-independent basis, Debye):
    X=              2.2448    Y=              0.1523    Z=             -3.1458  Tot=              3.8676
 Quadrupole moment (field-independent basis, Debye-Ang):
   XX=            -85.0886   YY=            -75.8092   ZZ=            -52.7608
   XY=             -0.3210   XZ=            -11.5928   YZ=            -15.9804
 Traceless Quadrupole moment (field-independent basis, Debye-Ang):
   XX=            -13.8691   YY=             -4.5897   ZZ=             18.4587
   XY=             -0.3210   XZ=            -11.5928   YZ=            -15.9804
 Octapole moment (field-independent basis, Debye-Ang**2):
  XXX=             32.9391  YYY=             -1.4674  ZZZ=            -87.4320  XYY=             36.7347
  XXY=             10.1929  XXZ=            -56.5204  XZZ=            -23.0296  YZZ=             44.8411
  YYZ=            -55.6616  XYZ=              4.7968
 Hexadecapole moment (field-independent basis, Debye-Ang**3):
 XXXX=           -557.1372 YYYY=          -1017.7675 ZZZZ=          -1872.0903 XXXY=           -108.1507
 XXXZ=            128.5654 YYYX=           -148.8940 YYYZ=             -6.7110 ZZZX=            -72.7337
 ZZZY=            -82.4247 XXYY=           -267.5832 XXZZ=           -590.3211 YYZZ=           -574.8776
 XXYZ=             -2.6322 YYXZ=             25.3069 ZZXY=            -60.6160
 N-N= 1.206677097373D+03 E-N=-4.257730713794D+03  KE= 7.933961569907D+02
 Calling FoFJK, ICntrl=      2127 FMM=F ISym2X=0 I1Cent= 0 IOpClX= 0 NMat=1 NMatS=1 NMatT=0.
 -------------------------------------------------------------------
 Center     Atomic                   Forces (Hartrees/Bohr)
 Number     Number              X              Y              Z
 -------------------------------------------------------------------
      1        8           0.009840093   -0.004102607    0.003489098
      2        6          -0.005326789    0.001474303   -0.000250477
      3        7          -0.000911403    0.001381228   -0.001966336
      4        6           0.000791109    0.001345813    0.000035445
      5        6           0.007948987   -0.001299558    0.001178113
      6        8           0.005919581    0.000050643    0.002122781
      7        8          -0.013205525    0.000666302   -0.002633629
      8        6          -0.000716948   -0.001195634   -0.000138576
      9        6           0.000296345    0.001299006   -0.003551456
     10        6           0.001334765   -0.000834275    0.002503367
     11        7           0.002652447   -0.003934327    0.005916306
     12        6          -0.002430241    0.001168526    0.000385843
     13        7          -0.001241834    0.000325700   -0.002173688
     14        6           0.000132660    0.000823134   -0.000224013
     15        6           0.000397377    0.000106307   -0.000410328
     16        7          -0.001303028   -0.000160662    0.000026655
     17        1          -0.002112430    0.000905328   -0.002012485
     18        1           0.001861605   -0.002020219    0.001003802
     19        1          -0.002295233    0.000166863   -0.002362975
     20        1           0.002767337    0.000310570   -0.000858529
     21        1          -0.001316844    0.001836026   -0.001606175
     22        1           0.002009498   -0.002079802    0.000246545
     23        1          -0.001915933    0.001193119    0.001480486
     24        1          -0.001357540    0.001783588   -0.001778598
     25        1          -0.000848081    0.002805604    0.000424749
     26        1          -0.002355393   -0.001474408   -0.000727028
     27        1          -0.001820245    0.000723047    0.001940195
     28        1           0.000462540   -0.002745345   -0.000142299
     29        1           0.000461051    0.003756123   -0.000172079
     30        1           0.000699177   -0.001180442    0.003141158
     31        1           0.001582895   -0.001093950   -0.002885869
 -------------------------------------------------------------------
 Cartesian Forces:  Max     0.013205525 RMS     0.002727091

 GradGradGradGradGradGradGradGradGradGradGradGradGradGradGradGradGradGrad
 Berny optimization.
 FormGI is forming the generalized inverse of G from B-inverse, IUseBI=4.
 Internal  Forces:  Max     0.013437036 RMS     0.002264105
 Search for a local minimum.
 Step number   1 out of a maximum of  167
 All quantities printed in internal units (Hartrees-Bohrs-Radians)
 Mixed Optimization -- RFO/linear search
 Second derivative matrix not updated -- first step.
 ITU=  0
     Eigenvalues ---    0.00095   0.00217   0.00237   0.00468   0.00566
     Eigenvalues ---    0.00717   0.01194   0.01346   0.01562   0.01968
     Eigenvalues ---    0.02213   0.02454   0.02742   0.03091   0.03973
     Eigenvalues ---    0.04150   0.04232   0.04338   0.04355   0.04511
     Eigenvalues ---    0.04699   0.05137   0.05430   0.05524   0.05862
     Eigenvalues ---    0.05906   0.06408   0.06842   0.07633   0.07701
     Eigenvalues ---    0.07830   0.08423   0.10436   0.11135   0.11730
     Eigenvalues ---    0.11787   0.11908   0.12171   0.12520   0.14774
     Eigenvalues ---    0.14987   0.15445   0.15846   0.16514   0.18981
     Eigenvalues ---    0.20088   0.21011   0.21851   0.22728   0.23222
     Eigenvalues ---    0.23855   0.24445   0.24602   0.25122   0.27428
     Eigenvalues ---    0.28564   0.28986   0.32384   0.33394   0.33680
     Eigenvalues ---    0.33702   0.34268   0.34394   0.34583   0.34675
     Eigenvalues ---    0.34890   0.35279   0.35600   0.37013   0.37625
     Eigenvalues ---    0.37793   0.38366   0.41301   0.44233   0.45002
     Eigenvalues ---    0.45320   0.46349   0.47370   0.47746   0.51026
     Eigenvalues ---    0.51546   0.57839   0.63071   0.76310   0.88866
     Eigenvalues ---    0.92718   2.46516
 RFO step:  Lambda=-1.47454788D-03 EMin= 9.51034793D-04
 Linear search not attempted -- first point.
 Iteration  1 RMS(Cart)=  0.02020018 RMS(Int)=  0.00018076
 Iteration  2 RMS(Cart)=  0.00031706 RMS(Int)=  0.00002553
 Iteration  3 RMS(Cart)=  0.00000005 RMS(Int)=  0.00002553
 Variable       Old X    -DE/DX   Delta X   Delta X   Delta X     New X
                                 (Linear)    (Quad)   (Total)
    R1        2.34241  -0.01118   0.00000  -0.01570  -0.01570   2.32671
    R2        2.54605  -0.00439   0.00000  -0.00617  -0.00617   2.53988
    R3        2.89113  -0.00269   0.00000  -0.00819  -0.00819   2.88294
    R4        2.74087  -0.00065   0.00000  -0.00608  -0.00608   2.73479
    R5        1.91389  -0.00280   0.00000  -0.00661  -0.00661   1.90728
    R6        2.87123  -0.00211   0.00000  -0.00637  -0.00637   2.86485
    R7        2.99305   0.00000   0.00000  -0.00352  -0.00352   2.98953
    R8        2.05972  -0.00285   0.00000  -0.00796  -0.00796   2.05176
    R9        2.52759  -0.00298   0.00000  -0.00379  -0.00379   2.52380
   R10        2.28877  -0.01344   0.00000  -0.01526  -0.01526   2.27350
   R11        1.84026  -0.00302   0.00000  -0.00709  -0.00709   1.83317
   R12        2.82157  -0.00279   0.00000  -0.00907  -0.00907   2.81250
   R13        2.06354  -0.00290   0.00000  -0.00824  -0.00824   2.05530
   R14        2.06904  -0.00277   0.00000  -0.00798  -0.00798   2.06106
   R15        2.59350  -0.00656   0.00000  -0.01123  -0.01122   2.58228
   R16        2.62264  -0.00292   0.00000  -0.00648  -0.00648   2.61616
   R17        2.61469  -0.00297   0.00000  -0.00527  -0.00528   2.60942
   R18        2.03963  -0.00288   0.00000  -0.00725  -0.00725   2.03239
   R19        2.50493  -0.00634   0.00000  -0.01104  -0.01105   2.49387
   R20        2.56918  -0.00511   0.00000  -0.00722  -0.00722   2.56196
   R21        2.04144  -0.00270   0.00000  -0.00693  -0.00693   2.03450
   R22        1.90992  -0.00285   0.00000  -0.00602  -0.00602   1.90390
   R23        2.89221  -0.00168   0.00000  -0.00923  -0.00923   2.88298
   R24        2.06811  -0.00296   0.00000  -0.00786  -0.00786   2.06025
   R25        2.07012  -0.00285   0.00000  -0.00795  -0.00795   2.06217
   R26        2.84825  -0.00176   0.00000  -0.00463  -0.00463   2.84362
   R27        2.06066  -0.00275   0.00000  -0.00761  -0.00761   2.05305
   R28        2.06188  -0.00278   0.00000  -0.00792  -0.00792   2.05396
   R29        2.00196  -0.00378   0.00000  -0.01353  -0.01353   1.98844
   R30        1.92915  -0.00343   0.00000  -0.00711  -0.00711   1.92205
   R31        1.96874  -0.00336   0.00000  -0.01343  -0.01343   1.95531
    A1        2.14652  -0.00042   0.00000   0.00434   0.00432   2.15085
    A2        2.11602  -0.00011   0.00000  -0.00236  -0.00238   2.11365
    A3        2.01759   0.00063   0.00000  -0.00120  -0.00122   2.01637
    A4        2.13655   0.00195   0.00000   0.00480   0.00470   2.14126
    A5        2.11515  -0.00195   0.00000  -0.01369  -0.01378   2.10138
    A6        2.02858   0.00009   0.00000   0.00704   0.00694   2.03552
    A7        1.88408  -0.00023   0.00000   0.00831   0.00831   1.89239
    A8        1.95302   0.00410   0.00000   0.00381   0.00381   1.95683
    A9        1.88693  -0.00131   0.00000   0.00045   0.00046   1.88739
   A10        1.89732  -0.00315   0.00000  -0.00294  -0.00298   1.89434
   A11        1.93520   0.00047   0.00000  -0.00665  -0.00666   1.92853
   A12        1.90760   0.00017   0.00000  -0.00297  -0.00299   1.90461
   A13        1.94584   0.00107   0.00000  -0.00084  -0.00085   1.94500
   A14        2.14865   0.00072   0.00000   0.00455   0.00455   2.15320
   A15        2.18682  -0.00178   0.00000  -0.00338  -0.00338   2.18343
   A16        1.88690   0.00242   0.00000   0.01511   0.01511   1.90201
   A17        1.93820   0.00724   0.00000   0.00344   0.00344   1.94163
   A18        1.89095  -0.00213   0.00000  -0.00198  -0.00198   1.88897
   A19        1.90774  -0.00204   0.00000   0.00043   0.00042   1.90816
   A20        1.94954  -0.00197   0.00000  -0.00274  -0.00274   1.94680
   A21        1.91149  -0.00241   0.00000   0.00074   0.00073   1.91222
   A22        1.86407   0.00103   0.00000   0.00001   0.00001   1.86408
   A23        2.29658   0.00117   0.00000  -0.00146  -0.00151   2.29507
   A24        2.13718  -0.00084   0.00000   0.00317   0.00314   2.14032
   A25        1.82149  -0.00015   0.00000   0.00126   0.00127   1.82276
   A26        1.93344  -0.00070   0.00000  -0.00220  -0.00221   1.93123
   A27        2.22225   0.00032   0.00000   0.00113   0.00110   2.22335
   A28        2.12530   0.00042   0.00000   0.00189   0.00185   2.12715
   A29        1.84439   0.00117   0.00000   0.00252   0.00252   1.84691
   A30        1.93153  -0.00073   0.00000  -0.00133  -0.00133   1.93020
   A31        2.20045   0.00042   0.00000   0.00147   0.00147   2.20192
   A32        2.15111   0.00031   0.00000  -0.00012  -0.00012   2.15099
   A33        1.89305   0.00041   0.00000  -0.00025  -0.00026   1.89280
   A34        2.19187   0.00000   0.00000   0.00159   0.00155   2.19342
   A35        2.19521  -0.00043   0.00000  -0.00041  -0.00044   2.19477
   A36        1.96700   0.00245   0.00000   0.00236   0.00236   1.96936
   A37        1.88782  -0.00083   0.00000   0.00289   0.00288   1.89070
   A38        1.92682  -0.00103   0.00000  -0.00486  -0.00485   1.92197
   A39        1.92512  -0.00023   0.00000   0.00033   0.00032   1.92544
   A40        1.89003  -0.00076   0.00000   0.00060   0.00060   1.89063
   A41        1.86448   0.00028   0.00000  -0.00157  -0.00157   1.86291
   A42        1.93609   0.00216   0.00000   0.00508   0.00507   1.94116
   A43        1.93438  -0.00079   0.00000  -0.00207  -0.00206   1.93232
   A44        1.93926  -0.00050   0.00000   0.00093   0.00093   1.94019
   A45        1.89552  -0.00058   0.00000  -0.00243  -0.00243   1.89309
   A46        1.85478  -0.00057   0.00000   0.00018   0.00017   1.85495
   A47        1.90147   0.00027   0.00000  -0.00176  -0.00176   1.89971
   A48        1.98811  -0.00028   0.00000  -0.00071  -0.00073   1.98737
   A49        1.95624  -0.00013   0.00000  -0.00211  -0.00212   1.95413
   A50        1.81164   0.00113   0.00000   0.01272   0.01270   1.82434
   A51        1.92075   0.00003   0.00000  -0.00551  -0.00552   1.91523
   A52        1.83869  -0.00019   0.00000   0.00439   0.00435   1.84305
   A53        1.94232  -0.00054   0.00000  -0.00773  -0.00773   1.93459
    D1        0.25420  -0.00025   0.00000   0.00061   0.00053   0.25473
    D2       -2.97238   0.00110   0.00000  -0.02598  -0.02588  -2.99826
    D3       -2.80444  -0.00158   0.00000  -0.00980  -0.00991  -2.81434
    D4        0.25217  -0.00023   0.00000  -0.03640  -0.03632   0.21585
    D5       -0.07870  -0.00009   0.00000  -0.03223  -0.03221  -0.11091
    D6       -2.21171  -0.00082   0.00000  -0.03620  -0.03620  -2.24791
    D7        2.03721  -0.00011   0.00000  -0.03330  -0.03330   2.00392
    D8        2.98151   0.00120   0.00000  -0.02166  -0.02167   2.95984
    D9        0.84850   0.00047   0.00000  -0.02564  -0.02565   0.82285
   D10       -1.18576   0.00118   0.00000  -0.02274  -0.02275  -1.20851
   D11       -2.60131   0.00132   0.00000   0.00645   0.00640  -2.59491
   D12        1.59484   0.00289   0.00000   0.00242   0.00235   1.59719
   D13       -0.50678   0.00102   0.00000   0.00347   0.00341  -0.50336
   D14        0.62132   0.00013   0.00000   0.03276   0.03283   0.65415
   D15       -1.46571   0.00171   0.00000   0.02873   0.02878  -1.43694
   D16        2.71585  -0.00017   0.00000   0.02978   0.02984   2.74569
   D17        2.85362  -0.00163   0.00000  -0.01373  -0.01374   2.83988
   D18       -0.35058  -0.00139   0.00000  -0.00833  -0.00833  -0.35891
   D19       -1.30765   0.00134   0.00000  -0.00589  -0.00591  -1.31356
   D20        1.77134   0.00157   0.00000  -0.00049  -0.00050   1.77084
   D21        0.78976  -0.00017   0.00000  -0.01551  -0.01550   0.77426
   D22       -2.41444   0.00006   0.00000  -0.01011  -0.01009  -2.42453
   D23       -0.51766   0.00011   0.00000   0.02098   0.02097  -0.49669
   D24       -2.66487  -0.00067   0.00000   0.02353   0.02352  -2.64134
   D25        1.59320   0.00039   0.00000   0.02437   0.02437   1.61757
   D26       -2.59689  -0.00007   0.00000   0.01026   0.01026  -2.58663
   D27        1.53909  -0.00085   0.00000   0.01280   0.01281   1.55189
   D28       -0.48603   0.00021   0.00000   0.01365   0.01366  -0.47238
   D29        1.57186   0.00119   0.00000   0.02198   0.02197   1.59384
   D30       -0.57534   0.00041   0.00000   0.02453   0.02452  -0.55082
   D31       -2.60046   0.00146   0.00000   0.02537   0.02537  -2.57509
   D32        3.08161   0.00020   0.00000   0.00238   0.00237   3.08398
   D33        0.00427  -0.00015   0.00000  -0.00351  -0.00349   0.00078
   D34       -1.13490  -0.00059   0.00000  -0.01211  -0.01211  -1.14701
   D35        1.71335   0.00025   0.00000   0.00349   0.00349   1.71684
   D36        0.97819   0.00037   0.00000  -0.01413  -0.01414   0.96406
   D37       -2.45674   0.00121   0.00000   0.00146   0.00146  -2.45528
   D38        3.03964  -0.00111   0.00000  -0.01533  -0.01534   3.02430
   D39       -0.39529  -0.00027   0.00000   0.00026   0.00026  -0.39503
   D40        2.85486   0.00087   0.00000   0.01266   0.01264   2.86749
   D41       -0.21576   0.00019   0.00000  -0.00050  -0.00051  -0.21627
   D42       -0.03212   0.00028   0.00000  -0.00122  -0.00122  -0.03335
   D43       -3.10274  -0.00040   0.00000  -0.01438  -0.01437  -3.11711
   D44       -2.90518  -0.00104   0.00000  -0.00954  -0.00956  -2.91475
   D45        0.31651  -0.00077   0.00000  -0.02160  -0.02163   0.29488
   D46        0.01126  -0.00016   0.00000   0.00191   0.00191   0.01317
   D47       -3.05024   0.00011   0.00000  -0.01015  -0.01015  -3.06039
   D48        0.04102  -0.00022   0.00000   0.00019   0.00019   0.04121
   D49        3.11624   0.00042   0.00000   0.01247   0.01246   3.12870
   D50       -0.03321   0.00012   0.00000   0.00106   0.00106  -0.03215
   D51        3.09398   0.00000   0.00000   0.00284   0.00284   3.09681
   D52        0.01420   0.00003   0.00000  -0.00190  -0.00191   0.01230
   D53        3.07550  -0.00021   0.00000   0.01030   0.01029   3.08579
   D54       -3.11346   0.00015   0.00000  -0.00364  -0.00364  -3.11710
   D55       -0.05216  -0.00009   0.00000   0.00856   0.00855  -0.04361
   D56       -0.79074  -0.00027   0.00000  -0.00068  -0.00069  -0.79143
   D57       -2.89790  -0.00046   0.00000   0.00038   0.00038  -2.89752
   D58        1.26847   0.00008   0.00000   0.00339   0.00339   1.27185
   D59        1.32112   0.00018   0.00000   0.00486   0.00486   1.32598
   D60       -0.78603  -0.00001   0.00000   0.00592   0.00592  -0.78011
   D61       -2.90286   0.00053   0.00000   0.00893   0.00894  -2.89392
   D62       -2.92747  -0.00005   0.00000   0.00350   0.00350  -2.92397
   D63        1.24857  -0.00023   0.00000   0.00456   0.00456   1.25313
   D64       -0.86826   0.00031   0.00000   0.00757   0.00757  -0.86068
   D65       -0.92910  -0.00008   0.00000   0.00255   0.00254  -0.92656
   D66       -3.12432   0.00021   0.00000   0.01243   0.01243  -3.11189
   D67        1.06091   0.00024   0.00000   0.01501   0.01502   1.07593
   D68        1.20088  -0.00007   0.00000   0.00160   0.00159   1.20247
   D69       -0.99433   0.00022   0.00000   0.01148   0.01148  -0.98286
   D70       -3.09229   0.00025   0.00000   0.01405   0.01406  -3.07822
   D71       -3.03898  -0.00035   0.00000  -0.00158  -0.00159  -3.04057
   D72        1.04899  -0.00005   0.00000   0.00830   0.00830   1.05729
   D73       -1.04896  -0.00003   0.00000   0.01087   0.01089  -1.03808
         Item               Value     Threshold  Converged?
 Maximum Force            0.013437     0.000450     NO 
 RMS     Force            0.002264     0.000300     NO 
 Maximum Displacement     0.076371     0.001800     NO 
 RMS     Displacement     0.020249     0.001200     NO 
 Predicted change in Energy=-7.527938D-04
 GradGradGradGradGradGradGradGradGradGradGradGradGradGradGradGradGradGrad

                          Input orientation:                          
 ---------------------------------------------------------------------
 Center     Atomic      Atomic             Coordinates (Angstroms)
 Number     Number       Type             X           Y           Z
 ---------------------------------------------------------------------
      1          8           0       -0.720716    1.798385   -0.147442
      2          6           0        0.332426    1.248327    0.175487
      3          7           0        0.490095    0.579481    1.330583
      4          6           0       -0.625999    0.177345    2.159423
      5          6           0       -0.175285    0.185291    3.606866
      6          8           0       -1.217056    0.191124    4.442531
      7          8           0        0.979145    0.128682    3.940788
      8          6           0       -1.141257   -1.274817    1.801052
      9          6           0       -0.883144   -1.601339    0.372128
     10          6           0       -1.383083   -1.069042   -0.782858
     11          7           0       -0.609405   -1.439870   -1.864818
     12          6           0        0.326336   -2.235511   -1.382160
     13          7           0        0.204795   -2.353383   -0.037044
     14          6           0        1.523601    1.205886   -0.776728
     15          6           0        1.196208    1.760804   -2.159610
     16          7           0       -0.118131    1.228362   -2.662975
     17          1           0        1.402538    0.250785    1.609986
     18          1           0       -1.432569    0.888332    2.008484
     19          1           0       -0.890116    0.143272    5.354594
     20          1           0       -2.201528   -1.327647    2.037586
     21          1           0       -0.639269   -2.003564    2.438617
     22          1           0       -2.222355   -0.404449   -0.885926
     23          1           0        1.084914   -2.743297   -1.952957
     24          1           0        0.770297   -2.939546    0.555976
     25          1           0        1.864050    0.173064   -0.854113
     26          1           0        2.354529    1.780608   -0.364318
     27          1           0        1.971047    1.495500   -2.873442
     28          1           0        1.097234    2.842913   -2.134880
     29          1           0       -0.187837    0.178621   -2.643391
     30          1           0       -0.334388    1.569562   -3.596417
     31          1           0       -0.814973    1.566330   -1.976825
 ---------------------------------------------------------------------
                    Distance matrix (angstroms):
                    1          2          3          4          5
     1  O    0.000000
     2  C    1.231241   0.000000
     3  N    2.266351   1.344046   0.000000
     4  C    2.821058   2.449812   1.447188   0.000000
     5  C    4.122426   3.627971   2.404076   1.516014   0.000000
     6  O    4.888506   4.661140   3.570631   2.358415   1.335536
     7  O    4.731919   3.981123   2.693615   2.398357   1.203087
     8  C    3.663066   3.343719   2.514174   1.581991   2.515151
     9  C    3.443031   3.104332   2.749618   2.534613   3.762532
    10  C    3.010750   3.038354   3.270024   3.283850   4.722479
    11  N    3.667161   3.503754   3.936657   4.337070   5.724416
    12  C    4.346626   3.816206   3.912796   4.389946   5.567970
    13  N    4.255107   3.610232   3.248614   3.452429   4.457287
    14  C    2.404998   1.525586   2.429254   3.781489   4.810793
    15  C    2.779358   2.541935   3.751742   4.947911   6.133146
    16  N    2.648762   2.874068   4.091392   4.961661   6.356270
    17  H    3.160985   2.048906   1.009287   2.102912   2.545849
    18  H    2.446006   2.569957   2.061935   1.085744   2.151710
    19  H    5.748087   5.434971   4.276439   3.206250   1.888730
    20  H    4.091360   4.064969   3.373696   2.182232   2.976118
[...]
 2,0.00002177,-0.00010943,0.00063288,-0.00041260,-0.00003768,-0.0001081
 6,0.00660913,-0.02097050,-0.05203693,-0.00909542,0.03320893,0.00023022
 ,0.00055005,-0.00053259,0.00130405,0.00049213,-0.00017800,-0.00106668,
 -0.00001849,-0.00009814,0.00013813,0.00000362,0.00000201,0.00001121,0.
 00002195,0.00009363,0.00001641,0.00001272,0.00005620,-0.00001188,-0.00
 003349,0.00000066,-0.00005058,-0.00003371,-0.00013966,-0.00002217,0.00
 013300,0.00017776,0.00000603,-0.00882521,0.01716311,0.05864666,-0.0015
 2062,0.00223105,0.00353999,-0.02047127,-0.01373167,-0.01142868,0.00146
 510,0.00133091,0.00020691,-0.00021542,0.00043631,0.00081834,-0.0001931
 3,-0.00000669,0.00006078,0.00002575,-0.00000584,0.00003364,0.00002545,
 0.00003836,-0.00001430,0.00021540,0.00011174,-0.00004436,0.00000317,-0
 .00000448,-0.00009081,-0.00003700,-0.00000411,0.00000498,-0.00000285,0
 .00013070,0.00003794,0.00013464,0.00000085,0.00001387,0.00001625,0.000
 01230,0.00006067,-0.19471352,-0.11081599,-0.07606002,-0.00581122,-0.00
 325004,-0.00342545,0.00105140,0.00066389,-0.00093943,-0.00001603,-0.00
 075099,0.00008300,0.00004776,0.00000416,-0.00001104,-0.00000954,-0.000
 01186,0.00001533,0.00001074,0.00004406,0.00000978,-0.00000233,-0.00000
 037,-0.00000081,0.00001602,0.00000954,-0.00000003,-0.00000289,-0.00003
 211,-0.00001266,0.00001494,-0.00000786,0.00000265,0.00911895,0.0055125
 5,0.00444777,0.21032137,0.00118791,-0.00137874,-0.00086828,0.00257892,
 0.00124402,0.00189598,-0.00043754,0.00073486,0.00085415,0.00016954,-0.
 00013057,0.00010049,-0.00019714,0.00003075,-0.00006610,0.00007535,-0.0
 0000824,-0.00000796,0.00014284,-0.00003140,0.00001984,-0.00000816,-0.0
 0003012,-0.00008768,-0.00003386,0.00006588,0.00004158,0.00015894,-0.00
 004402,-0.00008104,-0.00005583,-0.00022357,-0.00002621,-0.00035257,0.0
 0010263,-0.00007042,0.00008455,0.00000032,-0.00013114,-0.11000730,-0.1
 2151475,-0.05445185,0.01013376,0.00619268,0.00415544,0.00202667,-0.000
 12513,0.00397179,-0.00044868,-0.00035250,0.00038161,0.00004359,0.00001
 451,-0.00001920,-0.00000786,0.00000479,0.00000569,-0.00000231,0.000005
 41,0.00000756,-0.00000411,-0.00000744,0.00000885,-0.00001974,-0.000003
 12,0.00001476,0.00000906,0.00006202,0.00003099,-0.00005906,-0.00000781
 ,-0.00003075,-0.02367578,-0.01630691,-0.01170905,0.11790694,0.13082613
 ,0.00170525,-0.00257904,-0.00211865,0.01397751,0.01403945,0.01275841,-
 0.00056666,-0.00103937,-0.00230379,-0.00045043,-0.00017560,0.00006385,
 0.00032646,0.00000852,0.00018267,-0.00004411,0.00001803,-0.00014539,-0
 .00014417,-0.00004123,-0.00012056,0.00003832,-0.00006781,-0.00008832,-
 0.00002648,-0.00006929,0.00000472,0.00004216,0.00002050,-0.00006849,0.
 00001517,-0.00031550,0.00014183,-0.00019888,0.00007096,-0.00010157,0.0
 0008498,-0.00003305,0.00013506,-0.07120499,-0.05056945,-0.08362220,-0.
 02255367,-0.01646590,-0.00997332,-0.00148339,0.00252388,-0.00653806,0.
 00033708,0.00036036,-0.00025349,-0.00002486,-0.00001770,0.00001793,0.0
 0001993,0.00000956,-0.00001132,0.00001064,0.00005123,0.00000370,0.0000
 1173,0.00003481,0.00000661,-0.00000813,-0.00000191,-0.00002182,-0.0000
 0088,0.00000392,0.00000353,0.00000505,-0.00000544,0.00000568,-0.001562
 27,-0.00160676,-0.00100313,0.08194822,0.05618829,0.09205913,0.00099302
 ,-0.00023008,0.00074040,-0.00183253,0.00124854,-0.00202082,0.00095734,
 0.00007830,-0.00038517,-0.00017891,0.00006707,-0.00011502,0.00006160,0
 .00003203,0.00007326,0.00001492,-0.00000115,-0.00007722,-0.00000440,0.
 00000337,-0.00003933,0.00002475,-0.00003185,-0.00005346,-0.00000958,-0
 .00003407,-0.00005289,-0.00003785,0.00003786,-0.00006654,-0.00000882,-
 0.00029305,0.00010114,-0.00008189,0.00001682,0.00000284,0.00011619,-0.
 00003423,0.00012136,0.00861401,-0.00191467,-0.00542425,-0.18378586,0.0
 4699385,0.12296893,-0.02880299,0.00544492,0.01742303,0.00002878,-0.000
 02940,0.00005175,0.00000420,-0.00000190,0.00000011,0.00000236,-0.00000
 473,0.00000061,0.00000405,0.00002251,0.00000398,0.00000220,0.00000953,
 0.00000754,0.00005312,0.00001768,-0.00003493,0.00000329,-0.00003928,0.
 00000835,0.00000392,-0.00000158,-0.00000022,0.00046045,-0.00020325,0.0
 0012321,0.00011870,-0.00029898,0.00066602,0.20603797,-0.00008624,0.000
 83517,-0.00076802,0.00255310,-0.00083159,0.00273033,-0.00087266,-0.000
 24956,0.00045439,0.00011440,-0.00015111,0.00002884,-0.00004710,-0.0000
 3081,-0.00000315,0.00000627,0.00000356,0.00002034,0.00000458,-0.000002
 92,0.00000093,-0.00004483,0.00000751,0.00005668,0.00004636,-0.00002749
 ,-0.00002746,-0.00004389,0.00006686,-0.00007429,0.00006612,-0.00004727
 ,-0.00002972,0.00006253,0.00000797,0.00005080,0.00002377,-0.00000607,0
 .00006896,-0.00967500,0.00261684,0.01104507,0.05315347,-0.07109263,-0.
 05007365,-0.01511170,0.00334022,0.00979907,-0.00003265,0.00005632,0.00
 000475,-0.00000833,0.00000579,-0.00000532,-0.00000325,0.00000496,0.000
 00672,-0.00000295,-0.00002136,-0.00001168,-0.00000218,-0.00000596,-0.0
 0000413,0.00003416,-0.00000193,-0.00001922,-0.00002375,-0.00007741,0.0
 0000057,-0.00000533,-0.00000612,0.00001724,-0.00073504,0.00063217,-0.0
 0030591,0.00014392,0.00020942,-0.00048457,-0.05094246,0.07032051,0.000
 42230,-0.00010396,0.00094623,-0.00471300,0.00199419,-0.00329263,0.0020
 0817,0.00036911,-0.00108868,-0.00048214,0.00012506,-0.00010989,0.00014
 824,0.00007454,0.00019705,0.00002771,-0.00000097,-0.00017720,-0.000029
 80,0.00000936,-0.00010730,0.00006391,-0.00003225,-0.00009652,-0.000028
 44,-0.00003189,-0.00004957,0.00002145,0.00001071,-0.00004099,-0.000039
 51,-0.00019153,0.00011994,-0.00011163,0.00005123,-0.00007264,0.0000875
 6,-0.00003434,0.00009518,0.02074111,-0.00668162,-0.01918538,0.13173786
 ,-0.04762652,-0.17072690,-0.01544614,0.00360795,0.01058038,0.00010964,
 -0.00013689,0.00007571,-0.00000394,0.00000120,0.00001336,0.00000575,-0
 .00000998,0.00000601,0.00000920,0.00004848,0.00001642,0.00000449,0.000
 02591,0.00001423,0.00000530,0.00000891,-0.00002737,0.00001329,0.000033
 62,0.00001143,0.00001182,-0.00000783,-0.00001515,0.00017699,0.00019103
 ,0.00149144,-0.00015709,-0.00041927,0.00040315,-0.13276203,0.04933906,
 0.18123279,0.00043808,0.00048345,0.00019879,-0.00056451,-0.00048861,0.
 00041599,0.00008614,0.00016505,-0.00048927,-0.00017850,-0.00006184,0.0
 0011953,-0.00001704,0.00003029,0.00009974,0.00003528,0.00000355,-0.000
 08300,0.00002057,-0.00000217,-0.00006646,0.00005840,-0.00005300,-0.000
 06268,0.00001264,-0.00007341,0.00004354,0.00022168,-0.00010918,-0.0002
 8441,0.00000155,-0.00142894,0.00054817,-0.00047899,0.00024395,-0.00017
 549,0.00024294,-0.00001991,0.00051453,-0.00116954,0.00728961,-0.000738
 38,-0.05366977,0.03825956,0.00393856,-0.00731005,-0.04166753,-0.004251
 16,0.00005971,0.00001176,0.00009036,0.00001795,-0.00000078,0.00000389,
 -0.00000151,-0.00000330,0.00000960,0.00000733,0.00003127,0.00001126,-0
 .00000352,0.00001675,0.00001923,-0.00000950,0.00000349,-0.00003031,-0.
 00002087,-0.00008797,-0.00000868,-0.00002314,-0.00000778,0.00003438,0.
 00064709,0.00039744,-0.00183691,0.00044724,0.00045800,-0.00023990,-0.0
 0018859,0.02302693,-0.00028211,0.06314829,-0.00037807,0.00100351,-0.00
 054593,0.00115820,-0.00060003,0.00012790,-0.00017098,0.00014074,-0.000
 17610,-0.00002143,0.00003679,0.00004723,0.00000037,0.00000521,0.000004
 52,-0.00000107,0.00000174,-0.00000182,0.00000038,0.00000457,-0.0000081
 4,0.00001838,-0.00000657,-0.00003231,0.00000034,-0.00001991,0.00000776
 ,0.00005042,0.00001540,-0.00003816,0.00004493,-0.00024635,0.00007442,-
 0.00010070,0.00006190,0.00000791,0.00003297,-0.00001916,0.00003691,0.0
 0275877,-0.00930396,0.00173457,0.02703961,-0.31840778,-0.00735699,-0.0
 0339341,-0.01157356,-0.00201913,-0.00002890,-0.00004755,-0.00010647,-0
 .00001866,0.00000344,0.00000427,0.00000055,-0.00000146,-0.00000021,0.0
 0000137,0.00001030,0.00000460,0.00000196,0.00000769,0.00000444,-0.0000
 0603,-0.00000214,-0.00000928,0.00000278,0.00001131,0.00000566,0.000000
 08,0.00001157,-0.00000070,0.00031308,0.00098104,0.00162955,0.00005337,
 0.00083063,0.00004983,0.00138212,-0.00553768,-0.00006057,-0.02745979,0
 .34128434,0.00114386,-0.00097351,0.00045844,-0.00183200,0.00156389,0.0
 0050177,0.00041573,-0.00044286,-0.00013464,0.00000118,-0.00019603,-0.0
 0004192,-0.00001321,0.00001715,-0.00003000,0.00001160,-0.00000649,-0.0
 0000948,0.00003257,-0.00001788,0.00001211,-0.00000880,0.00000230,0.000
 02680,-0.00003049,-0.00001218,0.00006045,0.00004754,-0.00004334,-0.000
 11722,-0.00002457,-0.00055865,0.00019295,-0.00008575,0.00009220,-0.000
 19128,0.00011298,-0.00000144,0.00030765,-0.00497732,0.03166351,-0.0002
 6667,0.00222821,-0.00576980,-0.05101384,-0.00284287,-0.01478852,-0.000
 91427,-0.00000547,0.00010539,0.00031505,0.00004842,0.00003375,-0.00004
 775,0.00000030,0.00000478,-0.00000669,-0.00000050,-0.00000601,-0.00000
 110,-0.00000284,-0.00000680,0.00000672,0.00001425,0.00000131,-0.000005
 16,-0.00001693,-0.00003680,-0.00002268,-0.00003072,-0.00002179,0.00001
 873,-0.00057598,0.00178807,-0.00553723,0.00014935,-0.00029730,0.001663
 77,0.00150216,-0.02119334,0.00032594,0.00549532,0.00805396,0.05500472,
 -0.00029704,-0.00087339,0.00107885,0.00066934,0.00056423,-0.00114744,-
 0.00011031,-0.00050458,0.00055418,0.00024976,0.00007191,-0.00016380,0.
 00010333,-0.00004115,0.00007416,-0.00004474,-0.00001819,0.00003177,-0.
 00011676,-0.00001235,-0.00000902,-0.00002330,0.00026425,0.00015757,0.0
 0005194,0.00024837,0.00068545,-0.00082172,-0.00209681,0.00262725,-0.00
 757314,0.00444294,0.00153661,0.00193320,0.00041361,-0.00256070,-0.0017
 4889,0.00126459,-0.00191150,0.00168830,0.00041991,0.00050723,0.0006703
 6,-0.03117102,0.00065827,-0.06194248,-0.00727102,-0.00260980,-0.000008
 76,0.00006062,-0.00003745,-0.00001088,0.00001925,-0.00000537,0.0000009
 8,0.00001887,0.00001196,-0.00000842,-0.00007848,-0.00002303,0.00000136
 ,-0.00004547,-0.00006100,-0.00022379,-0.00002881,0.00023718,-0.0000351
 8,0.00035137,-0.00001027,0.00003562,-0.00015882,-0.00024711,-0.0003716
 1,0.00050387,-0.00042527,0.00005019,0.00011484,0.00048606,0.00052093,-
 0.00005826,0.00078096,-0.00511005,-0.00114453,-0.00173785,0.07030695,0
 .00187002,-0.00196977,0.00532625,-0.00147621,0.00437462,-0.00552918,-0
 .00042820,-0.00300586,0.00325991,0.00119494,0.00039058,-0.00135219,0.0
 0036387,-0.00035899,0.00070039,-0.00005861,-0.00008492,-0.00005164,-0.
 00053394,-0.00005349,-0.00016502,-0.00087604,0.00046439,0.00082734,-0.
 00198636,0.00160080,-0.00306822,-0.00581085,0.00249107,0.00513506,0.00
 451828,0.01290583,-0.00199281,0.00854512,-0.00656652,0.00434946,-0.001
 34218,0.00015811,-0.00854060,0.00016755,0.00211469,-0.00066565,-0.0100
 6131,-0.00307082,-0.00502034,-0.00407270,-0.29715177,0.00404536,-0.000
 03867,0.00046573,0.00004193,-0.00006851,0.00005318,-0.00008642,-0.0000
 1541,0.00011809,0.00008787,-0.00001959,-0.00036310,-0.00019055,-0.0000
 0782,-0.00021726,-0.00028415,0.00146951,0.00070915,-0.00037033,0.00041
 074,0.00106431,-0.00007174,0.00041342,-0.00053901,-0.00041227,0.000320
 83,-0.00018320,0.00023195,0.00019670,-0.00054819,0.00082901,0.00098188
 ,0.00061449,0.00070593,0.00205020,0.00168991,0.00121321,0.00039086,0.2
 9945424,-0.00024689,0.00129969,-0.00159797,0.00012211,-0.00139270,-0.0
 0016656,0.00001477,0.00070615,-0.00049787,-0.00011623,-0.00008470,0.00
 024069,-0.00008363,0.00009737,-0.00049192,-0.00005871,0.00001995,0.000
 19406,0.00015948,0.00000143,0.00019924,0.00005011,-0.00006987,-0.00038
 515,0.00084189,-0.00054718,-0.00047490,0.00179749,0.00178524,-0.004556
 21,0.00034216,-0.00533180,-0.00328195,-0.00291345,0.00175834,-0.002650
 40,0.00086273,0.00022410,0.00284916,0.00024848,-0.00114682,0.00033674,
 0.00293000,-0.01166472,0.00060808,-0.00274652,-0.00281365,-0.06607440,
 -0.00006594,-0.00011052,-0.00010187,0.00001431,-0.00001964,0.00001098,
 0.00001271,-0.00003195,-0.00005703,-0.00000540,0.00009574,0.00008616,0
 .00001667,0.00001737,0.00002680,-0.00000835,-0.00014786,0.00014196,-0.
 00021828,-0.00039476,0.00013353,-0.00009609,0.00035823,-0.00011522,-0.
 00051014,0.00025186,-0.00008156,0.00000832,0.00033341,-0.00011196,0.00
 038524,0.00075635,0.00008351,-0.00291377,-0.00087614,-0.00066185,0.003
 51822,0.00596845,0.06978165,0.00131925,0.00051259,0.00346668,-0.002301
 86,0.00111770,0.00009431,0.00026574,-0.00047342,0.00037563,0.00013031,
 0.00000726,-0.00003141,0.00002358,-0.00001031,-0.00012653,-0.00003488,
 0.00000027,0.00007291,0.00000053,0.00000337,0.00006193,-0.00000163,0.0
 0001782,-0.00000287,-0.00013467,0.00003172,-0.00002567,0.00008923,-0.0
 0027248,0.00005466,-0.00028635,-0.00050707,0.00013623,-0.00008755,0.00
 003814,-0.00014422,0.00006915,0.00002177,0.00007768,-0.00554751,-0.003
 97885,-0.00079317,-0.00467602,0.01265074,-0.02953578,-0.07058511,0.024
 42299,-0.06579028,-0.00004453,-0.00009503,0.00005076,0.00002369,0.0000
 1975,-0.00002750,0.00000479,-0.00000175,-0.00001051,-0.00000436,-0.000
 00965,0.00000579,-0.00000211,-0.00000520,0.00000158,0.00010466,0.00002
 352,0.00010346,-0.00000179,0.00001620,-0.00001609,0.00000452,0.0000306
 7,-0.00000759,0.00004368,-0.00000073,0.00022005,-0.00021595,0.00079789
 ,-0.00167732,0.00028409,0.00106183,0.00049696,0.00136294,-0.00025358,0
 .00033203,-0.00053890,0.00126994,0.00146191,0.07051207,-0.00004360,-0.
 00040931,-0.00208876,0.00032923,-0.00062458,0.00057634,0.00004916,0.00
 028802,-0.00033120,-0.00013108,-0.00000472,0.00006129,-0.00003049,0.00
 001767,0.00012727,0.00004114,-0.00000656,-0.00008334,0.00001037,-0.000
 00266,-0.00006765,0.00001829,-0.00000361,-0.00001721,0.00013994,-0.000
 01591,-0.00011217,0.00008678,-0.00012204,-0.00035389,-0.00073550,-0.00
 249617,0.00008085,-0.00047122,0.00010782,-0.00044438,0.00011618,0.0001
 1024,0.00040704,-0.00208529,-0.00122715,-0.00049834,-0.00099313,0.0054
 3090,-0.01338976,0.02448128,-0.09982093,0.11321795,-0.00000518,-0.0000
 1319,0.00004824,-0.00000179,-0.00000119,0.00001546,-0.00000412,0.00000
 505,0.00001249,0.00000191,0.00001778,0.00000581,-0.00000138,0.00000723
 ,-0.00000221,-0.00002349,0.00001191,0.00006187,-0.00002661,-0.00006675
 ,0.00002991,0.00001462,0.00005033,-0.00000544,-0.00015199,0.00002411,-
 0.00005727,-0.00022011,0.00040688,-0.00059970,0.00046171,0.00041091,0.
 00033909,0.00002585,-0.00020980,-0.00071756,0.00802856,-0.00322677,0.0
 3435496,-0.02280169,0.09614669,-0.00027821,-0.00047267,-0.00146799,0.0
 0109033,-0.00054591,0.00003119,-0.00017721,0.00015186,0.00012088,0.000
 06259,0.00001706,0.00003959,-0.00001032,0.00001226,-0.00018666,-0.0000
 4190,-0.00000062,0.00010834,0.00002153,-0.00001071,0.00009020,0.000026
 46,-0.00000274,-0.00002803,0.00006847,-0.00004542,0.00002126,0.0000241
 8,-0.00002540,-0.00016366,-0.00032864,-0.00115643,0.00019420,-0.000324
 55,0.00020561,-0.00016610,0.00012386,-0.00004146,0.00030072,-0.0006081
 9,-0.00093976,0.00096788,-0.00256262,0.00113276,-0.00588424,-0.0637905
 7,0.11041515,-0.36176179,-0.00005099,0.00001405,-0.00004379,-0.0000065
 1,-0.00000736,-0.00000229,0.00000610,-0.00000057,-0.00002424,-0.000001
 21,0.00001093,0.00000708,0.00000490,-0.00000440,0.00001098,0.00003447,
 0.00000797,-0.00003964,-0.00000385,-0.00001046,0.00003302,-0.00001629,
 0.00005100,0.00000010,-0.00010378,-0.00004436,0.00008136,0.00018049,0.
 00025189,-0.00007637,0.00064351,0.00022781,0.00099924,0.00046059,-0.00
 030143,0.00018664,0.00186859,0.00160072,0.00249089,0.07133082,-0.11987
 590,0.38103869,-0.00739634,0.00107476,0.00425170,0.00204692,-0.0005089
 9,-0.00436643,-0.00119567,0.00053275,-0.00034364,0.00005716,-0.0000864
 1,0.00012045,0.00010136,-0.00000993,0.00002546,-0.00005039,0.00000975,
 0.00002053,-0.00007722,0.00000211,-0.00002909,0.00006793,-0.00002015,-
 0.00001238,-0.00004152,0.00003525,0.00033449,0.00105219,-0.00075776,-0
 .00028450,-0.00056824,-0.00126624,0.00047485,-0.00073639,0.00044501,-0
 .00037335,-0.00017315,0.00013682,0.00035008,0.00022716,0.00132673,0.00
 023138,-0.03279867,0.00729227,0.01677156,-0.19753364,0.07225841,0.1331
 6060,0.00015035,0.00021313,-0.00008293,0.00005570,0.00000650,0.0000098
 8,0.00000629,-0.00000129,0.00000404,-0.00000289,-0.00000698,0.00003286
 ,-0.00001816,0.00000998,-0.00000332,-0.00040500,-0.00058218,0.00031981
 ,-0.00001455,0.00003026,-0.00002322,-0.00001457,0.00004910,0.00004253,
 -0.00007226,-0.00009491,0.00022856,0.00012869,-0.00027988,0.00051154,-
 0.00337447,-0.00260180,-0.00281689,0.00193774,0.00011750,0.00064980,0.
 00270369,0.00263254,-0.00280319,0.01022499,-0.00607833,-0.00764204,0.2
 2571296,0.00372385,-0.00630772,0.00188735,-0.00445875,0.00300709,0.001
 05530,0.00170248,-0.00127999,0.00110735,0.00026555,0.00011388,-0.00034
 550,0.00008648,-0.00008893,-0.00000064,-0.00003203,-0.00003004,0.00004
 401,-0.00007598,-0.00000709,0.00007781,-0.00009051,0.00018456,0.000365
 71,0.00045413,0.00015737,0.00068563,0.00024691,-0.00056750,0.00047418,
 -0.00087978,0.00076305,-0.00010731,0.00047920,-0.00013934,-0.00004321,
 -0.00099720,0.00037975,-0.00061096,0.00155534,-0.00036110,-0.00030866,
 -0.01099090,0.00561951,0.00919878,0.07449045,-0.09384615,-0.06122628,-
 0.00006773,-0.00005995,0.00032683,0.00004678,0.00005508,-0.00008688,-0
 .00000026,0.00003005,0.00000089,-0.00002072,-0.00009112,-0.00004550,-0
 .00000683,-0.00005393,-0.00006804,-0.00080169,-0.00027090,0.00032000,-
 0.00000640,0.00006836,-0.00002891,0.00002042,-0.00003251,0.00007386,0.
 00030053,-0.00005718,0.00001943,0.00001477,-0.00001844,-0.00013600,-0.
 00273754,-0.00104279,-0.00159778,-0.00103297,-0.00012413,0.00055076,0.
 02632480,-0.01132951,-0.02339634,-0.01363439,0.00521579,0.00938652,-0.
 07387803,0.10011383,0.01722016,-0.00429738,0.00872020,-0.02226445,0.01
 317533,-0.00792861,0.00451649,-0.00600538,0.00580445,0.00161900,0.0002
 6887,-0.00135400,0.00022531,-0.00024187,-0.00141393,-0.00035697,-0.000
 03202,0.00086314,-0.00000986,-0.00003084,0.00085326,-0.00052544,0.0004
 2645,0.00063413,-0.00007916,0.00041345,-0.00018906,-0.00081052,0.00038
 444,0.00063544,0.00028949,0.00310628,-0.00143362,0.00171103,-0.0009236
 8,0.00093672,-0.00049932,0.00003757,-0.00155193,0.00144760,-0.00036309
 ,0.00056411,-0.00344134,0.00594912,0.01326312,0.12719962,-0.05505498,-
 0.17308837,-0.00068346,-0.00043739,0.00040630,0.00009706,0.00016134,-0
 .00032841,0.00003091,0.00002751,-0.00013269,-0.00008443,-0.00028106,-0
 .00010897,0.00002074,-0.00015842,-0.00008884,0.00048360,0.00042128,0.0
 0034704,0.00000282,0.00002944,0.00003685,0.00002441,0.00009711,-0.0000
 1701,0.00041491,-0.00002048,-0.00049865,0.00056263,0.00000393,-0.00089
 161,-0.00379154,-0.00160744,-0.00162176,-0.00054099,-0.00026016,-0.000
 07997,-0.00386468,-0.00652174,0.00412336,0.01984555,-0.01069380,-0.016
 87746,-0.13875915,0.06242760,0.17041679\\-0.00000042,0.00000112,0.0000
 0029,0.00000145,0.00000044,0.00000025,-0.00000010,-0.00000016,0.000000
 58,-0.00000082,0.00000018,-0.00000064,-0.00000034,-0.00000034,-0.00000
 038,-0.00000019,-0.00000024,0.00000030,0.00000085,-0.00000004,0.000000
 48,0.00000136,-0.00000061,0.00000023,-0.00000023,-0.00000040,-0.000000
 10,-0.00000013,-0.00000041,-0.00000054,-0.00000038,-0.00000067,-0.0000
 0023,0.00000035,-0.00000066,-0.00000037,-0.00000011,0.,0.00000028,-0.0
 0000029,0.00000017,-0.00000004,-0.00000033,0.00000024,-0.00000013,0.00
 000101,0.00000115,-0.00000056,0.00000021,-0.00000054,-0.00000034,-0.00
 000030,-0.00000026,0.00000010,0.00000012,-0.00000056,0.00000023,-0.000
 00001,-0.00000023,-0.00000008,0.,-0.00000043,-0.00000018,-0.00000011,-
 0.00000003,0.00000001,0.00000024,0.00000010,-0.00000033,0.00000039,0.,
 -0.00000012,0.00000022,0.00000036,0.00000002,-0.00000026,0.00000039,0.
 00000043,0.,0.00000042,-0.00000009,-0.00000009,0.00000044,0.00000017,-
 0.00000065,0.,0.00000063,-0.00000019,0.00000044,-0.00000005,-0.0000012
 7,0.00000011,0.00000017\\\@


 LET US PLACE AT THE END OF EVERY CHAPTER.....THE
 TWO LETTERS USED BY THE ROMAN JUDGES WHEN THEY DID
 NOT UNDERSTAND A PLEADING.
 N. L. -NON LIQUET- IT IS NOT CLEAR.
                                              -- VOLTAIRE
 Job cpu time:       1 days  7 hours  5 minutes 49.9 seconds.
 File lengths (MBytes):  RWF=   1351 Int=      0 D2E=      0 Chk=     46 Scr=      1
 Normal termination of Gaussian 09 at Thu Jul 29 12:15:44 2021.
