 Entering Gaussian System, Link 0=g09
 Input=opt_freq-conf-719.com
 Output=opt_freq-conf-719.log
 Initial command:
 /aerosol/software/g09/l1.exe "/scratch/nicole/10484/Gau-72541.inp" -scrdir="/scratch/nicole/10484/"
 Entering Link 1 = /aerosol/software/g09/l1.exe PID=     72545.
  
 Copyright (c) 1988,1990,1992,1993,1995,1998,2003,2009,2013,
            Gaussian, Inc.  All Rights Reserved.
  
 This is part of the Gaussian(R) 09 program.  It is based on
 the Gaussian(R) 03 system (copyright 2003, Gaussian, Inc.),
 the Gaussian(R) 98 system (copyright 1998, Gaussian, Inc.),
 the Gaussian(R) 94 system (copyright 1995, Gaussian, Inc.),
 the Gaussian 92(TM) system (copyright 1992, Gaussian, Inc.),
 the Gaussian 90(TM) system (copyright 1990, Gaussian, Inc.),
 the Gaussian 88(TM) system (copyright 1988, Gaussian, Inc.),
 the Gaussian 86(TM) system (copyright 1986, Carnegie Mellon
 University), and the Gaussian 82(TM) system (copyright 1983,
 Carnegie Mellon University). Gaussian is a federally registered
 trademark of Gaussian, Inc.
  
 This software contains proprietary and confidential information,
 including trade secrets, belonging to Gaussian, Inc.
  
 This software is provided under written license and may be
 used, copied, transmitted, or stored only in accord with that
 written license.
  
 The following legend is applicable only to US Government
 contracts under FAR:
  
                    RESTRICTED RIGHTS LEGEND
  
 Use, reproduction and disclosure by the US Government is
 subject to restrictions as set forth in subparagraphs (a)
 and (c) of the Commercial Computer Software - Restricted
 Rights clause in FAR 52.227-19.
  
 Gaussian, Inc.
 340 Quinnipiac St., Bldg. 40, Wallingford CT 06492
  
  
 ---------------------------------------------------------------
 Warning -- This program may not be used in any manner that
 competes with the business of Gaussian, Inc. or will provide
 assistance to any competitor of Gaussian, Inc.  The licensee
 of this program is prohibited from giving any competitor of
 Gaussian, Inc. access to this program.  By using this program,
 the user acknowledges that Gaussian, Inc. is engaged in the
 business of creating and licensing software in the field of
 computational chemistry and represents and warrants to the
 licensee that it is not a competitor of Gaussian, Inc. and that
 it will not use this program in any manner prohibited above.
 ---------------------------------------------------------------
  

 Cite this work as:
 Gaussian 09, Revision D.01,
 M. J. Frisch, G. W. Trucks, H. B. Schlegel, G. E. Scuseria, 
 M. A. Robb, J. R. Cheeseman, G. Scalmani, V. Barone, B. Mennucci, 
 G. A. Petersson, H. Nakatsuji, M. Caricato, X. Li, H. P. Hratchian, 
 A. F. Izmaylov, J. Bloino, G. Zheng, J. L. Sonnenberg, M. Hada, 
 M. Ehara, K. Toyota, R. Fukuda, J. Hasegawa, M. Ishida, T. Nakajima, 
 Y. Honda, O. Kitao, H. Nakai, T. Vreven, J. A. Montgomery, Jr., 
 J. E. Peralta, F. Ogliaro, M. Bearpark, J. J. Heyd, E. Brothers, 
 K. N. Kudin, V. N. Staroverov, T. Keith, R. Kobayashi, J. Normand, 
 K. Raghavachari, A. Rendell, J. C. Burant, S. S. Iyengar, J. Tomasi, 
 M. Cossi, N. Rega, J. M. Millam, M. Klene, J. E. Knox, J. B. Cross, 
 V. Bakken, C. Adamo, J. Jaramillo, R. Gomperts, R. E. Stratmann, 
 O. Yazyev, A. J. Austin, R. Cammi, C. Pomelli, J. W. Ochterski, 
 R. L. Martin, K. Morokuma, V. G. Zakrzewski, G. A. Voth, 
 P. Salvador, J. J. Dannenberg, S. Dapprich, A. D. Daniels, 
 O. Farkas, J. B. Foresman, J. V. Ortiz, J. Cioslowski, 
 and D. J. Fox, Gaussian, Inc., Wallingford CT, 2013.
 
 ******************************************
 Gaussian 09:  ES64L-G09RevD.01 24-Apr-2013
                24-Jul-2021 
 ******************************************
 %mem=2gb
 %nproc=4
 Will use up to    4 processors via shared memory.
 %chk=conf-719.chk
 ----------------------------------------------------------------------
 # B3LYP/6-311++G(2df,2pd) EmpiricalDispersion=GD3BJ opt=calcfc freq=no
 raman nosymm integral(ultrafinegrid)
 ----------------------------------------------------------------------
 1/10=4,14=-1,18=20,19=15,26=4,38=1/1,3;
 2/9=110,12=2,15=1,17=6,18=5,40=1/2;
 3/5=4,6=6,7=1414,11=2,16=1,25=1,30=1,71=2,74=-5,75=-5,124=41,140=1/1,2,3;
 4//1;
 5/5=2,38=5/2;
 8/6=4,10=90,11=11/1;
 11/6=1,8=1,9=11,15=111,16=1,31=1/1,2,10;
 10/6=1,13=1,31=1/2;
 6/7=2,8=2,9=2,10=2,28=1/1;
 7/10=1,18=20,25=1,30=1/1,2,3,16;
 1/10=4,14=-1,18=20,19=15,26=4/3(2);
 2/9=110,15=1/2;
 99//99;
 2/9=110,15=1/2;
 3/5=4,6=6,7=1414,11=2,16=1,25=1,30=1,71=1,74=-5,75=-5,124=41/1,2,3;
 4/5=5,16=3,69=1/1;
 5/5=2,38=5/2;
 7/30=1/1,2,3,16;
 1/14=-1,18=20,19=15,26=4/3(-5);
 2/9=110,15=1/2;
 6/7=2,8=2,9=2,10=2,19=2,28=1/1;
 99/9=1/99;
 ------------------------------------------------------------
 Candidate Structure: Conf:719 OPT and FREQ calc in gas phase
 ------------------------------------------------------------
 Symbolic Z-matrix:
 Charge =  1 Multiplicity = 1
 O                    -0.72005  -0.63766   1.42408 
 C                    -1.30854  -0.35072   0.39193 
 N                    -0.64886   0.02779  -0.73425 
 C                     0.78942   0.22717  -0.70361 
 C                     1.13934   1.06531  -1.91425 
 O                     2.46404   1.31793  -2.00859 
 O                     0.34195   1.46947  -2.71894 
 C                     1.53736  -1.12922  -0.66353 
 C                     2.755    -1.09635   0.19636 
 C                     3.09564  -1.82049   1.30301 
 N                     4.33164  -1.42286   1.78318 
 C                     4.71835  -0.46405   0.97732 
 N                     3.79481  -0.22334   0.00813 
 C                    -2.81985  -0.36212   0.28429 
 C                    -3.40988   0.91549   0.86784 
 N                    -4.89591   0.90764   0.82254 
 H                    -1.13699   0.44142  -1.51384 
 H                     1.02385   0.8044    0.19829 
 H                     2.57954   1.86672  -2.79947 
 H                     0.86206  -1.86744  -0.23474 
 H                     1.76766  -1.4608   -1.67591 
 H                     2.52688  -2.60269   1.78513 
 H                     5.63852   0.08929   1.03276 
 H                     3.82338   0.4747   -0.71798 
 H                    -3.18715  -1.21463   0.85492 
 H                    -3.13759  -0.46911  -0.75496 
 H                    -3.04499   1.77791   0.30734 
 H                    -3.07045   1.02624   1.89791 
 H                    -5.2757    0.11714   1.34345 
 H                    -5.29549   1.75648   1.22538 
 H                    -5.23775   0.83645  -0.1361 
 

 GradGradGradGradGradGradGradGradGradGradGradGradGradGradGradGradGradGrad
 Berny optimization.
 Initialization pass.
                           ----------------------------
                           !    Initial Parameters    !
                           ! (Angstroms and Degrees)  !
 --------------------------                            --------------------------
 ! Name  Definition              Value          Derivative Info.                !
 --------------------------------------------------------------------------------
 ! R1    R(1,2)                  1.2223         calculate D2E/DX2 analytically  !
 ! R2    R(2,3)                  1.3589         calculate D2E/DX2 analytically  !
 ! R3    R(2,14)                 1.5152         calculate D2E/DX2 analytically  !
 ! R4    R(3,4)                  1.4524         calculate D2E/DX2 analytically  !
 ! R5    R(3,17)                 1.0085         calculate D2E/DX2 analytically  !
 ! R6    R(4,5)                  1.5135         calculate D2E/DX2 analytically  !
 ! R7    R(4,8)                  1.5495         calculate D2E/DX2 analytically  !
 ! R8    R(4,18)                 1.0962         calculate D2E/DX2 analytically  !
 ! R9    R(5,6)                  1.3519         calculate D2E/DX2 analytically  !
 ! R10   R(5,7)                  1.2028         calculate D2E/DX2 analytically  !
 ! R11   R(6,19)                 0.9695         calculate D2E/DX2 analytically  !
 ! R12   R(8,9)                  1.491          calculate D2E/DX2 analytically  !
 ! R13   R(8,20)                 1.0885         calculate D2E/DX2 analytically  !
 ! R14   R(8,21)                 1.0899         calculate D2E/DX2 analytically  !
 ! R15   R(9,10)                 1.3657         calculate D2E/DX2 analytically  !
 ! R16   R(9,13)                 1.3707         calculate D2E/DX2 analytically  !
 ! R17   R(10,11)                1.3843         calculate D2E/DX2 analytically  !
 ! R18   R(10,22)                1.0806         calculate D2E/DX2 analytically  !
 ! R19   R(11,12)                1.3108         calculate D2E/DX2 analytically  !
 ! R20   R(12,13)                1.3602         calculate D2E/DX2 analytically  !
 ! R21   R(12,23)                1.0752         calculate D2E/DX2 analytically  !
 ! R22   R(13,24)                1.0076         calculate D2E/DX2 analytically  !
 ! R23   R(14,15)                1.5235         calculate D2E/DX2 analytically  !
 ! R24   R(14,25)                1.0896         calculate D2E/DX2 analytically  !
 ! R25   R(14,26)                1.092          calculate D2E/DX2 analytically  !
 ! R26   R(15,16)                1.4867         calculate D2E/DX2 analytically  !
 ! R27   R(15,27)                1.0914         calculate D2E/DX2 analytically  !
 ! R28   R(15,28)                1.0902         calculate D2E/DX2 analytically  !
 ! R29   R(16,29)                1.02           calculate D2E/DX2 analytically  !
 ! R30   R(16,30)                1.021          calculate D2E/DX2 analytically  !
 ! R31   R(16,31)                1.0202         calculate D2E/DX2 analytically  !
 ! A1    A(1,2,3)              122.1047         calculate D2E/DX2 analytically  !
 ! A2    A(1,2,14)             122.5785         calculate D2E/DX2 analytically  !
 ! A3    A(3,2,14)             115.3041         calculate D2E/DX2 analytically  !
 ! A4    A(2,3,4)              120.0984         calculate D2E/DX2 analytically  !
 ! A5    A(2,3,17)             121.3245         calculate D2E/DX2 analytically  !
 ! A6    A(4,3,17)             116.06           calculate D2E/DX2 analytically  !
 ! A7    A(3,4,5)              106.7453         calculate D2E/DX2 analytically  !
 ! A8    A(3,4,8)              111.0018         calculate D2E/DX2 analytically  !
 ! A9    A(3,4,18)             107.5444         calculate D2E/DX2 analytically  !
 ! A10   A(5,4,8)              113.1954         calculate D2E/DX2 analytically  !
 ! A11   A(5,4,18)             108.4867         calculate D2E/DX2 analytically  !
 ! A12   A(8,4,18)             109.6613         calculate D2E/DX2 analytically  !
 ! A13   A(4,5,6)              112.698          calculate D2E/DX2 analytically  !
 ! A14   A(4,5,7)              124.6084         calculate D2E/DX2 analytically  !
 ! A15   A(6,5,7)              122.6933         calculate D2E/DX2 analytically  !
 ! A16   A(5,6,19)             106.227          calculate D2E/DX2 analytically  !
 ! A17   A(4,8,9)              112.9434         calculate D2E/DX2 analytically  !
 ! A18   A(4,8,20)             107.7227         calculate D2E/DX2 analytically  !
 ! A19   A(4,8,21)             110.1385         calculate D2E/DX2 analytically  !
 ! A20   A(9,8,20)             107.1225         calculate D2E/DX2 analytically  !
 ! A21   A(9,8,21)             111.7052         calculate D2E/DX2 analytically  !
 ! A22   A(20,8,21)            106.8981         calculate D2E/DX2 analytically  !
 ! A23   A(8,9,10)             131.2491         calculate D2E/DX2 analytically  !
 ! A24   A(8,9,13)             123.6667         calculate D2E/DX2 analytically  !
 ! A25   A(10,9,13)            105.0567         calculate D2E/DX2 analytically  !
 ! A26   A(9,10,11)            110.5779         calculate D2E/DX2 analytically  !
 ! A27   A(9,10,22)            127.8827         calculate D2E/DX2 analytically  !
 ! A28   A(11,10,22)           121.5393         calculate D2E/DX2 analytically  !
 ! A29   A(10,11,12)           105.0849         calculate D2E/DX2 analytically  !
 ! A30   A(11,12,13)           111.5417         calculate D2E/DX2 analytically  !
 ! A31   A(11,12,23)           126.6715         calculate D2E/DX2 analytically  !
 ! A32   A(13,12,23)           121.7867         calculate D2E/DX2 analytically  !
 ! A33   A(9,13,12)            107.7286         calculate D2E/DX2 analytically  !
 ! A34   A(9,13,24)            124.1734         calculate D2E/DX2 analytically  !
 ! A35   A(12,13,24)           128.0822         calculate D2E/DX2 analytically  !
 ! A36   A(2,14,15)            110.6579         calculate D2E/DX2 analytically  !
 ! A37   A(2,14,25)            107.7526         calculate D2E/DX2 analytically  !
 ! A38   A(2,14,26)            111.0128         calculate D2E/DX2 analytically  !
 ! A39   A(15,14,25)           108.964          calculate D2E/DX2 analytically  !
 ! A40   A(15,14,26)           109.5123         calculate D2E/DX2 analytically  !
 ! A41   A(25,14,26)           108.8845         calculate D2E/DX2 analytically  !
 ! A42   A(14,15,16)           111.7778         calculate D2E/DX2 analytically  !
 ! A43   A(14,15,27)           109.6626         calculate D2E/DX2 analytically  !
 ! A44   A(14,15,28)           109.0578         calculate D2E/DX2 analytically  !
 ! A45   A(16,15,27)           108.8269         calculate D2E/DX2 analytically  !
 ! A46   A(16,15,28)           109.9093         calculate D2E/DX2 analytically  !
 ! A47   A(27,15,28)           107.5104         calculate D2E/DX2 analytically  !
 ! A48   A(15,16,29)           111.1423         calculate D2E/DX2 analytically  !
 ! A49   A(15,16,30)           112.0089         calculate D2E/DX2 analytically  !
 ! A50   A(15,16,31)           111.3396         calculate D2E/DX2 analytically  !
 ! A51   A(29,16,30)           107.2825         calculate D2E/DX2 analytically  !
 ! A52   A(29,16,31)           107.5184         calculate D2E/DX2 analytically  !
 ! A53   A(30,16,31)           107.3143         calculate D2E/DX2 analytically  !
 ! D1    D(1,2,3,4)             -5.9537         calculate D2E/DX2 analytically  !
 ! D2    D(1,2,3,17)          -167.2503         calculate D2E/DX2 analytically  !
 ! D3    D(14,2,3,4)           172.7854         calculate D2E/DX2 analytically  !
 ! D4    D(14,2,3,17)           11.4887         calculate D2E/DX2 analytically  !
 ! D5    D(1,2,14,15)           80.5041         calculate D2E/DX2 analytically  !
 ! D6    D(1,2,14,25)          -38.5329         calculate D2E/DX2 analytically  !
 ! D7    D(1,2,14,26)         -157.6785         calculate D2E/DX2 analytically  !
 ! D8    D(3,2,14,15)          -98.2283         calculate D2E/DX2 analytically  !
 ! D9    D(3,2,14,25)          142.7347         calculate D2E/DX2 analytically  !
 ! D10   D(3,2,14,26)           23.5891         calculate D2E/DX2 analytically  !
 ! D11   D(2,3,4,5)           -161.334          calculate D2E/DX2 analytically  !
 ! D12   D(2,3,4,8)             74.8806         calculate D2E/DX2 analytically  !
 ! D13   D(2,3,4,18)           -45.0767         calculate D2E/DX2 analytically  !
 ! D14   D(17,3,4,5)             0.9122         calculate D2E/DX2 analytically  !
 ! D15   D(17,3,4,8)          -122.8732         calculate D2E/DX2 analytically  !
 ! D16   D(17,3,4,18)          117.1695         calculate D2E/DX2 analytically  !
 ! D17   D(3,4,5,6)           -179.5997         calculate D2E/DX2 analytically  !
 ! D18   D(3,4,5,7)              0.1965         calculate D2E/DX2 analytically  !
 ! D19   D(8,4,5,6)            -57.1805         calculate D2E/DX2 analytically  !
 ! D20   D(8,4,5,7)            122.6157         calculate D2E/DX2 analytically  !
 ! D21   D(18,4,5,6)            64.7729         calculate D2E/DX2 analytically  !
 ! D22   D(18,4,5,7)          -115.4308         calculate D2E/DX2 analytically  !
 ! D23   D(3,4,8,9)           -142.7371         calculate D2E/DX2 analytically  !
 ! D24   D(3,4,8,20)           -24.6433         calculate D2E/DX2 analytically  !
 ! D25   D(3,4,8,21)            91.6021         calculate D2E/DX2 analytically  !
 ! D26   D(5,4,8,9)             97.2454         calculate D2E/DX2 analytically  !
 ! D27   D(5,4,8,20)          -144.6608         calculate D2E/DX2 analytically  !
 ! D28   D(5,4,8,21)           -28.4154         calculate D2E/DX2 analytically  !
 ! D29   D(18,4,8,9)           -24.0484         calculate D2E/DX2 analytically  !
 ! D30   D(18,4,8,20)           94.0454         calculate D2E/DX2 analytically  !
 ! D31   D(18,4,8,21)         -149.7092         calculate D2E/DX2 analytically  !
 ! D32   D(4,5,6,19)          -179.099          calculate D2E/DX2 analytically  !
 ! D33   D(7,5,6,19)             1.1003         calculate D2E/DX2 analytically  !
 ! D34   D(4,8,9,10)           120.2227         calculate D2E/DX2 analytically  !
 ! D35   D(4,8,9,13)           -57.5692         calculate D2E/DX2 analytically  !
 ! D36   D(20,8,9,10)            1.7786         calculate D2E/DX2 analytically  !
 ! D37   D(20,8,9,13)         -176.0133         calculate D2E/DX2 analytically  !
 ! D38   D(21,8,9,10)         -114.9644         calculate D2E/DX2 analytically  !
 ! D39   D(21,8,9,13)           67.2437         calculate D2E/DX2 analytically  !
 ! D40   D(8,9,10,11)         -179.0325         calculate D2E/DX2 analytically  !
 ! D41   D(8,9,10,22)            0.8577         calculate D2E/DX2 analytically  !
 ! D42   D(13,9,10,11)          -0.9355         calculate D2E/DX2 analytically  !
 ! D43   D(13,9,10,22)         178.9547         calculate D2E/DX2 analytically  !
 ! D44   D(8,9,13,12)          179.2791         calculate D2E/DX2 analytically  !
 ! D45   D(8,9,13,24)            0.6241         calculate D2E/DX2 analytically  !
 ! D46   D(10,9,13,12)           0.9981         calculate D2E/DX2 analytically  !
 ! D47   D(10,9,13,24)        -177.6569         calculate D2E/DX2 analytically  !
 ! D48   D(9,10,11,12)           0.5011         calculate D2E/DX2 analytically  !
 ! D49   D(22,10,11,12)       -179.3972         calculate D2E/DX2 analytically  !
 ! D50   D(10,11,12,13)          0.156          calculate D2E/DX2 analytically  !
 ! D51   D(10,11,12,23)       -179.7186         calculate D2E/DX2 analytically  !
 ! D52   D(11,12,13,9)          -0.7455         calculate D2E/DX2 analytically  !
 ! D53   D(11,12,13,24)        177.8408         calculate D2E/DX2 analytically  !
 ! D54   D(23,12,13,9)         179.1361         calculate D2E/DX2 analytically  !
 ! D55   D(23,12,13,24)         -2.2776         calculate D2E/DX2 analytically  !
 ! D56   D(2,14,15,16)        -177.8071         calculate D2E/DX2 analytically  !
 ! D57   D(2,14,15,27)          61.41           calculate D2E/DX2 analytically  !
 ! D58   D(2,14,15,28)         -56.0723         calculate D2E/DX2 analytically  !
 ! D59   D(25,14,15,16)        -59.5052         calculate D2E/DX2 analytically  !
 ! D60   D(25,14,15,27)        179.7119         calculate D2E/DX2 analytically  !
 ! D61   D(25,14,15,28)         62.2295         calculate D2E/DX2 analytically  !
 ! D62   D(26,14,15,16)         59.4978         calculate D2E/DX2 analytically  !
 ! D63   D(26,14,15,27)        -61.2851         calculate D2E/DX2 analytically  !
 ! D64   D(26,14,15,28)       -178.7675         calculate D2E/DX2 analytically  !
 ! D65   D(14,15,16,29)         59.1679         calculate D2E/DX2 analytically  !
 ! D66   D(14,15,16,30)        179.1595         calculate D2E/DX2 analytically  !
 ! D67   D(14,15,16,31)        -60.6717         calculate D2E/DX2 analytically  !
 ! D68   D(27,15,16,29)       -179.5642         calculate D2E/DX2 analytically  !
 ! D69   D(27,15,16,30)        -59.5726         calculate D2E/DX2 analytically  !
 ! D70   D(27,15,16,31)         60.5963         calculate D2E/DX2 analytically  !
 ! D71   D(28,15,16,29)        -62.0751         calculate D2E/DX2 analytically  !
 ! D72   D(28,15,16,30)         57.9166         calculate D2E/DX2 analytically  !
 ! D73   D(28,15,16,31)        178.0854         calculate D2E/DX2 analytically  !
 --------------------------------------------------------------------------------
 Trust Radius=3.00D-01 FncErr=1.00D-07 GrdErr=1.00D-06
 Number of steps in this run=    167 maximum allowed number of steps=    186.
 GradGradGradGradGradGradGradGradGradGradGradGradGradGradGradGradGradGrad

                          Input orientation:                          
 ---------------------------------------------------------------------
 Center     Atomic      Atomic             Coordinates (Angstroms)
 Number     Number       Type             X           Y           Z
 ---------------------------------------------------------------------
      1          8           0       -0.720054   -0.637656    1.424079
      2          6           0       -1.308542   -0.350722    0.391926
      3          7           0       -0.648861    0.027789   -0.734248
      4          6           0        0.789418    0.227174   -0.703607
      5          6           0        1.139344    1.065305   -1.914246
      6          8           0        2.464037    1.317927   -2.008589
      7          8           0        0.341951    1.469473   -2.718944
      8          6           0        1.537357   -1.129224   -0.663526
      9          6           0        2.754998   -1.096350    0.196361
     10          6           0        3.095644   -1.820487    1.303006
     11          7           0        4.331642   -1.422865    1.783184
     12          6           0        4.718350   -0.464049    0.977320
     13          7           0        3.794806   -0.223340    0.008132
     14          6           0       -2.819851   -0.362120    0.284292
     15          6           0       -3.409884    0.915491    0.867843
     16          7           0       -4.895913    0.907638    0.822538
     17          1           0       -1.136988    0.441420   -1.513845
     18          1           0        1.023851    0.804405    0.198290
     19          1           0        2.579543    1.866720   -2.799467
     20          1           0        0.862055   -1.867444   -0.234739
     21          1           0        1.767665   -1.460804   -1.675913
     22          1           0        2.526878   -2.602694    1.785128
     23          1           0        5.638517    0.089285    1.032764
     24          1           0        3.823382    0.474704   -0.717982
     25          1           0       -3.187149   -1.214629    0.854924
     26          1           0       -3.137595   -0.469107   -0.754956
     27          1           0       -3.044991    1.777907    0.307343
     28          1           0       -3.070450    1.026240    1.897911
     29          1           0       -5.275703    0.117144    1.343445
     30          1           0       -5.295491    1.756479    1.225383
     31          1           0       -5.237750    0.836447   -0.136097
 ---------------------------------------------------------------------
                    Distance matrix (angstroms):
                    1          2          3          4          5
     1  O    0.000000
     2  C    1.222289   0.000000
     3  N    2.259704   1.358940   0.000000
     4  C    2.748360   2.436307   1.452357   0.000000
     5  C    4.183521   3.649069   2.380444   1.513459   0.000000
     6  O    5.074047   4.772757   3.602573   2.386853   1.351861
     7  O    4.767860   3.964183   2.645596   2.409381   1.202800
     8  C    3.113782   3.133558   2.474516   1.549463   2.557082
     9  C    3.713984   4.136009   3.703510   2.534791   3.426040
    10  C    3.996661   4.731504   4.646272   3.679414   4.744008
    11  N    5.124953   5.907348   5.766045   4.631858   5.482038
    12  C    5.459484   6.056315   5.654938   4.328951   4.848645
    13  N    4.749792   5.119345   4.512247   3.121201   3.522445
    14  C    2.405033   1.515180   2.429537   3.788144   4.748299
    15  C    3.155448   2.499086   3.313301   4.536229   5.334599
    16  N    4.493060   3.825980   4.608163   5.925802   6.628663
    17  H    3.157473   2.070962   1.008528   2.100815   2.394001
    18  H    2.573578   2.609956   2.066574   1.096163   2.131717
    19  H    5.915876   5.497203   4.250811   3.207068   1.870844
    20  H    2.601369   2.721148   2.474729   2.147682   3.390966
    21  H    4.059097   3.869275   2.990358   2.179820   2.613965
    22  H    3.812387   4.660776   4.832393   4.149786   5.391181
    23  H    6.411942   6.990416   6.531251   5.152452   5.466263
    24  H    5.144763   5.315061   4.494548   3.044079   2.997318
    25  H    2.596804   2.118930   3.242217   4.507870   5.620048
    26  H    3.259004   2.162126   2.537938   3.988593   4.689412
    27  H    3.533748   2.748357   3.144719   4.257873   4.790816
    28  H    2.918463   2.695984   3.713389   4.722815   5.679475
    29  H    4.618459   4.106416   5.072717   6.402204   7.257024
    30  H    5.167784   4.585925   5.331012   6.563984   7.193198
    31  H    5.001671   4.138460   4.697831   6.084409   6.624313
                    6          7          8          9         10
     6  O    0.000000
     7  O    2.242949   0.000000
     8  C    2.942189   3.522352   0.000000
     9  C    3.282560   4.572226   1.491019   0.000000
    10  C    4.605999   5.880709   2.602567   1.365678   0.000000
    11  N    5.037602   6.674759   3.725674   2.260625   1.384329
    12  C    4.144034   6.045969   3.640543   2.205550   2.139900
    13  N    2.865940   4.714316   2.523456   1.370685   2.171729
    14  C    5.999944   4.729815   4.524607   5.623680   6.177191
    15  C    6.552768   5.219981   5.567867   6.519522   7.070844
    16  N    7.896359   6.347674   6.909714   7.933758   8.458043
    17  H    3.739039   2.167122   3.215911   4.520741   5.564714
    18  H    2.684801   3.068804   2.178379   2.570942   3.521758
    19  H    0.969538   2.274008   3.824144   4.217292   5.540048
    20  H    3.982396   4.192469   1.088512   2.088939   2.712155
    21  H    2.883912   3.421563   1.089915   2.147805   3.281289
    22  H    5.455961   6.453148   3.024264   2.201202   1.080641
    23  H    4.564725   6.635800   4.602356   3.228000   3.191624
    24  H    2.055362   4.136880   2.793110   2.108478   3.143549
    25  H    6.822715   5.694864   4.963259   5.979700   6.327822
    26  H    6.011935   4.441011   4.722212   6.001757   6.701843
    27  H    5.993706   4.552462   5.512885   6.474067   7.186597
    28  H    6.780588   5.758149   5.695513   6.429347   6.817513
    29  H    8.519483   7.063273   7.211044   8.202471   8.592759
    30  H    8.417908   6.886278   7.653957   8.602784   9.122053
    31  H    7.940754   6.181010   7.074186   8.229840   8.864298
                   11         12         13         14         15
    11  N    0.000000
    12  C    1.310835   0.000000
    13  N    2.208588   1.360220   0.000000
    14  C    7.383476   7.570677   6.621874   0.000000
    15  C    8.138611   8.245199   7.344631   1.523470   0.000000
    16  N    9.565660   9.712854   8.801760   2.492394   1.486740
    17  H    6.652208   6.427345   5.203933   2.590560   3.326145
    18  H    4.291165   3.983112   2.961522   4.017739   4.485382
    19  H    5.906937   4.926570   3.705108   6.605358   7.087119
    20  H    4.038279   4.278973   3.370919   4.011462   5.216309
    21  H    4.305900   4.091419   2.911465   5.108308   6.238949
    22  H    2.156194   3.166845   3.229038   5.988338   6.961622
    23  H    2.134866   1.075156   2.132340   8.503410   9.087540
    24  H    3.180398   2.134543   1.007633   6.770331   7.418173
    25  H    7.578736   7.941993   7.102634   1.089632   2.141772
    26  H    7.946150   8.044667   6.978602   1.091990   2.150519
    27  H    8.175436   8.108310   7.132836   2.151961   1.091361
    28  H    7.797579   7.983349   7.229416   2.143387   1.090193
    29  H    9.739922  10.017631   9.174592   2.717114   2.084427
    30  H   10.153869  10.260082   9.382691   3.391594   2.095378
    31  H   10.018053  10.102223   9.095660   2.731213   2.086921
                   16         17         18         19         20
    16  N    0.000000
    17  H    4.450344   0.000000
    18  H    5.953482   2.780718   0.000000
    19  H    8.361890   4.182931   3.540514   0.000000
    20  H    6.478666   3.311063   2.711543   4.844747   0.000000
    21  H    7.500336   3.475878   3.032667   3.604710   1.749991
    22  H    8.267214   5.794287   4.047897   6.402886   2.718840
    23  H   10.568260   7.246840   4.743721   5.215610   5.315067
    24  H    8.864917   5.023921   2.964057   2.795965   3.806395
    25  H    2.724874   3.543546   4.715950   7.490262   4.243770
    26  H    2.734154   2.325382   4.455126   6.505519   4.268860
    27  H    2.109196   2.956923   4.185102   6.426161   5.370981
    28  H    2.121982   3.964892   4.438606   7.395552   5.327870
    29  H    1.020032   5.039665   6.439572   9.051499   6.640883
    30  H    1.021018   5.150329   6.472669   8.844644   7.292472
    31  H    1.020246   4.344017   6.270605   8.322565   6.672959
                   21         22         23         24         25
    21  H    0.000000
    22  H    3.722785   0.000000
    23  H    4.972244   4.182715   0.000000
    24  H    2.981577   4.173352   2.551151   0.000000
    25  H    5.569193   5.953327   8.923239   7.380747   0.000000
    26  H    5.088536   6.564333   8.973733   7.024767   1.774815
    27  H    6.130596   7.240113   8.875866   7.065705   3.045541
    28  H    6.508837   6.671728   8.801845   7.394053   2.474456
    29  H    7.824032   8.274834  10.918677   9.336525   2.524744
    30  H    8.285927   8.972467  11.062060   9.411347   3.661943
    31  H    7.531549   8.706793  10.964382   9.087000   3.064963
                   26         27         28         29         30
    26  H    0.000000
    27  H    2.487192   0.000000
    28  H    3.046026   1.759420   0.000000
    29  H    3.052619   2.967780   2.448883   0.000000
    30  H    3.678518   2.430639   2.436463   1.643701   0.000000
    31  H    2.549139   2.427175   2.978322   1.645565   1.644208
                   31
    31  H    0.000000
 Symmetry turned off by external request.
 Stoichiometry    C9H15N4O3(1+)
 Framework group  C1[X(C9H15N4O3)]
 Deg. of freedom    87
 Full point group                 C1      NOp   1
 Rotational constants (GHZ):      0.8514921      0.2642997      0.2133469
 Standard basis: 6-311++G(2df,2pd) (5D, 7F)
   769 basis functions,  1102 primitive gaussians,   864 cartesian basis functions
    60 alpha electrons       60 beta electrons
       nuclear repulsion energy      1124.7477579563 Hartrees.
 NAtoms=   31 NActive=   31 NUniq=   31 SFac= 1.00D+00 NAtFMM=   60 NAOKFM=F Big=F
 Integral buffers will be    131072 words long.
 Raffenetti 2 integral format.
 Two-electron integral symmetry is turned off.
 Nuclear repulsion after empirical dispersion term =     1124.6929369732 Hartrees.
 One-electron integrals computed using PRISM.
 NBasis=   769 RedAO= T EigKep=  2.49D-06  NBF=   769
 NBsUse=   769 1.00D-06 EigRej= -1.00D+00 NBFU=   769
 ExpMin= 3.60D-02 ExpMax= 8.59D+03 ExpMxC= 1.30D+03 IAcc=3 IRadAn=         5 AccDes= 0.00D+00
 Harris functional with IExCor=  402 and IRadAn=       5 diagonalized for initial guess.
 HarFok:  IExCor=  402 AccDes= 0.00D+00 IRadAn=         5 IDoV= 1 UseB2=F ITyADJ=14
 ICtDFT=  3500011 ScaDFX=  1.000000  1.000000  1.000000  1.000000
 FoFCou: FMM=F IPFlag=           0 FMFlag=      100000 FMFlg1=           0
         NFxFlg=           0 DoJE=T BraDBF=F KetDBF=T FulRan=T
         wScrn=  0.000000 ICntrl=     500 IOpCl=  0 I1Cent=   200000004 NGrid=           0
         NMat0=    1 NMatS0=      1 NMatT0=    0 NMatD0=    1 NMtDS0=    0 NMtDT0=    0
 Symmetry not used in FoFCou.
 Requested convergence on RMS density matrix=1.00D-08 within 128 cycles.
 Requested convergence on MAX density matrix=1.00D-06.
 Requested convergence on             energy=1.00D-06.
 No special actions if energy rises.
 EnCoef did     2 forward-backward iterations
 SCF Done:  E(RB3LYP) =  -796.784277305     A.U. after   16 cycles
            NFock= 16  Conv=0.55D-08     -V/T= 2.0039
 DoSCS=F DFT=T ScalE2(SS,OS)=  1.000000  1.000000
 Range of M.O.s used for correlation:     1   769
 NBasis=   769 NAE=    60 NBE=    60 NFC=     0 NFV=     0
 NROrb=    769 NOA=    60 NOB=    60 NVA=   709 NVB=   709

 **** Warning!!: The largest alpha MO coefficient is  0.15203943D+03


 **** Warning!!: The smallest alpha delta epsilon is  0.93991128D-01

 Symmetrizing basis deriv contribution to polar:
 IMax=3 JMax=2 DiffMx= 0.00D+00
 G2DrvN: will do    32 centers at a time, making    1 passes.
 Calling FoFCou, ICntrl=  3107 FMM=F I1Cent=   0 AccDes= 0.00D+00.
 End of G2Drv F.D. properties file   721 does not exist.
 End of G2Drv F.D. properties file   722 does not exist.
 End of G2Drv F.D. properties file   788 does not exist.
          IDoAtm=1111111111111111111111111111111
          Differentiating once with respect to nuclear coordinates.
          There are    96 degrees of freedom in the 1st order CPHF.  IDoFFX=6 NUNeed=     0.
     90 vectors produced by pass  0 Test12= 4.43D-14 1.04D-09 XBig12= 1.93D-01 7.80D-02.
 AX will form    90 AO Fock derivatives at one time.
     90 vectors produced by pass  1 Test12= 4.43D-14 1.04D-09 XBig12= 3.22D-02 5.43D-02.
     90 vectors produced by pass  2 Test12= 4.43D-14 1.04D-09 XBig12= 5.31D-04 3.44D-03.
     90 vectors produced by pass  3 Test12= 4.43D-14 1.04D-09 XBig12= 2.17D-06 1.58D-04.
     90 vectors produced by pass  4 Test12= 4.43D-14 1.04D-09 XBig12= 5.13D-09 7.33D-06.
     87 vectors produced by pass  5 Test12= 4.43D-14 1.04D-09 XBig12= 9.28D-12 3.24D-07.
     43 vectors produced by pass  6 Test12= 4.43D-14 1.04D-09 XBig12= 1.62D-14 1.55D-08.
     10 vectors produced by pass  7 Test12= 4.43D-14 1.04D-09 XBig12= 4.96D-16 2.95D-09.
      9 vectors produced by pass  8 Test12= 4.43D-14 1.04D-09 XBig12= 3.13D-16 2.06D-09.
      9 vectors produced by pass  9 Test12= 4.43D-14 1.04D-09 XBig12= 5.23D-15 8.74D-09.
      9 vectors produced by pass 10 Test12= 4.43D-14 1.04D-09 XBig12= 1.47D-15 3.41D-09.
      9 vectors produced by pass 11 Test12= 4.43D-14 1.04D-09 XBig12= 2.76D-15 4.39D-09.
      8 vectors produced by pass 12 Test12= 4.43D-14 1.04D-09 XBig12= 1.09D-15 2.51D-09.
      8 vectors produced by pass 13 Test12= 4.43D-14 1.04D-09 XBig12= 2.31D-15 3.83D-09.
      8 vectors produced by pass 14 Test12= 4.43D-14 1.04D-09 XBig12= 3.02D-15 9.16D-09.
      8 vectors produced by pass 15 Test12= 4.43D-14 1.04D-09 XBig12= 1.26D-15 3.25D-09.
      8 vectors produced by pass 16 Test12= 4.43D-14 1.04D-09 XBig12= 2.20D-15 3.91D-09.
      8 vectors produced by pass 17 Test12= 4.43D-14 1.04D-09 XBig12= 2.10D-15 4.03D-09.
      8 vectors produced by pass 18 Test12= 4.43D-14 1.04D-09 XBig12= 1.92D-15 2.83D-09.
      8 vectors produced by pass 19 Test12= 4.43D-14 1.04D-09 XBig12= 3.82D-15 4.19D-09.
      8 vectors produced by pass 20 Test12= 4.43D-14 1.04D-09 XBig12= 1.26D-15 2.17D-09.
      8 vectors produced by pass 21 Test12= 4.43D-14 1.04D-09 XBig12= 3.55D-15 4.22D-09.
      8 vectors produced by pass 22 Test12= 4.43D-14 1.04D-09 XBig12= 1.42D-15 2.52D-09.
      4 vectors produced by pass 23 Test12= 4.43D-14 1.04D-09 XBig12= 6.26D-16 1.73D-09.
      4 vectors produced by pass 24 Test12= 4.43D-14 1.04D-09 XBig12= 1.99D-15 3.10D-09.
      4 vectors produced by pass 25 Test12= 4.43D-14 1.04D-09 XBig12= 1.23D-15 2.46D-09.
      4 vectors produced by pass 26 Test12= 4.43D-14 1.04D-09 XBig12= 2.29D-15 3.24D-09.
      4 vectors produced by pass 27 Test12= 4.43D-14 1.04D-09 XBig12= 1.51D-15 2.31D-09.
      4 vectors produced by pass 28 Test12= 4.43D-14 1.04D-09 XBig12= 1.87D-15 3.09D-09.
      4 vectors produced by pass 29 Test12= 4.43D-14 1.04D-09 XBig12= 3.20D-15 3.88D-09.
      4 vectors produced by pass 30 Test12= 4.43D-14 1.04D-09 XBig12= 7.31D-16 2.13D-09.
      4 vectors produced by pass 31 Test12= 4.43D-14 1.04D-09 XBig12= 4.26D-15 4.31D-09.
      4 vectors produced by pass 32 Test12= 4.43D-14 1.04D-09 XBig12= 1.77D-15 2.67D-09.
      4 vectors produced by pass 33 Test12= 4.43D-14 1.04D-09 XBig12= 5.02D-15 4.47D-09.
      4 vectors produced by pass 34 Test12= 4.43D-14 1.04D-09 XBig12= 1.63D-15 3.19D-09.
      4 vectors produced by pass 35 Test12= 4.43D-14 1.04D-09 XBig12= 4.32D-15 5.05D-09.
      3 vectors produced by pass 36 Test12= 4.43D-14 1.04D-09 XBig12= 1.30D-15 2.87D-09.
      3 vectors produced by pass 37 Test12= 4.43D-14 1.04D-09 XBig12= 3.03D-15 3.59D-09.
      3 vectors produced by pass 38 Test12= 4.43D-14 1.04D-09 XBig12= 2.13D-15 2.72D-09.
      2 vectors produced by pass 39 Test12= 4.43D-14 1.04D-09 XBig12= 2.08D-15 2.69D-09.
 InvSVY:  IOpt=1 It=  1 EMax= 6.11D-16
 Solved reduced A of dimension   777 with    96 vectors.
 End of Minotr F.D. properties file   721 does not exist.
 End of Minotr F.D. properties file   722 does not exist.
 End of Minotr F.D. properties file   788 does not exist.

 **********************************************************************

            Population analysis using the SCF density.

 **********************************************************************

 Alpha  occ. eigenvalues --  -19.30377 -19.24961 -19.22838 -14.65296 -14.47605
 Alpha  occ. eigenvalues --  -14.43341 -14.35672 -10.43802 -10.42760 -10.41775
 Alpha  occ. eigenvalues --  -10.36093 -10.35142 -10.28948 -10.28778 -10.27523
 Alpha  occ. eigenvalues --  -10.24842  -1.24641  -1.22517  -1.18198  -1.15904
 Alpha  occ. eigenvalues --   -1.08759  -1.06772  -0.98138  -0.94203  -0.91263
 Alpha  occ. eigenvalues --   -0.86198  -0.83730  -0.80715  -0.80077  -0.77650
 Alpha  occ. eigenvalues --   -0.75083  -0.71828  -0.71286  -0.68887  -0.66580
 Alpha  occ. eigenvalues --   -0.65930  -0.65398  -0.63671  -0.61924  -0.60528
 Alpha  occ. eigenvalues --   -0.59678  -0.59563  -0.58306  -0.55555  -0.55009
 Alpha  occ. eigenvalues --   -0.54523  -0.54145  -0.51981  -0.50570  -0.49598
 Alpha  occ. eigenvalues --   -0.48586  -0.48394  -0.47513  -0.46226  -0.42011
 Alpha  occ. eigenvalues --   -0.40385  -0.39938  -0.35266  -0.33702  -0.30156
 Alpha virt. eigenvalues --   -0.20756  -0.15586  -0.15026  -0.14489  -0.13103
 Alpha virt. eigenvalues --   -0.12872  -0.10791  -0.10279  -0.09746  -0.09241
 Alpha virt. eigenvalues --   -0.08498  -0.07740  -0.06785  -0.05829  -0.05597
 Alpha virt. eigenvalues --   -0.05286  -0.04813  -0.04721  -0.04345  -0.03840
 Alpha virt. eigenvalues --   -0.03202  -0.02895  -0.02196  -0.01834  -0.01355
 Alpha virt. eigenvalues --   -0.01012  -0.00932  -0.00732  -0.00175  -0.00042
 Alpha virt. eigenvalues --    0.00419   0.00693   0.00960   0.01265   0.01757
 Alpha virt. eigenvalues --    0.01967   0.02450   0.02737   0.03151   0.03372
 Alpha virt. eigenvalues --    0.03758   0.04295   0.04486   0.04714   0.04994
 Alpha virt. eigenvalues --    0.05477   0.05558   0.06295   0.06670   0.07191
 Alpha virt. eigenvalues --    0.07478   0.07683   0.08075   0.08521   0.08647
 Alpha virt. eigenvalues --    0.08868   0.09016   0.10024   0.10153   0.10508
 Alpha virt. eigenvalues --    0.11022   0.11176   0.11400   0.11759   0.12778
 Alpha virt. eigenvalues --    0.13193   0.13409   0.13788   0.14212   0.14474
 Alpha virt. eigenvalues --    0.15008   0.15319   0.15843   0.16213   0.16617
 Alpha virt. eigenvalues --    0.17479   0.17797   0.18120   0.18688   0.18789
 Alpha virt. eigenvalues --    0.19294   0.19443   0.19960   0.20436   0.20762
 Alpha virt. eigenvalues --    0.21196   0.21464   0.21907   0.22431   0.23024
 Alpha virt. eigenvalues --    0.23110   0.24000   0.24286   0.24341   0.24957
 Alpha virt. eigenvalues --    0.25092   0.25987   0.26572   0.27169   0.27387
 Alpha virt. eigenvalues --    0.27698   0.28377   0.28618   0.29299   0.29852
 Alpha virt. eigenvalues --    0.30222   0.30795   0.31173   0.31369   0.31937
 Alpha virt. eigenvalues --    0.32942   0.34468   0.34958   0.35501   0.35689
 Alpha virt. eigenvalues --    0.37519   0.37998   0.38303   0.38496   0.39484
 Alpha virt. eigenvalues --    0.40042   0.40260   0.40768   0.41494   0.41643
 Alpha virt. eigenvalues --    0.42293   0.43370   0.44865   0.45087   0.45929
 Alpha virt. eigenvalues --    0.46678   0.47126   0.47320   0.47700   0.48666
 Alpha virt. eigenvalues --    0.49516   0.49884   0.50807   0.51315   0.52177
 Alpha virt. eigenvalues --    0.52418   0.52768   0.53060   0.53388   0.54272
 Alpha virt. eigenvalues --    0.54551   0.55339   0.55755   0.56490   0.57113
 Alpha virt. eigenvalues --    0.57366   0.58007   0.59024   0.59367   0.60539
 Alpha virt. eigenvalues --    0.60893   0.61159   0.62467   0.62857   0.63863
 Alpha virt. eigenvalues --    0.63883   0.64219   0.65646   0.66201   0.66707
 Alpha virt. eigenvalues --    0.67492   0.68145   0.68622   0.69753   0.70064
 Alpha virt. eigenvalues --    0.70402   0.71619   0.72483   0.73724   0.74323
 Alpha virt. eigenvalues --    0.75532   0.76427   0.77199   0.77555   0.78113
 Alpha virt. eigenvalues --    0.78696   0.80349   0.81078   0.82880   0.83429
 Alpha virt. eigenvalues --    0.83944   0.84062   0.84344   0.86203   0.86263
 Alpha virt. eigenvalues --    0.87529   0.88192   0.89080   0.89816   0.90898
 Alpha virt. eigenvalues --    0.91289   0.91803   0.92415   0.93604   0.94281
 Alpha virt. eigenvalues --    0.94595   0.96206   0.96758   0.97211   0.97705
 Alpha virt. eigenvalues --    0.98446   0.99150   0.99274   0.99767   1.00602
 Alpha virt. eigenvalues --    1.01060   1.01648   1.02403   1.03097   1.04900
 Alpha virt. eigenvalues --    1.05153   1.06081   1.06418   1.07682   1.07992
 Alpha virt. eigenvalues --    1.08711   1.09867   1.10026   1.10743   1.11431
 Alpha virt. eigenvalues --    1.12500   1.12954   1.13693   1.14360   1.15005
 Alpha virt. eigenvalues --    1.16329   1.17566   1.18884   1.19404   1.19858
 Alpha virt. eigenvalues --    1.20225   1.21597   1.22550   1.23545   1.24566
 Alpha virt. eigenvalues --    1.25011   1.25171   1.26282   1.27135   1.27779
 Alpha virt. eigenvalues --    1.28149   1.28967   1.30943   1.32372   1.32997
 Alpha virt. eigenvalues --    1.33829   1.34142   1.34798   1.35189   1.35409
 Alpha virt. eigenvalues --    1.36073   1.37676   1.38099   1.39223   1.39643
 Alpha virt. eigenvalues --    1.40254   1.41157   1.41431   1.41782   1.42095
 Alpha virt. eigenvalues --    1.43620   1.43979   1.44626   1.45269   1.46246
 Alpha virt. eigenvalues --    1.47160   1.47908   1.47990   1.50214   1.52607
 Alpha virt. eigenvalues --    1.54201   1.54922   1.57119   1.57684   1.58888
 Alpha virt. eigenvalues --    1.60296   1.61047   1.61395   1.62132   1.63905
 Alpha virt. eigenvalues --    1.65682   1.66236   1.67040   1.68596   1.69057
 Alpha virt. eigenvalues --    1.70939   1.71537   1.73432   1.76774   1.77324
 Alpha virt. eigenvalues --    1.79069   1.81503   1.84718   1.87844   1.88475
 Alpha virt. eigenvalues --    1.89580   1.91483   1.92192   1.96355   1.97354
 Alpha virt. eigenvalues --    2.00913   2.02035   2.04487   2.07087   2.10429
 Alpha virt. eigenvalues --    2.10834   2.14872   2.19035   2.20497   2.21965
 Alpha virt. eigenvalues --    2.25211   2.30754   2.32287   2.33430   2.35612
 Alpha virt. eigenvalues --    2.38312   2.39497   2.44695   2.45179   2.46270
 Alpha virt. eigenvalues --    2.48410   2.50380   2.51823   2.52885   2.53973
 Alpha virt. eigenvalues --    2.55593   2.56701   2.59869   2.60004   2.60692
 Alpha virt. eigenvalues --    2.62362   2.63343   2.64044   2.65020   2.66075
 Alpha virt. eigenvalues --    2.66868   2.67817   2.68230   2.68923   2.70130
 Alpha virt. eigenvalues --    2.71014   2.72482   2.73188   2.73555   2.74244
 Alpha virt. eigenvalues --    2.74798   2.75728   2.77553   2.77838   2.79537
 Alpha virt. eigenvalues --    2.79845   2.81332   2.81412   2.82534   2.82991
 Alpha virt. eigenvalues --    2.84155   2.84714   2.85342   2.86386   2.87311
 Alpha virt. eigenvalues --    2.88463   2.88935   2.89698   2.90282   2.90877
 Alpha virt. eigenvalues --    2.92164   2.93156   2.94012   2.94094   2.95466
 Alpha virt. eigenvalues --    2.96532   2.97724   2.99146   2.99691   3.00343
 Alpha virt. eigenvalues --    3.00659   3.01739   3.01882   3.02609   3.03160
 Alpha virt. eigenvalues --    3.03311   3.03975   3.06013   3.06310   3.06488
 Alpha virt. eigenvalues --    3.07351   3.08577   3.08986   3.09692   3.10365
 Alpha virt. eigenvalues --    3.11096   3.12074   3.12538   3.13663   3.14601
 Alpha virt. eigenvalues --    3.15108   3.15803   3.15923   3.16492   3.17649
 Alpha virt. eigenvalues --    3.18102   3.18827   3.19165   3.20575   3.20981
 Alpha virt. eigenvalues --    3.21501   3.22116   3.22834   3.24578   3.26131
 Alpha virt. eigenvalues --    3.26425   3.27974   3.28897   3.29320   3.29881
 Alpha virt. eigenvalues --    3.31209   3.32897   3.33026   3.33812   3.34069
 Alpha virt. eigenvalues --    3.34275   3.34846   3.35682   3.36880   3.37437
 Alpha virt. eigenvalues --    3.38403   3.39373   3.40199   3.40502   3.40726
 Alpha virt. eigenvalues --    3.41547   3.42815   3.43060   3.43790   3.44300
 Alpha virt. eigenvalues --    3.45254   3.46650   3.46881   3.47943   3.49404
 Alpha virt. eigenvalues --    3.50495   3.51058   3.51783   3.53073   3.53887
 Alpha virt. eigenvalues --    3.54559   3.54997   3.55719   3.57247   3.57716
 Alpha virt. eigenvalues --    3.58725   3.59747   3.60549   3.61090   3.61283
 Alpha virt. eigenvalues --    3.62738   3.62975   3.64016   3.65776   3.65967
 Alpha virt. eigenvalues --    3.66575   3.67159   3.68365   3.69115   3.69656
 Alpha virt. eigenvalues --    3.70653   3.70962   3.71902   3.72465   3.72754
 Alpha virt. eigenvalues --    3.74072   3.74662   3.75701   3.76195   3.77967
 Alpha virt. eigenvalues --    3.78203   3.79643   3.80277   3.80962   3.82330
 Alpha virt. eigenvalues --    3.83150   3.83971   3.85002   3.85483   3.86175
 Alpha virt. eigenvalues --    3.87323   3.87792   3.88338   3.89154   3.90471
 Alpha virt. eigenvalues --    3.91539   3.91833   3.92144   3.92853   3.94689
 Alpha virt. eigenvalues --    3.95087   3.95595   3.96732   3.97246   3.98122
 Alpha virt. eigenvalues --    4.00183   4.00914   4.01725   4.03164   4.04193
 Alpha virt. eigenvalues --    4.05147   4.05651   4.07581   4.08456   4.09100
 Alpha virt. eigenvalues --    4.10532   4.11679   4.12792   4.13451   4.14342
 Alpha virt. eigenvalues --    4.14668   4.16025   4.16953   4.17226   4.19076
 Alpha virt. eigenvalues --    4.19487   4.21694   4.21879   4.24076   4.24840
 Alpha virt. eigenvalues --    4.25709   4.26899   4.28798   4.29201   4.33890
 Alpha virt. eigenvalues --    4.34261   4.35564   4.36344   4.40503   4.41613
 Alpha virt. eigenvalues --    4.42301   4.43965   4.44675   4.44919   4.46232
 Alpha virt. eigenvalues --    4.49285   4.49472   4.52021   4.52241   4.55035
 Alpha virt. eigenvalues --    4.56615   4.56991   4.58141   4.59316   4.60795
 Alpha virt. eigenvalues --    4.63468   4.66569   4.68669   4.69917   4.71046
 Alpha virt. eigenvalues --    4.73564   4.73967   4.75556   4.75711   4.77019
 Alpha virt. eigenvalues --    4.77581   4.78862   4.80783   4.81861   4.82511
 Alpha virt. eigenvalues --    4.83888   4.86309   4.87636   4.88557   4.91037
 Alpha virt. eigenvalues --    4.91860   4.93245   4.93962   4.94823   4.95636
 Alpha virt. eigenvalues --    4.96491   4.97161   4.97250   4.98197   4.99435
 Alpha virt. eigenvalues --    5.00028   5.00919   5.01712   5.02132   5.03272
 Alpha virt. eigenvalues --    5.03762   5.05175   5.05944   5.06831   5.08010
 Alpha virt. eigenvalues --    5.08784   5.09285   5.09660   5.12163   5.13032
 Alpha virt. eigenvalues --    5.13502   5.13990   5.16112   5.18692   5.19502
 Alpha virt. eigenvalues --    5.20728   5.21326   5.22763   5.24557   5.25401
 Alpha virt. eigenvalues --    5.26530   5.28723   5.29175   5.30916   5.31908
 Alpha virt. eigenvalues --    5.33367   5.34084   5.35578   5.36425   5.37293
 Alpha virt. eigenvalues --    5.38299   5.40106   5.41349   5.41785   5.43031
 Alpha virt. eigenvalues --    5.43877   5.44673   5.46665   5.48278   5.48800
 Alpha virt. eigenvalues --    5.52856   5.53975   5.57260   5.57550   5.61667
 Alpha virt. eigenvalues --    5.64496   5.66977   5.68230   5.74059   5.75152
 Alpha virt. eigenvalues --    5.79494   5.81617   5.83631   5.84084   5.85305
 Alpha virt. eigenvalues --    5.86738   5.86872   5.90725   5.92323   5.93270
 Alpha virt. eigenvalues --    6.00968   6.01829   6.02837   6.11595   6.13640
 Alpha virt. eigenvalues --    6.16367   6.20845   6.21574   6.23256   6.23658
 Alpha virt. eigenvalues --    6.30156   6.32959   6.36609   6.38233   6.41366
 Alpha virt. eigenvalues --    6.42315   6.49876   6.59078   6.68930   6.69712
 Alpha virt. eigenvalues --    6.79292   6.80536   6.84955   6.85919   6.89381
 Alpha virt. eigenvalues --    6.94037   6.96809   6.98026   7.00167   7.04617
 Alpha virt. eigenvalues --    7.05670   7.15270   7.17340   7.17891   7.18557
 Alpha virt. eigenvalues --    7.19617   7.45196   7.50010   7.51861   7.56967
 Alpha virt. eigenvalues --    7.61042   7.66389   7.88136  24.48577  24.64167
 Alpha virt. eigenvalues --   24.72004  24.77675  24.87479  24.94756  24.98542
 Alpha virt. eigenvalues --   25.03434  25.06843  35.92676  36.13102  36.24101
 Alpha virt. eigenvalues --   36.38865  50.10165  50.10786  50.17415
          Condensed to atoms (all electrons):
               1          2          3          4          5          6
     1  O    8.123764   0.227914  -0.081789   0.007827  -0.034556  -0.000070
     2  C    0.227914   8.988850   0.045324  -0.548040   0.156307   0.019081
     3  N   -0.081789   0.045324   6.647623  -0.211560   0.000802   0.004872
     4  C    0.007827  -0.548040  -0.211560  10.234010  -2.391439   0.165510
     5  C   -0.034556   0.156307   0.000802  -2.391439   7.607143   0.090106
     6  O   -0.000070   0.019081   0.004872   0.165510   0.090106   7.908553
     7  O   -0.000399   0.045649   0.012214  -0.092632   0.364325  -0.074877
     8  C   -0.044759   0.130656   0.152298  -1.322899  -0.121347  -0.062743
     9  C    0.044958  -0.027856   0.039043  -0.156321   0.141370   0.050310
    10  C   -0.015914  -0.007883   0.003088   0.159904   0.033032  -0.000122
    11  N    0.000527  -0.000411  -0.001010   0.020269  -0.003326   0.000532
    12  C   -0.002280  -0.007489  -0.006575   0.015930   0.080446  -0.003227
    13  N   -0.000137  -0.005625  -0.005009  -0.009365   0.068720   0.002565
    14  C    0.207389  -2.516138   0.009496  -0.071376  -0.289592   0.002190
    15  C   -0.064225   0.259586  -0.029182   0.138501  -0.000062  -0.000495
    16  N    0.002909  -0.093240   0.001793  -0.008524   0.001452  -0.000003
    17  H    0.000662  -0.040550   0.299899  -0.006072   0.039198  -0.005497
    18  H    0.000903   0.013560  -0.057472   0.419258  -0.056343  -0.004530
    19  H   -0.000268  -0.002297   0.005136  -0.171217   0.131047   0.225650
    20  H   -0.031272  -0.021105   0.023118  -0.084504  -0.007060  -0.002411
    21  H    0.005116   0.000539   0.009257  -0.004317  -0.095740   0.007751
    22  H   -0.002109   0.008988  -0.000228  -0.001237  -0.000624   0.000077
    23  H   -0.000097  -0.000552   0.000011  -0.005116   0.003631  -0.000080
    24  H    0.000166   0.004890  -0.000145   0.057609  -0.068651  -0.025945
    25  H   -0.008243  -0.261578   0.005689   0.001615  -0.002833  -0.000028
    26  H    0.006095  -0.003736   0.018554  -0.023125   0.004861   0.000350
    27  H    0.004634  -0.121170   0.008454   0.007218  -0.007418   0.000030
    28  H    0.004986   0.030341   0.003942  -0.006273   0.005286   0.000025
    29  H    0.000780  -0.003123   0.000549   0.000101  -0.000166   0.000001
    30  H    0.000239  -0.007119   0.000625   0.000202   0.000230  -0.000002
    31  H   -0.000513   0.002532  -0.000566   0.000715  -0.000002   0.000000
               7          8          9         10         11         12
     1  O   -0.000399  -0.044759   0.044958  -0.015914   0.000527  -0.002280
     2  C    0.045649   0.130656  -0.027856  -0.007883  -0.000411  -0.007489
     3  N    0.012214   0.152298   0.039043   0.003088  -0.001010  -0.006575
     4  C   -0.092632  -1.322899  -0.156321   0.159904   0.020269   0.015930
     5  C    0.364325  -0.121347   0.141370   0.033032  -0.003326   0.080446
     6  O   -0.074877  -0.062743   0.050310  -0.000122   0.000532  -0.003227
     7  O    8.137752  -0.002367  -0.010003   0.001900  -0.000071  -0.000628
     8  C   -0.002367   9.493228  -2.154112  -0.635812  -0.068531  -0.170013
     9  C   -0.010003  -2.154112   8.607825  -0.272292  -0.014026  -0.158232
    10  C    0.001900  -0.635812  -0.272292   6.511222   0.348819  -0.184148
    11  N   -0.000071  -0.068531  -0.014026   0.348819   6.881537   0.225739
    12  C   -0.000628  -0.170013  -0.158232  -0.184148   0.225739   5.389620
    13  N   -0.001135  -0.229922   0.225862  -0.127637   0.055160   0.310849
    14  C   -0.014007  -0.158698   0.146736  -0.018590   0.000736  -0.005101
    15  C   -0.001287   0.002210  -0.029978  -0.004114   0.000022   0.000288
    16  N   -0.000008  -0.000855   0.000977   0.000169   0.000000   0.000009
    17  H    0.029110  -0.000237  -0.024962  -0.003897  -0.000116  -0.000088
    18  H   -0.009971   0.050788  -0.085088  -0.007030   0.001339  -0.020146
    19  H    0.011662   0.019043  -0.006900  -0.000588  -0.000178   0.001315
    20  H   -0.003183   0.324654   0.113932  -0.057671   0.000460   0.002084
    21  H   -0.000916   0.632451  -0.254081  -0.036799   0.000013  -0.014194
    22  H    0.000061  -0.049449  -0.104397   0.488497  -0.090494   0.039548
    23  H   -0.000079   0.007871   0.043339   0.003229  -0.077904   0.450878
    24  H    0.005995   0.009297  -0.100116   0.034675   0.005726  -0.052898
    25  H   -0.000192  -0.007604   0.001185  -0.002295   0.000067   0.000032
    26  H   -0.000201   0.001733   0.003927   0.002595  -0.000036   0.000006
    27  H   -0.001176  -0.007532   0.003690   0.000001   0.000025   0.000059
    28  H    0.000355   0.001680  -0.000075   0.000797  -0.000032   0.000117
    29  H    0.000005  -0.000055   0.000129   0.000030   0.000000  -0.000001
    30  H   -0.000028  -0.000101   0.000043   0.000026   0.000000   0.000004
    31  H    0.000007  -0.000420  -0.000038  -0.000040   0.000000  -0.000001
              13         14         15         16         17         18
     1  O   -0.000137   0.207389  -0.064225   0.002909   0.000662   0.000903
     2  C   -0.005625  -2.516138   0.259586  -0.093240  -0.040550   0.013560
     3  N   -0.005009   0.009496  -0.029182   0.001793   0.299899  -0.057472
     4  C   -0.009365  -0.071376   0.138501  -0.008524  -0.006072   0.419258
     5  C    0.068720  -0.289592  -0.000062   0.001452   0.039198  -0.056343
     6  O    0.002565   0.002190  -0.000495  -0.000003  -0.005497  -0.004530
     7  O   -0.001135  -0.014007  -0.001287  -0.000008   0.029110  -0.009971
     8  C   -0.229922  -0.158698   0.002210  -0.000855  -0.000237   0.050788
     9  C    0.225862   0.146736  -0.029978   0.000977  -0.024962  -0.085088
    10  C   -0.127637  -0.018590  -0.004114   0.000169  -0.003897  -0.007030
    11  N    0.055160   0.000736   0.000022   0.000000  -0.000116   0.001339
    12  C    0.310849  -0.005101   0.000288   0.000009  -0.000088  -0.020146
    13  N    6.385239  -0.008141   0.001335  -0.000010   0.000978   0.009358
    14  C   -0.008141   7.995443  -0.642492   0.105084  -0.025577   0.000734
    15  C    0.001335  -0.642492   5.988377   0.038889   0.029575   0.007597
    16  N   -0.000010   0.105084   0.038889   5.492881  -0.004013  -0.000386
    17  H    0.000978  -0.025577   0.029575  -0.004013   0.589309   0.006404
    18  H    0.009358   0.000734   0.007597  -0.000386   0.006404   0.629082
    19  H   -0.001161  -0.001166  -0.000139   0.000019   0.004150  -0.000858
    20  H    0.001848   0.013990  -0.005450   0.000227   0.001519  -0.009940
    21  H    0.006170   0.010894  -0.000255  -0.000017  -0.003769   0.014254
    22  H    0.022171  -0.000925  -0.000007   0.000000  -0.000159  -0.001795
    23  H   -0.084599  -0.000272   0.000000   0.000000   0.000030  -0.000490
    24  H    0.417721   0.002046   0.000024  -0.000004  -0.000377  -0.000021
    25  H    0.000043   0.603508  -0.000973   0.007332   0.004069   0.000865
    26  H   -0.000236   0.405011  -0.098110   0.018681  -0.021504  -0.000645
    27  H   -0.000014   0.098534   0.358998  -0.012228  -0.000472  -0.000699
    28  H   -0.000067  -0.051294   0.370080  -0.009396  -0.002362  -0.001619
    29  H   -0.000003   0.013611  -0.030692   0.369155  -0.000048  -0.000022
    30  H    0.000001  -0.000311  -0.022513   0.399786  -0.000268  -0.000034
    31  H    0.000001  -0.002583  -0.017984   0.368765   0.001096   0.000051
              19         20         21         22         23         24
     1  O   -0.000268  -0.031272   0.005116  -0.002109  -0.000097   0.000166
     2  C   -0.002297  -0.021105   0.000539   0.008988  -0.000552   0.004890
     3  N    0.005136   0.023118   0.009257  -0.000228   0.000011  -0.000145
     4  C   -0.171217  -0.084504  -0.004317  -0.001237  -0.005116   0.057609
     5  C    0.131047  -0.007060  -0.095740  -0.000624   0.003631  -0.068651
     6  O    0.225650  -0.002411   0.007751   0.000077  -0.000080  -0.025945
     7  O    0.011662  -0.003183  -0.000916   0.000061  -0.000079   0.005995
     8  C    0.019043   0.324654   0.632451  -0.049449   0.007871   0.009297
     9  C   -0.006900   0.113932  -0.254081  -0.104397   0.043339  -0.100116
    10  C   -0.000588  -0.057671  -0.036799   0.488497   0.003229   0.034675
    11  N   -0.000178   0.000460   0.000013  -0.090494  -0.077904   0.005726
    12  C    0.001315   0.002084  -0.014194   0.039548   0.450878  -0.052898
    13  N   -0.001161   0.001848   0.006170   0.022171  -0.084599   0.417721
    14  C   -0.001166   0.013990   0.010894  -0.000925  -0.000272   0.002046
    15  C   -0.000139  -0.005450  -0.000255  -0.000007   0.000000   0.000024
    16  N    0.000019   0.000227  -0.000017   0.000000   0.000000  -0.000004
    17  H    0.004150   0.001519  -0.003769  -0.000159   0.000030  -0.000377
    18  H   -0.000858  -0.009940   0.014254  -0.001795  -0.000490  -0.000021
    19  H    0.486217   0.000358  -0.004937  -0.000015   0.000192   0.002100
    20  H    0.000358   0.704910  -0.052204   0.001466   0.000293  -0.000336
    21  H   -0.004937  -0.052204   0.702681   0.000226  -0.000680   0.003313
    22  H   -0.000015   0.001466   0.000226   0.614038   0.000764   0.002104
    23  H    0.000192   0.000293  -0.000680   0.000764   0.561859  -0.008155
    24  H    0.002100  -0.000336   0.003313   0.002104  -0.008155   0.517520
    25  H   -0.000009   0.000432  -0.000166  -0.000295  -0.000005   0.000036
    26  H   -0.000024   0.000618   0.000571   0.000101   0.000003   0.000026
    27  H   -0.000042  -0.000482  -0.000030  -0.000018  -0.000003   0.000005
    28  H    0.000038   0.000718  -0.000101   0.000045   0.000007  -0.000032
    29  H    0.000001   0.000001   0.000001   0.000000   0.000000  -0.000001
    30  H    0.000003   0.000024  -0.000007  -0.000001   0.000000  -0.000001
    31  H   -0.000002  -0.000060   0.000001   0.000000   0.000000   0.000002
              25         26         27         28         29         30
     1  O   -0.008243   0.006095   0.004634   0.004986   0.000780   0.000239
     2  C   -0.261578  -0.003736  -0.121170   0.030341  -0.003123  -0.007119
     3  N    0.005689   0.018554   0.008454   0.003942   0.000549   0.000625
     4  C    0.001615  -0.023125   0.007218  -0.006273   0.000101   0.000202
     5  C   -0.002833   0.004861  -0.007418   0.005286  -0.000166   0.000230
     6  O   -0.000028   0.000350   0.000030   0.000025   0.000001  -0.000002
     7  O   -0.000192  -0.000201  -0.001176   0.000355   0.000005  -0.000028
     8  C   -0.007604   0.001733  -0.007532   0.001680  -0.000055  -0.000101
     9  C    0.001185   0.003927   0.003690  -0.000075   0.000129   0.000043
    10  C   -0.002295   0.002595   0.000001   0.000797   0.000030   0.000026
    11  N    0.000067  -0.000036   0.000025  -0.000032   0.000000   0.000000
    12  C    0.000032   0.000006   0.000059   0.000117  -0.000001   0.000004
    13  N    0.000043  -0.000236  -0.000014  -0.000067  -0.000003   0.000001
    14  C    0.603508   0.405011   0.098534  -0.051294   0.013611  -0.000311
    15  C   -0.000973  -0.098110   0.358998   0.370080  -0.030692  -0.022513
    16  N    0.007332   0.018681  -0.012228  -0.009396   0.369155   0.399786
    17  H    0.004069  -0.021504  -0.000472  -0.002362  -0.000048  -0.000268
    18  H    0.000865  -0.000645  -0.000699  -0.001619  -0.000022  -0.000034
    19  H   -0.000009  -0.000024  -0.000042   0.000038   0.000001   0.000003
    20  H    0.000432   0.000618  -0.000482   0.000718   0.000001   0.000024
    21  H   -0.000166   0.000571  -0.000030  -0.000101   0.000001  -0.000007
    22  H   -0.000295   0.000101  -0.000018   0.000045   0.000000  -0.000001
    23  H   -0.000005   0.000003  -0.000003   0.000007   0.000000   0.000000
    24  H    0.000036   0.000026   0.000005  -0.000032  -0.000001  -0.000001
    25  H    0.623466  -0.051815   0.009912  -0.010044   0.002064   0.000687
    26  H   -0.051815   0.684583  -0.014679   0.014871  -0.004440   0.002785
    27  H    0.009912  -0.014679   0.590379  -0.022802   0.005528  -0.001665
    28  H   -0.010044   0.014871  -0.022802   0.539021  -0.006958  -0.000372
    29  H    0.002064  -0.004440   0.005528  -0.006958   0.534889  -0.024630
    30  H    0.000687   0.002785  -0.001665  -0.000372  -0.024630   0.525650
    31  H   -0.000821  -0.001657  -0.007291   0.002350  -0.024548  -0.026413
              31
     1  O   -0.000513
     2  C    0.002532
     3  N   -0.000566
     4  C    0.000715
     5  C   -0.000002
     6  O    0.000000
     7  O    0.000007
     8  C   -0.000420
     9  C   -0.000038
    10  C   -0.000040
    11  N    0.000000
    12  C   -0.000001
    13  N    0.000001
    14  C   -0.002583
    15  C   -0.017984
    16  N    0.368765
    17  H    0.001096
    18  H    0.000051
    19  H   -0.000002
    20  H   -0.000060
    21  H    0.000001
    22  H    0.000000
    23  H    0.000000
    24  H    0.000002
    25  H   -0.000821
    26  H   -0.001657
    27  H   -0.007291
    28  H    0.002350
    29  H   -0.024548
    30  H   -0.026413
    31  H    0.540964
 Mulliken charges:
               1
     1  O   -0.352238
     2  C   -0.266307
     3  N    0.101749
     4  C   -0.114653
     5  C    0.351201
     6  O   -0.297573
     7  O   -0.395879
     8  C    0.211546
     9  C   -0.024851
    10  C   -0.213153
    11  N   -0.284836
    12  C    0.108096
    13  N   -0.034960
    14  C    0.190862
    15  C   -0.247530
    16  N    0.320556
    17  H    0.133968
    18  H    0.102895
    19  H    0.302870
    20  H    0.085027
    21  H    0.074977
    22  H    0.073663
    23  H    0.105928
    24  H    0.193426
    25  H    0.085897
    26  H    0.054836
    27  H    0.110253
    28  H    0.136770
    29  H    0.167843
    30  H    0.153162
    31  H    0.166454
 Sum of Mulliken charges =   1.00000
 Mulliken charges with hydrogens summed into heavy atoms:
               1
     1  O   -0.352238
     2  C   -0.266307
     3  N    0.235717
     4  C   -0.011758
     5  C    0.351201
     6  O    0.005297
     7  O   -0.395879
     8  C    0.371550
     9  C   -0.024851
    10  C   -0.139490
    11  N   -0.284836
    12  C    0.214023
    13  N    0.158466
    14  C    0.331596
    15  C   -0.000506
    16  N    0.808015
 APT charges:
               1
     1  O   -0.530469
     2  C    0.243468
     3  N   -0.342102
     4  C   -0.210168
     5  C    0.233878
     6  O   -0.682172
     7  O   -0.327939
     8  C   -0.714112
     9  C    0.081858
    10  C   -0.148753
    11  N   -0.518301
    12  C   -0.274121
    13  N   -0.484400
    14  C   -0.685355
    15  C    0.030057
    16  N   -1.250289
    17  H    0.433409
    18  H    0.204566
    19  H    0.918425
    20  H    0.207608
    21  H    0.396543
    22  H    0.314139
    23  H    0.940225
    24  H    0.332984
    25  H    0.421317
    26  H    0.257264
    27  H    0.083589
    28  H    0.172880
    29  H    0.580562
    30  H    0.844790
    31  H    0.470621
 Sum of APT charges =   1.00000
 APT charges with hydrogens summed into heavy atoms:
               1
     1  O   -0.530469
     2  C    0.243468
     3  N    0.091307
     4  C   -0.005602
     5  C    0.233878
     6  O    0.236253
     7  O   -0.327939
     8  C   -0.109962
     9  C    0.081858
    10  C    0.165385
    11  N   -0.518301
    12  C    0.666104
    13  N   -0.151416
    14  C   -0.006774
    15  C    0.286526
    16  N    0.645684
 Electronic spatial extent (au):  <R**2>=           5048.4299
 Charge=              1.0000 electrons
 Dipole moment (field-independent basis, Debye):
    X=            -20.4748    Y=              6.7113    Z=             -1.9033  Tot=             21.6305
 Quadrupole moment (field-independent basis, Debye-Ang):
   XX=             16.4243   YY=            -85.7242   ZZ=            -94.6290
   XY=             -4.1117   XZ=            -34.4865   YZ=              6.4383
 Traceless Quadrupole moment (field-independent basis, Debye-Ang):
   XX=             71.0672   YY=            -31.0812   ZZ=            -39.9860
   XY=             -4.1117   XZ=            -34.4865   YZ=              6.4383
 Octapole moment (field-independent basis, Debye-Ang**2):
  XXX=           -716.3860  YYY=             42.5049  ZZZ=             -9.4470  XYY=            -94.1561
  XXY=            171.6093  XXZ=             21.7795  XZZ=            -89.0351  YZZ=             28.4296
  YYZ=              1.2418  XYZ=            -14.7031
 Hexadecapole moment (field-independent basis, Debye-Ang**3):
 XXXX=          -1935.6464 YYYY=           -654.8054 ZZZZ=          -1063.3596 XXXY=            186.9540
 XXXZ=           -664.9103 YYYX=            350.0737 YYYZ=            220.5203 ZZZX=           -149.8109
 ZZZY=            247.0490 XXYY=           -810.6334 XXZZ=           -884.3658 YYZZ=           -271.6846
 XXYZ=            199.3697 YYXZ=            -81.8197 ZZXY=            183.6243
 N-N= 1.124692936973D+03 E-N=-4.095888364901D+03  KE= 7.936522114529D+02
  Exact polarizability:   0.000   0.000   0.000   0.000   0.000   0.000
 Approx polarizability: 224.947   7.090 181.683  19.663 -31.296 217.631
 Calling FoFJK, ICntrl=    100147 FMM=F ISym2X=0 I1Cent= 0 IOpClX= 0 NMat=1 NMatS=1 NMatT=0.
 -------------------------------------------------------------------
 Center     Atomic                   Forces (Hartrees/Bohr)
 Number     Number              X              Y              Z
 -------------------------------------------------------------------
      1        8          -0.013461173    0.001826563   -0.004886913
      2        6           0.022461170    0.003226001    0.001415809
      3        7          -0.008719059    0.002318189    0.004379825
      4        6          -0.005579893   -0.000297518    0.001166994
      5        6           0.005549062    0.000451160    0.000971275
      6        8          -0.009532068    0.001130090   -0.002041316
      7        8          -0.001880762    0.000310961    0.000199185
      8        6           0.006658698   -0.001369475    0.006733823
      9        6          -0.007047533   -0.002860817   -0.000734927
     10        6           0.004583870   -0.003555905    0.006584373
     11        7          -0.005651996   -0.000879306   -0.003903956
     12        6           0.001133288   -0.000011748    0.002496589
     13        7           0.003670888    0.004653636   -0.006380004
     14        6          -0.014701242   -0.002059565   -0.001800594
     15        6           0.029408959    0.001583272   -0.000059384
     16        7          -0.008071440    0.001865968    0.001622774
     17        1          -0.000016610   -0.001926118   -0.003110343
     18        1           0.003524883   -0.002978456   -0.001766311
     19        1           0.003193231    0.000004853   -0.000590561
     20        1           0.000734893    0.001627755   -0.000605447
     21        1          -0.000270906    0.000717297   -0.002316396
     22        1           0.001515655    0.001950821   -0.001462092
     23        1           0.001362683    0.000202450    0.001460736
     24        1           0.003210708   -0.001789950    0.002054149
     25        1           0.001544935   -0.002520847   -0.000930703
     26        1           0.000642369   -0.001797616   -0.000456908
     27        1          -0.006028305    0.001102327    0.001094768
     28        1          -0.006362880    0.000874134    0.000843832
     29        1          -0.000973477   -0.002523194    0.001065340
     30        1          -0.000185752    0.001616040    0.000903171
     31        1          -0.000712197   -0.000890998   -0.001946790
 -------------------------------------------------------------------
 Cartesian Forces:  Max     0.029408959 RMS     0.005398130
 FormGI is forming the generalized inverse of G from B-inverse, IUseBI=4.

 GradGradGradGradGradGradGradGradGradGradGradGradGradGradGradGradGradGrad
 Berny optimization.
 Internal  Forces:  Max     0.011932509 RMS     0.003246460
 Search for a local minimum.
 Step number   1 out of a maximum of  167
 All quantities printed in internal units (Hartrees-Bohrs-Radians)
 Mixed Optimization -- RFO/linear search
 Second derivative matrix not updated -- analytic derivatives used.
 ITU=  0
     Eigenvalues ---   -0.00094   0.00122   0.00182   0.00199   0.00252
     Eigenvalues ---    0.00317   0.00599   0.00679   0.00784   0.00968
     Eigenvalues ---    0.01892   0.01981   0.02026   0.02539   0.03462
     Eigenvalues ---    0.03758   0.03903   0.04028   0.04169   0.04244
     Eigenvalues ---    0.04373   0.04567   0.04870   0.04946   0.04977
     Eigenvalues ---    0.05310   0.05677   0.06163   0.06249   0.07495
     Eigenvalues ---    0.07765   0.07860   0.10277   0.10426   0.10846
     Eigenvalues ---    0.11385   0.11623   0.12108   0.12792   0.12838
     Eigenvalues ---    0.13291   0.14934   0.15439   0.15817   0.16303
     Eigenvalues ---    0.18175   0.18513   0.19450   0.20485   0.21125
     Eigenvalues ---    0.22508   0.22662   0.23176   0.24327   0.24622
     Eigenvalues ---    0.26429   0.28360   0.30121   0.30550   0.31944
     Eigenvalues ---    0.32874   0.33151   0.33408   0.33477   0.33563
     Eigenvalues ---    0.34076   0.34422   0.34485   0.35625   0.36339
     Eigenvalues ---    0.37030   0.37293   0.39628   0.40776   0.42781
     Eigenvalues ---    0.42945   0.43866   0.44072   0.45213   0.46132
     Eigenvalues ---    0.46161   0.47242   0.50686   0.57233   0.58988
     Eigenvalues ---    0.79278   0.87750
 RFO step:  Lambda=-9.12167689D-03 EMin=-9.40343344D-04
 Linear search not attempted -- first point.
 Iteration  1 RMS(Cart)=  0.16147388 RMS(Int)=  0.04117946
 Iteration  2 RMS(Cart)=  0.12039657 RMS(Int)=  0.00615299
 Iteration  3 RMS(Cart)=  0.01099384 RMS(Int)=  0.00048950
 Iteration  4 RMS(Cart)=  0.00009670 RMS(Int)=  0.00048813
 Iteration  5 RMS(Cart)=  0.00000011 RMS(Int)=  0.00048813
 Variable       Old X    -DE/DX   Delta X   Delta X   Delta X     New X
                                 (Linear)    (Quad)   (Total)
    R1        2.30979  -0.01104   0.00000  -0.00796  -0.00796   2.30184
    R2        2.56802  -0.00497   0.00000  -0.03357  -0.03357   2.53446
    R3        2.86328   0.00542   0.00000   0.03189   0.03189   2.89516
    R4        2.74456   0.00479   0.00000   0.00658   0.00658   2.75114
    R5        1.90584   0.00162   0.00000   0.00321   0.00321   1.90905
    R6        2.86002   0.00160   0.00000   0.00683   0.00683   2.86686
    R7        2.92806   0.00603   0.00000   0.01670   0.01670   2.94476
    R8        2.07145  -0.00227   0.00000  -0.00728  -0.00728   2.06417
    R9        2.55465  -0.00582   0.00000  -0.02009  -0.02009   2.53455
   R10        2.27296   0.00122   0.00000   0.00256   0.00256   2.27552
   R11        1.83216   0.00086   0.00000   0.00065   0.00065   1.83281
   R12        2.81762   0.00229   0.00000  -0.00807  -0.00807   2.80955
   R13        2.05699  -0.00180   0.00000  -0.00378  -0.00378   2.05321
   R14        2.05964   0.00188   0.00000   0.00537   0.00537   2.06501
   R15        2.58076   0.00378   0.00000   0.00843   0.00844   2.58919
   R16        2.59022   0.00916   0.00000   0.01908   0.01909   2.60931
   R17        2.61600  -0.00590   0.00000  -0.02080  -0.02080   2.59520
   R18        2.04211  -0.00286   0.00000  -0.00711  -0.00711   2.03500
   R19        2.47712  -0.00092   0.00000  -0.00148  -0.00149   2.47563
   R20        2.57044   0.00318   0.00000   0.00717   0.00717   2.57762
   R21        2.03175   0.00135   0.00000   0.00324   0.00324   2.03499
   R22        1.90415  -0.00263   0.00000  -0.00490  -0.00490   1.89925
   R23        2.87894   0.00165   0.00000  -0.01054  -0.01054   2.86840
   R24        2.05911   0.00096   0.00000   0.00454   0.00454   2.06364
   R25        2.06356   0.00042   0.00000  -0.00328  -0.00328   2.06028
   R26        2.80953   0.00989   0.00000   0.05457   0.05457   2.86410
   R27        2.06237  -0.00171   0.00000  -0.00639  -0.00639   2.05599
   R28        2.06017  -0.00110   0.00000  -0.00402  -0.00402   2.05615
   R29        1.92758   0.00286   0.00000   0.00470   0.00470   1.93229
   R30        1.92945   0.00177   0.00000   0.00215   0.00215   1.93160
   R31        1.92799   0.00213   0.00000   0.00282   0.00282   1.93081
    A1        2.13113   0.01018   0.00000   0.04803   0.04803   2.17916
    A2        2.13940  -0.01127   0.00000  -0.07219  -0.07219   2.06720
    A3        2.01244   0.00110   0.00000   0.02417   0.02417   2.03661
    A4        2.09611   0.00430   0.00000   0.02734   0.02553   2.12164
    A5        2.11751  -0.00123   0.00000   0.00879   0.00702   2.12453
    A6        2.02563  -0.00258   0.00000  -0.00566  -0.00754   2.01809
    A7        1.86306  -0.00770   0.00000  -0.01910  -0.01904   1.84402
    A8        1.93735   0.00405   0.00000   0.02437   0.02439   1.96174
    A9        1.87700   0.00252   0.00000   0.02501   0.02518   1.90218
   A10        1.97563   0.00397   0.00000  -0.00062  -0.00061   1.97502
   A11        1.89345   0.00115   0.00000   0.00038   0.00031   1.89376
   A12        1.91395  -0.00408   0.00000  -0.02845  -0.02870   1.88525
   A13        1.96695   0.00379   0.00000   0.00064   0.00064   1.96759
   A14        2.17483  -0.00343   0.00000  -0.01061  -0.01061   2.16421
   A15        2.14140  -0.00035   0.00000   0.00995   0.00995   2.15135
   A16        1.85401   0.00559   0.00000   0.03149   0.03149   1.88550
   A17        1.97123   0.01193   0.00000   0.02778   0.02780   1.99903
   A18        1.88012  -0.00422   0.00000  -0.01726  -0.01728   1.86284
   A19        1.92228  -0.00403   0.00000  -0.01300  -0.01321   1.90907
   A20        1.86964  -0.00387   0.00000  -0.00590  -0.00573   1.86391
   A21        1.94962  -0.00235   0.00000   0.00408   0.00410   1.95372
   A22        1.86572   0.00195   0.00000   0.00231   0.00214   1.86787
   A23        2.29073  -0.00553   0.00000  -0.01533  -0.01541   2.27532
   A24        2.15839   0.00784   0.00000   0.02102   0.02095   2.17934
   A25        1.83359  -0.00229   0.00000  -0.00503  -0.00510   1.82848
   A26        1.92995   0.00120   0.00000   0.00351   0.00350   1.93345
   A27        2.23197  -0.00071   0.00000  -0.00749  -0.00749   2.22448
   A28        2.12126  -0.00049   0.00000   0.00399   0.00399   2.12525
   A29        1.83408   0.00358   0.00000   0.00927   0.00925   1.84333
   A30        1.94677  -0.00029   0.00000  -0.00170  -0.00171   1.94506
   A31        2.21083  -0.00132   0.00000  -0.00926  -0.00926   2.20158
   A32        2.12558   0.00160   0.00000   0.01096   0.01097   2.13655
   A33        1.88022  -0.00218   0.00000  -0.00577  -0.00577   1.87445
   A34        2.16723   0.00393   0.00000   0.02139   0.02139   2.18862
   A35        2.23546  -0.00176   0.00000  -0.01559  -0.01559   2.21987
   A36        1.93134  -0.00742   0.00000  -0.07953  -0.07998   1.85136
   A37        1.88064   0.00004   0.00000  -0.02909  -0.03057   1.85007
   A38        1.93754   0.00201   0.00000   0.05036   0.05173   1.98927
   A39        1.90178   0.00296   0.00000   0.00661   0.00372   1.90550
   A40        1.91135   0.00429   0.00000   0.05264   0.05332   1.96467
   A41        1.90039  -0.00186   0.00000  -0.00201  -0.00215   1.89824
   A42        1.95089  -0.00258   0.00000  -0.00488  -0.00469   1.94620
   A43        1.91397   0.00413   0.00000   0.04733   0.04700   1.96097
   A44        1.90342   0.00385   0.00000   0.01460   0.01367   1.91709
   A45        1.89939  -0.00222   0.00000  -0.03375  -0.03378   1.86561
   A46        1.91828  -0.00363   0.00000  -0.04998  -0.05014   1.86814
   A47        1.87641   0.00057   0.00000   0.02820   0.02623   1.90264
   A48        1.93980  -0.00009   0.00000  -0.00782  -0.00785   1.93195
   A49        1.95492  -0.00059   0.00000  -0.00837  -0.00839   1.94654
   A50        1.94324   0.00011   0.00000   0.00319   0.00319   1.94644
   A51        1.87243   0.00042   0.00000   0.00638   0.00633   1.87877
   A52        1.87655  -0.00029   0.00000  -0.00008  -0.00008   1.87647
   A53        1.87299   0.00048   0.00000   0.00760   0.00761   1.88060
    D1       -0.10391   0.00033   0.00000   0.04881   0.04909  -0.05482
    D2       -2.91907  -0.00100   0.00000  -0.06011  -0.06043  -2.97950
    D3        3.01567   0.00057   0.00000   0.04819   0.04851   3.06418
    D4        0.20052  -0.00076   0.00000  -0.06073  -0.06101   0.13950
    D5        1.40506  -0.00156   0.00000  -0.43069  -0.42952   0.97554
    D6       -0.67253  -0.00091   0.00000  -0.37523  -0.37640  -1.04893
    D7       -2.75201   0.00016   0.00000  -0.38404  -0.38408  -3.13609
    D8       -1.71441  -0.00210   0.00000  -0.43176  -0.43056  -2.14497
    D9        2.49119  -0.00145   0.00000  -0.37630  -0.37744   2.11375
   D10        0.41171  -0.00038   0.00000  -0.38511  -0.38512   0.02658
   D11       -2.81581   0.00117   0.00000  -0.05682  -0.05669  -2.87250
   D12        1.30691  -0.00115   0.00000  -0.05847  -0.05814   1.24877
   D13       -0.78674  -0.00012   0.00000  -0.05365  -0.05381  -0.84055
   D14        0.01592   0.00259   0.00000   0.04879   0.04872   0.06464
   D15       -2.14454   0.00027   0.00000   0.04714   0.04727  -2.09727
   D16        2.04499   0.00130   0.00000   0.05196   0.05160   2.09660
   D17       -3.13461  -0.00091   0.00000  -0.00296  -0.00293  -3.13754
   D18        0.00343  -0.00074   0.00000  -0.00716  -0.00712  -0.00369
   D19       -0.99799   0.00130   0.00000   0.01393   0.01397  -0.98401
   D20        2.14005   0.00147   0.00000   0.00973   0.00979   2.14983
   D21        1.13050  -0.00044   0.00000  -0.02243  -0.02252   1.10798
   D22       -2.01465  -0.00028   0.00000  -0.02663  -0.02671  -2.04136
   D23       -2.49123  -0.00076   0.00000  -0.01195  -0.01181  -2.50304
   D24       -0.43011  -0.00126   0.00000  -0.01413  -0.01410  -0.44421
   D25        1.59876  -0.00350   0.00000  -0.02813  -0.02791   1.57085
   D26        1.69725   0.00352   0.00000  -0.00438  -0.00430   1.69295
   D27       -2.52481   0.00301   0.00000  -0.00655  -0.00659  -2.53140
   D28       -0.49594   0.00078   0.00000  -0.02055  -0.02040  -0.51634
   D29       -0.41972   0.00228   0.00000   0.01600   0.01582  -0.40391
   D30        1.64140   0.00177   0.00000   0.01382   0.01353   1.65493
   D31       -2.61292  -0.00046   0.00000  -0.00018  -0.00028  -2.61320
   D32       -3.12587  -0.00054   0.00000  -0.01999  -0.02001   3.13731
   D33        0.01920  -0.00069   0.00000  -0.01583  -0.01581   0.00340
   D34        2.09828  -0.00140   0.00000  -0.05787  -0.05792   2.04036
   D35       -1.00477  -0.00236   0.00000  -0.08437  -0.08446  -1.08923
   D36        0.03104  -0.00061   0.00000  -0.04891  -0.04891  -0.01787
   D37       -3.07201  -0.00157   0.00000  -0.07541  -0.07544   3.13573
   D38       -2.00651   0.00065   0.00000  -0.05038  -0.05027  -2.05678
[...]
 00001434,0.00001188,0.00001387,-0.00000018,0.00001113,-0.00000705,-0.0
 0000850,0.00001271,-0.01171900,-0.05061386,-0.06013607,-0.00722685,-0.
 02937384,-0.00780440,-0.00128450,0.00041707,0.00179257,0.00016668,0.00
 049674,0.00021318,0.00007748,0.00002661,-0.00005363,-0.00000389,-0.000
 00279,0.00001212,-0.00001949,0.00000032,-0.00000004,0.00001713,-0.0000
 2744,-0.00000528,-0.00000185,-0.00000500,-0.00000369,0.00000074,0.0000
 0067,0.00000101,-0.00001154,0.00000471,0.00000353,0.01218174,0.0591990
 1,0.06460840,-0.00808936,-0.00236172,-0.00236705,0.00000689,0.02072251
 ,-0.02661314,0.00091008,-0.00135245,0.00149190,-0.00004116,-0.00028110
 ,-0.00001503,-0.00023329,0.00006528,-0.00027408,0.00014219,0.00000209,
 0.00004405,0.00020025,-0.00010672,0.00017639,0.00015805,-0.00001424,0.
 00003563,0.00002121,-0.00001736,-0.00003850,0.00001746,0.00002392,0.00
 000031,-0.00000321,0.00000976,0.00002265,-0.00002391,-0.00001042,0.000
 00117,-0.00002218,-0.00001026,0.00002375,-0.06431640,0.04016291,-0.046
 76365,0.00333825,-0.01101065,0.01562570,0.00157276,-0.00044471,-0.0001
 0776,-0.00148007,0.00039245,0.00065826,0.00006554,0.00004147,0.0000137
 8,-0.00002051,0.00001084,0.00000580,0.00002714,-0.00007010,-0.00002240
 ,-0.00001732,-0.00000073,0.00001640,0.00000586,-0.00003322,0.00001429,
 -0.00000073,-0.00000169,0.00000187,-0.00000993,0.00001109,-0.00001621,
 0.00211340,-0.00504756,0.00734867,0.06776234,-0.00061305,0.00083866,-0
 .00088191,-0.00231782,-0.00011775,-0.00074966,0.00027036,0.00010822,-0
 .00044037,0.00007697,0.00011315,-0.00022158,0.00008151,-0.00003738,0.0
 0018248,-0.00002101,0.00001869,-0.00004904,-0.00005996,-0.00003461,-0.
 00013421,-0.00005410,-0.00003095,0.00000657,-0.00001637,0.00000860,-0.
 00000527,-0.00001138,-0.00001002,0.00000415,0.00001109,-0.00000221,-0.
 00000217,0.00000806,0.00000446,-0.00000448,0.00001424,0.00000588,-0.00
 000126,0.04021040,-0.14027400,0.11933286,-0.00337210,0.00734907,-0.010
 70064,-0.00075410,0.00012139,0.00021148,0.00053562,0.00037703,-0.00021
 409,-0.00005893,0.00000016,-0.00000671,0.00000439,0.00000564,0.0000077
 0,-0.00001328,0.00002042,-0.00000739,0.00001330,-0.00000855,-0.0000065
 2,-0.00000374,0.00000896,-0.00000893,0.00000063,0.00000040,-0.00000038
 ,-0.00000265,0.00000102,0.00000767,0.00781722,-0.01697636,0.02338657,-
 0.04241763,0.14734608,-0.00136654,0.00030026,0.00122559,-0.00173532,0.
 00142070,-0.00532660,0.00160058,-0.00040254,0.00017159,-0.00045356,-0.
 00061967,0.00002663,-0.00002812,0.00001933,0.00008763,-0.00000056,0.00
 000112,-0.00002688,-0.00001540,-0.00000505,-0.00006185,0.00014616,0.00
 007698,-0.00000051,0.00002580,-0.00004530,-0.00000740,0.00000743,0.000
 00406,-0.00003136,0.00002359,0.00001254,0.00001142,0.00000972,-0.00000
 282,0.00001873,-0.00002294,-0.00001239,0.00001818,-0.04619006,0.117453
 33,-0.20254965,-0.00768823,0.01558087,-0.02227650,-0.00011302,0.000031
 42,0.00091464,0.00054116,0.00030323,0.00082136,-0.00002975,0.00005331,
 0.00002546,0.00000140,0.00000453,0.00000246,-0.00000395,0.00000313,-0.
 00001428,0.00000652,-0.00001934,0.00000547,0.00000156,-0.00000842,0.00
 000140,-0.00000051,0.00000055,0.00000174,-0.00000416,0.00000017,-0.000
 00080,0.00209866,-0.00408271,0.00665018,0.04968035,-0.12823067,0.22241
 768,-0.00056841,-0.00071211,-0.00072471,0.00201676,0.00056566,0.000948
 88,-0.00052154,-0.00024605,0.00006278,0.00011921,0.00006436,0.00006386
 ,0.00005076,0.00003092,-0.00001823,-0.00005898,-0.00002197,0.00002073,
 -0.00004429,-0.00002967,0.00000095,-0.00000658,-0.00000112,-0.00001259
 ,0.00000711,-0.00000326,0.00000685,0.00000932,-0.00000322,0.00000349,-
 0.00001893,-0.00001138,-0.00001105,-0.00001089,-0.00000061,-0.00000057
 ,0.00000266,-0.00000050,-0.00001255,0.00307226,0.01577708,0.00188309,-
 0.05091693,-0.01370884,-0.00364295,-0.01557678,-0.04044164,-0.00538857
 ,0.00006135,0.00008953,-0.00006719,-0.00004610,0.00001362,-0.00000798,
 0.00000256,0.00000926,0.00000011,0.00000907,-0.00000291,0.00001277,0.0
 0000493,-0.00000240,-0.00000631,0.00000200,0.00000559,0.00000566,-0.00
 000147,0.00000227,0.00000012,0.00000483,0.00000433,0.00000259,-0.00142
 907,0.00051734,0.00291124,0.00039073,-0.00067286,-0.00036842,0.0638679
 2,0.00024015,0.00067854,0.00079552,-0.00051508,0.00011490,-0.00129957,
 0.00022756,-0.00013624,0.00021320,-0.00002197,-0.00001503,-0.00002305,
 -0.00001302,0.00000208,0.00000020,0.00001687,0.00000060,-0.00000591,0.
 00001010,-0.00000148,0.00000812,0.00000914,0.00001526,-0.00000203,0.00
 000170,0.00000008,-0.00000560,-0.00000006,0.00000263,-0.00000412,0.000
 00531,0.00000324,0.00000629,0.00000113,0.00000022,-0.00000036,-0.00000
 363,-0.00000427,0.00000829,0.00069671,-0.00602724,-0.00169099,-0.02658
 804,-0.31762450,-0.04054611,-0.00115192,-0.00164137,0.00020984,-0.0000
 3004,-0.00005131,0.00003281,0.00000806,0.00000824,0.00000543,-0.000001
 63,0.00000084,0.00000118,-0.00000204,-0.00000574,-0.00000486,-0.000001
 42,-0.00000390,0.00000329,-0.00000022,-0.00000465,-0.00000163,-0.00000
 007,-0.00000018,0.00000021,-0.00000247,0.00000113,-0.00000161,0.000615
 20,0.00126501,-0.00078415,0.00003989,0.00103999,-0.00000862,0.02872306
 ,0.33470093,0.00005286,-0.00047035,0.00024211,-0.00098220,-0.00013973,
 0.00008880,0.00014676,0.00039636,-0.00011246,-0.00000224,0.00003485,-0
 .00001010,0.00005530,-0.00002936,0.00005752,-0.00002479,0.00000532,-0.
 00001281,-0.00003233,0.00004385,-0.00003382,0.00000302,-0.00001534,0.0
 0000089,-0.00000432,0.00000375,0.00000143,0.00000292,-0.00000104,0.000
 00032,-0.00000130,-0.00000291,-0.00000833,0.00000016,-0.00000139,0.000
 00690,0.00000281,0.00000533,-0.00000813,-0.00218829,-0.02816942,-0.004
 99876,-0.00398429,-0.03954062,-0.05687208,-0.00094351,-0.00077938,-0.0
 0060447,0.00001486,-0.00015025,-0.00001818,0.00003032,-0.00000631,0.00
 000542,0.00000659,-0.00000588,-0.00000194,-0.00000137,0.00000093,-0.00
 001322,-0.00000657,-0.00000142,0.00000353,0.00000155,0.00000328,0.0000
 0231,0.00000026,0.00000012,0.00000033,0.00000263,-0.00000377,0.0000037
 9,0.00330177,-0.00132730,-0.00387461,-0.00110257,0.00030893,0.00124662
 ,0.00178704,0.04597770,0.05863881,-0.00291222,0.00102637,-0.00229535,0
 .00135722,-0.00054374,0.00470200,0.00021033,0.00014839,-0.00243654,-0.
 00027253,-0.00000483,-0.00000288,-0.00005721,-0.00010557,0.00022549,0.
 00004560,0.00003303,-0.00007325,0.00001121,0.00008613,-0.00018878,-0.0
 0002073,0.00000692,0.00001806,-0.00002506,-0.00003301,0.00001680,-0.00
 003177,-0.00003082,0.00000201,0.00004124,-0.00000136,-0.00000726,0.000
 02353,0.00001039,0.00000219,0.00002073,0.00000621,-0.00001300,0.007136
 59,-0.00910550,0.01078287,-0.07517252,0.04392749,-0.06953029,-0.023623
 45,0.01647516,-0.02755978,0.00053125,-0.00002474,-0.00004956,-0.000024
 15,-0.00001398,0.00004736,-0.00000606,-0.00001023,0.00001512,-0.000014
 06,0.00006377,0.00002078,0.00002299,0.00000187,-0.00002027,-0.00001263
 ,0.00003490,-0.00001457,0.00000153,0.00000202,-0.00000204,-0.00000898,
 -0.00000041,0.00001373,0.00054896,0.00023994,-0.00032960,-0.00238384,0
 .00154870,0.00283894,0.00354276,-0.00157011,0.00387615,0.09454350,0.00
 084745,-0.00140445,-0.00059140,0.00043346,0.00057256,0.00074068,-0.000
 19353,0.00016076,0.00005998,0.00006239,-0.00001242,0.00007891,0.000006
 98,0.00001881,-0.00005766,-0.00002182,-0.00001424,0.00002370,-0.000001
 02,-0.00001295,0.00002927,0.00001533,0.00000830,-0.00001254,0.00000900
 ,-0.00000695,0.00000472,0.00002123,0.00000268,-0.00001081,-0.00001728,
 -0.00001175,-0.00000387,-0.00001035,-0.00000156,0.00000531,-0.00000874
 ,-0.00000398,-0.00000331,-0.00454401,0.00644173,-0.00879500,0.05172123
 ,-0.12740364,0.11395603,-0.00734525,0.00500534,-0.00980452,-0.00011697
 ,0.00008750,-0.00001759,0.00000940,-0.00000682,-0.00001076,0.00000189,
 0.00000430,-0.00000307,0.00000832,0.00000043,-0.00000315,-0.00000157,0
 .00000013,-0.00000112,0.00000582,0.00000727,0.00000992,-0.00000121,0.0
 0000113,0.00000121,0.00000301,0.00000328,-0.00000179,-0.00070967,0.000
 63815,0.00013714,0.00145522,0.00025580,-0.00187056,0.01115653,-0.01385
 561,0.02429035,-0.05140297,0.12858022,-0.00201679,-0.00042121,0.002428
 65,-0.00174140,0.00063024,-0.00276798,-0.00015384,0.00000006,0.0004114
 1,0.00007053,-0.00000764,0.00006652,-0.00000768,0.00005034,-0.00008568
 ,-0.00001024,-0.00001362,0.00002739,0.00001615,-0.00003138,0.00006253,
 0.00002278,0.00000199,0.00000754,0.00001508,-0.00000376,0.00001499,-0.
 00000323,-0.00000739,0.00001362,-0.00001148,-0.00000309,-0.00001707,-0
 .00001155,-0.00000397,0.00000475,0.00000546,0.00000589,-0.00002454,-0.
 00563055,0.01414450,-0.02356559,-0.07795008,0.11154616,-0.22190391,0.0
 0209433,-0.00249502,0.00338205,-0.00013870,0.00003010,0.00011252,0.000
 02860,0.00000252,-0.00000917,-0.00000146,0.00000174,-0.00000165,0.0000
 1396,-0.00003026,0.00000236,-0.00001300,0.00000050,0.00000178,-0.00000
 055,0.00000369,0.00001231,-0.00000029,0.00000121,-0.00000067,0.0000044
 2,0.00000171,0.00000072,-0.00051778,-0.00020864,0.00088047,0.00233985,
 -0.00258660,-0.00292827,0.00287838,-0.00301431,0.00573310,0.08030482,-
 0.11738106,0.23702340,0.00048938,0.00020565,0.00029856,-0.00114116,0.0
 0039189,-0.00059766,0.00067022,-0.00002114,-0.00016020,-0.00021887,-0.
 00005426,-0.00009466,-0.00015110,-0.00008780,0.00017556,0.00016022,0.0
 0004577,-0.00008794,0.00009718,0.00004955,-0.00010116,0.00000346,0.000
 03909,-0.00000315,-0.00001231,-0.00002756,-0.00001037,-0.00002124,-0.0
 0000924,-0.00001979,0.00005740,0.00000861,0.00001862,0.00002128,0.0000
 0570,0.00000426,0.00000046,-0.00000825,0.00002096,0.00211709,-0.000928
 90,-0.00038378,-0.00521862,-0.03605772,-0.00440561,-0.06488049,-0.0598
 3872,-0.00737683,-0.00002782,-0.00004191,0.00014777,0.00002852,-0.0000
 0066,0.00000737,-0.00001840,-0.00001180,0.00001943,-0.00001133,0.00003
 209,-0.00001290,0.00001406,-0.00001106,0.00000167,-0.00000664,0.000010
 16,-0.00001332,0.00000126,0.00000098,0.00000018,-0.00002148,0.00000453
 ,0.00000389,-0.00012179,0.00124051,0.00106296,0.00009986,0.00028114,0.
 00001311,-0.00693739,0.00053441,-0.00002150,0.00116491,0.00041139,-0.0
 0069308,0.06767396,0.00035070,-0.00021904,-0.00009566,-0.00043492,-0.0
 0004534,-0.00027728,0.00048788,-0.00004305,-0.00009856,-0.00013990,0.0
 0004159,-0.00007040,-0.00008138,-0.00002529,0.00006173,0.00009415,0.00
 001182,-0.00004446,0.00006741,-0.00000378,-0.00003068,-0.00000360,0.00
 003957,-0.00000973,0.00000417,-0.00003030,-0.00000717,0.00000761,-0.00
 000774,-0.00002252,0.00001843,-0.00001007,0.00001290,0.00000359,0.0000
 0436,0.00000165,-0.00000996,-0.00001423,0.00001669,0.00126742,0.001931
 22,0.00157933,-0.00623522,-0.00276063,-0.00094927,-0.04982997,-0.38838
 341,-0.04057618,-0.00002791,0.00004021,0.00008065,0.00000754,-0.000000
 49,-0.00000102,-0.00000837,0.00000525,0.00001034,-0.00000367,0.0000273
 8,0.00000826,0.00001533,-0.00000386,-0.00000795,-0.00000276,0.00001724
 ,0.00000026,-0.00000103,0.00000307,0.00000131,-0.00001265,0.00001347,-
 0.00000141,-0.00036824,-0.00032844,0.00015546,-0.00007484,-0.00029993,
 -0.00006968,0.00011062,0.00165129,-0.00022968,0.00061412,0.00095223,-0
 .00026039,0.05856334,0.41179268,-0.00038333,0.00015635,-0.00072294,0.0
 0108958,-0.00047147,0.00049802,-0.00023138,-0.00000784,-0.00005846,0.0
 0009735,0.00004521,0.00000923,0.00012551,0.00002306,0.00000054,-0.0001
 0339,-0.00001658,0.00002235,-0.00008204,-0.00001661,-0.00001657,0.0000
 0116,-0.00002310,0.00002018,0.00000085,0.00000851,0.00001604,-0.000007
 09,-0.00000587,0.00002838,-0.00002482,-0.00000041,-0.00002824,-0.00000
 838,-0.00000381,0.00000454,0.00001497,0.00001306,-0.00003737,-0.000349
 62,0.00195226,0.00058948,-0.00129309,-0.00140483,-0.00002253,-0.005699
 62,-0.04056855,-0.06795946,0.00004671,0.00004533,-0.00004855,-0.000016
 31,-0.00000212,-0.00000156,0.00001326,0.00000703,-0.00000509,0.0000021
 2,-0.00001388,0.00001710,-0.00000375,0.00000536,-0.00000933,0.00000048
 ,-0.00000264,0.00000703,0.00000022,0.00000036,-0.00000105,0.00001356,-
 0.00000394,0.00000632,0.00010119,-0.00089670,0.00007812,0.00011272,0.0
 0003622,-0.00014878,-0.00017575,0.00025865,0.00036122,-0.00055628,-0.0
 0049059,-0.00034168,0.00789239,0.04450437,0.06324612,0.00037821,-0.000
 15401,-0.00113202,0.00079468,0.00025405,0.00355518,-0.00084704,0.00004
 364,-0.00052276,0.00003995,-0.00004705,0.00018561,-0.00009755,0.000007
 18,-0.00004407,0.00001437,-0.00000759,0.00002103,0.00002909,-0.0000033
 8,-0.00000027,-0.00000640,-0.00001274,0.00000230,-0.00000560,-0.000000
 71,0.00000887,-0.00001304,-0.00001071,0.00000699,0.00001104,-0.0000034
 0,-0.00000782,0.00000196,0.00000221,-0.00000073,0.00001305,0.00000303,
 -0.00001096,-0.00701439,-0.00181570,-0.00292807,-0.01327991,0.01007356
 ,0.02814634,-0.12181452,0.04687619,0.13296205,0.00001196,0.00003363,-0
 .00004725,-0.00001674,-0.00000069,0.00000699,-0.00001435,-0.00000075,0
 .00000735,-0.00000088,0.00001234,0.00000245,0.00000197,0.00000172,-0.0
 0000368,-0.00000331,0.00001022,-0.00000225,0.00000010,0.00000155,-0.00
 000088,-0.00000322,0.00000146,0.00000530,0.00042200,-0.00004455,-0.000
 51428,0.00016850,-0.00023381,-0.00001981,0.00134834,-0.00077146,0.0001
 4808,0.00076825,0.00113469,-0.00058711,0.00316765,-0.00124024,-0.00737
 883,0.12706462,-0.00011886,-0.00015505,-0.00001326,0.00015545,0.000633
 97,0.00036149,-0.00027389,-0.00003803,0.00004373,0.00005307,-0.0000550
 2,0.00004530,0.00002986,0.00003271,-0.00006520,-0.00004660,-0.00002136
 ,0.00003029,-0.00002346,-0.00002785,0.00003367,0.00001063,-0.00000536,
 -0.00000433,0.00000619,0.00000314,0.00000030,0.00001269,0.00000165,-0.
 00000142,-0.00001607,-0.00000903,-0.00000296,-0.00000711,-0.00000168,-
 0.00000070,-0.00000369,-0.00000273,-0.00000069,-0.00164061,-0.00050833
 ,-0.00083050,-0.00174096,0.00262418,0.00762942,0.04307240,-0.09093604,
 -0.08274087,0.00001165,0.00004325,-0.00003732,-0.00002203,0.00000503,0
 .00000188,0.00000306,0.00001054,-0.00000256,0.00000385,-0.00000482,0.0
 0000305,-0.00000050,0.00000137,-0.00000178,0.00000163,0.00000186,0.000
 00444,-0.00000130,0.00000175,0.00000082,0.00000435,0.00000402,-0.00000
 115,0.00006051,0.00033144,0.00006668,0.00021331,0.00006478,-0.00019242
 ,-0.00063431,-0.00028205,0.00055771,0.00071697,-0.00003597,-0.00010397
 ,0.01805080,-0.00798822,-0.03395775,-0.04691328,0.08911991,-0.00033982
 ,0.00003714,0.00020019,-0.00014327,0.00009182,0.00004386,-0.00035478,0
 .00000086,0.00008372,0.00011089,-0.00000937,0.00001978,0.00015172,0.00
 003197,-0.00003486,-0.00013127,-0.00002361,0.00003974,-0.00009805,-0.0
 0001298,0.00000956,0.00001613,-0.00003127,0.00001508,0.00000266,0.0000
 1428,0.00001543,0.00000250,-0.00000260,0.00002731,-0.00003414,-0.00000
 376,-0.00003142,-0.00001271,-0.00000651,0.00000769,0.00001167,0.000014
 26,-0.00003879,-0.00058423,-0.00037765,-0.00010015,0.00155717,0.003089
 29,0.00630401,0.12417848,-0.08448937,-0.30987415,0.00004966,0.00002298
 ,-0.00009136,-0.00001810,-0.00000312,0.00000401,0.00001652,0.00000613,
 -0.00000878,0.00000819,-0.00001775,0.00000943,-0.00000772,0.00000578,-
 0.00000696,0.00000303,-0.00000314,0.00001096,-0.00000009,0.00000060,-0
 .00000032,0.00001720,-0.00000558,0.00000528,-0.00003754,0.00001893,-0.
 00009635,-0.00016776,-0.00005551,0.00011246,-0.00023809,0.00018717,0.0
 0031252,-0.00067830,0.00007687,0.00069181,0.00027846,-0.00051459,-0.00
 167658,-0.13679669,0.09175970,0.32685322,0.00014456,0.00005781,0.00147
 521,-0.00220718,-0.00029525,-0.00155504,0.00073253,-0.00004481,0.00007
 647,-0.00019821,0.00001768,-0.00009397,-0.00016561,-0.00005911,0.00013
 741,0.00017073,0.00003957,-0.00008232,0.00011411,0.00002499,-0.0000679
 8,-0.00000284,0.00004531,-0.00000796,-0.00000429,-0.00003139,-0.000010
 77,-0.00001060,-0.00000551,-0.00002679,0.00004933,0.00000432,0.0000213
 5,0.00001464,0.00000500,0.00000399,-0.00000614,-0.00001267,0.00002449,
 0.00285835,0.00067445,-0.00045902,-0.01455502,0.01752393,-0.02663697,-
 0.11821904,0.07657854,-0.11481274,-0.00007163,-0.00000532,0.00016947,0
 .00002975,0.00000442,-0.00000039,-0.00001982,-0.00000916,0.00002011,-0
 .00000703,0.00002208,-0.00001066,0.00001128,-0.00001206,0.00000376,-0.
 00000340,0.00000958,-0.00000887,0.00000039,0.00000130,0.00000059,-0.00
 002236,0.00000813,0.00000108,-0.00019101,0.00013311,0.00018551,-0.0003
 5862,-0.00025083,0.00104538,0.00162479,-0.00045614,-0.00013781,-0.0054
 0537,-0.00292894,0.00169444,0.00302172,-0.00313764,0.00680159,0.008881
 21,-0.01096376,0.01323827,0.12379478,-0.00055718,0.00003088,0.00012802
 ,0.00059834,-0.00011763,-0.00026540,-0.00034249,-0.00007295,0.00024337
 ,0.00012249,0.00001900,0.00005083,0.00004861,0.00007216,-0.00012730,-0
 .00006365,-0.00003275,0.00005055,-0.00002903,-0.00006439,0.00007734,-0
 .00000518,-0.00000711,-0.00000135,0.00001162,0.00001085,0.00000347,0.0
 0001298,0.00000413,0.00000719,-0.00002756,-0.00000723,-0.00000586,-0.0
 0001285,-0.00000298,-0.00000453,-0.00000250,-0.00000114,-0.00000556,-0
 .00019179,0.00005877,-0.00070336,-0.00090682,0.00621721,-0.00759519,0.
 07061029,-0.14519007,0.12624477,-0.00000323,0.00007461,-0.00005782,-0.
 00001741,0.00000703,-0.00001067,0.00000372,0.00001571,-0.00000695,0.00
 000532,-0.00002282,0.00000957,-0.00000502,0.00000378,-0.00000122,0.000
 00252,-0.00000521,0.00000736,-0.00000139,0.00000115,0.00000037,0.00000
 783,0.00000438,-0.00000340,0.00021977,-0.00043233,0.00008258,0.0001046
 7,0.00010334,0.00030463,-0.00057731,0.00016859,-0.00075433,-0.00209512
 ,0.00002971,0.00015167,0.01722341,-0.01636757,0.03083092,-0.00719542,0
 .00719194,-0.00980099,-0.07693763,0.14831094,0.00008358,-0.00000956,-0
 .00064020,0.00028971,-0.00001034,0.00008083,0.00022814,0.00001835,-0.0
 0024014,-0.00003084,0.00002903,-0.00004499,0.00008934,-0.00004268,0.00
 014928,-0.00004587,0.00000787,-0.00003510,-0.00006265,0.00003350,-0.00
 010984,0.00000433,-0.00000229,0.00000886,-0.00000781,-0.00000610,0.000
 00731,-0.00000854,-0.00000720,0.00000860,0.00000203,0.00000036,-0.0000
 1537,0.00000354,-0.00000065,0.00000854,0.00000908,0.00000645,-0.000019
 66,0.00048489,-0.00089759,0.00258781,-0.00349978,-0.00260009,0.0023704
 8,-0.10654216,0.12804737,-0.25960075,0.00009837,-0.00002038,0.00003680
 ,-0.00000114,-0.00000006,0.00000350,0.00001012,-0.00000029,0.00000451,
 -0.00000380,0.00001125,0.00000369,0.00000513,-0.00000275,-0.00000720,-
 0.00000112,0.00000506,-0.00000027,0.00000055,0.00000093,-0.00000006,0.
 00000357,-0.00000248,0.00000885,0.00005105,-0.00011354,0.00004210,-0.0
 0012542,0.00082276,-0.00038634,0.00008643,-0.00031498,-0.00013671,0.00
 089143,-0.00035529,0.00076829,0.00403674,-0.00316632,0.00617353,-0.015
 06107,0.01741837,-0.02280633,0.11901215,-0.13884869,0.27177998\\-0.000
 00141,-0.00000409,-0.00000044,-0.00000044,0.00001092,0.00000152,-0.000
 00287,-0.00000179,0.00000063,0.00000053,-0.00000020,0.00000024,-0.0000
 0342,-0.00000230,0.00000053,0.00000512,0.00000060,0.00000187,0.0000018
 6,0.00000119,0.00000044,0.00000356,-0.00000502,-0.00000015,-0.00000624
 ,0.00000363,0.00000242,-0.00000020,0.00000040,0.00000023,-0.00000057,-
 0.00000018,-0.00000025,0.00000039,-0.00000164,-0.00000056,0.00000307,-
 0.00000530,-0.00000544,-0.00000182,-0.00000237,0.00000064,0.00000917,0
 .00000200,0.00000095,-0.00000305,-0.00000065,-0.00000122,-0.00000096,0
 .00000067,0.00000038,0.00000065,-0.00000070,0.,-0.00000096,0.00000045,
 -0.00000039,0.00000162,-0.00000011,0.00000041,0.00000003,0.00000018,-0
 .00000135,0.00000021,-0.00000054,-0.00000061,0.00000030,-0.00000060,-0
 .00000002,-0.00000346,0.00000474,0.00000018,0.00000335,-0.00000158,-0.
 00000085,-0.00000216,0.00000171,-0.00000137,-0.00000031,-0.00000105,0.
 00000143,-0.00000128,0.00000113,0.00000045,-0.00000051,-0.00000002,-0.
 00000010,0.00000029,0.00000034,0.00000041,-0.00000048,0.00000019,0.000
 00002\\\@


 TOWERING GENIUS DISDAINS A BEATEN PATH.  IT SEEKS 
 REGIONS HITHERTO UNEXPLORED.

                                -- ABRAHAM LINCOLN
 Job cpu time:       1 days  2 hours 46 minutes 31.7 seconds.
 File lengths (MBytes):  RWF=   1351 Int=      0 D2E=      0 Chk=     43 Scr=      1
 Normal termination of Gaussian 09 at Sat Jul 24 22:41:16 2021.
