 Entering Gaussian System, Link 0=g09
 Input=opt_freq-conf-580.com
 Output=opt_freq-conf-580.log
 Initial command:
 /aerosol/software/g09/l1.exe "/scratch/nicole/10699/Gau-93460.inp" -scrdir="/scratch/nicole/10699/"
 Entering Link 1 = /aerosol/software/g09/l1.exe PID=     93469.
  
 Copyright (c) 1988,1990,1992,1993,1995,1998,2003,2009,2013,
            Gaussian, Inc.  All Rights Reserved.
  
 This is part of the Gaussian(R) 09 program.  It is based on
 the Gaussian(R) 03 system (copyright 2003, Gaussian, Inc.),
 the Gaussian(R) 98 system (copyright 1998, Gaussian, Inc.),
 the Gaussian(R) 94 system (copyright 1995, Gaussian, Inc.),
 the Gaussian 92(TM) system (copyright 1992, Gaussian, Inc.),
 the Gaussian 90(TM) system (copyright 1990, Gaussian, Inc.),
 the Gaussian 88(TM) system (copyright 1988, Gaussian, Inc.),
 the Gaussian 86(TM) system (copyright 1986, Carnegie Mellon
 University), and the Gaussian 82(TM) system (copyright 1983,
 Carnegie Mellon University). Gaussian is a federally registered
 trademark of Gaussian, Inc.
  
 This software contains proprietary and confidential information,
 including trade secrets, belonging to Gaussian, Inc.
  
 This software is provided under written license and may be
 used, copied, transmitted, or stored only in accord with that
 written license.
  
 The following legend is applicable only to US Government
 contracts under FAR:
  
                    RESTRICTED RIGHTS LEGEND
  
 Use, reproduction and disclosure by the US Government is
 subject to restrictions as set forth in subparagraphs (a)
 and (c) of the Commercial Computer Software - Restricted
 Rights clause in FAR 52.227-19.
  
 Gaussian, Inc.
 340 Quinnipiac St., Bldg. 40, Wallingford CT 06492
  
  
 ---------------------------------------------------------------
 Warning -- This program may not be used in any manner that
 competes with the business of Gaussian, Inc. or will provide
 assistance to any competitor of Gaussian, Inc.  The licensee
 of this program is prohibited from giving any competitor of
 Gaussian, Inc. access to this program.  By using this program,
 the user acknowledges that Gaussian, Inc. is engaged in the
 business of creating and licensing software in the field of
 computational chemistry and represents and warrants to the
 licensee that it is not a competitor of Gaussian, Inc. and that
 it will not use this program in any manner prohibited above.
 ---------------------------------------------------------------
  

 Cite this work as:
 Gaussian 09, Revision D.01,
 M. J. Frisch, G. W. Trucks, H. B. Schlegel, G. E. Scuseria, 
 M. A. Robb, J. R. Cheeseman, G. Scalmani, V. Barone, B. Mennucci, 
 G. A. Petersson, H. Nakatsuji, M. Caricato, X. Li, H. P. Hratchian, 
 A. F. Izmaylov, J. Bloino, G. Zheng, J. L. Sonnenberg, M. Hada, 
 M. Ehara, K. Toyota, R. Fukuda, J. Hasegawa, M. Ishida, T. Nakajima, 
 Y. Honda, O. Kitao, H. Nakai, T. Vreven, J. A. Montgomery, Jr., 
 J. E. Peralta, F. Ogliaro, M. Bearpark, J. J. Heyd, E. Brothers, 
 K. N. Kudin, V. N. Staroverov, T. Keith, R. Kobayashi, J. Normand, 
 K. Raghavachari, A. Rendell, J. C. Burant, S. S. Iyengar, J. Tomasi, 
 M. Cossi, N. Rega, J. M. Millam, M. Klene, J. E. Knox, J. B. Cross, 
 V. Bakken, C. Adamo, J. Jaramillo, R. Gomperts, R. E. Stratmann, 
 O. Yazyev, A. J. Austin, R. Cammi, C. Pomelli, J. W. Ochterski, 
 R. L. Martin, K. Morokuma, V. G. Zakrzewski, G. A. Voth, 
 P. Salvador, J. J. Dannenberg, S. Dapprich, A. D. Daniels, 
 O. Farkas, J. B. Foresman, J. V. Ortiz, J. Cioslowski, 
 and D. J. Fox, Gaussian, Inc., Wallingford CT, 2013.
 
 ******************************************
 Gaussian 09:  ES64L-G09RevD.01 24-Apr-2013
                29-Jul-2021 
 ******************************************
 %mem=2gb
 %nproc=4
 Will use up to    4 processors via shared memory.
 %chk=conf-580.chk
 ----------------------------------------------------------------------
 # B3LYP/6-311++G(2df,2pd) EmpiricalDispersion=GD3BJ guess=read geom=ch
 eckpoint opt=readfc freq=noraman nosymm integral(ultrafinegrid)
 ----------------------------------------------------------------------
 1/10=3,14=-1,18=20,19=15,26=4,29=2,38=1/1,3;
 2/9=110,12=2,15=1,40=1/2;
 3/5=4,6=6,7=1414,11=2,14=-4,16=1,25=1,30=1,71=1,74=-5,75=-5,116=-2,124=41/1,2,3;
 4/5=1/1;
 5/5=2,38=6/2;
 6/7=2,8=2,9=2,10=2,28=1/1;
 7/30=1/1,2,3,16;
 1/14=-1,18=20,19=15,26=4/3(2);
 2/9=110,15=1/2;
 99//99;
 2/9=110,15=1/2;
 3/5=4,6=6,7=1414,11=2,14=-2,16=1,25=1,30=1,71=1,74=-5,75=-5,124=41/1,2,3;
 4/5=5,16=3,69=1/1;
 5/5=2,38=5/2;
 7/30=1/1,2,3,16;
 1/14=-1,18=20,19=15,26=4/3(-5);
 2/9=110,15=1/2;
 6/7=2,8=2,9=2,10=2,19=2,28=1/1;
 99/9=1/99;
 ------------------------------------------------------------
 Candidate Structure: Conf:580 OPT and FREQ calc in gas phase
 ------------------------------------------------------------
 Structure from the checkpoint file:  "conf-580.chk"
 Charge =  1 Multiplicity = 1
 Redundant internal coordinates found in file.
 O,0,1.3417517268,0.2798323907,-1.2425925133
 C,0,1.4767119887,0.3299689174,-0.0222776766
 N,0,0.4674521832,0.4099103398,0.8579283508
 C,0,-0.931072464,0.396143084,0.4490250471
 C,0,-1.718213433,0.9223298633,1.6391662773
 O,0,-2.9063633286,1.4092528317,1.2843270508
 O,0,-1.2967985676,0.8715555954,2.7777282341
 C,0,-1.3839449326,-1.0466940721,0.0657718144
 C,0,-2.8119360923,-1.1608401756,-0.3336110809
 C,0,-3.9094585392,-1.6582198349,0.3295893408
 N,0,-5.054280246,-1.4958332962,-0.4162927245
 C,0,-4.6663092755,-0.9032786884,-1.524374953
 N,0,-3.3171200331,-0.6726061272,-1.5278339916
 C,0,2.8913015489,0.2873862645,0.5955937051
 C,0,3.8518638037,0.8403757665,-0.4449079187
 N,0,5.2972315198,0.4922984058,-0.1052209401
 H,0,0.6145585444,0.4457592072,1.8614144029
 H,0,-1.0630470114,1.0605617281,-0.4082076225
 H,0,-3.3926187786,1.6462282657,2.0937424318
 H,0,-1.2064889714,-1.6935509929,0.9300926114
 H,0,-0.712029381,-1.3752172171,-0.7346456229
 H,0,-3.9308477561,-2.1279207391,1.3037092254
 H,0,-5.3025728062,-0.6245008528,-2.3524759381
 H,0,-2.7848050336,-0.2610943238,-2.2795456093
 H,0,3.1218677918,-0.7640465722,0.8142982617
 H,0,2.9379057343,0.8441529144,1.5367037448
 H,0,3.6288223937,0.4083306355,-1.421127937
 H,0,3.8077839925,1.927911031,-0.5202454607
 H,0,5.9446607974,0.8533787466,-0.8143793928
 H,0,5.5784153418,0.8826746329,0.8006301381
 H,0,5.4277717132,-0.5240972883,-0.0547887946
 Recover connectivity data from disk.

 GradGradGradGradGradGradGradGradGradGradGradGradGradGradGradGradGradGrad
 Berny optimization.
 Initialization pass.
 Force constant matrix read from checkpoint file:
 "conf-580.chk"
                           ----------------------------
                           !    Initial Parameters    !
                           ! (Angstroms and Degrees)  !
 --------------------------                            --------------------------
 ! Name  Definition              Value          Derivative Info.                !
 --------------------------------------------------------------------------------
 ! R1    R(1,2)                  1.2288         D2E/DX2 =    0.783              !
 ! R2    R(2,3)                  1.3416         D2E/DX2 =    0.5164             !
 ! R3    R(2,14)                 1.5442         D2E/DX2 =    0.253              !
 ! R4    R(3,4)                  1.4571         D2E/DX2 =    0.335              !
 ! R5    R(3,17)                 1.0148         D2E/DX2 =    0.4532             !
 ! R6    R(4,5)                  1.5208         D2E/DX2 =    0.2859             !
 ! R7    R(4,8)                  1.56           D2E/DX2 =    0.2437             !
 ! R8    R(4,18)                 1.0926         D2E/DX2 =    0.3423             !
 ! R9    R(5,6)                  1.3322         D2E/DX2 =    0.4579             !
 ! R10   R(5,7)                  1.2151         D2E/DX2 =    0.8476             !
 ! R11   R(6,19)                 0.9735         D2E/DX2 =    0.5039             !
 ! R12   R(8,9)                  1.4872         D2E/DX2 =    0.3276             !
 ! R13   R(8,20)                 1.0941         D2E/DX2 =    0.3394             !
 ! R14   R(8,21)                 1.0955         D2E/DX2 =    0.3348             !
 ! R15   R(9,10)                 1.3754         D2E/DX2 =    0.4111             !
 ! R16   R(9,13)                 1.3856         D2E/DX2 =    0.3633             !
 ! R17   R(10,11)                1.376          D2E/DX2 =    0.3401             !
 ! R18   R(10,22)                1.0817         D2E/DX2 =    0.3707             !
 ! R19   R(11,12)                1.3151         D2E/DX2 =    0.4642             !
 ! R20   R(12,13)                1.3688         D2E/DX2 =    0.3588             !
 ! R21   R(12,23)                1.0809         D2E/DX2 =    0.3747             !
 ! R22   R(13,24)                1.0088         D2E/DX2 =    0.4762             !
 ! R23   R(14,15)                1.5202         D2E/DX2 =    0.2941             !
 ! R24   R(14,25)                1.0984         D2E/DX2 =    0.3302             !
 ! R25   R(14,26)                1.0945         D2E/DX2 =    0.3389             !
 ! R26   R(15,16)                1.525          D2E/DX2 =    0.2374             !
 ! R27   R(15,27)                1.0906         D2E/DX2 =    0.3519             !
 ! R28   R(15,28)                1.091          D2E/DX2 =    0.3493             !
 ! R29   R(16,29)                1.0259         D2E/DX2 =    0.4285             !
 ! R30   R(16,30)                1.0257         D2E/DX2 =    0.4287             !
 ! R31   R(16,31)                1.026          D2E/DX2 =    0.428              !
 ! A1    A(1,2,3)              124.8476         D2E/DX2 =    0.195              !
 ! A2    A(1,2,14)             119.7917         D2E/DX2 =    0.1869             !
 ! A3    A(3,2,14)             115.3581         D2E/DX2 =    0.1626             !
 ! A4    A(2,3,4)              122.5044         D2E/DX2 =    0.1182             !
 ! A5    A(2,3,17)             122.8077         D2E/DX2 =    0.0882             !
 ! A6    A(4,3,17)             114.6413         D2E/DX2 =    0.0941             !
 ! A7    A(3,4,5)              105.8955         D2E/DX2 =    0.0869             !
 ! A8    A(3,4,8)              110.8727         D2E/DX2 =    0.0834             !
 ! A9    A(3,4,18)             109.2907         D2E/DX2 =    0.0295             !
 ! A10   A(5,4,8)              111.2227         D2E/DX2 =    0.0794             !
 ! A11   A(5,4,18)             109.9425         D2E/DX2 =    0.0254             !
 ! A12   A(8,4,18)             109.5492         D2E/DX2 =    0.0311             !
 ! A13   A(4,5,6)              112.3111         D2E/DX2 =    0.1603             !
 ! A14   A(4,5,7)              122.6364         D2E/DX2 =    0.1796             !
 ! A15   A(6,5,7)              125.0415         D2E/DX2 =    0.1976             !
 ! A16   A(5,6,19)             108.2395         D2E/DX2 =    0.1719             !
 ! A17   A(4,8,9)              114.5635         D2E/DX2 =    0.1505             !
 ! A18   A(4,8,20)             107.7977         D2E/DX2 =    0.0593             !
 ! A19   A(4,8,21)             106.1889         D2E/DX2 =    0.0623             !
 ! A20   A(9,8,20)             108.8156         D2E/DX2 =    0.0488             !
 ! A21   A(9,8,21)             111.6977         D2E/DX2 =    0.051              !
 ! A22   A(20,8,21)            107.4837         D2E/DX2 =    0.02               !
 ! A23   A(8,9,10)             131.6412         D2E/DX2 =    0.0914             !
 ! A24   A(8,9,13)             123.6776         D2E/DX2 =    0.0988             !
 ! A25   A(10,9,13)            104.6008         D2E/DX2 =    0.1036             !
 ! A26   A(9,10,11)            111.0908         D2E/DX2 =    0.1159             !
 ! A27   A(9,10,22)            127.3766         D2E/DX2 =    0.0823             !
 ! A28   A(11,10,22)           121.532          D2E/DX2 =    0.0901             !
 ! A29   A(10,11,12)           105.3352         D2E/DX2 =    0.1327             !
 ! A30   A(11,12,13)           111.645          D2E/DX2 =    0.1205             !
 ! A31   A(11,12,23)           126.0213         D2E/DX2 =    0.0898             !
 ! A32   A(13,12,23)           122.3324         D2E/DX2 =    0.0907             !
 ! A33   A(9,13,12)            107.3273         D2E/DX2 =    0.1036             !
 ! A34   A(9,13,24)            126.4113         D2E/DX2 =    0.0776             !
 ! A35   A(12,13,24)           126.2084         D2E/DX2 =    0.0791             !
 ! A36   A(2,14,15)            107.1529         D2E/DX2 =    0.171              !
 ! A37   A(2,14,25)            107.3586         D2E/DX2 =    0.0433             !
 ! A38   A(2,14,26)            111.656          D2E/DX2 =    0.0543             !
 ! A39   A(15,14,25)           110.6            D2E/DX2 =    0.053              !
 ! A40   A(15,14,26)           112.1222         D2E/DX2 =    0.0582             !
 ! A41   A(25,14,26)           107.8668         D2E/DX2 =    0.0227             !
 ! A42   A(14,15,16)           111.3077         D2E/DX2 =    0.1473             !
 ! A43   A(14,15,27)           109.8359         D2E/DX2 =    0.0436             !
 ! A44   A(14,15,28)           112.6015         D2E/DX2 =    0.0455             !
 ! A45   A(16,15,27)           107.6256         D2E/DX2 =    0.0532             !
 ! A46   A(16,15,28)           106.3312         D2E/DX2 =    0.0577             !
 ! A47   A(27,15,28)           108.9541         D2E/DX2 =    0.0192             !
 ! A48   A(15,16,29)           111.3353         D2E/DX2 =    0.0964             !
 ! A49   A(15,16,30)           111.6958         D2E/DX2 =    0.0974             !
 ! A50   A(15,16,31)           110.9561         D2E/DX2 =    0.0976             !
 ! A51   A(29,16,30)           107.6699         D2E/DX2 =    0.0538             !
 ! A52   A(29,16,31)           107.5995         D2E/DX2 =    0.053              !
 ! A53   A(30,16,31)           107.3827         D2E/DX2 =    0.0539             !
 ! D1    D(1,2,3,4)              2.3512         D2E/DX2 =    0.0111             !
 ! D2    D(1,2,3,17)           179.7351         D2E/DX2 =    0.0109             !
 ! D3    D(14,2,3,4)          -177.046          D2E/DX2 =    0.0096             !
 ! D4    D(14,2,3,17)            0.338          D2E/DX2 =    0.007              !
 ! D5    D(1,2,14,15)           26.5157         D2E/DX2 =    0.015              !
 ! D6    D(1,2,14,25)          -92.318          D2E/DX2 =    0.0165             !
 ! D7    D(1,2,14,26)          149.6495         D2E/DX2 =    0.0159             !
 ! D8    D(3,2,14,15)         -154.0543         D2E/DX2 =    0.0147             !
 ! D9    D(3,2,14,25)           87.1119         D2E/DX2 =    0.0153             !
 ! D10   D(3,2,14,26)          -30.9206         D2E/DX2 =    0.0163             !
 ! D11   D(2,3,4,5)           -163.147          D2E/DX2 =    0.0134             !
 ! D12   D(2,3,4,8)             76.0952         D2E/DX2 =    0.0133             !
 ! D13   D(2,3,4,18)           -44.7612         D2E/DX2 =    0.008              !
 ! D14   D(17,3,4,5)            19.2719         D2E/DX2 =    0.0147             !
 ! D15   D(17,3,4,8)          -101.4859         D2E/DX2 =    0.0135             !
 ! D16   D(17,3,4,18)          137.6577         D2E/DX2 =    0.0093             !
 ! D17   D(3,4,5,6)            157.718          D2E/DX2 =    0.0219             !
 ! D18   D(3,4,5,7)            -23.4327         D2E/DX2 =    0.0224             !
 ! D19   D(8,4,5,6)            -81.7516         D2E/DX2 =    0.022              !
 ! D20   D(8,4,5,7)             97.0977         D2E/DX2 =    0.0199             !
 ! D21   D(18,4,5,6)            39.7659         D2E/DX2 =    0.0151             !
 ! D22   D(18,4,5,7)          -141.3848         D2E/DX2 =    0.0147             !
 ! D23   D(3,4,8,9)            178.572          D2E/DX2 =    0.0178             !
 ! D24   D(3,4,8,20)            57.2956         D2E/DX2 =    0.0195             !
 ! D25   D(3,4,8,21)           -57.6502         D2E/DX2 =    0.0198             !
 ! D26   D(5,4,8,9)             61.0221         D2E/DX2 =    0.0183             !
 ! D27   D(5,4,8,20)           -60.2543         D2E/DX2 =    0.019              !
 ! D28   D(5,4,8,21)          -175.2001         D2E/DX2 =    0.0198             !
 ! D29   D(18,4,8,9)           -60.7246         D2E/DX2 =    0.0114             !
 ! D30   D(18,4,8,20)          177.999          D2E/DX2 =    0.0138             !
 ! D31   D(18,4,8,21)           63.0532         D2E/DX2 =    0.0132             !
 ! D32   D(4,5,6,19)           174.467          D2E/DX2 =    0.0171             !
 ! D33   D(7,5,6,19)            -4.3494         D2E/DX2 =    0.0166             !
 ! D34   D(4,8,9,10)          -104.6077         D2E/DX2 =    0.012              !
 ! D35   D(4,8,9,13)            71.606          D2E/DX2 =    0.012              !
 ! D36   D(20,8,9,10)           16.1081         D2E/DX2 =    0.0131             !
 ! D37   D(20,8,9,13)         -167.6782         D2E/DX2 =    0.0133             !
 ! D38   D(21,8,9,10)          134.6092         D2E/DX2 =    0.0132             !
 ! D39   D(21,8,9,13)          -49.1771         D2E/DX2 =    0.0134             !
 ! D40   D(8,9,10,11)          176.9996         D2E/DX2 =    0.0094             !
 ! D41   D(8,9,10,22)           -3.2726         D2E/DX2 =    0.0071             !
 ! D42   D(13,9,10,11)           0.255          D2E/DX2 =    0.0142             !
 ! D43   D(13,9,10,22)         179.9829         D2E/DX2 =    0.0096             !
 ! D44   D(8,9,13,12)         -177.3709         D2E/DX2 =    0.0079             !
 ! D45   D(8,9,13,24)            5.1537         D2E/DX2 =    0.0023             !
 ! D46   D(10,9,13,12)          -0.2941         D2E/DX2 =    0.0124             !
 ! D47   D(10,9,13,24)        -177.7695         D2E/DX2 =    0.0044             !
 ! D48   D(9,10,11,12)          -0.1122         D2E/DX2 =    0.0175             !
 ! D49   D(22,10,11,12)       -179.8584         D2E/DX2 =    0.0099             !
 ! D50   D(10,11,12,13)         -0.0844         D2E/DX2 =    0.0184             !
 ! D51   D(10,11,12,23)        179.516          D2E/DX2 =    0.0102             !
 ! D52   D(11,12,13,9)           0.2456         D2E/DX2 =    0.0171             !
 ! D53   D(11,12,13,24)        177.7275         D2E/DX2 =    0.0077             !
 ! D54   D(23,12,13,9)        -179.372          D2E/DX2 =    0.0102             !
 ! D55   D(23,12,13,24)         -1.89           D2E/DX2 =    0.006              !
 ! D56   D(2,14,15,16)        -164.1748         D2E/DX2 =    0.0144             !
 ! D57   D(2,14,15,27)         -45.083          D2E/DX2 =    0.0145             !
 ! D58   D(2,14,15,28)          76.5308         D2E/DX2 =    0.0144             !
 ! D59   D(25,14,15,16)        -47.458          D2E/DX2 =    0.0156             !
 ! D60   D(25,14,15,27)         71.6338         D2E/DX2 =    0.0167             !
 ! D61   D(25,14,15,28)       -166.7524         D2E/DX2 =    0.0157             !
 ! D62   D(26,14,15,16)         72.98           D2E/DX2 =    0.0158             !
 ! D63   D(26,14,15,27)       -167.9282         D2E/DX2 =    0.0152             !
 ! D64   D(26,14,15,28)        -46.3144         D2E/DX2 =    0.0163             !
 ! D65   D(14,15,16,29)        179.1615         D2E/DX2 =    0.0141             !
 ! D66   D(14,15,16,30)        -60.4333         D2E/DX2 =    0.014              !
 ! D67   D(14,15,16,31)         59.3472         D2E/DX2 =    0.0141             !
 ! D68   D(27,15,16,29)         58.7582         D2E/DX2 =    0.0151             !
 ! D69   D(27,15,16,30)        179.1633         D2E/DX2 =    0.0148             !
 ! D70   D(27,15,16,31)        -61.0561         D2E/DX2 =    0.0154             !
 ! D71   D(28,15,16,29)        -57.8721         D2E/DX2 =    0.015              !
 ! D72   D(28,15,16,30)         62.5331         D2E/DX2 =    0.0154             !
 ! D73   D(28,15,16,31)       -177.6864         D2E/DX2 =    0.0147             !
 --------------------------------------------------------------------------------
 Trust Radius=3.00D-01 FncErr=1.00D-07 GrdErr=1.00D-06
 Number of steps in this run=    167 maximum allowed number of steps=    186.
 GradGradGradGradGradGradGradGradGradGradGradGradGradGradGradGradGradGrad

                          Input orientation:                          
 ---------------------------------------------------------------------
 Center     Atomic      Atomic             Coordinates (Angstroms)
 Number     Number       Type             X           Y           Z
 ---------------------------------------------------------------------
      1          8           0        1.341752    0.279832   -1.242593
      2          6           0        1.476712    0.329969   -0.022278
      3          7           0        0.467452    0.409910    0.857928
      4          6           0       -0.931072    0.396143    0.449025
      5          6           0       -1.718213    0.922330    1.639166
      6          8           0       -2.906363    1.409253    1.284327
      7          8           0       -1.296799    0.871556    2.777728
      8          6           0       -1.383945   -1.046694    0.065772
      9          6           0       -2.811936   -1.160840   -0.333611
     10          6           0       -3.909459   -1.658220    0.329589
     11          7           0       -5.054280   -1.495833   -0.416293
     12          6           0       -4.666309   -0.903279   -1.524375
     13          7           0       -3.317120   -0.672606   -1.527834
     14          6           0        2.891302    0.287386    0.595594
     15          6           0        3.851864    0.840376   -0.444908
     16          7           0        5.297232    0.492298   -0.105221
     17          1           0        0.614559    0.445759    1.861414
     18          1           0       -1.063047    1.060562   -0.408208
     19          1           0       -3.392619    1.646228    2.093742
     20          1           0       -1.206489   -1.693551    0.930093
     21          1           0       -0.712029   -1.375217   -0.734646
     22          1           0       -3.930848   -2.127921    1.303709
     23          1           0       -5.302573   -0.624501   -2.352476
     24          1           0       -2.784805   -0.261094   -2.279546
     25          1           0        3.121868   -0.764047    0.814298
     26          1           0        2.937906    0.844153    1.536704
     27          1           0        3.628822    0.408331   -1.421128
     28          1           0        3.807784    1.927911   -0.520245
     29          1           0        5.944661    0.853379   -0.814379
     30          1           0        5.578415    0.882675    0.800630
     31          1           0        5.427772   -0.524097   -0.054789
 ---------------------------------------------------------------------
                    Distance matrix (angstroms):
                    1          2          3          4          5
     1  O    0.000000
     2  C    1.228778   0.000000
     3  N    2.278927   1.341551   0.000000
     4  C    2.835635   2.454370   1.457142   0.000000
     5  C    4.252143   3.649498   2.376981   1.520822   0.000000
     6  O    5.070246   4.699300   3.544451   2.371897   1.332181
     7  O    4.845107   3.978154   2.647891   2.404710   1.215110
     8  C    3.301653   3.175895   2.485333   1.560050   2.542511
     9  C    4.489422   4.551038   3.826410   2.564052   3.070452
    10  C    5.814036   5.752177   4.869667   3.620146   3.629846
    11  N    6.689169   6.792839   5.978715   4.618354   4.604538
    12  C    6.129923   6.443129   5.809935   4.419819   4.693837
    13  N    4.763779   5.123737   4.602900   3.277716   3.889758
    14  C    2.404182   1.544229   2.441081   3.826729   4.768629
    15  C    2.692800   2.465862   3.651975   4.885994   5.947759
    16  N    4.121235   3.824866   4.925567   6.253655   7.241842
    17  H    3.192366   2.074852   1.014845   2.094345   2.391305
    18  H    2.662479   2.670783   2.090185   1.092574   2.154087
    19  H    5.950835   5.469960   4.237436   3.213568   1.879974
    20  H    3.886944   3.493023   2.689207   2.161967   2.758166
    21  H    2.686115   2.864562   2.667236   2.141675   3.453420
    22  H    6.330974   6.086145   5.097485   4.012485   3.783161
    23  H    6.796816   7.231842   6.683554   5.291516   5.583326
    24  H    4.289096   4.858512   4.568497   3.363537   4.230179
    25  H    2.913640   2.145523   2.902757   4.231523   5.191402
    26  H    3.254328   2.197702   2.598546   4.043853   4.657903
    27  H    2.297625   2.567976   3.897225   4.928515   6.182264
    28  H    3.052747   2.869719   3.919376   5.073713   6.017549
    29  H    4.658229   4.567707   5.743961   7.005781   8.046383
    30  H    4.742098   4.219790   5.133102   6.537107   7.344761
    31  H    4.330443   4.042445   5.129346   6.444810   7.485101
                    6          7          8          9         10
     6  O    0.000000
     7  O    2.260545   0.000000
     8  C    3.135970   3.322948   0.000000
     9  C    3.038424   4.013316   1.487177   0.000000
    10  C    3.365578   4.383964   2.611854   1.375419   0.000000
    11  N    3.993142   5.470372   3.729004   2.268736   1.375982
    12  C    4.041537   5.745584   3.650075   2.218774   2.140080
    13  N    3.522940   5.000400   2.533118   1.385551   2.184564
    14  C    5.945238   4.758482   4.509791   5.957155   7.078593
    15  C    6.999108   6.074132   5.588875   6.958698   8.190296
    16  N    8.370819   7.206696   6.858269   8.279108   9.464509
    17  H    3.695706   2.161994   3.073396   4.374947   5.219190
    18  H    2.526673   3.200086   2.183611   2.828216   4.004769
    19  H    0.973527   2.336753   3.924190   3.756178   3.781367
    20  H    3.555622   3.162544   1.094059   2.111442   2.769097
    21  H    4.079783   4.210310   1.095475   2.148580   3.381751
    22  H    3.682600   4.255327   3.031213   2.206360   1.081659
    23  H    4.806694   6.678578   4.624047   3.250653   3.194185
    24  H    3.937769   5.391946   2.842550   2.144048   3.166132
    25  H    6.425241   5.104397   4.576301   6.056828   7.104508
    26  H    5.876948   4.412892   4.941390   6.370146   7.389546
    27  H    7.143527   6.488969   5.427320   6.717764   8.010076
    28  H    6.971747   6.168410   6.012133   7.307251   8.552098
    29  H    9.113407   8.083459   7.621903   8.998122  10.233302
    30  H    8.514853   7.153853   7.262020   8.709791   9.833503
    31  H    8.659612   7.429054   6.832798   8.268976   9.413705
                   11         12         13         14         15
    11  N    0.000000
    12  C    1.315100   0.000000
    13  N    2.220575   1.368771   0.000000
    14  C    8.205855   7.939108   6.631367   0.000000
    15  C    9.207502   8.761555   7.406495   1.520237   0.000000
    16  N   10.545294  10.160402   8.808398   2.514285   1.525003
    17  H    6.410418   6.416466   5.309976   2.609778   3.994370
    18  H    4.739743   4.252764   3.055860   4.152384   4.919977
    19  H    4.351315   4.605762   4.300989   6.601406   7.718593
    20  H    4.081341   4.315008   3.396836   4.563758   5.822228
    21  H    4.355576   4.059893   2.812349   4.185425   5.081527
    22  H    2.149428   3.168393   3.242258   7.271647   8.511113
    23  H    2.137680   1.080879   2.150435   8.755697   9.465114
    24  H    3.185406   2.126674   1.008847   6.386348   6.973127
    25  H    8.300558   8.132926   6.852336   1.098410   2.166256
    26  H    8.553641   8.381396   7.128625   1.094463   2.182228
    27  H    8.946050   8.398821   7.030358   2.150751   1.090603
    28  H    9.501001   8.990782   7.651286   2.185488   1.091032
    29  H   11.254065  10.778804   9.413726   3.410480   2.125201
    30  H   10.963230  10.655968   9.325835   2.759889   2.129351
    31  H   10.533203  10.207543   8.869332   2.741384   2.120723
                   16         17         18         19         20
    16  N    0.000000
    17  H    5.079099   0.000000
    18  H    6.392798   2.888516   0.000000
    19  H    9.037726   4.189579   3.468381   0.000000
    20  H    6.938890   2.959767   3.065414   4.157808   0.000000
    21  H    6.324161   3.437342   2.482498   4.930971   1.765554
    22  H    9.695776   5.253150   4.617506   3.893333   2.783954
    23  H   10.892807   7.342668   4.959153   5.345371   5.356867
    24  H    8.403250   5.403967   2.865856   4.809674   3.852894
    25  H    2.675094   2.974337   4.726228   7.062927   4.428550
    26  H    2.895883   2.379516   4.453890   6.405401   4.897339
    27  H    2.126558   4.456711   4.844074   7.949047   5.772901
    28  H    2.109901   4.250384   4.948721   7.665382   6.353062
    29  H    1.025890   5.977961   7.022526   9.811757   7.789029
    30  H    1.025682   5.094706   6.752922   9.095857   7.258693
    31  H    1.025985   5.270624   6.690798   9.334120   6.808159
                   21         22         23         24         25
    21  H    0.000000
    22  H    3.883587   0.000000
    23  H    4.924839   4.184446   0.000000
    24  H    2.815028   4.199782   2.544904   0.000000
    25  H    4.179895   7.200033   9.001063   6.686824   0.000000
    26  H    4.838043   7.487809   9.229743   6.966689   1.772574
    27  H    4.742921   8.426501   9.039025   6.505354   2.574607
    28  H    5.602262   8.925413   9.636933   7.165829   3.081903
    29  H    7.020294  10.530912  11.447713   8.921454   3.638244
    30  H    6.857466   9.987135  11.428454   8.985496   2.957449
    31  H    6.235685   9.591743  10.974049   8.512645   2.475900
                   26         27         28         29         30
    26  H    0.000000
    27  H    3.068562   0.000000
    28  H    2.482390   1.775596   0.000000
    29  H    3.816838   2.435019   2.409850   0.000000
    30  H    2.741456   2.993681   2.443843   1.656276   0.000000
    31  H    3.256438   2.443875   2.975459   1.655775   1.653313
                   31
    31  H    0.000000
 Symmetry turned off by external request.
 Stoichiometry    C9H15N4O3(1+)
 Framework group  C1[X(C9H15N4O3)]
 Deg. of freedom    87
 Full point group                 C1      NOp   1
 Rotational constants (GHZ):      1.1019790      0.2235477      0.1984405
 Standard basis: 6-311++G(2df,2pd) (5D, 7F)
   769 basis functions,  1102 primitive gaussians,   864 cartesian basis functions
    60 alpha electrons       60 beta electrons
       nuclear repulsion energy      1112.9946225694 Hartrees.
 NAtoms=   31 NActive=   31 NUniq=   31 SFac= 1.00D+00 NAtFMM=   60 NAOKFM=F Big=F
 Integral buffers will be    131072 words long.
 Raffenetti 2 integral format.
 Two-electron integral symmetry is turned off.
 Nuclear repulsion after empirical dispersion term =     1112.9404616769 Hartrees.
 One-electron integrals computed using PRISM.
 NBasis=   769 RedAO= T EigKep=  1.31D-06  NBF=   769
 NBsUse=   769 1.00D-06 EigRej= -1.00D+00 NBFU=   769
 Initial guess from the checkpoint file:  "conf-580.chk"
 B after Tr=     0.000000    0.000000    0.000000
         Rot=    1.000000    0.000000    0.000000    0.000000 Ang=   0.00 deg.
 Requested convergence on RMS density matrix=1.00D-08 within 128 cycles.
 Requested convergence on MAX density matrix=1.00D-06.
 Requested convergence on             energy=1.00D-06.
 No special actions if energy rises.
 SCF Done:  E(RB3LYP) =  -796.793946367     A.U. after   13 cycles
            NFock= 13  Conv=0.32D-08     -V/T= 2.0043

 **********************************************************************

            Population analysis using the SCF density.

 **********************************************************************

 Alpha  occ. eigenvalues --  -19.28403 -19.23075 -19.22984 -14.64110 -14.47639
 Alpha  occ. eigenvalues --  -14.44693 -14.36579 -10.42071 -10.42053 -10.41693
 Alpha  occ. eigenvalues --  -10.36021 -10.34683 -10.29855 -10.29449 -10.28591
 Alpha  occ. eigenvalues --  -10.25851  -1.22568  -1.20515  -1.18136  -1.13784
 Alpha  occ. eigenvalues --   -1.09165  -1.06734  -0.96880  -0.94951  -0.91135
 Alpha  occ. eigenvalues --   -0.85551  -0.83084  -0.79060  -0.78565  -0.77818
 Alpha  occ. eigenvalues --   -0.74330  -0.71624  -0.69472  -0.69196  -0.67068
 Alpha  occ. eigenvalues --   -0.65521  -0.64412  -0.62447  -0.61273  -0.60078
 Alpha  occ. eigenvalues --   -0.59220  -0.58179  -0.57650  -0.55884  -0.54496
 Alpha  occ. eigenvalues --   -0.53908  -0.53023  -0.51653  -0.51250  -0.50065
 Alpha  occ. eigenvalues --   -0.48945  -0.48447  -0.47642  -0.43976  -0.41081
 Alpha  occ. eigenvalues --   -0.40275  -0.39842  -0.36208  -0.34546  -0.30781
 Alpha virt. eigenvalues --   -0.20258  -0.14875  -0.14367  -0.13661  -0.12485
 Alpha virt. eigenvalues --   -0.11698  -0.10862  -0.09683  -0.09088  -0.08543
 Alpha virt. eigenvalues --   -0.08128  -0.07518  -0.06929  -0.06399  -0.06228
 Alpha virt. eigenvalues --   -0.05759  -0.05044  -0.04658  -0.04227  -0.03422
 Alpha virt. eigenvalues --   -0.03114  -0.02912  -0.02387  -0.01986  -0.01556
 Alpha virt. eigenvalues --   -0.01084  -0.00697  -0.00564   0.00221   0.00444
 Alpha virt. eigenvalues --    0.00558   0.00955   0.01294   0.01346   0.02084
 Alpha virt. eigenvalues --    0.02294   0.02443   0.02592   0.02980   0.03060
 Alpha virt. eigenvalues --    0.03774   0.03968   0.04546   0.05145   0.05270
 Alpha virt. eigenvalues --    0.05575   0.05830   0.05999   0.06262   0.06583
 Alpha virt. eigenvalues --    0.07317   0.07484   0.07729   0.08015   0.08216
 Alpha virt. eigenvalues --    0.08470   0.09557   0.09962   0.10337   0.10664
 Alpha virt. eigenvalues --    0.10803   0.11275   0.11582   0.12039   0.12526
 Alpha virt. eigenvalues --    0.12943   0.13338   0.13923   0.14120   0.14569
 Alpha virt. eigenvalues --    0.15366   0.15605   0.15836   0.16031   0.17032
 Alpha virt. eigenvalues --    0.17233   0.17635   0.18098   0.18467   0.18613
 Alpha virt. eigenvalues --    0.19080   0.19565   0.20093   0.20700   0.21233
 Alpha virt. eigenvalues --    0.21420   0.21882   0.22075   0.22646   0.22944
 Alpha virt. eigenvalues --    0.23651   0.24056   0.24385   0.24523   0.24870
 Alpha virt. eigenvalues --    0.25365   0.25954   0.26364   0.27341   0.27403
 Alpha virt. eigenvalues --    0.27786   0.28117   0.28485   0.28752   0.29494
 Alpha virt. eigenvalues --    0.30232   0.30592   0.31019   0.31520   0.32263
 Alpha virt. eigenvalues --    0.32943   0.34445   0.35304   0.36245   0.36787
 Alpha virt. eigenvalues --    0.37108   0.37622   0.38540   0.38740   0.39224
 Alpha virt. eigenvalues --    0.39526   0.40285   0.42003   0.42383   0.42555
 Alpha virt. eigenvalues --    0.42745   0.43731   0.44488   0.45259   0.45531
 Alpha virt. eigenvalues --    0.45611   0.46973   0.47480   0.47962   0.48113
 Alpha virt. eigenvalues --    0.48724   0.49162   0.49592   0.50570   0.51116
 Alpha virt. eigenvalues --    0.51687   0.52076   0.53087   0.53680   0.54318
 Alpha virt. eigenvalues --    0.54810   0.55036   0.56007   0.56729   0.56873
 Alpha virt. eigenvalues --    0.57659   0.58650   0.59073   0.59884   0.60317
 Alpha virt. eigenvalues --    0.60834   0.61405   0.61742   0.62038   0.62561
 Alpha virt. eigenvalues --    0.63731   0.64013   0.65314   0.66104   0.66581
 Alpha virt. eigenvalues --    0.67890   0.68211   0.68926   0.70370   0.70952
 Alpha virt. eigenvalues --    0.71165   0.71881   0.72894   0.73407   0.73790
 Alpha virt. eigenvalues --    0.74656   0.75294   0.76724   0.77627   0.77954
 Alpha virt. eigenvalues --    0.78232   0.80108   0.80365   0.80706   0.82074
 Alpha virt. eigenvalues --    0.82914   0.83409   0.84627   0.85696   0.85981
 Alpha virt. eigenvalues --    0.86877   0.88542   0.89254   0.89613   0.90107
 Alpha virt. eigenvalues --    0.91154   0.92571   0.93093   0.94024   0.94259
 Alpha virt. eigenvalues --    0.95358   0.96211   0.96324   0.96852   0.98861
 Alpha virt. eigenvalues --    0.99118   0.99590   0.99943   1.00548   1.01119
 Alpha virt. eigenvalues --    1.01522   1.01689   1.03138   1.03970   1.04627
 Alpha virt. eigenvalues --    1.05059   1.05515   1.05926   1.07166   1.07622
 Alpha virt. eigenvalues --    1.08043   1.08400   1.08952   1.11094   1.11340
 Alpha virt. eigenvalues --    1.12232   1.12647   1.13142   1.14479   1.14980
 Alpha virt. eigenvalues --    1.15560   1.16715   1.17717   1.18028   1.19488
 Alpha virt. eigenvalues --    1.19827   1.20669   1.21958   1.22808   1.23467
 Alpha virt. eigenvalues --    1.24558   1.25190   1.25649   1.26283   1.27318
 Alpha virt. eigenvalues --    1.28672   1.29493   1.29977   1.30628   1.31314
 Alpha virt. eigenvalues --    1.32331   1.32750   1.33293   1.34708   1.34928
 Alpha virt. eigenvalues --    1.35886   1.36461   1.36719   1.38587   1.39246
 Alpha virt. eigenvalues --    1.39532   1.40016   1.40892   1.42342   1.42653
 Alpha virt. eigenvalues --    1.43224   1.44440   1.45302   1.46160   1.47334
 Alpha virt. eigenvalues --    1.47570   1.49039   1.49335   1.50322   1.52286
 Alpha virt. eigenvalues --    1.52923   1.53861   1.54259   1.56510   1.57792
 Alpha virt. eigenvalues --    1.58150   1.59647   1.59949   1.61847   1.62405
 Alpha virt. eigenvalues --    1.64233   1.64781   1.65875   1.67176   1.69967
 Alpha virt. eigenvalues --    1.71144   1.71807   1.72540   1.74359   1.76520
 Alpha virt. eigenvalues --    1.77490   1.79706   1.82386   1.84256   1.86291
 Alpha virt. eigenvalues --    1.89100   1.91503   1.94533   1.96766   1.98053
 Alpha virt. eigenvalues --    2.00780   2.01824   2.02914   2.05121   2.07615
 Alpha virt. eigenvalues --    2.09828   2.11767   2.18220   2.20547   2.23728
 Alpha virt. eigenvalues --    2.24823   2.29506   2.31675   2.34926   2.36364
 Alpha virt. eigenvalues --    2.38160   2.39236   2.42689   2.45818   2.47249
 Alpha virt. eigenvalues --    2.48397   2.49257   2.50954   2.52433   2.53184
 Alpha virt. eigenvalues --    2.54429   2.55760   2.56537   2.58745   2.59270
 Alpha virt. eigenvalues --    2.61233   2.62900   2.63860   2.63971   2.65378
 Alpha virt. eigenvalues --    2.66418   2.66932   2.67520   2.69247   2.70081
 Alpha virt. eigenvalues --    2.70553   2.72580   2.73230   2.73731   2.74916
 Alpha virt. eigenvalues --    2.76703   2.77117   2.78113   2.78524   2.78960
 Alpha virt. eigenvalues --    2.79781   2.80868   2.81610   2.81762   2.83158
 Alpha virt. eigenvalues --    2.83462   2.84375   2.84730   2.85358   2.86343
 Alpha virt. eigenvalues --    2.87897   2.88400   2.89164   2.90022   2.90529
 Alpha virt. eigenvalues --    2.91619   2.92637   2.92896   2.93992   2.95445
 Alpha virt. eigenvalues --    2.96446   2.97065   2.97589   2.98182   2.99407
 Alpha virt. eigenvalues --    3.00496   3.01220   3.01669   3.02322   3.02616
 Alpha virt. eigenvalues --    3.03781   3.04320   3.04375   3.05678   3.06064
 Alpha virt. eigenvalues --    3.06766   3.07316   3.07647   3.08411   3.09043
 Alpha virt. eigenvalues --    3.09983   3.10267   3.10984   3.13113   3.13530
 Alpha virt. eigenvalues --    3.15035   3.15506   3.15851   3.16266   3.16921
 Alpha virt. eigenvalues --    3.17838   3.18306   3.18831   3.20117   3.20398
 Alpha virt. eigenvalues --    3.21334   3.22820   3.23559   3.23872   3.24773
 Alpha virt. eigenvalues --    3.25741   3.26564   3.26927   3.28432   3.29255
 Alpha virt. eigenvalues --    3.30443   3.31360   3.31452   3.32428   3.33130
 Alpha virt. eigenvalues --    3.34605   3.35207   3.35928   3.36153   3.36514
 Alpha virt. eigenvalues --    3.37555   3.38361   3.39502   3.40223   3.40550
 Alpha virt. eigenvalues --    3.40994   3.42297   3.43135   3.43328   3.43999
 Alpha virt. eigenvalues --    3.44369   3.46703   3.47699   3.47979   3.48470
 Alpha virt. eigenvalues --    3.49042   3.50807   3.51340   3.51971   3.52934
 Alpha virt. eigenvalues --    3.53806   3.54732   3.55746   3.56525   3.57042
 Alpha virt. eigenvalues --    3.58068   3.59814   3.60686   3.61177   3.62333
 Alpha virt. eigenvalues --    3.62376   3.63029   3.64339   3.65470   3.65911
 Alpha virt. eigenvalues --    3.66139   3.67036   3.67860   3.68119   3.69502
 Alpha virt. eigenvalues --    3.70357   3.70883   3.72540   3.72879   3.73925
 Alpha virt. eigenvalues --    3.75022   3.75407   3.76572   3.76737   3.77343
 Alpha virt. eigenvalues --    3.78385   3.79470   3.80160   3.80679   3.81372
 Alpha virt. eigenvalues --    3.82315   3.83123   3.83669   3.83879   3.85484
 Alpha virt. eigenvalues --    3.85908   3.86810   3.88136   3.88846   3.89559
 Alpha virt. eigenvalues --    3.90414   3.90632   3.91144   3.92044   3.92876
 Alpha virt. eigenvalues --    3.93483   3.94294   3.94986   3.96079   3.97486
 Alpha virt. eigenvalues --    3.97573   3.98149   4.00804   4.01368   4.01716
 Alpha virt. eigenvalues --    4.02743   4.03567   4.05104   4.06236   4.06655
 Alpha virt. eigenvalues --    4.07835   4.08666   4.09653   4.10443   4.11755
 Alpha virt. eigenvalues --    4.12970   4.13755   4.15768   4.17529   4.17603
 Alpha virt. eigenvalues --    4.17985   4.19036   4.21238   4.21422   4.24475
 Alpha virt. eigenvalues --    4.25444   4.26444   4.28084   4.28692   4.30361
 Alpha virt. eigenvalues --    4.31360   4.33413   4.37354   4.37458   4.38955
 Alpha virt. eigenvalues --    4.41228   4.41705   4.44349   4.44707   4.46399
 Alpha virt. eigenvalues --    4.47017   4.48436   4.51348   4.52544   4.52785
 Alpha virt. eigenvalues --    4.53516   4.55203   4.58088   4.59973   4.61444
 Alpha virt. eigenvalues --    4.63614   4.65267   4.67701   4.68814   4.69967
 Alpha virt. eigenvalues --    4.72205   4.72719   4.75024   4.75899   4.76424
 Alpha virt. eigenvalues --    4.77366   4.77977   4.78787   4.79499   4.80434
 Alpha virt. eigenvalues --    4.81681   4.83920   4.85176   4.85599   4.87783
 Alpha virt. eigenvalues --    4.89701   4.90821   4.92681   4.93895   4.95138
 Alpha virt. eigenvalues --    4.95719   4.96607   4.97363   4.97753   4.98966
 Alpha virt. eigenvalues --    4.99277   5.00022   5.00908   5.01417   5.01878
 Alpha virt. eigenvalues --    5.03241   5.03699   5.04924   5.05439   5.06757
 Alpha virt. eigenvalues --    5.07189   5.07943   5.08908   5.09470   5.09917
 Alpha virt. eigenvalues --    5.10949   5.13102   5.13894   5.17338   5.17918
 Alpha virt. eigenvalues --    5.18672   5.20536   5.21620   5.22008   5.23970
 Alpha virt. eigenvalues --    5.24644   5.26025   5.27551   5.28745   5.29223
 Alpha virt. eigenvalues --    5.30969   5.32587   5.33108   5.33954   5.36005
 Alpha virt. eigenvalues --    5.37913   5.39571   5.40488   5.40838   5.42122
 Alpha virt. eigenvalues --    5.42818   5.43898   5.44380   5.46131   5.48078
 Alpha virt. eigenvalues --    5.51167   5.52133   5.54905   5.56784   5.60040
 Alpha virt. eigenvalues --    5.60984   5.65344   5.66890   5.71897   5.72829
 Alpha virt. eigenvalues --    5.75760   5.81510   5.82705   5.82790   5.84166
 Alpha virt. eigenvalues --    5.85201   5.85886   5.87949   5.90184   5.93470
 Alpha virt. eigenvalues --    5.97110   5.98135   6.00073   6.13163   6.13430
 Alpha virt. eigenvalues --    6.15389   6.18502   6.19241   6.22273   6.22495
 Alpha virt. eigenvalues --    6.26107   6.31814   6.32915   6.37303   6.38963
 Alpha virt. eigenvalues --    6.39881   6.48289   6.61299   6.64805   6.72946
 Alpha virt. eigenvalues --    6.78202   6.79775   6.84118   6.85589   6.89738
 Alpha virt. eigenvalues --    6.92056   6.96161   6.97046   6.99672   7.07940
 Alpha virt. eigenvalues --    7.11495   7.14635   7.15304   7.16322   7.20024
 Alpha virt. eigenvalues --    7.22871   7.46285   7.47224   7.52945   7.59046
 Alpha virt. eigenvalues --    7.59842   7.65582   7.90599  24.45795  24.62981
 Alpha virt. eigenvalues --   24.69607  24.78660  24.85101  24.90759  24.94009
 Alpha virt. eigenvalues --   24.99953  25.05703  35.91828  36.13330  36.20027
 Alpha virt. eigenvalues --   36.36357  50.07128  50.09071  50.19306
          Condensed to atoms (all electrons):
               1          2          3          4          5          6
     1  O    8.184085   0.313458  -0.054997   0.017096   0.014376   0.000367
     2  C    0.313458   7.721078  -0.021567  -1.006913   0.093356  -0.009931
     3  N   -0.054997  -0.021567   6.653861  -0.111624   0.045397  -0.005460
     4  C    0.017096  -1.006913  -0.111624   9.632731  -1.644226   0.119890
     5  C    0.014376   0.093356   0.045397  -1.644226   6.496448   0.170893
     6  O    0.000367  -0.009931  -0.005460   0.119890   0.170893   7.738744
     7  O   -0.000321   0.041146  -0.011010   0.007206   0.387617  -0.085620
     8  C    0.008431   0.497381   0.010938  -1.578743   0.281447  -0.136534
     9  C   -0.043654  -0.622885   0.139547   0.105023   0.143190  -0.009335
    10  C   -0.001993   0.001852   0.005545   0.070983  -0.060514   0.126336
    11  N    0.000046   0.001021  -0.000686   0.022535  -0.014143  -0.004805
    12  C   -0.000316  -0.020491  -0.006652   0.117933  -0.064072   0.016971
    13  N    0.001915   0.005308  -0.000870   0.065756  -0.027294  -0.001437
    14  C    0.038182  -1.031204  -0.025298   0.168069  -0.065910   0.001289
    15  C   -0.087613   0.360231  -0.045848  -0.204633   0.036726  -0.000461
    16  N    0.006435  -0.026626   0.004204   0.007985   0.000294   0.000001
    17  H    0.003682  -0.056578   0.321653   0.018087  -0.001794  -0.001365
    18  H   -0.001627  -0.018102  -0.061728   0.471810  -0.032521  -0.020942
    19  H   -0.000015   0.001180   0.002172  -0.152173   0.114252   0.237300
    20  H    0.005280   0.023139   0.003467   0.009382  -0.047214  -0.000888
    21  H   -0.023699   0.020802   0.003848  -0.107789   0.036576  -0.007774
    22  H   -0.000117   0.000261  -0.001317   0.019824  -0.014162  -0.002560
    23  H    0.000032  -0.001235  -0.000001  -0.004525   0.000965   0.000730
    24  H   -0.000765   0.001743  -0.000631   0.011196  -0.008187   0.001278
    25  H   -0.001931  -0.214831   0.010299   0.040726   0.003650   0.000027
    26  H    0.004306  -0.002124   0.008734  -0.019545   0.001684  -0.000087
    27  H    0.022303   0.028392   0.002365  -0.001213  -0.000889  -0.000020
    28  H   -0.008250  -0.017124   0.002641   0.013544  -0.002189   0.000009
    29  H    0.001450  -0.004319   0.000544  -0.000313   0.000122  -0.000001
    30  H   -0.001245  -0.009637  -0.000737  -0.000106   0.000130   0.000001
    31  H    0.000985   0.006857  -0.000534   0.000536  -0.000163   0.000001
               7          8          9         10         11         12
     1  O   -0.000321   0.008431  -0.043654  -0.001993   0.000046  -0.000316
     2  C    0.041146   0.497381  -0.622885   0.001852   0.001021  -0.020491
     3  N   -0.011010   0.010938   0.139547   0.005545  -0.000686  -0.006652
     4  C    0.007206  -1.578743   0.105023   0.070983   0.022535   0.117933
     5  C    0.387617   0.281447   0.143190  -0.060514  -0.014143  -0.064072
     6  O   -0.085620  -0.136534  -0.009335   0.126336  -0.004805   0.016971
     7  O    8.091609  -0.068032   0.016117  -0.017810   0.000148   0.001463
     8  C   -0.068032  13.069296  -4.924509  -1.071617  -0.103413  -0.457975
     9  C    0.016117  -4.924509  11.526547  -0.431258   0.018673  -0.201360
    10  C   -0.017810  -1.071617  -0.431258   7.239377   0.329803  -0.029647
    11  N    0.000148  -0.103413   0.018673   0.329803   6.871169   0.237909
    12  C    0.001463  -0.457975  -0.201360  -0.029647   0.237909   5.409714
    13  N   -0.000648  -0.160767   0.149173  -0.097366   0.052421   0.378322
    14  C   -0.019102  -0.151051   0.136952  -0.011076   0.000355   0.002242
    15  C   -0.000255  -0.004543  -0.011607   0.000880   0.000007  -0.000389
    16  N   -0.000014   0.001104   0.000855   0.000009   0.000000   0.000004
    17  H    0.039419  -0.001884  -0.025145  -0.003185  -0.000069   0.000206
    18  H   -0.001905   0.200031  -0.233302  -0.037944   0.000600   0.000365
    19  H    0.023438   0.026391   0.020749  -0.024901  -0.001244  -0.007881
    20  H   -0.001328   0.555453  -0.206846  -0.044467  -0.001766  -0.015759
    21  H   -0.003027   0.418641   0.000045  -0.059419   0.001444   0.002748
    22  H   -0.001398  -0.055889  -0.119703   0.515292  -0.089046   0.037112
    23  H    0.000101   0.003651   0.050676   0.001064  -0.078637   0.443999
    24  H   -0.000156  -0.043362  -0.035799   0.045406  -0.001297  -0.033791
    25  H    0.000612  -0.009774   0.001357  -0.000803   0.000013   0.000099
    26  H   -0.004333   0.004493   0.002956   0.000204  -0.000002  -0.000015
    27  H    0.000011   0.004467   0.000717   0.000526  -0.000013  -0.000033
    28  H    0.000089  -0.001349  -0.001384  -0.000197   0.000003  -0.000009
    29  H   -0.000002  -0.000030   0.000259   0.000017   0.000000   0.000001
    30  H    0.000010  -0.000224  -0.000184  -0.000021   0.000000   0.000000
    31  H    0.000004   0.000023   0.000213   0.000010   0.000000  -0.000001
              13         14         15         16         17         18
     1  O    0.001915   0.038182  -0.087613   0.006435   0.003682  -0.001627
     2  C    0.005308  -1.031204   0.360231  -0.026626  -0.056578  -0.018102
     3  N   -0.000870  -0.025298  -0.045848   0.004204   0.321653  -0.061728
     4  C    0.065756   0.168069  -0.204633   0.007985   0.018087   0.471810
     5  C   -0.027294  -0.065910   0.036726   0.000294  -0.001794  -0.032521
     6  O   -0.001437   0.001289  -0.000461   0.000001  -0.001365  -0.020942
     7  O   -0.000648  -0.019102  -0.000255  -0.000014   0.039419  -0.001905
     8  C   -0.160767  -0.151051  -0.004543   0.001104  -0.001884   0.200031
     9  C    0.149173   0.136952  -0.011607   0.000855  -0.025145  -0.233302
    10  C   -0.097366  -0.011076   0.000880   0.000009  -0.003185  -0.037944
    11  N    0.052421   0.000355   0.000007   0.000000  -0.000069   0.000600
    12  C    0.378322   0.002242  -0.000389   0.000004   0.000206   0.000365
    13  N    6.279911  -0.001061   0.000284  -0.000003   0.000518   0.002326
    14  C   -0.001061   6.154062  -0.243898   0.012762   0.027162  -0.009124
    15  C    0.000284  -0.243898   5.858064   0.079557  -0.024282  -0.008893
    16  N   -0.000003   0.012762   0.079557   5.484066   0.000422  -0.000172
    17  H    0.000518   0.027162  -0.024282   0.000422   0.537205   0.011302
    18  H    0.002326  -0.009124  -0.008893  -0.000172   0.011302   0.613721
    19  H   -0.003517  -0.001089   0.000200   0.000001   0.002804   0.003955
    20  H    0.003185   0.011558  -0.001560  -0.000243   0.002995   0.007200
    21  H    0.007678  -0.007170   0.009656   0.000184  -0.000306  -0.008810
    22  H    0.017864   0.000180   0.000075  -0.000001  -0.000173  -0.002092
    23  H   -0.082757   0.000029  -0.000027   0.000000   0.000038   0.000171
    24  H    0.399668   0.000188  -0.000047  -0.000007  -0.000203  -0.004791
    25  H    0.000289   0.517583  -0.056381   0.011045   0.002480   0.000053
    26  H   -0.000052   0.384126  -0.005277   0.005492  -0.005323  -0.001374
    27  H   -0.000183  -0.036252   0.350978  -0.007298   0.000035  -0.000785
    28  H    0.000049   0.031031   0.341395  -0.021450   0.001888   0.001084
    29  H   -0.000001  -0.002073  -0.023952   0.399352  -0.000200  -0.000133
    30  H    0.000001   0.009730  -0.021616   0.377393   0.000288   0.000085
    31  H   -0.000006  -0.000673  -0.024254   0.369209   0.000009   0.000014
              19         20         21         22         23         24
     1  O   -0.000015   0.005280  -0.023699  -0.000117   0.000032  -0.000765
     2  C    0.001180   0.023139   0.020802   0.000261  -0.001235   0.001743
     3  N    0.002172   0.003467   0.003848  -0.001317  -0.000001  -0.000631
     4  C   -0.152173   0.009382  -0.107789   0.019824  -0.004525   0.011196
     5  C    0.114252  -0.047214   0.036576  -0.014162   0.000965  -0.008187
     6  O    0.237300  -0.000888  -0.007774  -0.002560   0.000730   0.001278
     7  O    0.023438  -0.001328  -0.003027  -0.001398   0.000101  -0.000156
     8  C    0.026391   0.555453   0.418641  -0.055889   0.003651  -0.043362
     9  C    0.020749  -0.206846   0.000045  -0.119703   0.050676  -0.035799
    10  C   -0.024901  -0.044467  -0.059419   0.515292   0.001064   0.045406
    11  N   -0.001244  -0.001766   0.001444  -0.089046  -0.078637  -0.001297
    12  C   -0.007881  -0.015759   0.002748   0.037112   0.443999  -0.033791
    13  N   -0.003517   0.003185   0.007678   0.017864  -0.082757   0.399668
    14  C   -0.001089   0.011558  -0.007170   0.000180   0.000029   0.000188
    15  C    0.000200  -0.001560   0.009656   0.000075  -0.000027  -0.000047
    16  N    0.000001  -0.000243   0.000184  -0.000001   0.000000  -0.000007
    17  H    0.002804   0.002995  -0.000306  -0.000173   0.000038  -0.000203
    18  H    0.003955   0.007200  -0.008810  -0.002092   0.000171  -0.004791
    19  H    0.517824   0.000068   0.000957  -0.001266  -0.000071  -0.000677
    20  H    0.000068   0.659683  -0.046643  -0.002144   0.000230  -0.000354
    21  H    0.000957  -0.046643   0.665712   0.002054  -0.000657   0.001183
    22  H   -0.001266  -0.002144   0.002054   0.613885   0.000350   0.002352
    23  H   -0.000071   0.000230  -0.000657   0.000350   0.556685  -0.005332
    24  H   -0.000677  -0.000354   0.001183   0.002352  -0.005332   0.536525
    25  H   -0.000010  -0.000470   0.000463  -0.000058   0.000004  -0.000085
    26  H   -0.000012  -0.000147   0.000437   0.000023  -0.000006   0.000064
    27  H    0.000014  -0.000270  -0.001219   0.000003   0.000001   0.000053
    28  H   -0.000034   0.000184   0.000042  -0.000005   0.000001  -0.000020
    29  H    0.000001  -0.000055   0.000044   0.000000   0.000000  -0.000001
    30  H    0.000000   0.000050  -0.000009  -0.000001   0.000000  -0.000002
    31  H    0.000000  -0.000024  -0.000002   0.000001   0.000000   0.000001
              25         26         27         28         29         30
     1  O   -0.001931   0.004306   0.022303  -0.008250   0.001450  -0.001245
     2  C   -0.214831  -0.002124   0.028392  -0.017124  -0.004319  -0.009637
     3  N    0.010299   0.008734   0.002365   0.002641   0.000544  -0.000737
     4  C    0.040726  -0.019545  -0.001213   0.013544  -0.000313  -0.000106
     5  C    0.003650   0.001684  -0.000889  -0.002189   0.000122   0.000130
     6  O    0.000027  -0.000087  -0.000020   0.000009  -0.000001   0.000001
     7  O    0.000612  -0.004333   0.000011   0.000089  -0.000002   0.000010
     8  C   -0.009774   0.004493   0.004467  -0.001349  -0.000030  -0.000224
     9  C    0.001357   0.002956   0.000717  -0.001384   0.000259  -0.000184
    10  C   -0.000803   0.000204   0.000526  -0.000197   0.000017  -0.000021
    11  N    0.000013  -0.000002  -0.000013   0.000003   0.000000   0.000000
    12  C    0.000099  -0.000015  -0.000033  -0.000009   0.000001   0.000000
    13  N    0.000289  -0.000052  -0.000183   0.000049  -0.000001   0.000001
    14  C    0.517583   0.384126  -0.036252   0.031031  -0.002073   0.009730
    15  C   -0.056381  -0.005277   0.350978   0.341395  -0.023952  -0.021616
    16  N    0.011045   0.005492  -0.007298  -0.021450   0.399352   0.377393
    17  H    0.002480  -0.005323   0.000035   0.001888  -0.000200   0.000288
    18  H    0.000053  -0.001374  -0.000785   0.001084  -0.000133   0.000085
    19  H   -0.000010  -0.000012   0.000014  -0.000034   0.000001   0.000000
    20  H   -0.000470  -0.000147  -0.000270   0.000184  -0.000055   0.000050
    21  H    0.000463   0.000437  -0.001219   0.000042   0.000044  -0.000009
    22  H   -0.000058   0.000023   0.000003  -0.000005   0.000000  -0.000001
    23  H    0.000004  -0.000006   0.000001   0.000001   0.000000   0.000000
    24  H   -0.000085   0.000064   0.000053  -0.000020  -0.000001  -0.000002
    25  H    0.713193  -0.069057  -0.019282   0.013976   0.000077  -0.001717
    26  H   -0.069057   0.649027   0.012390  -0.023828   0.002140   0.000875
    27  H   -0.019282   0.012390   0.543792  -0.027097  -0.000358   0.001974
    28  H    0.013976  -0.023828  -0.027097   0.598571  -0.005164  -0.005112
    29  H    0.000077   0.002140  -0.000358  -0.005164   0.517705  -0.026952
    30  H   -0.001717   0.000875   0.001974  -0.005112  -0.026952   0.538407
    31  H    0.000914  -0.002467  -0.004803   0.004112  -0.020855  -0.027394
              31
     1  O    0.000985
     2  C    0.006857
     3  N   -0.000534
     4  C    0.000536
     5  C   -0.000163
     6  O    0.000001
     7  O    0.000004
     8  C    0.000023
     9  C    0.000213
    10  C    0.000010
    11  N    0.000000
    12  C   -0.000001
    13  N   -0.000006
    14  C   -0.000673
    15  C   -0.024254
    16  N    0.369209
    17  H    0.000009
    18  H    0.000014
    19  H    0.000000
    20  H   -0.000024
    21  H   -0.000002
    22  H    0.000001
    23  H    0.000000
    24  H    0.000001
    25  H    0.000914
    26  H   -0.002467
    27  H   -0.004803
    28  H    0.004112
    29  H   -0.020855
    30  H   -0.027394
    31  H    0.534270
 Mulliken charges:
               1
     1  O   -0.395885
     2  C   -0.053635
     3  N    0.133745
     4  C   -0.088510
     5  C    0.156155
     6  O   -0.126616
     7  O   -0.394031
     8  C   -0.312052
     9  C    0.553923
    10  C   -0.445087
    11  N   -0.241026
    12  C    0.189303
    13  N    0.011295
    14  C    0.109480
    15  C   -0.272517
    16  N    0.295440
    17  H    0.150315
    18  H    0.131529
    19  H    0.241586
    20  H    0.088303
    21  H    0.094009
    22  H    0.080655
    23  H    0.114519
    24  H    0.135848
    25  H    0.057539
    26  H    0.056700
    27  H    0.131693
    28  H    0.104595
    29  H    0.162697
    30  H    0.166012
    31  H    0.164018
 Sum of Mulliken charges =   1.00000
 Mulliken charges with hydrogens summed into heavy atoms:
               1
     1  O   -0.395885
     2  C   -0.053635
     3  N    0.284060
     4  C    0.043018
     5  C    0.156155
     6  O    0.114970
     7  O   -0.394031
     8  C   -0.129739
     9  C    0.553923
    10  C   -0.364432
    11  N   -0.241026
    12  C    0.303823
    13  N    0.147143
    14  C    0.223718
    15  C   -0.036229
    16  N    0.788167
 Electronic spatial extent (au):  <R**2>=           5477.7652
 Charge=              1.0000 electrons
 Dipole moment (field-independent basis, Debye):
    X=             21.7673    Y=              3.7461    Z=              0.0250  Tot=             22.0873
 Quadrupole moment (field-independent basis, Debye-Ang):
   XX=             18.4994   YY=            -89.5780   ZZ=            -87.3627
   XY=              0.5637   XZ=              4.4468   YZ=             -0.1000
 Traceless Quadrupole moment (field-independent basis, Debye-Ang):
   XX=             71.3132   YY=            -36.7642   ZZ=            -34.5489
   XY=              0.5637   XZ=              4.4468   YZ=             -0.1000
 Octapole moment (field-independent basis, Debye-Ang**2):
  XXX=            945.1592  YYY=             29.5583  ZZZ=            -70.5547  XYY=             99.3131
  XXY=            128.8754  XXZ=            -29.4254  XZZ=             39.3513  YZZ=              4.3531
  YYZ=             -2.3562  XYZ=             -4.9193
 Hexadecapole moment (field-independent basis, Debye-Ang**3):
 XXXX=          -2611.7504 YYYY=           -619.6058 ZZZZ=           -876.3507 XXXY=           -468.7623
 XXXZ=            -76.0955 YYYX=           -491.1694 YYYZ=           -144.3335 ZZZX=             36.1946
 ZZZY=           -142.3015 XXYY=          -1004.1940 XXZZ=           -798.1374 YYZZ=           -230.4547
 XXYZ=            -28.2328 YYXZ=            -63.5010 ZZXY=           -148.9121
 N-N= 1.112940461677D+03 E-N=-4.072586491239D+03  KE= 7.933441329646D+02
 Calling FoFJK, ICntrl=      2127 FMM=F ISym2X=0 I1Cent= 0 IOpClX= 0 NMat=1 NMatS=1 NMatT=0.
 -------------------------------------------------------------------
 Center     Atomic                   Forces (Hartrees/Bohr)
 Number     Number              X              Y              Z
 -------------------------------------------------------------------
      1        8           0.000505866    0.000431350    0.011068695
      2        6          -0.001695061   -0.000034333   -0.004336420
      3        7           0.001394615   -0.001060392   -0.002793746
      4        6          -0.000066457    0.001189464    0.000217397
      5        6           0.002521550   -0.000697727    0.007389459
      6        8           0.002487527   -0.000477716    0.005730256
      7        8          -0.005186460    0.000906774   -0.011926087
      8        6          -0.000253297   -0.000670900    0.000523272
      9        6          -0.003330564   -0.000654119    0.000073922
     10        6           0.002608557    0.000028100   -0.000010037
     11        7           0.006266205    0.003117421   -0.004172202
     12        6          -0.000923211   -0.000628877    0.001053472
     13        7          -0.001237243   -0.001341487    0.001893236
     14        6           0.000118840    0.000237484   -0.000648704
     15        6           0.000185537    0.000262145   -0.000209197
     16        7           0.001525717   -0.000622064    0.000610209
     17        1           0.000711075   -0.000015340   -0.002991142
     18        1           0.000175153   -0.001624168    0.002418702
     19        1           0.000527567   -0.000263206   -0.003195267
     20        1          -0.000694313    0.001395124   -0.002179939
     21        1          -0.002100182    0.000629724    0.001968485
     22        1           0.000146442    0.001297431   -0.002669446
     23        1           0.001641933   -0.000747481    0.002184084
     24        1          -0.001903424   -0.001180377    0.001951508
     25        1          -0.000903239    0.002493683   -0.000771627
     26        1          -0.000316772   -0.001396538   -0.002421527
     27        1           0.001560090    0.001177047    0.002130050
     28        1           0.000037375   -0.002702395    0.000121298
     29        1          -0.002297466   -0.001030904    0.002142327
     30        1          -0.000920665   -0.001146122   -0.002881357
     31        1          -0.000585694    0.003128398   -0.000269675
 -------------------------------------------------------------------
 Cartesian Forces:  Max     0.011926087 RMS     0.002662016

 GradGradGradGradGradGradGradGradGradGradGradGradGradGradGradGradGradGrad
 Berny optimization.
 FormGI is forming the generalized inverse of G from B-inverse, IUseBI=4.
 GSVD:  received Info=                   1 from GESDD.
 Internal  Forces:  Max     0.013011600 RMS     0.002025555
 Search for a local minimum.
 Step number   1 out of a maximum of  167
 All quantities printed in internal units (Hartrees-Bohrs-Radians)
 Mixed Optimization -- RFO/linear search
 Second derivative matrix not updated -- first step.
 ITU=  0
     Eigenvalues ---    0.00057   0.00074   0.00147   0.00201   0.00265
     Eigenvalues ---    0.00332   0.00337   0.00468   0.00823   0.00880
     Eigenvalues ---    0.01893   0.01986   0.02082   0.02509   0.03357
     Eigenvalues ---    0.03759   0.03807   0.04034   0.04076   0.04194
     Eigenvalues ---    0.04333   0.04613   0.04893   0.04980   0.05001
     Eigenvalues ---    0.05123   0.05367   0.05758   0.06102   0.06916
     Eigenvalues ---    0.07634   0.07947   0.10060   0.10188   0.10959
     Eigenvalues ---    0.11055   0.11522   0.11808   0.12550   0.12727
     Eigenvalues ---    0.13183   0.14656   0.14906   0.15358   0.16309
     Eigenvalues ---    0.17283   0.17605   0.19042   0.21232   0.21486
     Eigenvalues ---    0.22272   0.22518   0.23221   0.24338   0.24503
     Eigenvalues ---    0.24734   0.25808   0.28478   0.30840   0.32839
     Eigenvalues ---    0.33039   0.33665   0.33868   0.34074   0.34405
     Eigenvalues ---    0.34612   0.34821   0.35150   0.35464   0.37264
     Eigenvalues ---    0.37368   0.37391   0.37844   0.40560   0.42747
     Eigenvalues ---    0.42787   0.43262   0.45448   0.45511   0.46317
     Eigenvalues ---    0.47479   0.48070   0.51155   0.51541   0.58619
     Eigenvalues ---    0.81699   0.87227
 RFO step:  Lambda=-1.35460738D-03 EMin= 5.67980135D-04
 Linear search not attempted -- first point.
 Iteration  1 RMS(Cart)=  0.03814024 RMS(Int)=  0.00053341
 Iteration  2 RMS(Cart)=  0.00111835 RMS(Int)=  0.00003698
 Iteration  3 RMS(Cart)=  0.00000066 RMS(Int)=  0.00003697
 Variable       Old X    -DE/DX   Delta X   Delta X   Delta X     New X
                                 (Linear)    (Quad)   (Total)
    R1        2.32205  -0.01107   0.00000  -0.01370  -0.01370   2.30836
    R2        2.53516  -0.00512   0.00000  -0.00617  -0.00617   2.52899
    R3        2.91817  -0.00235   0.00000  -0.00947  -0.00947   2.90870
    R4        2.75360  -0.00101   0.00000  -0.00474  -0.00474   2.74886
    R5        1.91778  -0.00286   0.00000  -0.00729  -0.00729   1.91049
    R6        2.87394  -0.00193   0.00000  -0.00592  -0.00592   2.86802
    R7        2.94807  -0.00137   0.00000  -0.00689  -0.00689   2.94118
    R8        2.06467  -0.00291   0.00000  -0.00859  -0.00859   2.05607
    R9        2.51746  -0.00363   0.00000  -0.00490  -0.00490   2.51255
   R10        2.29622  -0.01301   0.00000  -0.01544  -0.01544   2.28078
   R11        1.83970  -0.00298   0.00000  -0.00689  -0.00689   1.83281
   R12        2.81036  -0.00321   0.00000  -0.00788  -0.00788   2.80248
   R13        2.06747  -0.00266   0.00000  -0.00756  -0.00756   2.05991
   R14        2.07015  -0.00292   0.00000  -0.00749  -0.00749   2.06266
   R15        2.59916  -0.00631   0.00000  -0.01076  -0.01076   2.58840
   R16        2.61831  -0.00300   0.00000  -0.00721  -0.00721   2.61110
   R17        2.60023  -0.00256   0.00000  -0.00448  -0.00448   2.59575
   R18        2.04404  -0.00297   0.00000  -0.00806  -0.00806   2.03598
   R19        2.48518  -0.00597   0.00000  -0.01057  -0.01057   2.47460
   R20        2.58660  -0.00422   0.00000  -0.00622  -0.00623   2.58038
   R21        2.04257  -0.00283   0.00000  -0.00741  -0.00741   2.03516
   R22        1.90644  -0.00294   0.00000  -0.00601  -0.00601   1.90044
   R23        2.87283  -0.00178   0.00000  -0.00772  -0.00772   2.86511
   R24        2.07569  -0.00273   0.00000  -0.00779  -0.00779   2.06790
   R25        2.06824  -0.00281   0.00000  -0.00743  -0.00743   2.06080
   R26        2.88184  -0.00232   0.00000  -0.00767  -0.00767   2.87416
   R27        2.06094  -0.00269   0.00000  -0.00759  -0.00759   2.05335
   R28        2.06175  -0.00270   0.00000  -0.00732  -0.00732   2.05443
   R29        1.93865  -0.00329   0.00000  -0.00753  -0.00753   1.93113
   R30        1.93826  -0.00323   0.00000  -0.00738  -0.00738   1.93088
   R31        1.93883  -0.00319   0.00000  -0.00733  -0.00733   1.93150
    A1        2.17900  -0.00101   0.00000  -0.00117  -0.00118   2.17782
    A2        2.09076   0.00064   0.00000   0.00095   0.00094   2.09170
    A3        2.01338   0.00037   0.00000   0.00014   0.00013   2.01351
    A4        2.13810   0.00107   0.00000   0.00430   0.00411   2.14222
    A5        2.14340  -0.00161   0.00000  -0.01171  -0.01190   2.13150
    A6        2.00087   0.00055   0.00000   0.00876   0.00857   2.00944
    A7        1.84822   0.00093   0.00000   0.00866   0.00866   1.85689
    A8        1.93509  -0.00054   0.00000  -0.00220  -0.00220   1.93289
    A9        1.90748  -0.00017   0.00000  -0.00297  -0.00296   1.90452
   A10        1.94120  -0.00016   0.00000  -0.00178  -0.00178   1.93942
   A11        1.91886  -0.00045   0.00000  -0.00307  -0.00306   1.91580
   A12        1.91199   0.00039   0.00000   0.00140   0.00140   1.91339
   A13        1.96020   0.00062   0.00000  -0.00272  -0.00272   1.95748
   A14        2.14041   0.00062   0.00000   0.00350   0.00350   2.14391
   A15        2.18239  -0.00124   0.00000  -0.00072  -0.00072   2.18166
   A16        1.88914   0.00236   0.00000   0.01566   0.01566   1.90480
   A17        1.99951   0.00099   0.00000   0.00422   0.00423   2.00374
   A18        1.88142  -0.00001   0.00000   0.00242   0.00242   1.88384
   A19        1.85335  -0.00005   0.00000   0.00226   0.00227   1.85561
   A20        1.89919  -0.00044   0.00000  -0.00338  -0.00339   1.89580
   A21        1.94949  -0.00063   0.00000  -0.00395  -0.00396   1.94554
   A22        1.87594   0.00012   0.00000  -0.00161  -0.00162   1.87432
   A23        2.29757  -0.00057   0.00000  -0.00454  -0.00455   2.29303
   A24        2.15858   0.00032   0.00000   0.00248   0.00247   2.16105
   A25        1.82563   0.00025   0.00000   0.00239   0.00238   1.82801
   A26        1.93890  -0.00129   0.00000  -0.00506  -0.00505   1.93385
   A27        2.22314   0.00056   0.00000   0.00260   0.00260   2.22574
   A28        2.12113   0.00074   0.00000   0.00246   0.00246   2.12359
   A29        1.83845   0.00194   0.00000   0.00610   0.00610   1.84455
   A30        1.94857  -0.00149   0.00000  -0.00477  -0.00478   1.94380
   A31        2.19949   0.00071   0.00000   0.00244   0.00244   2.20193
   A32        2.13510   0.00078   0.00000   0.00233   0.00234   2.13744
   A33        1.87322   0.00060   0.00000   0.00136   0.00135   1.87457
   A34        2.20629   0.00011   0.00000   0.00215   0.00215   2.20844
   A35        2.20275  -0.00070   0.00000  -0.00334  -0.00334   2.19941
   A36        1.87017   0.00301   0.00000   0.01387   0.01387   1.88404
   A37        1.87376  -0.00107   0.00000  -0.00677  -0.00678   1.86698
   A38        1.94876  -0.00115   0.00000  -0.00234  -0.00235   1.94642
   A39        1.93033  -0.00056   0.00000  -0.00119  -0.00118   1.92916
   A40        1.95690  -0.00080   0.00000  -0.00364  -0.00364   1.95326
   A41        1.88263   0.00050   0.00000  -0.00019  -0.00021   1.88242
   A42        1.94269  -0.00057   0.00000  -0.00357  -0.00356   1.93912
   A43        1.91700   0.00091   0.00000   0.01089   0.01088   1.92788
   A44        1.96527  -0.00003   0.00000  -0.00108  -0.00109   1.96418
   A45        1.87842  -0.00052   0.00000  -0.00610  -0.00609   1.87233
   A46        1.85583   0.00031   0.00000   0.00142   0.00141   1.85724
   A47        1.90161  -0.00016   0.00000  -0.00218  -0.00220   1.89941
   A48        1.94317  -0.00035   0.00000  -0.00246  -0.00246   1.94071
   A49        1.94946   0.00004   0.00000   0.00021   0.00021   1.94967
   A50        1.93655  -0.00019   0.00000  -0.00137  -0.00137   1.93518
   A51        1.87919   0.00015   0.00000   0.00082   0.00082   1.88002
   A52        1.87797   0.00023   0.00000   0.00137   0.00136   1.87933
   A53        1.87418   0.00016   0.00000   0.00167   0.00167   1.87586
    D1        0.04104  -0.00001   0.00000  -0.01349  -0.01337   0.02767
    D2        3.13697   0.00020   0.00000   0.02432   0.02420  -3.12201
    D3       -3.09004   0.00009   0.00000  -0.00564  -0.00552  -3.09556
    D4        0.00590   0.00029   0.00000   0.03217   0.03205   0.03795
    D5        0.46279   0.00012   0.00000   0.01425   0.01424   0.47703
    D6       -1.61125  -0.00025   0.00000   0.01189   0.01191  -1.59934
    D7        2.61188   0.00044   0.00000   0.01762   0.01762   2.62950
    D8       -2.68876   0.00002   0.00000   0.00681   0.00680  -2.68196
    D9        1.52039  -0.00035   0.00000   0.00446   0.00447   1.52486
   D10       -0.53967   0.00034   0.00000   0.01019   0.01018  -0.52948
   D11       -2.84745   0.00030   0.00000   0.05811   0.05820  -2.78925
   D12        1.32811   0.00023   0.00000   0.05618   0.05627   1.38438
   D13       -0.78123   0.00020   0.00000   0.05776   0.05785  -0.72338
   D14        0.33636   0.00016   0.00000   0.02364   0.02355   0.35991
   D15       -1.77126   0.00009   0.00000   0.02170   0.02161  -1.74965
   D16        2.40258   0.00006   0.00000   0.02329   0.02320   2.42578
   D17        2.75270  -0.00015   0.00000  -0.02161  -0.02162   2.73108
   D18       -0.40898   0.00008   0.00000  -0.01858  -0.01858  -0.42755
   D19       -1.42683  -0.00032   0.00000  -0.01991  -0.01991  -1.44674
   D20        1.69468  -0.00009   0.00000  -0.01687  -0.01687   1.67781
   D21        0.69405  -0.00024   0.00000  -0.02140  -0.02139   0.67265
   D22       -2.46763  -0.00001   0.00000  -0.01836  -0.01835  -2.48598
   D23        3.11667   0.00047   0.00000   0.00798   0.00798   3.12465
   D24        1.00000   0.00039   0.00000   0.00778   0.00777   1.00777
   D25       -1.00618   0.00028   0.00000   0.00738   0.00739  -0.99880
   D26        1.06504  -0.00024   0.00000  -0.00028  -0.00028   1.06476
   D27       -1.05164  -0.00032   0.00000  -0.00049  -0.00049  -1.05212
   D28       -3.05782  -0.00043   0.00000  -0.00088  -0.00088  -3.05870
   D29       -1.05984   0.00017   0.00000   0.00380   0.00380  -1.05605
   D30        3.10667   0.00009   0.00000   0.00359   0.00359   3.11026
   D31        1.10049  -0.00002   0.00000   0.00320   0.00320   1.10369
   D32        3.04502   0.00020   0.00000   0.00059   0.00059   3.04561
   D33       -0.07591  -0.00006   0.00000  -0.00259  -0.00258  -0.07850
   D34       -1.82575  -0.00017   0.00000  -0.01760  -0.01760  -1.84335
   D35        1.24976  -0.00006   0.00000  -0.00978  -0.00978   1.23998
   D36        0.28114   0.00016   0.00000  -0.01415  -0.01416   0.26698
   D37       -2.92654   0.00027   0.00000  -0.00633  -0.00634  -2.93287
   D38        2.34937  -0.00034   0.00000  -0.02067  -0.02066   2.32872
   D39       -0.85830  -0.00024   0.00000  -0.01284  -0.01284  -0.87114
   D40        3.08923   0.00001   0.00000   0.00460   0.00459   3.09382
   D41       -0.05712   0.00006   0.00000   0.00589   0.00588  -0.05124
   D42        0.00445  -0.00009   0.00000  -0.00218  -0.00218   0.00227
   D43        3.14129  -0.00005   0.00000  -0.00090  -0.00089   3.14040
   D44       -3.09571   0.00002   0.00000  -0.00371  -0.00372  -3.09943
   D45        0.08995   0.00000   0.00000  -0.00764  -0.00766   0.08228
   D46       -0.00513   0.00008   0.00000   0.00209   0.00210  -0.00303
   D47       -3.10266   0.00005   0.00000  -0.00184  -0.00184  -3.10450
   D48       -0.00196   0.00006   0.00000   0.00138   0.00138  -0.00058
   D49       -3.13912   0.00002   0.00000   0.00018   0.00018  -3.13895
   D50       -0.00147  -0.00001   0.00000   0.00004   0.00004  -0.00144
   D51        3.13315  -0.00003   0.00000  -0.00003  -0.00004   3.13311
   D52        0.00429  -0.00005   0.00000  -0.00140  -0.00140   0.00289
   D53        3.10193   0.00000   0.00000   0.00271   0.00270   3.10463
   D54       -3.13063  -0.00003   0.00000  -0.00133  -0.00133  -3.13196
   D55       -0.03299   0.00002   0.00000   0.00277   0.00276  -0.03022
   D56       -2.86539   0.00005   0.00000  -0.02147  -0.02147  -2.88686
   D57       -0.78685  -0.00036   0.00000  -0.02427  -0.02428  -0.81113
   D58        1.33571   0.00006   0.00000  -0.02006  -0.02006   1.31565
   D59       -0.82830   0.00021   0.00000  -0.02221  -0.02220  -0.85050
   D60        1.25025  -0.00020   0.00000  -0.02501  -0.02501   1.22523
   D61       -2.91038   0.00023   0.00000  -0.02080  -0.02080  -2.93118
   D62        1.27374  -0.00007   0.00000  -0.02573  -0.02573   1.24801
   D63       -2.93090  -0.00048   0.00000  -0.02853  -0.02854  -2.95944
   D64       -0.80834  -0.00005   0.00000  -0.02433  -0.02432  -0.83266
   D65        3.12696   0.00020   0.00000   0.00488   0.00488   3.13184
   D66       -1.05476   0.00017   0.00000   0.00438   0.00438  -1.05038
   D67        1.03580   0.00027   0.00000   0.00571   0.00571   1.04151
   D68        1.02552  -0.00025   0.00000  -0.00247  -0.00247   1.02306
   D69        3.12699  -0.00028   0.00000  -0.00297  -0.00297   3.12402
   D70       -1.06563  -0.00018   0.00000  -0.00164  -0.00164  -1.06727
   D71       -1.01006   0.00003   0.00000   0.00232   0.00232  -1.00774
   D72        1.09141   0.00000   0.00000   0.00182   0.00182   1.09323
   D73       -3.10121   0.00010   0.00000   0.00315   0.00315  -3.09806
         Item               Value     Threshold  Converged?
 Maximum Force            0.013012     0.000450     NO 
 RMS     Force            0.002026     0.000300     NO 
 Maximum Displacement     0.149817     0.001800     NO 
 RMS     Displacement     0.038039     0.001200     NO 
 Predicted change in Energy=-6.952594D-04
 GradGradGradGradGradGradGradGradGradGradGradGradGradGradGradGradGradGrad

                          Input orientation:                          
 ---------------------------------------------------------------------
 Center     Atomic      Atomic             Coordinates (Angstroms)
 Number     Number       Type             X           Y           Z
 ---------------------------------------------------------------------
      1          8           0        1.338369    0.312623   -1.257319
      2          6           0        1.478302    0.324363   -0.043888
      3          7           0        0.474361    0.368341    0.839953
      4          6           0       -0.924689    0.373964    0.441723
      5          6           0       -1.703408    0.927736    1.620839
      6          8           0       -2.869523    1.448773    1.251387
      7          8           0       -1.298444    0.872783    2.756481
      8          6           0       -1.400830   -1.063069    0.080307
      9          6           0       -2.825700   -1.164617   -0.318130
     10          6           0       -3.919209   -1.652926    0.346653
     11          7           0       -5.059431   -1.485385   -0.400762
     12          6           0       -4.674285   -0.902339   -1.508247
     13          7           0       -3.326828   -0.681270   -1.511626
     14          6           0        2.890582    0.261705    0.564984
     15          6           0        3.858363    0.859870   -0.437173
     16          7           0        5.296906    0.518852   -0.080008
     17          1           0        0.636964    0.393242    1.837466
     18          1           0       -1.047416    1.027149   -0.419725
     19          1           0       -3.366428    1.709041    2.042599
     20          1           0       -1.236262   -1.699810    0.949622
     21          1           0       -0.738250   -1.415435   -0.712303
     22          1           0       -3.943109   -2.116736    1.318808
     23          1           0       -5.307775   -0.624560   -2.333700
     24          1           0       -2.796055   -0.275298   -2.263180
     25          1           0        3.118493   -0.794993    0.735019
     26          1           0        2.934235    0.772275    1.527618
     27          1           0        3.669778    0.462828   -1.430883
     28          1           0        3.800429    1.944790   -0.476012
     29          1           0        5.949880    0.913642   -0.759758
     30          1           0        5.552743    0.877919    0.841753
     31          1           0        5.438428   -0.493304   -0.065307
 ---------------------------------------------------------------------
                    Distance matrix (angstroms):
                    1          2          3          4          5
     1  O    0.000000
     2  C    1.221529   0.000000
     3  N    2.268956   1.338285   0.000000
     4  C    2.830536   2.452069   1.454633   0.000000
     5  C    4.232559   3.641243   2.380206   1.517689   0.000000
     6  O    5.028995   4.673929   3.538102   2.364984   1.329586
     7  O    4.834992   3.981601   2.659018   2.397210   1.206938
     8  C    3.344395   3.198405   2.478374   1.556405   2.535370
     9  C    4.517054   4.562532   3.818575   2.560947   3.065466
    10  C    5.837656   5.761538   4.861308   3.617247   3.632236
    11  N    6.700624   6.792974   5.966450   4.611188   4.601404
    12  C    6.139308   6.442319   5.799761   4.414839   4.686840
    13  N    4.776667   5.123946   4.591366   3.270988   3.877722
    14  C    2.394315   1.539216   2.434154   3.818912   4.760585
    15  C    2.706010   2.471059   3.650223   4.887346   5.930710
    16  N    4.135047   3.823725   4.911815   6.245113   7.215571
    17  H    3.174297   2.062059   1.010986   2.094571   2.410384
    18  H    2.627562   2.648474   2.082456   1.088028   2.145719
    19  H    5.913928   5.453638   4.242109   3.210502   1.885193
    20  H    3.943247   3.528909   2.686169   2.157679   2.751864
[...]
 6,-0.00004640,0.00004134,0.00000634,0.00001565,0.00000041,-0.00001431,
 -0.00001098,0.00001301,0.00002454,-0.00000261,0.00001318,0.00001560,0.
 00000178,0.00000040,-0.00000110,0.00000978,-0.00002246,-0.00560828,0.0
 3987650,-0.05450371,-0.00488365,0.02380178,-0.00466460,-0.00109239,-0.
 00067432,0.00111012,0.00005021,-0.00036885,0.00014763,0.00008624,-0.00
 001620,-0.00003880,-0.00000126,-0.00000157,0.00000482,-0.00000392,0.00
 000299,0.00001366,-0.00000435,0.00003667,-0.00002550,-0.00000059,-0.00
 000032,0.00000133,0.00000025,0.00000045,-0.00000051,-0.00000149,0.0000
 0469,-0.00000622,0.00621009,-0.04594249,0.05674578,-0.00684774,0.00259
 448,-0.00417123,0.00645290,-0.01689014,-0.02584887,0.00012510,0.001204
 78,0.00152617,0.00003445,0.00000712,0.00006456,-0.00011957,0.00002239,
 -0.00033124,0.00008256,-0.00004259,0.00008478,0.00013962,0.00006290,0.
 00021446,0.00011683,0.00003176,0.00001873,-0.00001166,0.00003118,-0.00
 000456,0.00000599,0.00001031,-0.00000210,-0.00002167,-0.00000352,0.000
 00030,0.00001326,-0.00000224,0.00000212,-0.00000882,-0.00000529,0.0000
 1072,-0.05047128,-0.00865843,-0.00869214,-0.00020274,0.01186442,0.0225
 3054,0.00158935,0.00044931,0.00011486,-0.00157697,-0.00040921,0.000049
 66,0.00013893,-0.00002438,0.00002639,-0.00003090,-0.00000745,0.0000016
 9,-0.00001089,-0.00000411,0.00001250,0.00001518,0.00006040,0.00000882,
 -0.00000031,-0.00000423,0.00000024,0.00000005,-0.00000025,0.00000016,0
 .00002764,0.00000048,-0.00000033,0.00012055,0.00336070,0.00641434,0.05
 353970,0.00062761,0.00084183,0.00101619,0.00203280,0.00000571,0.002336
 02,-0.00049539,0.00004326,0.00028506,-0.00007574,0.00001549,0.00022188
 ,-0.00002963,0.00000064,-0.00020028,0.00001348,-0.00000844,0.00006039,
 0.00002820,-0.00004594,0.00013731,0.00002857,0.00000196,-0.00003112,-0
 .00001346,0.00000862,0.00000869,0.00000678,0.00001070,-0.00001010,-0.0
 0002203,-0.00000546,-0.00000257,0.00000471,0.00000115,-0.00000150,-0.0
 0000554,-0.00001234,0.00001599,-0.00857488,-0.11350108,-0.11392476,0.0
 0084219,0.00729536,0.01443629,0.00078985,0.00013999,-0.00010552,-0.000
 60210,0.00037252,0.00002137,0.00006558,0.00000526,0.00002755,0.0000003
 8,0.00000930,-0.00000698,-0.00000360,-0.00001460,-0.00000629,0.0000067
 3,0.00001295,0.00002880,-0.00000008,-0.00000073,-0.00000042,0.00000011
 ,0.00000051,0.00000085,0.00001106,0.00000155,0.00000407,-0.00183047,-0
 .01437331,-0.02710058,0.00861037,0.11839752,-0.00329466,0.00031490,-0.
 00003576,0.00150146,-0.00510325,-0.01211818,0.00168375,0.00072680,0.00
 113920,-0.00051393,0.00059799,-0.00000822,-0.00008090,-0.00002407,-0.0
 0000584,0.00002440,-0.00000283,-0.00000123,0.00002954,0.00001954,0.000
 00437,0.00022055,-0.00006773,0.00003841,0.00000367,0.00008141,-0.00000
 568,-0.00001553,0.00000366,0.00001564,0.00001093,-0.00001695,0.0000200
 4,0.00003624,0.00000747,-0.00000500,-0.00001866,0.00000532,-0.00000882
 ,-0.00842403,-0.11196227,-0.24367222,-0.00193727,-0.00949579,-0.018755
 33,0.00013281,-0.00001384,0.00091494,-0.00012495,-0.00048601,0.0008793
 0,0.00002258,-0.00005171,0.00004872,-0.00000789,-0.00000727,0.00000214
 ,-0.00001100,-0.00000798,0.00000550,0.00000338,0.00002549,0.00000091,-
 0.00000068,-0.00000089,0.00000066,0.00000149,-0.00000065,-0.00000040,0
 .00001641,-0.00000103,-0.00000702,0.00022794,0.00255510,0.00611231,0.0
 0740891,0.12130208,0.26615009,-0.00139168,-0.00069720,-0.00338553,0.00
 046663,0.00022018,0.00555740,0.00079119,-0.00006871,-0.00231149,-0.000
 23161,0.00002780,-0.00009053,-0.00011033,0.00011170,0.00020807,0.00005
 964,-0.00004138,-0.00005690,0.00005116,-0.00006919,-0.00018629,-0.0000
 2649,-0.00000901,0.00003226,0.00000039,-0.00000390,0.00001017,-0.00001
 277,-0.00001073,0.00001492,0.00005419,0.00000732,0.00000579,-0.0000140
 6,-0.00000452,0.00000295,0.00001899,0.00002309,-0.00002823,0.00393968,
 0.01020109,0.01893932,-0.04883382,-0.01162886,-0.02643637,-0.01584918,
 -0.01310505,-0.03426641,0.00054604,0.00004603,0.00004523,-0.00006408,0
 .00002296,0.00002343,-0.00000360,0.00001380,0.00000947,0.00001355,-0.0
 0000380,-0.00001334,-0.00000867,-0.00005835,-0.00001181,-0.00000219,-0
 .00000099,0.00000042,0.00000019,-0.00000035,-0.00000103,-0.00003376,-0
 .00000128,-0.00001019,0.00076150,-0.00024316,-0.00041437,-0.00355785,-
 0.00246679,0.00239582,0.06456330,-0.00058953,-0.00147578,0.00005255,-0
 .00014528,0.00067493,-0.00044196,0.00022560,0.00016225,-0.00004929,-0.
 00004871,-0.00000462,-0.00011453,-0.00003084,0.00003066,0.00005811,0.0
 0003076,-0.00002008,-0.00001643,0.00001280,-0.00001621,-0.00003364,-0.
 00000960,0.00000467,0.00001668,-0.00000412,-0.00000568,-0.00000780,-0.
 00000746,-0.00000651,0.00000547,0.00001646,-0.00000255,0.00000925,0.00
 000624,-0.00000009,0.00000018,0.00000442,0.,-0.00000911,0.00212253,0.0
 0647045,0.01285995,-0.01764215,-0.10248562,-0.10701620,0.00475309,0.00
 372563,0.01181360,0.00013058,0.00008928,0.00004705,-0.00001904,-0.0000
 0508,0.00000980,-0.00000253,0.00000374,0.00000266,-0.00000309,-0.00000
 081,0.00000566,-0.00000855,-0.00000146,-0.00001071,-0.00000191,0.00000
 042,0.00000199,0.00000060,0.00000166,0.00000033,-0.00000505,0.00001261
 ,-0.00000613,0.00077959,0.00062791,0.00002127,-0.00214766,-0.00022113,
 0.00165492,0.01634301,0.10267792,-0.00301046,-0.00013232,0.00112490,-0
 .00098128,-0.00026075,-0.00194439,-0.00001231,0.00001570,-0.00020606,-
 0.00003468,-0.00000088,0.00006143,-0.00001211,-0.00001653,-0.00003318,
 0.00000258,-0.00000049,0.00000750,0.00001661,0.00000577,0.00002256,0.0
 0000009,0.00000632,0.00000064,0.00000364,-0.00000292,0.00001654,0.0000
 0382,0.00000291,-0.00000307,0.00000077,0.00000534,-0.00001160,-0.00001
 773,-0.00000416,0.00000204,0.00000649,0.00000110,-0.00000496,0.0016305
 4,-0.00848378,-0.02045844,-0.03558195,-0.10282335,-0.27316210,-0.00224
 352,-0.00076215,-0.00315422,-0.00001908,-0.00003593,0.00009706,0.00002
 267,-0.00000156,0.00001326,-0.00000238,0.00000174,0.00000112,0.0000002
 0,-0.00000245,-0.00000342,0.00000937,0.00000986,0.00001111,0.00000053,
 0.00000006,-0.00000088,-0.00000155,0.00000020,0.00000031,-0.00000650,-
 0.00000113,0.00001000,-0.00046523,0.00013094,0.00069725,0.00192877,0.0
 0233366,-0.00125010,0.03792216,0.10835936,0.29273842,-0.00037032,0.000
 64134,-0.00078946,0.00197643,-0.00067849,0.00124766,-0.00054988,0.0003
 6896,0.00001629,0.00009092,-0.00006621,0.00008977,0.00005973,-0.000071
 24,-0.00001493,-0.00005805,0.00004809,0.00000154,-0.00003899,0.0000408
 6,0.00000034,-0.00001545,-0.00000288,-0.00001206,0.00000165,-0.0000050
 6,0.00000731,0.00001179,0.00000548,-0.00000306,-0.00001447,0.00000697,
 -0.00001569,-0.00001879,-0.00000193,-0.00000105,-0.00000014,0.00000266
 ,0.00000588,0.00291159,-0.02237597,0.00128823,-0.04976126,0.00690639,-
 0.00160386,-0.01364400,0.03962781,-0.00414190,0.00006951,-0.00011281,-
 0.00005715,-0.00003708,-0.00001399,-0.00002337,-0.00000178,-0.00001081
 ,0.00000080,0.00001547,0.00000912,-0.00001097,0.00000120,-0.00000313,0
 .00001572,0.00000255,-0.00000040,-0.00000213,-0.00000100,-0.00000162,-
 0.00000067,0.00000097,-0.00001158,0.00000469,-0.00298784,-0.00122892,0
 .00302916,0.00076056,0.00077973,-0.00040678,0.00211429,-0.00493914,0.0
 0140360,0.06312216,-0.00008543,0.00065560,-0.00075336,0.00026353,-0.00
 001561,0.00132587,-0.00019232,-0.00006951,-0.00024212,0.00001535,-0.00
 002351,0.00003317,0.00000743,-0.00000629,-0.00000776,-0.00001402,0.000
 00463,0.00000253,-0.00000584,0.00000502,-0.00000054,-0.00001690,0.0000
 1923,0.00000401,-0.00000030,-0.00000816,0.00000294,0.00000507,0.000000
 19,-0.00000272,-0.00000467,0.00000306,-0.00000539,-0.00000643,-0.00000
 120,-0.00000013,0.00000044,-0.00000102,0.00000161,-0.00092385,-0.00908
 785,0.00101840,0.01913432,-0.32362044,0.01563990,0.00152287,-0.0024439
 7,0.00005434,0.00003010,-0.00005944,-0.00003105,-0.00000840,0.00000714
 ,-0.00000948,0.00000202,0.00000129,-0.00000066,0.00000579,0.00000051,-
 0.00000408,0.00000214,-0.00000524,0.00000101,0.00000077,0.00000031,-0.
 00000065,-0.00000038,0.00000017,0.00000009,-0.00000226,-0.00000108,0.0
 0000333,-0.00122672,0.00099641,0.00102423,0.00009555,0.00105852,0.0000
 1668,0.00059220,-0.01103462,0.00127455,-0.01995327,0.34217255,-0.00013
 918,0.00069696,-0.00000568,-0.00052548,-0.00003457,0.00037152,0.000013
 12,-0.00034674,-0.00015810,0.00003608,-0.00002855,0.00001640,0.0000438
 2,0.00000384,0.00006361,-0.00002870,0.00000950,-0.00001513,-0.00003184
 ,-0.00002377,-0.00004337,-0.00000518,0.00001524,-0.00000925,0.00000275
 ,-0.00001217,0.00000534,0.00000409,-0.00000022,-0.00000416,-0.00000270
 ,0.00000279,-0.00000767,-0.00000873,-0.00000136,0.00000339,0.00000361,
 0.00000101,-0.00000052,-0.00065372,0.02298020,-0.00178777,-0.00048277,
 0.01149648,-0.05192862,-0.00408049,0.01063319,-0.00177886,0.00003799,0
 .00012182,-0.00000928,0.00000741,0.00000012,0.00000298,0.00000997,0.00
 000318,0.00000063,-0.00000468,0.00000143,0.00000418,0.00000200,-0.0000
 0101,-0.00000603,0.00000014,0.00000193,-0.00000026,-0.00000089,-0.0000
 0012,0.00000020,-0.00000168,-0.00000465,0.00000668,0.00338628,0.001582
 90,-0.00202676,-0.00120330,-0.00012750,0.00083189,0.00338775,-0.028265
 77,0.00442268,0.00122269,-0.01952062,0.05177175,0.00068296,0.00026161,
 -0.00098904,-0.00001651,-0.00057572,0.00347970,-0.00060702,-0.00001067
 ,-0.00067574,-0.00001393,0.00005878,0.00017812,-0.00010165,0.00001110,
 -0.00007323,0.00002860,-0.00000741,0.00002290,0.00004731,-0.00000536,0
 .00001249,-0.00001657,0.00000316,0.00000185,0.00000074,-0.00001179,0.0
 0000333,-0.00000474,-0.00000272,0.00000258,0.00002294,0.00000610,0.000
 00076,-0.00001260,-0.00000413,0.00000476,0.00001282,0.00000985,-0.0000
 1076,-0.00584539,0.00207543,-0.00415460,-0.01895091,-0.01164043,0.0206
 4445,-0.19274892,-0.08482689,0.15291239,0.00000427,-0.00002550,-0.0000
 2836,-0.00001661,0.00000087,-0.00000057,-0.00001685,0.00000687,0.00000
 241,-0.00000115,-0.00000268,0.00000085,-0.00000063,-0.00001329,-0.0000
 0636,-0.00000250,-0.00000165,0.00000087,-0.00000080,-0.00000068,-0.000
 00041,-0.00001215,-0.00000267,-0.00000343,0.00052130,0.00009150,-0.000
 35308,0.00021505,0.00021498,0.00002683,0.00108705,-0.00100707,-0.00060
 298,0.00128676,0.00075820,0.00048856,0.20241763,0.00014475,-0.00015620
 ,0.00003144,-0.00004932,0.00069398,-0.00036531,0.00031615,-0.00004300,
 0.00002311,-0.00004381,-0.00005830,-0.00007043,-0.00006455,0.00006025,
 0.00005428,0.00006716,-0.00004568,-0.00001548,0.00004133,-0.00002980,-
 0.00002496,-0.00001240,-0.00000368,0.00000170,-0.00000517,-0.00000050,
 -0.00000318,-0.00000727,-0.00000442,0.00000378,0.00001889,-0.00000344,
 0.00000831,0.00000449,-0.00000027,0.00000153,0.00000480,0.00000128,-0.
 00000926,0.00155167,-0.00069798,0.00121593,0.00380495,0.00403200,-0.00
 765406,-0.07974193,-0.11010022,0.08582197,-0.00002897,0.00004107,0.000
 04800,0.00001982,0.00000749,0.00000435,-0.00000380,0.00001097,0.000002
 51,-0.00000409,-0.00000154,0.00000437,-0.00000078,-0.00000270,-0.00000
 795,-0.00000222,0.00000016,0.00000198,0.00000050,0.00000188,0.00000057
 ,-0.00000642,0.00000851,-0.00000568,-0.00005262,0.00033718,-0.00002406
 ,-0.00023372,0.00003683,0.00013429,-0.00063909,-0.00000275,-0.00012111
 ,0.00075635,-0.00021878,-0.00044300,0.08739659,0.11018652,-0.00018964,
 0.00000152,-0.00014647,-0.00017940,-0.00017519,0.00085704,-0.00048021,
 0.00000361,-0.00017681,0.00008906,0.00001005,0.00008972,0.00010560,-0.
 00006984,-0.00000808,-0.00010528,0.00005311,0.00000553,-0.00007544,0.0
 0001906,-0.00000984,-0.00000363,0.00003300,0.00001248,0.00000799,-0.00
 001746,0.00000906,0.00001716,0.00000169,-0.00001068,-0.00002724,0.0000
 0572,-0.00002388,-0.00002084,-0.00000272,-0.00000009,-0.00000044,-0.00
 001075,0.00000688,-0.00186839,0.00084364,-0.00111413,-0.00437541,-0.00
 643750,0.01069138,0.14461164,0.08648946,-0.21990930,0.00007135,-0.0000
 1408,-0.00008101,-0.00001942,-0.00000036,-0.00000224,0.00001532,-0.000
 00306,-0.00000211,0.00000549,0.00000268,-0.00000620,0.00000254,0.00000
 493,0.00000925,0.00000316,0.00000433,-0.00000156,-0.00000223,0.0000009
 9,0.00000108,0.00000258,0.00000272,0.00002087,0.00011280,0.00005580,-0
 .00020129,-0.00016997,0.00010619,0.00009916,-0.00064780,-0.00040214,0.
 00033462,0.00010315,-0.00005317,0.00029913,-0.15823369,-0.09505960,0.2
 3044787,-0.00022540,-0.00021293,0.00155171,-0.00176265,0.00044156,-0.0
 0194291,0.00059630,0.00002945,0.00028730,-0.00016671,0.00000163,-0.000
 12294,-0.00017043,0.00010045,0.00004610,0.00015765,-0.00007818,-0.0000
 1863,0.00012161,-0.00002634,-0.00001133,0.00001427,-0.00004856,-0.0000
 0980,-0.00000742,0.00002472,0.00000177,-0.00002435,-0.00000345,0.00001
 817,0.00005132,-0.00000212,0.00002104,0.00001018,-0.00000356,0.0000049
 7,0.00001217,0.00002351,-0.00002392,0.00283337,-0.00079293,-0.00052984
 ,-0.00628314,-0.01439945,-0.03073622,-0.07333682,-0.03444243,-0.070746
 09,-0.00012954,-0.00001865,0.00012180,0.00002645,0.00000069,0.00001027
 ,-0.00002668,0.00000729,0.00001009,-0.00000758,-0.00000376,0.00000627,
 0.00000019,-0.00000920,-0.00001074,-0.00000506,-0.00000557,0.00000181,
 0.00000082,-0.00000081,-0.00000099,-0.00001217,-0.00000486,-0.00002025
 ,-0.00021584,-0.00015597,0.00010603,-0.00057722,0.00032270,0.00105263,
 -0.00571417,0.00266166,0.00035273,0.00152438,0.00034090,0.00031366,0.0
 0720487,0.01247975,0.02228079,0.07540427,0.00053740,0.00004135,0.00004
 509,-0.00064265,-0.00013503,0.00013571,0.00034654,-0.00007781,-0.00014
 996,-0.00009132,0.00002521,-0.00006636,-0.00008953,0.00009062,0.000084
 51,0.00007521,-0.00005364,-0.00002084,0.00004850,-0.00005603,-0.000054
 81,0.00001294,-0.00000821,0.00000206,-0.00000523,0.00000440,-0.0000041
 4,-0.00001171,-0.00000501,0.00000644,0.00002840,-0.00000485,0.00001119
 ,0.00000566,-0.00000009,0.00000262,0.00000779,0.00000556,-0.00001222,-
 0.00001976,-0.00008396,0.00042181,-0.00043920,0.00524906,0.00851281,-0
 .03007373,-0.11648657,-0.11934979,-0.00001900,0.00006680,0.00005260,0.
 00000827,0.00000968,0.00001203,-0.00000339,0.00001672,0.00000516,-0.00
 000613,-0.00000247,0.00000443,-0.00000191,-0.00001471,-0.00001248,-0.0
 0000331,0.00000054,0.00000234,0.00000057,0.00000159,0.00000042,-0.0000
 1025,0.00000609,-0.00000745,-0.00017798,-0.00041581,-0.00018781,-0.000
 01796,0.00022441,-0.00026549,0.00207987,-0.00006880,0.00024910,0.00033
 329,0.00003106,0.00088241,0.00535947,0.00735811,0.01472888,0.03199053,
 0.11710222,0.00023896,0.00002841,-0.00022791,-0.00025983,0.00011607,-0
 .00032591,0.00048488,-0.00002312,-0.00013106,-0.00006729,-0.00002423,-
 0.00009126,-0.00000996,0.00004607,0.00019624,0.00001747,-0.00001482,-0
 .00005439,0.00000223,-0.00002828,-0.00013558,0.00000482,-0.00001211,0.
 00000838,0.00000019,0.00000034,0.00000825,-0.00000528,-0.00000653,0.00
 000889,0.00002388,0.00000297,-0.00000307,-0.00000876,-0.00000268,0.000
 00393,0.00000965,0.00001140,-0.00001889,0.00055762,0.00041951,0.002750
 23,-0.00579096,-0.00058112,-0.00499999,-0.06193284,-0.12245505,-0.3330
 3960,0.00005770,0.00002783,0.00010040,0.00000181,0.00000320,0.00000190
 ,0.00000318,0.00000307,0.00000961,0.00000039,0.00000291,-0.00000042,-0
 .00000291,-0.00001467,-0.00000855,-0.00000094,0.00000139,0.00000054,-0
 .00000074,0.00000036,-0.00000022,-0.00001163,-0.00000048,0.00000013,-0
 .00004435,0.00001703,0.00006846,-0.00016666,-0.00069772,-0.00027958,-0
 .00049527,0.00092338,0.00114677,0.00054409,0.00042888,0.00010660,-0.00
 670512,-0.01105394,-0.02128856,0.07197024,0.13141374,0.35128870,0.0004
 5754,-0.00020049,0.00055136,-0.00115883,-0.00041171,-0.00102283,0.0007
 3356,-0.00000756,0.00002907,-0.00020212,0.00009154,-0.00014926,-0.0001
 9892,0.00014438,0.00011551,0.00017143,-0.00009408,-0.00003232,0.000126
 19,-0.00005536,-0.00006850,0.00003146,-0.00005776,0.00000035,-0.000005
 75,0.00002387,-0.00000441,-0.00003234,-0.00000786,0.00002439,0.0000677
 9,-0.00000451,0.00002845,0.00001468,-0.00000138,0.00000600,0.00001544,
 0.00002632,-0.00003205,0.00219100,0.00137649,0.00019755,-0.00402780,0.
 03499177,-0.00145175,-0.06295032,0.05201694,-0.00063127,-0.00007452,0.
 00003379,0.00013874,0.00002108,0.00000601,0.00001590,-0.00002435,0.000
 01383,0.00001164,-0.00001221,-0.00000597,0.00000881,-0.00000592,-0.000
 02036,-0.00002278,-0.00000632,-0.00000487,0.00000274,0.00000123,-0.000
 00059,-0.00000112,-0.00001867,0.00000042,-0.00002288,-0.00039956,-0.00
 150903,0.00077126,0.00005991,-0.00026612,0.00003691,0.00138645,-0.0004
 7560,-0.00031281,-0.00645094,-0.00033587,-0.00179057,0.00483662,-0.025
 71105,-0.00102960,0.00070735,-0.00922138,0.00158544,0.06474680,-0.0003
 3457,-0.00020811,0.00005150,0.00026348,-0.00012939,0.00031805,-0.00047
 903,-0.00004206,-0.00002195,0.00011862,0.00004302,0.00009692,0.0000518
 7,-0.00004419,-0.00004519,-0.00006791,0.00002463,0.00001863,-0.0000556
 1,-0.00000293,0.00002199,-0.00000455,0.00003642,0.00000637,0.00000337,
 -0.00002016,-0.00001135,0.00000641,-0.00000204,-0.00001216,-0.00002068
 ,-0.00000724,-0.00000417,0.00000088,0.00000279,-0.00000158,-0.00000368
 ,-0.00002058,0.00001138,-0.00086420,0.00231734,-0.00162711,0.00601742,
 -0.00368078,0.00213396,0.04222621,-0.39501065,0.01516504,0.00004194,0.
 00005211,-0.00006010,-0.00000683,-0.00000614,-0.00000042,0.00001271,0.
 00000830,-0.00000523,-0.00000850,0.00000222,0.00001125,0.00000062,0.00
 001962,-0.00000754,-0.00000038,0.00000626,0.00000263,-0.00000051,0.000
 00331,0.00000186,0.00000723,0.00001666,0.00001047,0.00040273,-0.000398
 94,-0.00014500,0.00004504,-0.00030103,0.00006208,-0.00063669,0.0008696
 7,0.00025289,-0.00004958,0.00164101,0.00037704,0.00188414,-0.01140698,
 -0.00012151,0.00178390,-0.01282042,0.00146818,-0.05033382,0.41905829,-
 0.00012981,-0.00016446,-0.00069008,0.00069657,0.00031920,0.00059176,-0
 .00008153,0.00001924,-0.00011303,0.00005209,-0.00003484,0.00000726,0.0
 0006908,-0.00003334,0.00005640,-0.00005990,0.00002742,-0.00001439,-0.0
 0004610,0.00001436,-0.00004599,-0.00001334,0.00002020,0.00002093,0.000
 00510,-0.00001345,0.00000927,0.00001077,-0.00000282,-0.00000429,-0.000
 01050,0.00000579,-0.00001735,-0.00001768,-0.00000330,0.00000057,0.0000
 0248,-0.00000516,-0.00000409,-0.00000905,-0.00146303,0.00012927,-0.001
 65506,0.00990169,-0.00029479,-0.00007837,0.01762899,-0.06312505,0.0000
 4743,-0.00002400,-0.00001067,-0.00000905,0.00000164,-0.00000392,0.0000
 1037,-0.00000335,0.00000087,0.00000502,0.00000258,-0.00000387,-0.00000
 038,0.00000362,0.00000367,0.00000202,0.00000322,-0.00000078,-0.0000017
 3,0.00000147,0.00000070,-0.00000273,0.00000587,0.00001424,0.00002123,0
 .00047689,0.00040021,0.00017169,-0.00012704,-0.00010989,-0.00019962,0.
 00053148,-0.00047580,-0.00189783,-0.00019980,-0.00012552,-0.00594548,0
 .02749986,0.00009820,0.00601629,-0.03644201,0.00490597,0.00304803,-0.0
 1794694,0.05880017\\-0.00000007,-0.00000051,-0.00000070,0.00000023,-0.
 00000027,0.00000023,0.00000006,0.00000060,-0.00000016,-0.00000007,-0.0
 0000029,-0.00000004,-0.00000014,0.00000058,-0.00000099,-0.00000001,0.0
 0000063,-0.00000040,0.00000024,0.00000088,0.00000048,-0.00000016,0.000
 00016,0.00000015,0.00000006,-0.00000014,0.00000016,-0.00000022,0.00000
 007,0.00000048,-0.00000006,-0.00000008,0.00000044,-0.00000003,-0.00000
 022,0.00000002,0.00000007,-0.00000029,0.00000014,0.00000003,0.00000011
 ,0.00000009,0.00000018,-0.00000078,-0.00000014,-0.00000002,-0.00000013
 ,-0.00000003,0.00000004,0.00000042,-0.00000009,-0.00000004,0.00000003,
 -0.00000024,0.,0.00000069,-0.00000062,-0.00000002,0.00000027,0.0000005
 4,-0.00000003,-0.00000012,0.00000038,-0.00000010,0.00000043,0.00000064
 ,-0.00000002,-0.00000054,0.00000004,0.00000002,-0.00000064,0.00000003,
 0.00000008,0.00000006,0.00000028,-0.00000008,0.00000040,-0.00000023,-0
 .00000015,-0.00000038,0.00000004,0.00000014,-0.00000026,-0.00000047,0.
 00000005,-0.00000047,-0.00000014,0.00000007,0.,-0.00000017,-0.00000004
 ,-0.00000020,0.00000028\\\@


 NATURE REVEALS EVERY SECRET ONCE.
                    - RALPH WALDO EMERSON
 Job cpu time:       1 days  2 hours  1 minutes 18.9 seconds.
 File lengths (MBytes):  RWF=   1351 Int=      0 D2E=      0 Chk=     46 Scr=      1
 Normal termination of Gaussian 09 at Thu Jul 29 11:25:36 2021.
