 Entering Gaussian System, Link 0=g09
 Input=opt_freq-conf-301.com
 Output=opt_freq-conf-301.log
 Initial command:
 /aerosol/software/g09/l1.exe "/scratch/nicole/10696/Gau-93461.inp" -scrdir="/scratch/nicole/10696/"
 Entering Link 1 = /aerosol/software/g09/l1.exe PID=     93467.
  
 Copyright (c) 1988,1990,1992,1993,1995,1998,2003,2009,2013,
            Gaussian, Inc.  All Rights Reserved.
  
 This is part of the Gaussian(R) 09 program.  It is based on
 the Gaussian(R) 03 system (copyright 2003, Gaussian, Inc.),
 the Gaussian(R) 98 system (copyright 1998, Gaussian, Inc.),
 the Gaussian(R) 94 system (copyright 1995, Gaussian, Inc.),
 the Gaussian 92(TM) system (copyright 1992, Gaussian, Inc.),
 the Gaussian 90(TM) system (copyright 1990, Gaussian, Inc.),
 the Gaussian 88(TM) system (copyright 1988, Gaussian, Inc.),
 the Gaussian 86(TM) system (copyright 1986, Carnegie Mellon
 University), and the Gaussian 82(TM) system (copyright 1983,
 Carnegie Mellon University). Gaussian is a federally registered
 trademark of Gaussian, Inc.
  
 This software contains proprietary and confidential information,
 including trade secrets, belonging to Gaussian, Inc.
  
 This software is provided under written license and may be
 used, copied, transmitted, or stored only in accord with that
 written license.
  
 The following legend is applicable only to US Government
 contracts under FAR:
  
                    RESTRICTED RIGHTS LEGEND
  
 Use, reproduction and disclosure by the US Government is
 subject to restrictions as set forth in subparagraphs (a)
 and (c) of the Commercial Computer Software - Restricted
 Rights clause in FAR 52.227-19.
  
 Gaussian, Inc.
 340 Quinnipiac St., Bldg. 40, Wallingford CT 06492
  
  
 ---------------------------------------------------------------
 Warning -- This program may not be used in any manner that
 competes with the business of Gaussian, Inc. or will provide
 assistance to any competitor of Gaussian, Inc.  The licensee
 of this program is prohibited from giving any competitor of
 Gaussian, Inc. access to this program.  By using this program,
 the user acknowledges that Gaussian, Inc. is engaged in the
 business of creating and licensing software in the field of
 computational chemistry and represents and warrants to the
 licensee that it is not a competitor of Gaussian, Inc. and that
 it will not use this program in any manner prohibited above.
 ---------------------------------------------------------------
  

 Cite this work as:
 Gaussian 09, Revision D.01,
 M. J. Frisch, G. W. Trucks, H. B. Schlegel, G. E. Scuseria, 
 M. A. Robb, J. R. Cheeseman, G. Scalmani, V. Barone, B. Mennucci, 
 G. A. Petersson, H. Nakatsuji, M. Caricato, X. Li, H. P. Hratchian, 
 A. F. Izmaylov, J. Bloino, G. Zheng, J. L. Sonnenberg, M. Hada, 
 M. Ehara, K. Toyota, R. Fukuda, J. Hasegawa, M. Ishida, T. Nakajima, 
 Y. Honda, O. Kitao, H. Nakai, T. Vreven, J. A. Montgomery, Jr., 
 J. E. Peralta, F. Ogliaro, M. Bearpark, J. J. Heyd, E. Brothers, 
 K. N. Kudin, V. N. Staroverov, T. Keith, R. Kobayashi, J. Normand, 
 K. Raghavachari, A. Rendell, J. C. Burant, S. S. Iyengar, J. Tomasi, 
 M. Cossi, N. Rega, J. M. Millam, M. Klene, J. E. Knox, J. B. Cross, 
 V. Bakken, C. Adamo, J. Jaramillo, R. Gomperts, R. E. Stratmann, 
 O. Yazyev, A. J. Austin, R. Cammi, C. Pomelli, J. W. Ochterski, 
 R. L. Martin, K. Morokuma, V. G. Zakrzewski, G. A. Voth, 
 P. Salvador, J. J. Dannenberg, S. Dapprich, A. D. Daniels, 
 O. Farkas, J. B. Foresman, J. V. Ortiz, J. Cioslowski, 
 and D. J. Fox, Gaussian, Inc., Wallingford CT, 2013.
 
 ******************************************
 Gaussian 09:  ES64L-G09RevD.01 24-Apr-2013
                29-Jul-2021 
 ******************************************
 %mem=2gb
 %nproc=4
 Will use up to    4 processors via shared memory.
 %chk=conf-301.chk
 ----------------------------------------------------------------------
 # B3LYP/6-311++G(2df,2pd) EmpiricalDispersion=GD3BJ guess=read geom=ch
 eckpoint opt=readfc freq=noraman nosymm integral(ultrafinegrid)
 ----------------------------------------------------------------------
 1/10=3,14=-1,18=20,19=15,26=4,29=2,38=1/1,3;
 2/9=110,12=2,15=1,40=1/2;
 3/5=4,6=6,7=1414,11=2,14=-4,16=1,25=1,30=1,71=1,74=-5,75=-5,116=-2,124=41/1,2,3;
 4/5=1/1;
 5/5=2,38=6/2;
 6/7=2,8=2,9=2,10=2,28=1/1;
 7/30=1/1,2,3,16;
 1/14=-1,18=20,19=15,26=4/3(2);
 2/9=110,15=1/2;
 99//99;
 2/9=110,15=1/2;
 3/5=4,6=6,7=1414,11=2,14=-2,16=1,25=1,30=1,71=1,74=-5,75=-5,124=41/1,2,3;
 4/5=5,16=3,69=1/1;
 5/5=2,38=5/2;
 7/30=1/1,2,3,16;
 1/14=-1,18=20,19=15,26=4/3(-5);
 2/9=110,15=1/2;
 6/7=2,8=2,9=2,10=2,19=2,28=1/1;
 99/9=1/99;
 ------------------------------------------------------------
 Candidate Structure: Conf:301 OPT and FREQ calc in gas phase
 ------------------------------------------------------------
 Structure from the checkpoint file:  "conf-301.chk"
 Charge =  1 Multiplicity = 1
 Redundant internal coordinates found in file.
 O,0,-0.0429238122,-0.2742886669,-1.6499648339
 C,0,0.4041279304,0.6818421855,-0.9950279675
 N,0,-0.3775803748,1.4796739279,-0.2462189399
 C,0,-1.7397010443,1.1326870797,0.1048734661
 C,0,-2.4823790357,2.428247651,0.3948536808
 O,0,-3.8052165999,2.2321989491,0.44546652
 O,0,-1.9233725871,3.4806402241,0.6077261662
 C,0,-1.784126604,0.2227956707,1.3883836208
 C,0,-0.8565196999,-0.9348030656,1.2652755577
 C,0,0.5026065753,-1.0126216885,1.468949426
 N,0,1.0107261071,-2.1844071888,0.9432186123
 C,0,-0.0369879568,-2.8327171102,0.4529984597
 N,0,-1.1788331708,-2.1173898983,0.6273856189
 C,0,1.9034789573,0.9823219033,-0.933776603
 C,0,2.7547417635,-0.0242343978,-1.7107773755
 N,0,2.2782468459,-1.4323091625,-1.4688730547
 H,0,-0.0152074521,2.3234686614,0.1833860917
 H,0,-2.2000082491,0.6077404166,-0.733843719
 H,0,-4.226737659,3.078087661,0.6800452552
 H,0,-1.484380515,0.829271163,2.2481541189
 H,0,-2.8194706466,-0.087426229,1.5549821701
 H,0,1.1377728089,-0.2914181998,1.9626039205
 H,0,-0.0205042221,-3.8086127401,-0.0104476576
 H,0,-2.1030869924,-2.3990162663,0.3327550973
 H,0,2.2045870396,1.0012212963,0.1179369685
 H,0,2.1039170218,1.9818574716,-1.3345708978
 H,0,2.6726407373,0.13981798,-2.7866689159
 H,0,3.8038065998,0.0478576556,-1.4224655587
 H,0,2.8262238296,-2.1177286323,-1.9903134747
 H,0,1.2783668221,-1.4097046985,-1.7788563117
 H,0,2.215984993,-1.7234675123,-0.4615139509
 Recover connectivity data from disk.

 GradGradGradGradGradGradGradGradGradGradGradGradGradGradGradGradGradGrad
 Berny optimization.
 Initialization pass.
 Force constant matrix read from checkpoint file:
 "conf-301.chk"
                           ----------------------------
                           !    Initial Parameters    !
                           ! (Angstroms and Degrees)  !
 --------------------------                            --------------------------
 ! Name  Definition              Value          Derivative Info.                !
 --------------------------------------------------------------------------------
 ! R1    R(1,2)                  1.2422         D2E/DX2 =    0.719              !
 ! R2    R(2,3)                  1.3447         D2E/DX2 =    0.5193             !
 ! R3    R(2,14)                 1.5304         D2E/DX2 =    0.2921             !
 ! R4    R(3,4)                  1.4488         D2E/DX2 =    0.3625             !
 ! R5    R(3,17)                 1.0138         D2E/DX2 =    0.4587             !
 ! R6    R(4,5)                  1.5212         D2E/DX2 =    0.284              !
 ! R7    R(4,8)                  1.5739         D2E/DX2 =    0.2609             !
 ! R8    R(4,18)                 1.0913         D2E/DX2 =    0.3466             !
 ! R9    R(5,6)                  1.3382         D2E/DX2 =    0.4433             !
 ! R10   R(5,7)                  1.2105         D2E/DX2 =    0.869              !
 ! R11   R(6,19)                 0.9738         D2E/DX2 =    0.5033             !
 ! R12   R(8,9)                  1.4885         D2E/DX2 =    0.3275             !
 ! R13   R(8,20)                 1.094          D2E/DX2 =    0.3395             !
 ! R14   R(8,21)                 1.0936         D2E/DX2 =    0.3415             !
 ! R15   R(9,10)                 1.3765         D2E/DX2 =    0.4134             !
 ! R16   R(9,13)                 1.3818         D2E/DX2 =    0.3667             !
 ! R17   R(10,11)                1.3812         D2E/DX2 =    0.339              !
 ! R18   R(10,22)                1.0804         D2E/DX2 =    0.3735             !
 ! R19   R(11,12)                1.326          D2E/DX2 =    0.4429             !
 ! R20   R(12,13)                1.3586         D2E/DX2 =    0.3862             !
 ! R21   R(12,23)                1.0805         D2E/DX2 =    0.3759             !
 ! R22   R(13,24)                1.0101         D2E/DX2 =    0.4743             !
 ! R23   R(14,15)                1.5302         D2E/DX2 =    0.3197             !
 ! R24   R(14,25)                1.0941         D2E/DX2 =    0.3401             !
 ! R25   R(14,26)                1.0954         D2E/DX2 =    0.3386             !
 ! R26   R(15,16)                1.5061         D2E/DX2 =    0.2865             !
 ! R27   R(15,27)                1.0914         D2E/DX2 =    0.3469             !
 ! R28   R(15,28)                1.0903         D2E/DX2 =    0.3495             !
 ! R29   R(16,29)                1.0208         D2E/DX2 =    0.4418             !
 ! R30   R(16,30)                1.0471         D2E/DX2 =    0.3374             !
 ! R31   R(16,31)                1.0504         D2E/DX2 =    0.3241             !
 ! A1    A(1,2,3)              122.7562         D2E/DX2 =    0.2262             !
 ! A2    A(1,2,14)             121.6567         D2E/DX2 =    0.2551             !
 ! A3    A(3,2,14)             115.5147         D2E/DX2 =    0.2159             !
 ! A4    A(2,3,4)              122.6411         D2E/DX2 =    0.3351             !
 ! A5    A(2,3,17)             121.4647         D2E/DX2 =    0.1415             !
 ! A6    A(4,3,17)             115.6381         D2E/DX2 =    0.1444             !
 ! A7    A(3,4,5)              107.5311         D2E/DX2 =    0.1248             !
 ! A8    A(3,4,8)              111.2604         D2E/DX2 =    0.3544             !
 ! A9    A(3,4,18)             108.9975         D2E/DX2 =    0.048              !
 ! A10   A(5,4,8)              108.8512         D2E/DX2 =    0.1611             !
 ! A11   A(5,4,18)             110.5028         D2E/DX2 =    0.0335             !
 ! A12   A(8,4,18)             109.6791         D2E/DX2 =    0.0368             !
 ! A13   A(4,5,6)              111.4097         D2E/DX2 =    0.162              !
 ! A14   A(4,5,7)              123.2628         D2E/DX2 =    0.1708             !
 ! A15   A(6,5,7)              125.2531         D2E/DX2 =    0.1957             !
 ! A16   A(5,6,19)             108.0438         D2E/DX2 =    0.1725             !
 ! A17   A(4,8,9)              111.3798         D2E/DX2 =    0.6873             !
 ! A18   A(4,8,20)             108.2199         D2E/DX2 =    0.0914             !
 ! A19   A(4,8,21)             108.3575         D2E/DX2 =    0.1208             !
 ! A20   A(9,8,20)             108.9882         D2E/DX2 =    0.0923             !
 ! A21   A(9,8,21)             112.4564         D2E/DX2 =    0.1142             !
 ! A22   A(20,8,21)            107.2733         D2E/DX2 =    0.0297             !
 ! A23   A(8,9,10)             130.3189         D2E/DX2 =    0.1247             !
 ! A24   A(8,9,13)             123.9454         D2E/DX2 =    0.1285             !
 ! A25   A(10,9,13)            104.4916         D2E/DX2 =    0.1029             !
 ! A26   A(9,10,11)            110.7864         D2E/DX2 =    0.1188             !
 ! A27   A(9,10,22)            127.6146         D2E/DX2 =    0.0828             !
 ! A28   A(11,10,22)           121.599          D2E/DX2 =    0.0902             !
 ! A29   A(10,11,12)           105.3572         D2E/DX2 =    0.1375             !
 ! A30   A(11,12,13)           111.0495         D2E/DX2 =    0.1216             !
 ! A31   A(11,12,23)           126.023          D2E/DX2 =    0.09               !
 ! A32   A(13,12,23)           122.9165         D2E/DX2 =    0.0909             !
 ! A33   A(9,13,12)            108.2895         D2E/DX2 =    0.1048             !
 ! A34   A(9,13,24)            125.9226         D2E/DX2 =    0.0798             !
 ! A35   A(12,13,24)           125.7855         D2E/DX2 =    0.0812             !
 ! A36   A(2,14,15)            113.3002         D2E/DX2 =    0.4549             !
 ! A37   A(2,14,25)            108.1487         D2E/DX2 =    0.0751             !
 ! A38   A(2,14,26)            110.1078         D2E/DX2 =    0.0936             !
 ! A39   A(15,14,25)           110.2645         D2E/DX2 =    0.0851             !
 ! A40   A(15,14,26)           108.2186         D2E/DX2 =    0.1022             !
 ! A41   A(25,14,26)           106.5939         D2E/DX2 =    0.0257             !
 ! A42   A(14,15,16)           110.9423         D2E/DX2 =    0.3391             !
 ! A43   A(14,15,27)           111.0897         D2E/DX2 =    0.061              !
 ! A44   A(14,15,28)           110.9457         D2E/DX2 =    0.0631             !
 ! A45   A(16,15,27)           105.9659         D2E/DX2 =    0.0733             !
 ! A46   A(16,15,28)           108.8898         D2E/DX2 =    0.0838             !
 ! A47   A(27,15,28)           108.8504         D2E/DX2 =    0.0233             !
 ! A48   A(15,16,29)           112.0793         D2E/DX2 =    0.0989             !
 ! A49   A(15,16,30)           103.5556         D2E/DX2 =    0.125              !
 ! A50   A(15,16,31)           115.59           D2E/DX2 =    0.1404             !
 ! A51   A(29,16,30)           112.0797         D2E/DX2 =    0.0491             !
 ! A52   A(29,16,31)           109.6079         D2E/DX2 =    0.0658             !
 ! A53   A(30,16,31)           103.4908         D2E/DX2 =    0.0555             !
 ! D1    D(1,2,3,4)             14.1158         D2E/DX2 =    0.0227             !
 ! D2    D(1,2,3,17)          -171.9533         D2E/DX2 =    0.038              !
 ! D3    D(14,2,3,4)          -162.8345         D2E/DX2 =    0.0679             !
 ! D4    D(14,2,3,17)           11.0965         D2E/DX2 =    0.0196             !
 ! D5    D(1,2,14,15)           -1.739          D2E/DX2 =    0.0307             !
 ! D6    D(1,2,14,25)         -124.2881         D2E/DX2 =    0.0269             !
 ! D7    D(1,2,14,26)          119.6047         D2E/DX2 =    0.0175             !
 ! D8    D(3,2,14,15)          175.248          D2E/DX2 =    0.0827             !
 ! D9    D(3,2,14,25)           52.6988         D2E/DX2 =    0.0332             !
 ! D10   D(3,2,14,26)          -63.4083         D2E/DX2 =    0.0455             !
 ! D11   D(2,3,4,5)           -155.8645         D2E/DX2 =    0.0428             !
 ! D12   D(2,3,4,8)             85.0242         D2E/DX2 =    0.1418             !
 ! D13   D(2,3,4,18)           -36.0477         D2E/DX2 =    0.0272             !
 ! D14   D(17,3,4,5)            29.8763         D2E/DX2 =    0.0154             !
 ! D15   D(17,3,4,8)           -89.2349         D2E/DX2 =    0.0502             !
 ! D16   D(17,3,4,18)          149.6931         D2E/DX2 =    0.0184             !
 ! D17   D(3,4,5,6)            166.6151         D2E/DX2 =    0.0555             !
 ! D18   D(3,4,5,7)            -16.3765         D2E/DX2 =    0.0556             !
 ! D19   D(8,4,5,6)            -72.7426         D2E/DX2 =    0.0469             !
 ! D20   D(8,4,5,7)            104.2659         D2E/DX2 =    0.047              !
 ! D21   D(18,4,5,6)            47.76           D2E/DX2 =    0.0159             !
 ! D22   D(18,4,5,7)          -135.2315         D2E/DX2 =    0.0149             !
 ! D23   D(3,4,8,9)            -50.5108         D2E/DX2 =    0.0677             !
 ! D24   D(3,4,8,20)            69.2731         D2E/DX2 =    0.0295             !
 ! D25   D(3,4,8,21)          -174.7128         D2E/DX2 =    0.05               !
 ! D26   D(5,4,8,9)           -168.8301         D2E/DX2 =    0.0289             !
 ! D27   D(5,4,8,20)           -49.0463         D2E/DX2 =    0.0234             !
 ! D28   D(5,4,8,21)            66.9678         D2E/DX2 =    0.0201             !
 ! D29   D(18,4,8,9)            70.161          D2E/DX2 =    0.0256             !
 ! D30   D(18,4,8,20)         -170.0551         D2E/DX2 =    0.0335             !
 ! D31   D(18,4,8,21)          -54.041          D2E/DX2 =    0.0145             !
 ! D32   D(4,5,6,19)           176.9983         D2E/DX2 =    0.0181             !
 ! D33   D(7,5,6,19)             0.0615         D2E/DX2 =    0.0166             !
 ! D34   D(4,8,9,10)            81.0541         D2E/DX2 =    0.0245             !
 ! D35   D(4,8,9,13)           -84.1542         D2E/DX2 =    0.018              !
 ! D36   D(20,8,9,10)          -38.2737         D2E/DX2 =    0.0172             !
 ! D37   D(20,8,9,13)          156.518          D2E/DX2 =    0.0284             !
 ! D38   D(21,8,9,10)         -157.0901         D2E/DX2 =    0.0325             !
 ! D39   D(21,8,9,13)           37.7016         D2E/DX2 =    0.0182             !
 ! D40   D(8,9,10,11)         -165.7541         D2E/DX2 =    0.0221             !
 ! D41   D(8,9,10,22)           14.2135         D2E/DX2 =    0.0099             !
 ! D42   D(13,9,10,11)           1.6101         D2E/DX2 =    0.016              !
 ! D43   D(13,9,10,22)        -178.4224         D2E/DX2 =    0.0107             !
 ! D44   D(8,9,13,12)          167.3602         D2E/DX2 =    0.0203             !
 ! D45   D(8,9,13,24)          -12.1018         D2E/DX2 =    0.0085             !
 ! D46   D(10,9,13,12)          -1.0411         D2E/DX2 =    0.0134             !
 ! D47   D(10,9,13,24)         179.4969         D2E/DX2 =    0.0052             !
 ! D48   D(9,10,11,12)          -1.5608         D2E/DX2 =    0.0197             !
 ! D49   D(22,10,11,12)        178.4694         D2E/DX2 =    0.0107             !
 ! D50   D(10,11,12,13)          0.868          D2E/DX2 =    0.0196             !
 ! D51   D(10,11,12,23)       -177.9527         D2E/DX2 =    0.0104             !
 ! D52   D(11,12,13,9)           0.1125         D2E/DX2 =    0.0177             !
 ! D53   D(11,12,13,24)        179.5754         D2E/DX2 =    0.0096             !
 ! D54   D(23,12,13,9)         178.9762         D2E/DX2 =    0.0107             !
 ! D55   D(23,12,13,24)         -1.5608         D2E/DX2 =    0.0068             !
 ! D56   D(2,14,15,16)         -42.8874         D2E/DX2 =    0.0361             !
 ! D57   D(2,14,15,27)          74.7104         D2E/DX2 =    0.0177             !
 ! D58   D(2,14,15,28)        -164.0634         D2E/DX2 =    0.0262             !
 ! D59   D(25,14,15,16)         78.4802         D2E/DX2 =    0.0236             !
 ! D60   D(25,14,15,27)       -163.922          D2E/DX2 =    0.0262             !
 ! D61   D(25,14,15,28)        -42.6958         D2E/DX2 =    0.0165             !
 ! D62   D(26,14,15,16)       -165.2871         D2E/DX2 =    0.0287             !
 ! D63   D(26,14,15,27)        -47.6893         D2E/DX2 =    0.0174             !
 ! D64   D(26,14,15,28)         73.5369         D2E/DX2 =    0.0198             !
 ! D65   D(14,15,16,29)        179.1688         D2E/DX2 =    0.0153             !
 ! D66   D(14,15,16,30)         58.1667         D2E/DX2 =    0.0187             !
 ! D67   D(14,15,16,31)        -54.2625         D2E/DX2 =    0.0179             !
 ! D68   D(27,15,16,29)         58.4894         D2E/DX2 =    0.0155             !
 ! D69   D(27,15,16,30)        -62.5127         D2E/DX2 =    0.0185             !
 ! D70   D(27,15,16,31)       -174.9418         D2E/DX2 =    0.0196             !
 ! D71   D(28,15,16,29)        -58.4526         D2E/DX2 =    0.0149             !
 ! D72   D(28,15,16,30)       -179.4547         D2E/DX2 =    0.0191             !
 ! D73   D(28,15,16,31)         68.1162         D2E/DX2 =    0.0175             !
 --------------------------------------------------------------------------------
 Trust Radius=3.00D-01 FncErr=1.00D-07 GrdErr=1.00D-06
 Number of steps in this run=    167 maximum allowed number of steps=    186.
 GradGradGradGradGradGradGradGradGradGradGradGradGradGradGradGradGradGrad

                          Input orientation:                          
 ---------------------------------------------------------------------
 Center     Atomic      Atomic             Coordinates (Angstroms)
 Number     Number       Type             X           Y           Z
 ---------------------------------------------------------------------
      1          8           0       -0.042924   -0.274289   -1.649965
      2          6           0        0.404128    0.681842   -0.995028
      3          7           0       -0.377580    1.479674   -0.246219
      4          6           0       -1.739701    1.132687    0.104873
      5          6           0       -2.482379    2.428248    0.394854
      6          8           0       -3.805217    2.232199    0.445467
      7          8           0       -1.923373    3.480640    0.607726
      8          6           0       -1.784127    0.222796    1.388384
      9          6           0       -0.856520   -0.934803    1.265276
     10          6           0        0.502607   -1.012622    1.468949
     11          7           0        1.010726   -2.184407    0.943219
     12          6           0       -0.036988   -2.832717    0.452998
     13          7           0       -1.178833   -2.117390    0.627386
     14          6           0        1.903479    0.982322   -0.933777
     15          6           0        2.754742   -0.024234   -1.710777
     16          7           0        2.278247   -1.432309   -1.468873
     17          1           0       -0.015207    2.323469    0.183386
     18          1           0       -2.200008    0.607740   -0.733844
     19          1           0       -4.226738    3.078088    0.680045
     20          1           0       -1.484381    0.829271    2.248154
     21          1           0       -2.819471   -0.087426    1.554982
     22          1           0        1.137773   -0.291418    1.962604
     23          1           0       -0.020504   -3.808613   -0.010448
     24          1           0       -2.103087   -2.399016    0.332755
     25          1           0        2.204587    1.001221    0.117937
     26          1           0        2.103917    1.981857   -1.334571
     27          1           0        2.672641    0.139818   -2.786669
     28          1           0        3.803807    0.047858   -1.422466
     29          1           0        2.826224   -2.117729   -1.990313
     30          1           0        1.278367   -1.409705   -1.778856
     31          1           0        2.215985   -1.723468   -0.461514
 ---------------------------------------------------------------------
                    Distance matrix (angstroms):
                    1          2          3          4          5
     1  O    0.000000
     2  C    1.242169   0.000000
     3  N    2.271317   1.344737   0.000000
     4  C    2.817462   2.451336   1.448806   0.000000
     5  C    4.175635   3.648784   2.396027   1.521229   0.000000
     6  O    4.982786   4.711392   3.576788   2.364590   1.338244
     7  O    4.767887   3.977355   2.668813   2.408211   1.210509
     8  C    3.537010   3.268001   2.496005   1.573936   2.517673
     9  C    3.097877   3.051515   2.888546   2.530031   3.835513
    10  C    3.251210   2.992004   3.150884   3.389837   4.680107
    11  N    3.388706   3.512854   4.094832   4.389850   5.811977
    12  C    3.311804   3.826681   4.381966   4.329533   5.801816
    13  N    3.142234   3.601901   3.787355   3.339250   4.734567
    14  C    2.424970   1.530390   2.433788   3.791327   4.805383
    15  C    2.809476   2.556605   3.770691   4.983480   6.154331
    16  N    2.600315   2.864697   4.126493   5.019939   6.406320
    17  H    3.179668   2.063841   1.013836   2.097142   2.478434
    18  H    2.504050   2.618250   2.078290   1.091283   2.160541
    19  H    5.845654   5.476566   4.269532   3.209479   1.883192
    20  H    4.300113   3.755853   2.805339   2.179656   2.643378
    21  H    4.244504   4.181616   3.415107   2.181145   2.790725
    22  H    3.800657   3.198915   3.211224   3.709325   4.791651
    23  H    3.896148   4.616698   5.305569   5.233104   6.717405
    24  H    3.562291   4.188177   4.284486   3.557655   4.842540
    25  H    3.131087   2.140642   2.651248   3.946500   4.907213
    26  H    3.130271   2.166705   2.755817   4.191240   4.921817
    27  H    2.972856   2.941074   4.189624   5.368013   6.475587
    28  H    3.866894   3.484602   4.573582   5.851504   6.963120
    29  H    3.427261   3.833372   5.123235   5.983534   7.384862
    30  H    1.746881   2.398593   3.666012   4.372748   5.796387
    31  H    2.935167   3.058264   4.127111   4.911809   6.328090
                    6          7          8          9         10
     6  O    0.000000
     7  O    2.264127   0.000000
     8  C    3.001933   3.352964   0.000000
     9  C    4.404180   4.589846   1.488504   0.000000
    10  C    5.489419   5.178463   2.600365   1.376504   0.000000
    11  N    6.553432   6.388603   3.715373   2.269766   1.381181
    12  C    6.312922   6.590969   3.641922   2.221149   2.153153
    13  N    5.084280   5.647359   2.534160   1.381775   2.180821
    14  C    6.004474   4.823134   4.423544   4.016067   3.422767
    15  C    7.264567   6.288431   5.501559   4.767309   4.019911
    16  N    7.355396   6.789915   5.235090   4.189253   3.458300
    17  H    3.800156   2.271608   2.998987   3.534774   3.612520
    18  H    2.570279   3.182749   2.196586   2.860224   3.844736
    19  H    0.973774   2.339395   3.823713   5.272965   6.302616
    20  H    3.256404   3.148567   1.094014   2.114762   2.819193
    21  H    2.753794   3.798866   1.093586   2.157581   3.449578
    22  H    5.753564   5.043286   3.021861   2.208487   1.080401
    23  H    7.143060   7.558853   4.617288   3.253486   3.206217
    24  H    4.935393   5.888826   2.844290   2.137158   3.162699
    25  H    6.143315   4.840192   4.257912   3.799336   2.962691
    26  H    6.176493   4.715711   5.062180   4.902071   4.403502
    27  H    7.535741   6.618637   6.107432   5.479784   4.914006
    28  H    8.133742   6.978987   6.257513   5.468840   4.514734
    29  H    8.296439   7.787824   6.176486   5.055766   4.311259
    30  H    6.637311   6.313666   4.698439   3.748334   3.362695
    31  H    7.261183   6.735005   4.817775   3.611659   2.677248
                   11         12         13         14         15
    11  N    0.000000
    12  C    1.326019   0.000000
    13  N    2.213236   1.358644   0.000000
    14  C    3.787914   4.499231   4.641776   0.000000
    15  C    3.840785   4.512566   5.032029   1.530207   0.000000
    16  N    2.826738   3.318892   4.100614   2.501444   1.506068
    17  H    4.685171   5.163276   4.612200   2.593855   4.095386
    18  H    4.573559   4.233674   3.212799   4.125396   5.089532
    19  H    7.429276   7.248666   6.023743   6.676542   8.005092
    20  H    4.124399   4.327550   3.376842   4.650344   5.862744
    21  H    4.409307   4.061182   2.769996   5.444679   6.460729
    22  H    2.153763   3.180750   3.237846   3.255417   4.022401
    23  H    2.147314   1.080475   2.146810   5.244740   4.991456
    24  H    3.180339   2.114550   1.010132   5.393526   5.780494
    25  H    3.500660   4.453763   4.629558   1.094132   2.167585
    26  H    4.872489   5.564082   5.606206   1.095392   2.142314
    27  H    4.698515   5.164639   5.620018   2.175921   1.091419
    28  H    4.287280   5.154297   5.806624   2.173312   1.090348
    29  H    3.450520   3.831314   4.784645   3.402652   2.113284
    30  H    2.842796   2.955723   3.511218   2.612799   2.025795
    31  H    1.907456   2.672575   3.586874   2.764415   2.176766
                   16         17         18         19         20
    16  N    0.000000
    17  H    4.700613   0.000000
    18  H    4.975624   2.925472   0.000000
    19  H    8.202216   4.307332   3.494185   0.000000
    20  H    5.752252   2.941830   3.074656   3.877714   0.000000
    21  H    6.077757   3.944310   2.470974   3.573009   1.761615
    22  H    3.791747   3.366395   4.384073   6.463474   2.865863
    23  H    3.613597   6.135146   4.977722   8.099125   5.362293
    24  H    4.834922   5.165599   3.191804   5.884655   3.804391
    25  H    2.906108   2.584591   4.503423   6.781687   4.263317
    26  H    3.421251   2.628988   4.557724   6.733319   5.200024
    27  H    2.088951   4.562246   5.308084   8.261535   6.565487
    28  H    2.126119   4.726736   6.069058   8.836995   6.484518
    29  H    1.020774   5.702888   5.854050   9.158143   6.725379
    30  H    1.047072   4.411384   4.154664   7.516159   5.372392
    31  H    1.050439   4.666027   5.000969   8.115834   5.248950
                   21         22         23         24         25
    21  H    0.000000
    22  H    3.983409   0.000000
    23  H    4.912434   4.195855   0.000000
    24  H    2.711179   4.195420   2.538090   0.000000
    25  H    5.337734   2.492349   5.301134   5.492160   0.000000
    26  H    6.072166   4.119779   6.308408   6.298485   1.755438
    27  H    7.004631   5.009728   5.527254   6.243722   3.065587
    28  H    7.263009   4.322215   5.611730   6.630187   2.416453
    29  H    6.968868   4.670314   3.857826   5.456544   3.815626
    30  H    5.445656   3.907538   3.251014   4.107538   3.204415
    31  H    5.665572   3.014905   3.090821   4.443153   2.785646
                   26         27         28         29         30
    26  H    0.000000
    27  H    2.413534   0.000000
    28  H    2.576374   1.774555   0.000000
    29  H    4.214064   2.398809   2.442925   0.000000
    30  H    3.518752   2.315320   2.937575   1.715189   0.000000
    31  H    3.808441   3.014418   2.565580   1.692649   1.647108
                   31
    31  H    0.000000
 Symmetry turned off by external request.
 Stoichiometry    C9H15N4O3(1+)
 Framework group  C1[X(C9H15N4O3)]
 Deg. of freedom    87
 Full point group                 C1      NOp   1
 Rotational constants (GHZ):      0.8368378      0.4020444      0.3084183
 Standard basis: 6-311++G(2df,2pd) (5D, 7F)
   769 basis functions,  1102 primitive gaussians,   864 cartesian basis functions
    60 alpha electrons       60 beta electrons
       nuclear repulsion energy      1204.5569963067 Hartrees.
 NAtoms=   31 NActive=   31 NUniq=   31 SFac= 1.00D+00 NAtFMM=   60 NAOKFM=F Big=F
 Integral buffers will be    131072 words long.
 Raffenetti 2 integral format.
 Two-electron integral symmetry is turned off.
 Nuclear repulsion after empirical dispersion term =     1204.4934474081 Hartrees.
 One-electron integrals computed using PRISM.
 NBasis=   769 RedAO= T EigKep=  1.99D-06  NBF=   769
 NBsUse=   769 1.00D-06 EigRej= -1.00D+00 NBFU=   769
 Initial guess from the checkpoint file:  "conf-301.chk"
 B after Tr=     0.000000    0.000000    0.000000
         Rot=    1.000000    0.000000    0.000000    0.000000 Ang=   0.00 deg.
 Requested convergence on RMS density matrix=1.00D-08 within 128 cycles.
 Requested convergence on MAX density matrix=1.00D-06.
 Requested convergence on             energy=1.00D-06.
 No special actions if energy rises.
 SCF Done:  E(RB3LYP) =  -796.838154220     A.U. after   14 cycles
            NFock= 14  Conv=0.14D-08     -V/T= 2.0043

 **********************************************************************

            Population analysis using the SCF density.

 **********************************************************************

 Alpha  occ. eigenvalues --  -19.30252 -19.24863 -19.24618 -14.55652 -14.50657
 Alpha  occ. eigenvalues --  -14.48652 -14.44122 -10.43786 -10.43269 -10.38723
 Alpha  occ. eigenvalues --  -10.36794 -10.36582 -10.34548 -10.34399 -10.32812
 Alpha  occ. eigenvalues --  -10.32088  -1.24237  -1.19792  -1.15609  -1.15522
 Alpha  occ. eigenvalues --   -1.13223  -1.08119  -1.01408  -0.95192  -0.93041
 Alpha  occ. eigenvalues --   -0.88643  -0.82829  -0.80932  -0.76093  -0.75493
 Alpha  occ. eigenvalues --   -0.73812  -0.73256  -0.72377  -0.71207  -0.68301
 Alpha  occ. eigenvalues --   -0.66377  -0.64263  -0.63621  -0.62137  -0.61590
 Alpha  occ. eigenvalues --   -0.60805  -0.59393  -0.58993  -0.57638  -0.56360
 Alpha  occ. eigenvalues --   -0.55525  -0.55336  -0.54795  -0.54427  -0.53832
 Alpha  occ. eigenvalues --   -0.53225  -0.51325  -0.50617  -0.45765  -0.43774
 Alpha  occ. eigenvalues --   -0.42610  -0.42384  -0.41613  -0.41189  -0.36909
 Alpha virt. eigenvalues --   -0.14887  -0.14356  -0.14286  -0.12347  -0.11720
 Alpha virt. eigenvalues --   -0.11402  -0.10287  -0.10044  -0.09663  -0.09013
 Alpha virt. eigenvalues --   -0.08217  -0.07640  -0.07469  -0.06706  -0.05969
 Alpha virt. eigenvalues --   -0.05534  -0.05408  -0.04359  -0.04273  -0.03331
 Alpha virt. eigenvalues --   -0.03072  -0.02098  -0.02061  -0.01755  -0.01586
 Alpha virt. eigenvalues --   -0.00796  -0.00593   0.00014   0.00108   0.00561
 Alpha virt. eigenvalues --    0.00784   0.00935   0.01194   0.01371   0.01978
 Alpha virt. eigenvalues --    0.02288   0.02373   0.02994   0.03035   0.03226
 Alpha virt. eigenvalues --    0.03406   0.03920   0.04183   0.04610   0.04896
 Alpha virt. eigenvalues --    0.05025   0.05466   0.05691   0.05814   0.06247
 Alpha virt. eigenvalues --    0.06687   0.07127   0.07421   0.07688   0.07954
 Alpha virt. eigenvalues --    0.08238   0.09299   0.09357   0.10029   0.10106
 Alpha virt. eigenvalues --    0.10553   0.10946   0.11177   0.11819   0.12016
 Alpha virt. eigenvalues --    0.12607   0.12755   0.12871   0.13117   0.13328
 Alpha virt. eigenvalues --    0.13785   0.14143   0.14320   0.14879   0.15798
 Alpha virt. eigenvalues --    0.15841   0.16693   0.17548   0.17721   0.18021
 Alpha virt. eigenvalues --    0.18440   0.18759   0.19070   0.19545   0.19777
 Alpha virt. eigenvalues --    0.19913   0.20574   0.20881   0.21110   0.21741
 Alpha virt. eigenvalues --    0.21967   0.21997   0.22338   0.23477   0.23758
 Alpha virt. eigenvalues --    0.24021   0.24777   0.25193   0.25341   0.26044
 Alpha virt. eigenvalues --    0.26406   0.27298   0.27890   0.28351   0.29167
 Alpha virt. eigenvalues --    0.29810   0.30229   0.31016   0.32985   0.33413
 Alpha virt. eigenvalues --    0.33538   0.34375   0.35684   0.35780   0.35989
 Alpha virt. eigenvalues --    0.37447   0.38002   0.38538   0.39207   0.39928
 Alpha virt. eigenvalues --    0.40371   0.40646   0.41302   0.41341   0.42497
 Alpha virt. eigenvalues --    0.43493   0.44407   0.45669   0.45789   0.46270
 Alpha virt. eigenvalues --    0.46636   0.47140   0.47538   0.48222   0.48457
 Alpha virt. eigenvalues --    0.49384   0.49662   0.50167   0.51148   0.51650
 Alpha virt. eigenvalues --    0.52127   0.52446   0.53192   0.53746   0.53993
 Alpha virt. eigenvalues --    0.54623   0.55654   0.55959   0.56321   0.56986
 Alpha virt. eigenvalues --    0.58120   0.58185   0.59117   0.59494   0.60008
 Alpha virt. eigenvalues --    0.60302   0.60669   0.62000   0.62068   0.62830
 Alpha virt. eigenvalues --    0.63486   0.64621   0.65230   0.66226   0.67017
 Alpha virt. eigenvalues --    0.67620   0.67920   0.68314   0.69204   0.70359
 Alpha virt. eigenvalues --    0.71437   0.72149   0.73047   0.73515   0.73984
 Alpha virt. eigenvalues --    0.75305   0.76871   0.77791   0.77901   0.78671
 Alpha virt. eigenvalues --    0.79131   0.79759   0.80424   0.81088   0.82185
 Alpha virt. eigenvalues --    0.82882   0.83618   0.84558   0.86135   0.86611
 Alpha virt. eigenvalues --    0.86997   0.88548   0.89749   0.90390   0.90746
 Alpha virt. eigenvalues --    0.92398   0.93197   0.94259   0.94971   0.96268
 Alpha virt. eigenvalues --    0.96968   0.97269   0.98184   0.98796   1.00041
 Alpha virt. eigenvalues --    1.00303   1.00865   1.01344   1.02673   1.03110
 Alpha virt. eigenvalues --    1.03841   1.04360   1.04948   1.05480   1.06100
 Alpha virt. eigenvalues --    1.06854   1.08001   1.08911   1.09595   1.10677
 Alpha virt. eigenvalues --    1.11196   1.11985   1.12623   1.12684   1.13910
 Alpha virt. eigenvalues --    1.14463   1.14926   1.15475   1.16032   1.17142
 Alpha virt. eigenvalues --    1.18182   1.19074   1.19724   1.20694   1.21283
 Alpha virt. eigenvalues --    1.22020   1.22854   1.23957   1.24594   1.24760
 Alpha virt. eigenvalues --    1.26496   1.27365   1.28134   1.28978   1.29544
 Alpha virt. eigenvalues --    1.29597   1.31270   1.32139   1.32444   1.33234
 Alpha virt. eigenvalues --    1.33499   1.33641   1.34888   1.35915   1.36625
 Alpha virt. eigenvalues --    1.37329   1.37774   1.38176   1.39410   1.40177
 Alpha virt. eigenvalues --    1.41158   1.41827   1.43168   1.43574   1.44024
 Alpha virt. eigenvalues --    1.45037   1.45677   1.46778   1.47746   1.48052
 Alpha virt. eigenvalues --    1.48900   1.50254   1.51011   1.52068   1.53410
 Alpha virt. eigenvalues --    1.54889   1.55212   1.57224   1.58333   1.59413
 Alpha virt. eigenvalues --    1.60260   1.61792   1.64214   1.64697   1.65820
 Alpha virt. eigenvalues --    1.66048   1.67225   1.68503   1.69647   1.70896
 Alpha virt. eigenvalues --    1.72683   1.74038   1.75764   1.76118   1.77859
 Alpha virt. eigenvalues --    1.79724   1.81723   1.84513   1.84808   1.86835
 Alpha virt. eigenvalues --    1.89744   1.91925   1.93762   1.95661   1.99078
 Alpha virt. eigenvalues --    2.00191   2.01391   2.03393   2.04322   2.05358
 Alpha virt. eigenvalues --    2.08358   2.11157   2.17623   2.21471   2.29350
 Alpha virt. eigenvalues --    2.31582   2.34382   2.36280   2.38803   2.39548
 Alpha virt. eigenvalues --    2.41242   2.42877   2.43915   2.45822   2.46249
 Alpha virt. eigenvalues --    2.49081   2.49498   2.50504   2.52414   2.53480
 Alpha virt. eigenvalues --    2.55435   2.56094   2.58334   2.58533   2.60292
 Alpha virt. eigenvalues --    2.61363   2.62066   2.62531   2.62920   2.64462
 Alpha virt. eigenvalues --    2.65272   2.65842   2.67286   2.69983   2.70802
 Alpha virt. eigenvalues --    2.71042   2.72171   2.73167   2.74773   2.75829
 Alpha virt. eigenvalues --    2.76049   2.76685   2.77692   2.78406   2.79620
 Alpha virt. eigenvalues --    2.80475   2.81295   2.81557   2.82664   2.83361
 Alpha virt. eigenvalues --    2.84292   2.85071   2.85686   2.86272   2.87347
 Alpha virt. eigenvalues --    2.88196   2.88833   2.89783   2.90280   2.92335
 Alpha virt. eigenvalues --    2.92561   2.93116   2.93673   2.94410   2.94875
 Alpha virt. eigenvalues --    2.95726   2.96367   2.97873   2.99096   2.99421
 Alpha virt. eigenvalues --    3.00895   3.01394   3.02187   3.03144   3.03767
 Alpha virt. eigenvalues --    3.04770   3.05511   3.05801   3.06541   3.07131
 Alpha virt. eigenvalues --    3.08354   3.09058   3.09546   3.09771   3.11380
 Alpha virt. eigenvalues --    3.12073   3.12632   3.13857   3.14437   3.14724
 Alpha virt. eigenvalues --    3.15465   3.16274   3.16863   3.17314   3.18126
 Alpha virt. eigenvalues --    3.19842   3.20544   3.20899   3.21635   3.22206
 Alpha virt. eigenvalues --    3.22562   3.23488   3.24386   3.24899   3.25719
 Alpha virt. eigenvalues --    3.26839   3.27960   3.28892   3.30019   3.30420
 Alpha virt. eigenvalues --    3.31058   3.32224   3.32768   3.34050   3.34128
 Alpha virt. eigenvalues --    3.34847   3.35336   3.36042   3.37090   3.38038
 Alpha virt. eigenvalues --    3.38086   3.39134   3.40105   3.40888   3.41611
 Alpha virt. eigenvalues --    3.42985   3.43669   3.44629   3.44803   3.45664
 Alpha virt. eigenvalues --    3.46556   3.47861   3.47920   3.49723   3.50255
 Alpha virt. eigenvalues --    3.50884   3.51271   3.52050   3.52998   3.54130
 Alpha virt. eigenvalues --    3.54541   3.54846   3.55911   3.56519   3.57945
 Alpha virt. eigenvalues --    3.59472   3.59744   3.61405   3.61587   3.62103
 Alpha virt. eigenvalues --    3.63003   3.63287   3.64460   3.65429   3.66469
 Alpha virt. eigenvalues --    3.67654   3.68135   3.69568   3.70310   3.70805
 Alpha virt. eigenvalues --    3.71822   3.72390   3.74174   3.74784   3.75786
 Alpha virt. eigenvalues --    3.76550   3.77265   3.77955   3.78424   3.79183
 Alpha virt. eigenvalues --    3.80491   3.80991   3.81702   3.82680   3.83736
 Alpha virt. eigenvalues --    3.84584   3.85240   3.85695   3.86452   3.87415
 Alpha virt. eigenvalues --    3.88326   3.89572   3.89750   3.90715   3.92111
 Alpha virt. eigenvalues --    3.93317   3.93932   3.95438   3.96299   3.96642
 Alpha virt. eigenvalues --    3.97371   3.98023   3.98312   3.99583   3.99936
 Alpha virt. eigenvalues --    4.00194   4.00890   4.02254   4.03641   4.04456
 Alpha virt. eigenvalues --    4.05676   4.06143   4.07114   4.07869   4.09775
 Alpha virt. eigenvalues --    4.10252   4.11964   4.13389   4.14980   4.15099
 Alpha virt. eigenvalues --    4.16214   4.17232   4.17673   4.19633   4.20379
 Alpha virt. eigenvalues --    4.21081   4.21362   4.23119   4.24381   4.25349
 Alpha virt. eigenvalues --    4.26056   4.27664   4.29924   4.30769   4.31685
 Alpha virt. eigenvalues --    4.33246   4.35198   4.37172   4.38706   4.39419
 Alpha virt. eigenvalues --    4.41343   4.42786   4.43109   4.43632   4.44457
 Alpha virt. eigenvalues --    4.46816   4.47825   4.49201   4.50923   4.51099
 Alpha virt. eigenvalues --    4.53464   4.55041   4.55476   4.56991   4.61287
 Alpha virt. eigenvalues --    4.62557   4.64291   4.65768   4.67251   4.69246
 Alpha virt. eigenvalues --    4.70549   4.71319   4.72626   4.74010   4.75779
 Alpha virt. eigenvalues --    4.76530   4.78257   4.78754   4.80079   4.81316
 Alpha virt. eigenvalues --    4.82389   4.83572   4.85199   4.85483   4.86910
 Alpha virt. eigenvalues --    4.88072   4.89369   4.90629   4.92417   4.92932
 Alpha virt. eigenvalues --    4.93650   4.93886   4.95044   4.96693   4.97975
 Alpha virt. eigenvalues --    4.98063   4.98736   4.99633   5.00738   5.00867
 Alpha virt. eigenvalues --    5.01233   5.03098   5.03312   5.04832   5.05937
 Alpha virt. eigenvalues --    5.07797   5.08732   5.10148   5.11147   5.12190
 Alpha virt. eigenvalues --    5.14031   5.14607   5.16761   5.18348   5.19561
 Alpha virt. eigenvalues --    5.19792   5.20951   5.22128   5.22933   5.24276
 Alpha virt. eigenvalues --    5.24658   5.26899   5.27468   5.29374   5.30678
 Alpha virt. eigenvalues --    5.31195   5.33374   5.33982   5.35487   5.37075
 Alpha virt. eigenvalues --    5.38530   5.40186   5.41624   5.42678   5.44598
 Alpha virt. eigenvalues --    5.45903   5.48113   5.49415   5.51734   5.53495
 Alpha virt. eigenvalues --    5.54567   5.55636   5.58512   5.60103   5.63055
 Alpha virt. eigenvalues --    5.64892   5.67718   5.69490   5.71525   5.73383
 Alpha virt. eigenvalues --    5.75314   5.79632   5.82236   5.82939   5.84727
 Alpha virt. eigenvalues --    5.88239   5.88835   5.92691   5.93336   5.95340
 Alpha virt. eigenvalues --    5.98094   6.01856   6.06779   6.08297   6.13776
 Alpha virt. eigenvalues --    6.15872   6.17043   6.19776   6.21537   6.23559
 Alpha virt. eigenvalues --    6.27513   6.29897   6.32954   6.33710   6.36832
 Alpha virt. eigenvalues --    6.37810   6.43744   6.58464   6.58885   6.70145
 Alpha virt. eigenvalues --    6.74183   6.81982   6.84106   6.85784   6.90440
 Alpha virt. eigenvalues --    6.91511   7.01893   7.05105   7.07828   7.09052
 Alpha virt. eigenvalues --    7.09907   7.11838   7.12515   7.19603   7.20652
 Alpha virt. eigenvalues --    7.28215   7.45819   7.48151   7.50330   7.57991
 Alpha virt. eigenvalues --    7.63599   7.67039   7.87430  24.43161  24.61260
 Alpha virt. eigenvalues --   24.69603  24.76503  24.89135  24.90380  24.95437
 Alpha virt. eigenvalues --   24.97004  25.00632  35.85707  36.13412  36.16186
 Alpha virt. eigenvalues --   36.41600  50.05857  50.10040  50.16833
          Condensed to atoms (all electrons):
               1          2          3          4          5          6
     1  O    8.144168   0.422404  -0.102367  -0.008117  -0.026006  -0.000180
     2  C    0.422404   7.941682  -0.029109  -1.487283   0.178095   0.005549
     3  N   -0.102367  -0.029109   6.607517  -0.126845   0.023892  -0.005776
     4  C   -0.008117  -1.487283  -0.126845  12.070436  -2.779371   0.293829
     5  C   -0.026006   0.178095   0.023892  -2.779371   7.052453   0.061486
     6  O   -0.000180   0.005549  -0.005776   0.293829   0.061486   7.795352
     7  O   -0.000402   0.024307   0.005655   0.009447   0.442659  -0.103435
     8  C   -0.079840   0.410551   0.214478  -2.718546   1.222515  -0.159627
     9  C    0.087518   0.150441  -0.156970   0.545198  -0.712567   0.050746
    10  C   -0.033693  -0.363590  -0.016821   0.044122   0.102616   0.000763
    11  N    0.007003   0.022790   0.016782  -0.027816   0.003778   0.000128
    12  C    0.002762  -0.106764   0.045461   0.030211   0.038353   0.001778
    13  N   -0.027791  -0.073386   0.050433  -0.052465   0.087400   0.000021
    14  C   -0.007354  -0.895178   0.051830   0.081153  -0.099076   0.000181
    15  C   -0.012009   0.246889  -0.065421  -0.063592   0.020000  -0.000294
    16  N   -0.065047  -0.143964   0.022585   0.006458   0.001416   0.000012
    17  H   -0.004639  -0.119061   0.351346  -0.026099   0.051178  -0.003046
    18  H    0.000247  -0.032166  -0.047094   0.458623   0.002669  -0.008417
    19  H   -0.000167   0.002442   0.003024  -0.208255   0.153638   0.229873
    20  H   -0.000273   0.007535  -0.012085   0.087493  -0.048057   0.000610
    21  H    0.000294   0.018635   0.011090  -0.037655  -0.021525   0.001563
    22  H   -0.000767   0.024466  -0.005746   0.001641  -0.002743   0.000055
    23  H    0.000275  -0.006162   0.000791   0.000385  -0.000156   0.000084
    24  H   -0.003836   0.008188  -0.001771  -0.005750   0.000566   0.000256
    25  H   -0.005932   0.053913  -0.025367  -0.001489  -0.001818   0.000168
    26  H    0.007029  -0.110430   0.013259   0.025300  -0.011497   0.000160
    27  H   -0.003267   0.033127  -0.005513  -0.002927   0.000416   0.000016
    28  H   -0.001112  -0.000150   0.000525  -0.003631   0.000260  -0.000016
    29  H   -0.001838   0.014336  -0.000634  -0.000383   0.000132   0.000000
    30  H    0.082672  -0.024784   0.000266   0.029639  -0.007463  -0.000061
    31  H    0.003596   0.001010   0.004724   0.000792   0.001270   0.000017
               7          8          9         10         11         12
     1  O   -0.000402  -0.079840   0.087518  -0.033693   0.007003   0.002762
     2  C    0.024307   0.410551   0.150441  -0.363590   0.022790  -0.106764
     3  N    0.005655   0.214478  -0.156970  -0.016821   0.016782   0.045461
     4  C    0.009447  -2.718546   0.545198   0.044122  -0.027816   0.030211
     5  C    0.442659   1.222515  -0.712567   0.102616   0.003778   0.038353
     6  O   -0.103435  -0.159627   0.050746   0.000763   0.000128   0.001778
     7  O    8.017675  -0.065724  -0.012131  -0.004485   0.000228   0.000445
     8  C   -0.065724  10.091703  -2.224983  -0.636330  -0.119074   0.088191
     9  C   -0.012131  -2.224983  11.150212  -3.332645   0.133190  -0.020834
    10  C   -0.004485  -0.636330  -3.332645  10.854390  -0.127622  -0.839039
    11  N    0.000228  -0.119074   0.133190  -0.127622   7.142721   0.322940
    12  C    0.000445   0.088191  -0.020834  -0.839039   0.322940   5.581479
    13  N    0.000659  -0.079942  -0.104662   0.164496   0.056851   0.430294
    14  C   -0.019591  -0.206061   0.189847  -0.107601   0.064624  -0.004948
    15  C   -0.001594   0.023821  -0.112781   0.204064  -0.072432  -0.017367
    16  N   -0.000060   0.030486  -0.026170  -0.013505  -0.074366   0.030200
    17  H    0.020088   0.020947  -0.029558   0.003187   0.003354   0.001517
    18  H    0.000267   0.002792  -0.033565  -0.057255   0.004873   0.002670
    19  H    0.026499   0.036467  -0.008103   0.000746  -0.000011  -0.000013
    20  H    0.000397   0.265640   0.039260  -0.036275  -0.002687  -0.009055
    21  H   -0.000178   0.390283  -0.018244  -0.018065   0.001198  -0.001902
    22  H   -0.000737  -0.050889  -0.176191   0.630331  -0.105855  -0.010140
    23  H    0.000001   0.004771   0.071934  -0.030844  -0.075716   0.452331
    24  H   -0.000035  -0.028563  -0.028793   0.050441  -0.006193  -0.048971
    25  H    0.001538   0.021666   0.001808  -0.040172  -0.016583   0.006225
    26  H   -0.000849  -0.015088   0.032335  -0.025825   0.004832   0.001256
    27  H    0.000211   0.002793  -0.008735   0.008467  -0.003222  -0.000912
    28  H   -0.000173   0.000562   0.002972  -0.002199   0.000227  -0.002635
    29  H   -0.000009   0.003551   0.004184  -0.009266  -0.000995   0.001239
    30  H   -0.000154  -0.027078   0.061545  -0.039850  -0.003280   0.006810
    31  H    0.000129  -0.003879  -0.014817  -0.003080   0.088810  -0.011072
              13         14         15         16         17         18
     1  O   -0.027791  -0.007354  -0.012009  -0.065047  -0.004639   0.000247
     2  C   -0.073386  -0.895178   0.246889  -0.143964  -0.119061  -0.032166
     3  N    0.050433   0.051830  -0.065421   0.022585   0.351346  -0.047094
     4  C   -0.052465   0.081153  -0.063592   0.006458  -0.026099   0.458623
     5  C    0.087400  -0.099076   0.020000   0.001416   0.051178   0.002669
     6  O    0.000021   0.000181  -0.000294   0.000012  -0.003046  -0.008417
     7  O    0.000659  -0.019591  -0.001594  -0.000060   0.020088   0.000267
     8  C   -0.079942  -0.206061   0.023821   0.030486   0.020947   0.002792
     9  C   -0.104662   0.189847  -0.112781  -0.026170  -0.029558  -0.033565
    10  C    0.164496  -0.107601   0.204064  -0.013505   0.003187  -0.057255
    11  N    0.056851   0.064624  -0.072432  -0.074366   0.003354   0.004873
    12  C    0.430294  -0.004948  -0.017367   0.030200   0.001517   0.002670
    13  N    6.180944  -0.017847  -0.004621  -0.002999   0.005102   0.006365
    14  C   -0.017847   6.171764  -0.340650   0.130378   0.015423  -0.014841
    15  C   -0.004621  -0.340650   5.944461  -0.003900  -0.009637  -0.003197
    16  N   -0.002999   0.130378  -0.003900   5.879286   0.001950   0.000343
    17  H    0.005102   0.015423  -0.009637   0.001950   0.550686   0.007776
    18  H    0.006365  -0.014841  -0.003197   0.000343   0.007776   0.593208
    19  H    0.000225  -0.000921  -0.000036  -0.000001   0.002857   0.001471
    20  H   -0.005343  -0.002802   0.001180  -0.000028  -0.003062   0.006827
    21  H    0.003455   0.005121   0.000787  -0.000168   0.000013  -0.006993
    22  H    0.017027  -0.016192   0.011675   0.002809  -0.002848  -0.002842
    23  H   -0.073630   0.002091   0.002713   0.002410  -0.000042  -0.000245
    24  H    0.385664  -0.000737   0.000951   0.001277  -0.000102  -0.001591
    25  H   -0.000666   0.359821  -0.027450  -0.009054   0.001622   0.001407
    26  H   -0.001238   0.511776  -0.081162   0.011133  -0.002059   0.000762
    27  H   -0.000114  -0.074632   0.442210  -0.028260   0.000040   0.000311
    28  H    0.000320   0.008276   0.375478  -0.018587   0.000267  -0.000437
    29  H   -0.000332  -0.001869  -0.056095   0.394539   0.000010   0.000040
    30  H    0.001248   0.017636  -0.060572   0.327373  -0.001117   0.002441
    31  H    0.007999   0.008916  -0.033727   0.348998   0.000936   0.000266
              19         20         21         22         23         24
     1  O   -0.000167  -0.000273   0.000294  -0.000767   0.000275  -0.003836
     2  C    0.002442   0.007535   0.018635   0.024466  -0.006162   0.008188
     3  N    0.003024  -0.012085   0.011090  -0.005746   0.000791  -0.001771
     4  C   -0.208255   0.087493  -0.037655   0.001641   0.000385  -0.005750
     5  C    0.153638  -0.048057  -0.021525  -0.002743  -0.000156   0.000566
     6  O    0.229873   0.000610   0.001563   0.000055   0.000084   0.000256
     7  O    0.026499   0.000397  -0.000178  -0.000737   0.000001  -0.000035
     8  C    0.036467   0.265640   0.390283  -0.050889   0.004771  -0.028563
     9  C   -0.008103   0.039260  -0.018244  -0.176191   0.071934  -0.028793
    10  C    0.000746  -0.036275  -0.018065   0.630331  -0.030844   0.050441
    11  N   -0.000011  -0.002687   0.001198  -0.105855  -0.075716  -0.006193
    12  C   -0.000013  -0.009055  -0.001902  -0.010140   0.452331  -0.048971
    13  N    0.000225  -0.005343   0.003455   0.017027  -0.073630   0.385664
    14  C   -0.000921  -0.002802   0.005121  -0.016192   0.002091  -0.000737
    15  C   -0.000036   0.001180   0.000787   0.011675   0.002713   0.000951
    16  N   -0.000001  -0.000028  -0.000168   0.002809   0.002410   0.001277
    17  H    0.002857  -0.003062   0.000013  -0.002848  -0.000042  -0.000102
    18  H    0.001471   0.006827  -0.006993  -0.002842  -0.000245  -0.001591
    19  H    0.508441  -0.001715  -0.001004   0.000000  -0.000002   0.000055
    20  H   -0.001715   0.632600  -0.021528   0.002227  -0.000040   0.000741
    21  H   -0.001004  -0.021528   0.604177  -0.000887  -0.000356  -0.000994
    22  H    0.000000   0.002227  -0.000887   0.592470  -0.001231   0.001824
    23  H   -0.000002  -0.000040  -0.000356  -0.001231   0.531041  -0.003728
    24  H    0.000055   0.000741  -0.000994   0.001824  -0.003728   0.526893
    25  H   -0.000029   0.000817  -0.000145  -0.010954   0.000313   0.000060
    26  H   -0.000075   0.000517  -0.000212   0.000334   0.000004   0.000004
    27  H    0.000004  -0.000057   0.000002  -0.000247  -0.000090  -0.000049
    28  H   -0.000001  -0.000054   0.000043   0.000830  -0.000265   0.000070
    29  H   -0.000001   0.000033  -0.000001  -0.000327  -0.000302   0.000077
    30  H   -0.000023   0.000626  -0.000377  -0.001467  -0.002605  -0.000616
    31  H    0.000014  -0.000644   0.000060  -0.003312  -0.003350  -0.000866
              25         26         27         28         29         30
     1  O   -0.005932   0.007029  -0.003267  -0.001112  -0.001838   0.082672
     2  C    0.053913  -0.110430   0.033127  -0.000150   0.014336  -0.024784
     3  N   -0.025367   0.013259  -0.005513   0.000525  -0.000634   0.000266
     4  C   -0.001489   0.025300  -0.002927  -0.003631  -0.000383   0.029639
     5  C   -0.001818  -0.011497   0.000416   0.000260   0.000132  -0.007463
     6  O    0.000168   0.000160   0.000016  -0.000016   0.000000  -0.000061
     7  O    0.001538  -0.000849   0.000211  -0.000173  -0.000009  -0.000154
     8  C    0.021666  -0.015088   0.002793   0.000562   0.003551  -0.027078
     9  C    0.001808   0.032335  -0.008735   0.002972   0.004184   0.061545
    10  C   -0.040172  -0.025825   0.008467  -0.002199  -0.009266  -0.039850
    11  N   -0.016583   0.004832  -0.003222   0.000227  -0.000995  -0.003280
    12  C    0.006225   0.001256  -0.000912  -0.002635   0.001239   0.006810
    13  N   -0.000666  -0.001238  -0.000114   0.000320  -0.000332   0.001248
    14  C    0.359821   0.511776  -0.074632   0.008276  -0.001869   0.017636
    15  C   -0.027450  -0.081162   0.442210   0.375478  -0.056095  -0.060572
    16  N   -0.009054   0.011133  -0.028260  -0.018587   0.394539   0.327373
    17  H    0.001622  -0.002059   0.000040   0.000267   0.000010  -0.001117
    18  H    0.001407   0.000762   0.000311  -0.000437   0.000040   0.002441
    19  H   -0.000029  -0.000075   0.000004  -0.000001  -0.000001  -0.000023
    20  H    0.000817   0.000517  -0.000057  -0.000054   0.000033   0.000626
    21  H   -0.000145  -0.000212   0.000002   0.000043  -0.000001  -0.000377
    22  H   -0.010954   0.000334  -0.000247   0.000830  -0.000327  -0.001467
    23  H    0.000313   0.000004  -0.000090  -0.000265  -0.000302  -0.002605
    24  H    0.000060   0.000004  -0.000049   0.000070   0.000077  -0.000616
    25  H    0.631456  -0.042441   0.010396  -0.011784   0.000464  -0.004485
    26  H   -0.042441   0.603121  -0.011765   0.002037  -0.000647   0.004552
    27  H    0.010396  -0.011765   0.591630  -0.039084   0.000971  -0.011366
    28  H   -0.011784   0.002037  -0.039084   0.586774  -0.000249   0.004629
    29  H    0.000464  -0.000647   0.000971  -0.000249   0.528112  -0.022181
    30  H   -0.004485   0.004552  -0.011366   0.004629  -0.022181   0.491302
    31  H   -0.000470   0.000611   0.003466  -0.005194  -0.032884  -0.018262
              31
     1  O    0.003596
     2  C    0.001010
     3  N    0.004724
     4  C    0.000792
     5  C    0.001270
     6  O    0.000017
     7  O    0.000129
     8  C   -0.003879
     9  C   -0.014817
    10  C   -0.003080
    11  N    0.088810
    12  C   -0.011072
    13  N    0.007999
    14  C    0.008916
    15  C   -0.033727
    16  N    0.348998
    17  H    0.000936
    18  H    0.000266
    19  H    0.000014
    20  H   -0.000644
    21  H    0.000060
    22  H   -0.003312
    23  H   -0.003350
    24  H   -0.000866
    25  H   -0.000470
    26  H    0.000611
    27  H    0.003466
    28  H   -0.005194
    29  H   -0.032884
    30  H   -0.018262
    31  H    0.475627
 Mulliken charges:
               1
     1  O   -0.373327
     2  C   -0.174330
     3  N    0.177862
     4  C   -0.134502
     5  C    0.265486
     6  O   -0.161792
     7  O   -0.340646
     8  C   -0.415592
     9  C    0.500560
    10  C   -0.325460
    11  N   -0.238476
    12  C    0.029492
    13  N    0.046531
    14  C    0.191462
    15  C   -0.307693
    16  N    0.194458
    17  H    0.162970
    18  H    0.115286
    19  H    0.254598
    20  H    0.097203
    21  H    0.093514
    22  H    0.107688
    23  H    0.129620
    24  H    0.155526
    25  H    0.107165
    26  H    0.084265
    27  H    0.096182
    28  H    0.102303
    29  H    0.180325
    30  H    0.195005
    31  H    0.184316
 Sum of Mulliken charges =   1.00000
 Mulliken charges with hydrogens summed into heavy atoms:
               1
     1  O   -0.373327
     2  C   -0.174330
     3  N    0.340832
     4  C   -0.019215
     5  C    0.265486
     6  O    0.092806
     7  O   -0.340646
     8  C   -0.224874
     9  C    0.500560
    10  C   -0.217772
    11  N   -0.238476
    12  C    0.159112
    13  N    0.202057
    14  C    0.382892
    15  C   -0.109208
    16  N    0.754104
 Electronic spatial extent (au):  <R**2>=           3632.1323
 Charge=              1.0000 electrons
 Dipole moment (field-independent basis, Debye):
    X=              2.6043    Y=             -2.3396    Z=             -3.0971  Tot=              4.6742
 Quadrupole moment (field-independent basis, Debye-Ang):
   XX=            -50.5058   YY=            -74.8784   ZZ=            -84.4786
   XY=             -6.0092   XZ=            -19.6314   YZ=              8.1289
 Traceless Quadrupole moment (field-independent basis, Debye-Ang):
   XX=             19.4485   YY=             -4.9241   ZZ=            -14.5243
   XY=             -6.0092   XZ=            -19.6314   YZ=              8.1289
 Octapole moment (field-independent basis, Debye-Ang**2):
  XXX=             66.6927  YYY=            -82.6507  ZZZ=            -21.3814  XYY=              3.1305
  XXY=             13.7566  XXZ=            -27.3186  XZZ=             49.6997  YZZ=             -8.9572
  YYZ=            -28.3105  XYZ=             13.0383
 Hexadecapole moment (field-independent basis, Debye-Ang**3):
 XXXX=          -1482.0655 YYYY=          -1747.3525 ZZZZ=           -722.4279 XXXY=            159.8612
 XXXZ=            133.7895 YYYX=            375.4169 YYYZ=             63.7202 ZZZX=            246.4571
 ZZZY=             58.4787 XXYY=           -384.0427 XXZZ=           -365.0452 YYZZ=           -417.3865
 XXYZ=             94.0765 YYXZ=             29.0316 ZZXY=            106.1356
 N-N= 1.204493447408D+03 E-N=-4.253473411948D+03  KE= 7.933981564365D+02
 Calling FoFJK, ICntrl=      2127 FMM=F ISym2X=0 I1Cent= 0 IOpClX= 0 NMat=1 NMatS=1 NMatT=0.
 -------------------------------------------------------------------
 Center     Atomic                   Forces (Hartrees/Bohr)
 Number     Number              X              Y              Z
 -------------------------------------------------------------------
      1        8           0.003764033    0.008671277    0.005430836
      2        6          -0.003363525   -0.003164383   -0.001604539
      3        7           0.001054434   -0.001697064   -0.001599667
      4        6           0.000476861    0.000563750   -0.001069009
      5        6           0.004723328    0.006558083    0.002220974
      6        8           0.002407584    0.005713827    0.000859211
      7        8          -0.007279087   -0.011471819   -0.002449441
      8        6           0.000125243   -0.000119358    0.001387246
      9        6           0.003092706   -0.001276487   -0.001573086
     10        6          -0.002380717   -0.000113828    0.000145403
     11        7          -0.007831485   -0.000070356   -0.000597755
     12        6           0.001076006    0.001577645    0.001702284
     13        7           0.002332666    0.000203968    0.000753009
     14        6           0.000322291   -0.000047292   -0.000769399
     15        6           0.000620271   -0.000007230   -0.000110411
     16        7          -0.000812427   -0.001038569    0.000116832
     17        1           0.000059146   -0.002788315   -0.001320172
     18        1           0.000693167    0.001586962    0.002257240
     19        1           0.000161768   -0.003196499   -0.000829903
     20        1          -0.000731550   -0.001576018   -0.002014327
     21        1           0.002810218    0.000468328   -0.000492081
     22        1          -0.001848803   -0.001867767   -0.001314193
     23        1          -0.000083299    0.002438844    0.001176891
     24        1           0.002684459    0.000605962    0.000690305
     25        1          -0.000934376    0.000096453   -0.002736260
     26        1          -0.000900393   -0.002487992    0.001058838
     27        1           0.000372627   -0.000265721    0.002740011
     28        1          -0.002663705    0.000018584   -0.000732397
     29        1          -0.001946819    0.002277271    0.001692033
     30        1           0.003308071   -0.000810472    0.000704602
     31        1           0.000691306    0.001218217   -0.003723073
 -------------------------------------------------------------------
 Cartesian Forces:  Max     0.011471819 RMS     0.002722036

 GradGradGradGradGradGradGradGradGradGradGradGradGradGradGradGradGradGrad
 Berny optimization.
 FormGI is forming the generalized inverse of G from B-inverse, IUseBI=4.
 Internal  Forces:  Max     0.013765373 RMS     0.002300927
 Search for a local minimum.
 Step number   1 out of a maximum of  167
 All quantities printed in internal units (Hartrees-Bohrs-Radians)
 Mixed Optimization -- RFO/linear search
 Second derivative matrix not updated -- first step.
 ITU=  0
     Eigenvalues ---    0.00213   0.00239   0.00377   0.00506   0.00641
     Eigenvalues ---    0.00677   0.00982   0.01238   0.01896   0.01994
     Eigenvalues ---    0.02183   0.02426   0.02789   0.03319   0.03948
     Eigenvalues ---    0.04107   0.04229   0.04285   0.04325   0.04561
     Eigenvalues ---    0.04702   0.05065   0.05335   0.05493   0.05777
     Eigenvalues ---    0.06025   0.06356   0.06462   0.07419   0.07567
     Eigenvalues ---    0.07750   0.08228   0.10439   0.11032   0.11390
     Eigenvalues ---    0.11779   0.11834   0.11932   0.12227   0.14898
     Eigenvalues ---    0.15087   0.15343   0.15600   0.17188   0.19210
     Eigenvalues ---    0.19536   0.21395   0.21875   0.22668   0.23362
     Eigenvalues ---    0.23784   0.24430   0.24742   0.25565   0.27206
     Eigenvalues ---    0.28551   0.30829   0.32078   0.33473   0.33769
     Eigenvalues ---    0.33918   0.34298   0.34393   0.34607   0.34718
     Eigenvalues ---    0.35018   0.35258   0.35295   0.37343   0.37541
     Eigenvalues ---    0.37640   0.38259   0.41189   0.44234   0.45238
     Eigenvalues ---    0.45481   0.46028   0.47514   0.47769   0.49744
     Eigenvalues ---    0.51047   0.57006   0.59229   0.75743   0.86079
     Eigenvalues ---    0.89161   2.50881
 RFO step:  Lambda=-1.43049805D-03 EMin= 2.12919044D-03
 Linear search not attempted -- first point.
 Iteration  1 RMS(Cart)=  0.01668934 RMS(Int)=  0.00013530
 Iteration  2 RMS(Cart)=  0.00021883 RMS(Int)=  0.00002178
 Iteration  3 RMS(Cart)=  0.00000003 RMS(Int)=  0.00002178
 Variable       Old X    -DE/DX   Delta X   Delta X   Delta X     New X
                                 (Linear)    (Quad)   (Total)
    R1        2.34736  -0.01089   0.00000  -0.01489  -0.01489   2.33247
    R2        2.54119  -0.00469   0.00000  -0.00696  -0.00696   2.53423
    R3        2.89202  -0.00218   0.00000  -0.00858  -0.00858   2.88344
    R4        2.73785  -0.00020   0.00000  -0.00470  -0.00470   2.73315
    R5        1.91587  -0.00286   0.00000  -0.00680  -0.00680   1.90908
    R6        2.87471  -0.00209   0.00000  -0.00636  -0.00636   2.86835
    R7        2.97431  -0.00025   0.00000  -0.00666  -0.00666   2.96765
    R8        2.06223  -0.00279   0.00000  -0.00794  -0.00794   2.05429
    R9        2.52891  -0.00291   0.00000  -0.00369  -0.00369   2.52523
   R10        2.28753  -0.01377   0.00000  -0.01555  -0.01555   2.27199
   R11        1.84017  -0.00305   0.00000  -0.00711  -0.00711   1.83305
   R12        2.81287  -0.00309   0.00000  -0.00814  -0.00814   2.80473
   R13        2.06739  -0.00266   0.00000  -0.00750  -0.00750   2.05989
   R14        2.06658  -0.00287   0.00000  -0.00800  -0.00800   2.05858
   R15        2.60122  -0.00635   0.00000  -0.01085  -0.01084   2.59038
   R16        2.61118  -0.00331   0.00000  -0.00712  -0.00711   2.60407
   R17        2.61005  -0.00326   0.00000  -0.00583  -0.00583   2.60422
   R18        2.04166  -0.00293   0.00000  -0.00760  -0.00760   2.03406
   R19        2.50581  -0.00630   0.00000  -0.01134  -0.01135   2.49446
   R20        2.56747  -0.00488   0.00000  -0.00596  -0.00596   2.56150
   R21        2.04180  -0.00271   0.00000  -0.00697  -0.00697   2.03483
   R22        1.90887  -0.00283   0.00000  -0.00588  -0.00588   1.90299
   R23        2.89167  -0.00150   0.00000  -0.00850  -0.00850   2.88317
   R24        2.06761  -0.00289   0.00000  -0.00768  -0.00768   2.05993
   R25        2.06999  -0.00282   0.00000  -0.00787  -0.00787   2.06213
   R26        2.84606  -0.00213   0.00000  -0.00440  -0.00440   2.84165
   R27        2.06248  -0.00277   0.00000  -0.00787  -0.00787   2.05461
   R28        2.06046  -0.00276   0.00000  -0.00763  -0.00763   2.05283
   R29        1.92898  -0.00344   0.00000  -0.00716  -0.00716   1.92183
   R30        1.97868  -0.00339   0.00000  -0.01385  -0.01385   1.96483
   R31        1.98504  -0.00395   0.00000  -0.01418  -0.01418   1.97086
    A1        2.14250   0.00011   0.00000   0.00241   0.00240   2.14490
    A2        2.12331   0.00040   0.00000  -0.00363  -0.00364   2.11967
    A3        2.01611  -0.00044   0.00000   0.00149   0.00149   2.01760
    A4        2.14049   0.00404   0.00000   0.00151   0.00144   2.14193
    A5        2.11996  -0.00296   0.00000  -0.01107  -0.01113   2.10883
    A6        2.01827  -0.00095   0.00000   0.00760   0.00752   2.02579
    A7        1.87677  -0.00097   0.00000   0.00768   0.00768   1.88445
    A8        1.94186   0.00424   0.00000   0.00146   0.00146   1.94332
    A9        1.90237  -0.00088   0.00000  -0.00032  -0.00031   1.90205
   A10        1.89981  -0.00279   0.00000  -0.00119  -0.00121   1.89860
   A11        1.92864   0.00043   0.00000  -0.00674  -0.00674   1.92190
   A12        1.91426  -0.00001   0.00000  -0.00086  -0.00087   1.91339
   A13        1.94447   0.00119   0.00000  -0.00007  -0.00008   1.94439
   A14        2.15134   0.00060   0.00000   0.00362   0.00362   2.15496
   A15        2.18608  -0.00177   0.00000  -0.00321  -0.00322   2.18286
   A16        1.88572   0.00236   0.00000   0.01466   0.01466   1.90038
   A17        1.94394   0.00663   0.00000   0.00322   0.00322   1.94716
   A18        1.88879  -0.00163   0.00000   0.00121   0.00121   1.89000
   A19        1.89120  -0.00195   0.00000  -0.00007  -0.00007   1.89113
   A20        1.90220  -0.00150   0.00000   0.00001   0.00000   1.90220
   A21        1.96273  -0.00264   0.00000  -0.00420  -0.00420   1.95854
   A22        1.87227   0.00089   0.00000  -0.00010  -0.00010   1.87217
   A23        2.27449   0.00064   0.00000  -0.00064  -0.00074   2.27375
   A24        2.16326  -0.00045   0.00000   0.00346   0.00337   2.16663
   A25        1.82372  -0.00003   0.00000   0.00154   0.00150   1.82523
   A26        1.93359  -0.00081   0.00000  -0.00269  -0.00266   1.93092
   A27        2.22729   0.00025   0.00000   0.00048   0.00047   2.22776
   A28        2.12230   0.00057   0.00000   0.00221   0.00220   2.12450
   A29        1.83883   0.00129   0.00000   0.00340   0.00340   1.84223
   A30        1.93818  -0.00084   0.00000  -0.00218  -0.00218   1.93600
   A31        2.19952   0.00046   0.00000   0.00194   0.00194   2.20146
   A32        2.14530   0.00038   0.00000   0.00028   0.00028   2.14558
   A33        1.89001   0.00039   0.00000  -0.00017  -0.00015   1.88986
   A34        2.19776   0.00003   0.00000   0.00128   0.00127   2.19903
   A35        2.19537  -0.00042   0.00000  -0.00110  -0.00111   2.19426
   A36        1.97746   0.00361   0.00000   0.00293   0.00293   1.98039
   A37        1.88755  -0.00114   0.00000   0.00142   0.00141   1.88896
   A38        1.92174  -0.00146   0.00000  -0.00427  -0.00427   1.91747
   A39        1.92448  -0.00041   0.00000   0.00098   0.00098   1.92546
   A40        1.88877  -0.00121   0.00000   0.00022   0.00022   1.88899
   A41        1.86042   0.00043   0.00000  -0.00159  -0.00159   1.85882
   A42        1.93631   0.00267   0.00000   0.00611   0.00611   1.94242
   A43        1.93888  -0.00069   0.00000   0.00017   0.00016   1.93904
   A44        1.93637  -0.00090   0.00000  -0.00215  -0.00215   1.93422
   A45        1.84945  -0.00065   0.00000  -0.00035  -0.00036   1.84909
   A46        1.90049  -0.00080   0.00000  -0.00195  -0.00195   1.89854
   A47        1.89980   0.00035   0.00000  -0.00190  -0.00190   1.89790
   A48        1.95615  -0.00007   0.00000  -0.00165  -0.00166   1.95450
   A49        1.80739   0.00099   0.00000   0.01042   0.01041   1.81779
   A50        2.01743  -0.00049   0.00000  -0.00137  -0.00139   2.01603
   A51        1.95616  -0.00053   0.00000  -0.00772  -0.00772   1.94844
   A52        1.91302   0.00009   0.00000  -0.00457  -0.00459   1.90843
   A53        1.80626   0.00002   0.00000   0.00581   0.00579   1.81204
    D1        0.24637  -0.00069   0.00000  -0.00169  -0.00176   0.24461
    D2       -3.00115   0.00076   0.00000  -0.02438  -0.02430  -3.02545
    D3       -2.84200  -0.00209   0.00000  -0.00725  -0.00732  -2.84932
    D4        0.19367  -0.00065   0.00000  -0.02993  -0.02987   0.16380
    D5       -0.03035   0.00013   0.00000  -0.02271  -0.02270  -0.05305
    D6       -2.16924  -0.00092   0.00000  -0.02693  -0.02693  -2.19616
    D7        2.08750   0.00000   0.00000  -0.02351  -0.02351   2.06399
    D8        3.05865   0.00151   0.00000  -0.01702  -0.01702   3.04163
    D9        0.91977   0.00046   0.00000  -0.02124  -0.02125   0.89852
   D10       -1.10668   0.00138   0.00000  -0.01782  -0.01783  -1.12451
   D11       -2.72035   0.00113   0.00000   0.00831   0.00827  -2.71208
   D12        1.48395   0.00269   0.00000   0.00414   0.00409   1.48804
   D13       -0.62915   0.00059   0.00000   0.00450   0.00445  -0.62470
   D14        0.52144  -0.00010   0.00000   0.03080   0.03085   0.55229
   D15       -1.55744   0.00146   0.00000   0.02664   0.02668  -1.53077
   D16        2.61264  -0.00064   0.00000   0.02699   0.02704   2.63968
   D17        2.90798  -0.00167   0.00000  -0.02088  -0.02089   2.88709
   D18       -0.28582  -0.00138   0.00000  -0.01411  -0.01411  -0.29994
   D19       -1.26960   0.00127   0.00000  -0.01532  -0.01532  -1.28492
   D20        1.81978   0.00156   0.00000  -0.00855  -0.00855   1.81124
   D21        0.83357  -0.00026   0.00000  -0.02129  -0.02128   0.81229
   D22       -2.36024   0.00003   0.00000  -0.01452  -0.01450  -2.37474
   D23       -0.88158  -0.00143   0.00000   0.00200   0.00200  -0.87958
   D24        1.20904  -0.00032   0.00000   0.00472   0.00472   1.21376
   D25       -3.04931  -0.00116   0.00000   0.00521   0.00520  -3.04411
   D26       -2.94664  -0.00103   0.00000  -0.00756  -0.00756  -2.95420
   D27       -0.85602   0.00009   0.00000  -0.00484  -0.00484  -0.86085
   D28        1.16881  -0.00075   0.00000  -0.00436  -0.00435   1.16446
   D29        1.22454   0.00020   0.00000   0.00197   0.00197   1.22651
   D30       -2.96802   0.00131   0.00000   0.00469   0.00469  -2.96333
   D31       -0.94319   0.00047   0.00000   0.00518   0.00518  -0.93802
   D32        3.08920   0.00024   0.00000   0.00356   0.00355   3.09275
   D33        0.00107  -0.00015   0.00000  -0.00362  -0.00361  -0.00253
   D34        1.41466   0.00075   0.00000   0.00799   0.00800   1.42266
   D35       -1.46877  -0.00022   0.00000  -0.01780  -0.01780  -1.48657
   D36       -0.66800  -0.00035   0.00000   0.00452   0.00452  -0.66348
   D37        2.73176  -0.00132   0.00000  -0.02128  -0.02128   2.71048
   D38       -2.74174   0.00116   0.00000   0.00724   0.00724  -2.73450
   D39        0.65802   0.00020   0.00000  -0.01855  -0.01856   0.63946
   D40       -2.89295  -0.00099   0.00000  -0.01976  -0.01973  -2.91269
   D41        0.24807  -0.00051   0.00000  -0.02071  -0.02069   0.22738
   D42        0.02810  -0.00024   0.00000   0.00257   0.00257   0.03067
   D43       -3.11406   0.00024   0.00000   0.00162   0.00161  -3.11245
   D44        2.92099   0.00105   0.00000   0.01884   0.01887   2.93986
   D45       -0.21122   0.00069   0.00000   0.01800   0.01803  -0.19319
   D46       -0.01817   0.00019   0.00000  -0.00101  -0.00102  -0.01919
   D47        3.13281  -0.00018   0.00000  -0.00185  -0.00186   3.13095
   D48       -0.02724   0.00014   0.00000  -0.00325  -0.00325  -0.03049
   D49        3.11488  -0.00030   0.00000  -0.00236  -0.00236   3.11252
   D50        0.01515  -0.00002   0.00000   0.00258   0.00258   0.01773
   D51       -3.10586   0.00005   0.00000   0.00053   0.00054  -3.10532
   D52        0.00196  -0.00012   0.00000  -0.00104  -0.00103   0.00093
   D53        3.13418   0.00025   0.00000  -0.00018  -0.00017   3.13401
   D54        3.12372  -0.00018   0.00000   0.00096   0.00096   3.12469
   D55       -0.02724   0.00018   0.00000   0.00182   0.00182  -0.02542
   D56       -0.74853  -0.00050   0.00000   0.00104   0.00104  -0.74749
   D57        1.30394  -0.00005   0.00000   0.00459   0.00459   1.30853
   D58       -2.86345  -0.00068   0.00000   0.00083   0.00083  -2.86262
   D59        1.36974   0.00024   0.00000   0.00563   0.00563   1.37537
   D60       -2.86098   0.00069   0.00000   0.00918   0.00918  -2.85179
   D61       -0.74518   0.00006   0.00000   0.00542   0.00542  -0.73976
   D62       -2.88480  -0.00016   0.00000   0.00439   0.00439  -2.88042
   D63       -0.83234   0.00029   0.00000   0.00794   0.00794  -0.82440
   D64        1.28346  -0.00034   0.00000   0.00417   0.00417   1.28763
   D65        3.12709   0.00017   0.00000   0.00691   0.00691   3.13400
   D66        1.01520   0.00023   0.00000   0.01061   0.01062   1.02582
   D67       -0.94706  -0.00018   0.00000  -0.00217  -0.00217  -0.94923
   D68        1.02083  -0.00009   0.00000   0.00351   0.00350   1.02434
   D69       -1.09105  -0.00004   0.00000   0.00720   0.00721  -1.08384
   D70       -3.05331  -0.00045   0.00000  -0.00557  -0.00558  -3.05889
   D71       -1.02019   0.00023   0.00000   0.00687   0.00687  -1.01332
   D72       -3.13208   0.00029   0.00000   0.01057   0.01058  -3.12150
   D73        1.18885  -0.00012   0.00000  -0.00221  -0.00221   1.18664
         Item               Value     Threshold  Converged?
 Maximum Force            0.013765     0.000450     NO 
 RMS     Force            0.002301     0.000300     NO 
 Maximum Displacement     0.058851     0.001800     NO 
 RMS     Displacement     0.016678     0.001200     NO 
 Predicted change in Energy=-7.263234D-04
 GradGradGradGradGradGradGradGradGradGradGradGradGradGradGradGradGradGrad

                          Input orientation:                          
 ---------------------------------------------------------------------
 Center     Atomic      Atomic             Coordinates (Angstroms)
 Number     Number       Type             X           Y           Z
 ---------------------------------------------------------------------
      1          8           0       -0.040230   -0.249346   -1.660425
      2          6           0        0.405930    0.693022   -0.999853
      3          7           0       -0.369088    1.482723   -0.242124
      4          6           0       -1.729625    1.139107    0.108170
      5          6           0       -2.476303    2.426866    0.404914
      6          8           0       -3.797773    2.229882    0.429193
      7          8           0       -1.929343    3.472212    0.636368
      8          6           0       -1.777614    0.221802    1.381921
      9          6           0       -0.857624   -0.935971    1.255354
     10          6           0        0.493657   -1.021607    1.469169
     11          7           0        0.992408   -2.200379    0.958400
     12          6           0       -0.051682   -2.845123    0.471972
     13          7           0       -1.185673   -2.119757    0.630892
     14          6           0        1.901491    0.990974   -0.947545
     15          6           0        2.749401   -0.018762   -1.715180
     16          7           0        2.281262   -1.425974   -1.466533
     17          1           0        0.010822    2.304361    0.206388
     18          1           0       -2.191284    0.623979   -0.730436
     19          1           0       -4.235102    3.063058    0.664732
     20          1           0       -1.480398    0.818353    2.244468
     21          1           0       -2.809552   -0.087795    1.542991
     22          1           0        1.128657   -0.303113    1.958180
     23          1           0       -0.040512   -3.822718    0.020695
     24          1           0       -2.107412   -2.397248    0.335122
     25          1           0        2.206301    1.023659    0.098530
     26          1           0        2.096521    1.982921   -1.358379
     27          1           0        2.668656    0.137701   -2.788082
     28          1           0        3.794529    0.057803   -1.428971
     29          1           0        2.835164   -2.107645   -1.979154
     30          1           0        1.290046   -1.423343   -1.780467
     31          1           0        2.224563   -1.710056   -0.464635
 ---------------------------------------------------------------------
                    Distance matrix (angstroms):
                    1          2          3          4          5
     1  O    0.000000
     2  C    1.234290   0.000000
     3  N    2.262694   1.341056   0.000000
     4  C    2.812433   2.446896   1.446319   0.000000
     5  C    4.166796   3.645113   2.398004   1.517863   0.000000
     6  O    4.963084   4.698429   3.572786   2.360103   1.336292
     7  O    4.763822   3.981786   2.676605   2.400472   1.202283
     8  C    3.535018   3.265388   2.492266   1.570411   2.510979
     9  C    3.105053   3.055510   2.886380   2.526334   3.827799
    10  C    3.267381   3.007277   3.153493   3.385850   4.673892
    11  N    3.425072   3.542666   4.106113   4.391414   5.809449
    12  C    3.359361   3.859293   4.397832   4.338425   5.803202
    13  N    3.171847   3.619980   3.795633   3.345043   4.731657
    14  C    2.411819   1.525849   2.427954   3.784373   4.801667
    15  C    2.799681   2.551507   3.761559   4.972619   6.146859
    16  N    2.609861   2.867892   4.121171   5.014633   6.401650
    17  H    3.163703   2.051229   1.010240   2.096812   2.498041
    18  H    2.500922   2.612063   2.072750   1.087082   2.149571
    19  H    5.828836   5.470566   4.273865   3.207611   1.888285
    20  H    4.296773   3.754938   2.803487   2.174573   2.638768
    21  H    4.237584   4.173135   3.407203   2.174912   2.780251
[...]
 3872,-0.00030592,-0.00002993,0.00020923,0.00001224,-0.00005755,0.00003
 509,0.00036979,0.00011417,-0.07206166,-0.00761602,-0.28811898,-0.00195
 812,-0.00018265,-0.01553869,-0.00013504,-0.00023186,0.00080103,-0.0002
 2731,0.00054120,-0.00011036,0.00015355,0.00001878,-0.00000867,-0.00001
 068,0.00000548,-0.00000714,0.00000906,0.00000664,-0.00003870,0.0000230
 6,0.00001321,-0.00004848,0.00032795,0.00041692,-0.00014062,-0.00000221
 ,0.00000551,-0.00000520,-0.00002289,-0.00001420,0.00001379,0.07516835,
 0.00965138,0.31467394,-0.00475468,0.00092040,-0.00320079,-0.00182399,-
 0.03241374,0.01398303,-0.00013459,0.00235370,-0.00128418,-0.00030599,0
 .00031690,-0.00022049,-0.00016660,-0.00029945,-0.00009629,-0.00003619,
 0.00010265,0.00004337,0.00004157,0.00015122,-0.00003143,0.00001607,0.0
 0022115,-0.00016076,0.00019108,0.00000676,0.00000608,-0.00017001,0.000
 02030,0.00005292,0.00019477,0.00010805,-0.00012639,-0.00012702,-0.0000
 5287,-0.00008766,0.00012871,0.00000857,-0.00000079,-0.05519413,-0.0440
 8891,0.02217817,0.00411516,0.01545972,-0.00773472,-0.00206200,0.003657
 58,0.00230026,-0.00038556,-0.00012216,0.00076035,0.00004026,0.00004064
 ,0.00000858,-0.00002459,-0.00000554,0.00002142,0.00000260,-0.00001290,
 0.00002343,-0.00000240,-0.00000304,0.00001581,-0.00000113,0.00003091,0
 .00002350,-0.00000586,-0.00000311,0.00000859,-0.00000015,-0.00000140,-
 0.00000241,0.00174619,0.00918634,-0.00366516,0.05845740,-0.00084921,0.
 00081564,0.00037533,-0.00368116,-0.00558119,0.00064471,0.00142197,0.00
 000844,-0.00059748,-0.00081250,0.00023082,-0.00026497,-0.00009688,0.00
 012397,0.00003327,0.00005545,-0.00003993,-0.00001662,0.00003354,-0.000
 08852,-0.00001726,0.00030382,0.00002110,-0.00002292,0.00004689,-0.0000
 3857,0.00005890,-0.00002594,-0.00006736,-0.00003625,-0.00010365,0.0000
 0790,0.00010267,0.00005773,0.00003405,0.00004982,-0.00004481,0.0000012
 3,-0.00005062,-0.03954688,-0.26126424,0.09309231,-0.00404456,-0.019688
 81,0.00813405,0.00314507,-0.00198845,-0.00251936,0.00011361,0.00006754
 ,0.00046310,0.00001865,0.00002286,0.00001455,-0.00000216,0.00000666,0.
 00000328,-0.00001008,0.00000019,0.00000712,0.00000074,0.00005813,-0.00
 007811,0.00001807,0.00001421,0.00001350,0.00000391,0.00000652,-0.00000
 318,0.00000360,-0.00000577,-0.00000157,0.00052258,0.00167142,0.0000977
 1,0.04402634,0.28467525,-0.00151812,-0.00008527,-0.00132298,-0.0011751
 2,-0.00365393,0.00063407,0.00085089,-0.00019339,0.00047143,0.00007521,
 -0.00001873,-0.00040649,0.00010620,0.00025771,0.00011868,-0.00006752,-
 0.00006553,-0.00002218,-0.00011648,-0.00015618,-0.00005906,0.00014366,
 -0.00011125,0.00009879,-0.00041829,0.00005445,-0.00013270,0.00031005,0
 .00013152,-0.00041530,-0.00008667,-0.00023130,0.00003134,0.00027303,0.
 00004314,0.00009362,0.00004833,0.00025466,0.00017824,0.01990657,0.0952
 1330,-0.08367634,-0.00398055,-0.01567535,0.00594336,0.00237705,-0.0045
 6899,-0.00151736,0.00068252,0.00011710,-0.00027184,-0.00004760,-0.0000
 3232,0.00002748,0.00001236,0.00000322,0.00000207,0.00000956,0.00000635
 ,-0.00002222,0.00001145,0.00000011,-0.00003827,0.00004774,0.00005541,0
 .00028954,0.00001688,0.00001272,-0.00001025,-0.00002862,0.00000995,0.0
 0000547,0.00570816,0.02889573,-0.01181944,-0.02251041,-0.09965021,0.09
 087509,-0.00018407,-0.00037790,-0.00104120,0.00075065,0.00041909,0.001
 47993,-0.00004921,-0.00017540,-0.00041097,-0.00014831,0.00002230,-0.00
 009678,-0.00005674,0.00004528,0.00000125,0.00003919,-0.00001446,-0.000
 01119,0.00002795,-0.00002857,-0.00001720,0.00006626,-0.00002798,0.0000
 0750,-0.00001434,0.00002448,0.00000977,0.00002112,-0.00015061,-0.00002
 788,-0.00031660,-0.00002719,0.00036570,0.00017275,0.00003219,0.0001049
 6,-0.00011758,0.00004998,-0.00008530,0.00213269,-0.00182325,0.01954194
 ,-0.05539301,0.00458651,-0.02745736,-0.00008757,-0.00627658,0.01471359
 ,0.00013276,-0.00008665,0.00007099,-0.00004076,-0.00000145,0.00002360,
 -0.00000763,0.00000444,0.00000733,-0.00000265,0.00000462,-0.00000443,-
 0.00000379,0.00002166,-0.00001942,-0.00000366,0.00002973,-0.00002276,-
 0.00000143,-0.00000842,0.00000556,-0.00000581,-0.00000582,0.00001475,-
 0.00169912,0.00227461,0.00160454,0.00123184,-0.00068945,-0.00067381,0.
 05296595,0.00032446,0.00102844,0.00012449,-0.00141277,-0.00061981,-0.0
 0055606,0.00053657,-0.00007920,0.00014196,-0.00013838,-0.00003740,0.00
 012525,-0.00005633,0.00001070,-0.00003410,0.00007458,-0.00001588,-0.00
 000568,0.00006180,0.00001206,0.00001977,0.00005170,-0.00008712,-0.0000
 1334,-0.00024421,0.00002453,-0.00006686,0.00005839,-0.00044616,-0.0002
 4298,-0.00089274,-0.00031150,0.00110996,0.00059390,0.00023602,0.000332
 41,-0.00033007,0.00026353,-0.00002087,-0.00179391,0.00161178,-0.023613
 30,0.00175344,-0.05205106,0.02925521,-0.00193260,-0.01742399,0.0403944
 4,-0.00015472,0.00019974,-0.00005464,0.00005163,0.00000843,-0.00000951
 ,-0.00000294,0.00000146,-0.00000180,-0.00001166,0.00001768,0.00000465,
 -0.00000177,0.00002761,-0.00001626,0.00001349,0.00000437,0.00014865,-0
 .00000128,-0.00000595,0.00001718,0.00000161,0.00003689,0.00000133,0.00
 357702,-0.00233046,-0.00216463,-0.00031246,0.00096773,-0.00020969,-0.0
 0162021,0.07039492,0.00010922,0.00059999,0.00098431,-0.00085931,-0.000
 93429,-0.00078553,0.00013324,0.00018238,0.00018554,-0.00000134,-0.0000
 3836,0.00006572,-0.00001678,0.00000247,-0.00000233,0.00002032,-0.00000
 387,0.00000051,0.00001257,0.00000267,0.00000844,-0.00001744,0.00000802
 ,-0.00000591,-0.00000642,0.00000467,-0.00002536,-0.00005334,-0.0000303
 0,-0.00002417,0.00001166,-0.00006077,0.00002101,0.00000813,0.00001523,
 0.00002705,0.00002878,0.00003205,0.00001975,-0.00093024,-0.00095584,-0
 .01459454,-0.02216162,0.03891079,-0.31476201,0.00029589,0.00274781,-0.
 00263545,-0.00009470,0.00013386,-0.00005277,0.00002423,0.00001482,0.00
 000031,-0.00000213,0.00000057,-0.00000180,-0.00000321,0.00000053,0.000
 00475,0.00000186,-0.00000168,0.00000420,-0.00000393,-0.00000803,0.0000
 5590,0.00000357,0.00000278,-0.00000228,-0.00000414,0.00000209,-0.00000
 636,0.00187530,-0.00189392,0.00026229,-0.00008129,-0.00003421,0.000843
 33,0.02265367,-0.04013013,0.33550489,0.00046154,0.00005557,-0.00001682
 ,0.00063386,0.00258149,0.00122668,-0.00103136,-0.00036791,0.00014493,0
 .00013999,0.00018093,0.00009209,0.00003271,-0.00014116,0.00000610,-0.0
 0006990,0.00004799,0.00001210,-0.00002613,0.00005542,0.00001670,-0.000
 07556,0.00001888,-0.00001551,0.00000626,0.00003727,0.00000042,-0.00006
 562,-0.00000537,-0.00001757,0.00004302,-0.00001033,0.00004073,-0.00001
 816,-0.00001767,0.00000900,0.00007342,-0.00000551,0.00003141,-0.015081
 19,0.00010716,-0.00382989,-0.30189814,-0.01759937,-0.07257486,-0.00671
 723,-0.00305415,-0.00142858,-0.00001496,-0.00005515,-0.00009360,0.0000
 0405,-0.00000100,0.00000072,0.00000175,-0.00000514,-0.00000479,0.00000
 181,-0.00000223,0.00000237,0.00000407,-0.00001897,0.00002261,-0.000023
 83,0.00001154,0.00001774,0.00000500,0.00001282,-0.00000964,0.00000527,
 0.00000915,-0.00000524,0.00098176,-0.00062944,0.00014647,-0.00004820,0
 .00027020,-0.00003149,-0.00030557,0.00072899,-0.00080746,0.32226460,-0
 .00017910,0.00156602,0.00044263,-0.00038014,-0.00459995,-0.00279325,0.
 00190004,0.00083850,-0.00012257,-0.00020210,-0.00040933,-0.00011504,-0
 .00002856,0.00021246,-0.00002458,0.00013849,-0.00008532,-0.00002247,0.
 00005711,-0.00006509,-0.00001937,0.00008697,-0.00001352,-0.00000911,0.
 00003745,0.00001842,0.00002243,-0.00002086,-0.00004784,-0.00005431,-0.
 00021487,-0.00014946,0.00022329,0.00017640,0.00006130,0.00019742,-0.00
 004954,-0.00001623,-0.00006011,0.02199299,0.00357093,0.00568061,-0.007
 89025,-0.05109225,-0.00091285,-0.03905864,-0.01030958,-0.00965456,-0.0
 0001890,0.00011826,0.00012315,0.00000578,0.00000690,-0.00000260,0.0000
 0080,0.00000593,0.00000843,-0.00000970,0.00001108,0.00000070,-0.000005
 08,0.00003735,-0.00003241,0.00001051,0.00000884,0.00003957,0.00000684,
 0.00004663,-0.00003536,0.00001068,-0.00000898,-0.00000170,-0.00048402,
 0.00092572,0.00008223,-0.00049155,0.00025188,0.00049886,0.00510725,0.0
 0139467,0.00047027,0.01913429,0.06203337,-0.00046260,0.00059762,0.0008
 4296,0.00055255,-0.00439235,-0.00195110,0.00131730,0.00053801,-0.00022
 362,-0.00006291,-0.00019103,-0.00019571,0.00000728,0.00011781,-0.00001
 426,0.00005267,-0.00004426,-0.00000829,0.00001306,-0.00003549,-0.00001
 288,0.00008694,-0.00002768,0.00002259,0.00002310,-0.00004614,0.0000158
 9,0.00004653,-0.00000038,0.00002147,-0.00008746,-0.00002067,-0.0000247
 6,0.00001152,0.00004727,-0.00000465,-0.00010958,-0.00000282,-0.0000425
 1,0.01937190,0.00053344,0.00387084,-0.07677867,-0.00432294,-0.07353479
 ,0.00961232,0.00245106,0.00259815,0.00002177,0.00004143,0.00007720,0.0
 0000195,0.00000927,0.00000471,0.00000574,0.00000018,0.00000521,0.00000
 064,0.00000161,-0.00000281,-0.00000630,0.00002393,-0.00002602,0.000036
 71,-0.00000836,-0.00003124,-0.00000830,-0.00001260,0.00000942,0.000001
 98,-0.00000144,-0.00000121,0.00020544,0.00078468,0.00086244,-0.0004958
 7,0.00015987,0.00031459,-0.03068548,-0.00248988,-0.00656400,0.07682989
 ,0.00553133,0.07359467,-0.00263853,0.00347162,-0.00008133,-0.00161127,
 -0.00180484,-0.00149587,0.00004979,0.00034477,0.00050468,0.00010440,-0
 .00001891,-0.00001431,-0.00003145,0.00007337,0.00005500,0.00003428,-0.
 00002174,-0.00000744,0.00000348,-0.00004055,-0.00002538,-0.00005202,0.
 00002784,0.00001734,-0.00010930,-0.00011015,-0.00012619,0.00020660,-0.
 00007106,-0.00005773,0.00004587,0.00002171,-0.00003081,-0.00000169,0.0
 0007160,0.00001353,0.00001381,0.00010500,0.00000544,-0.00101663,-0.003
 45176,0.00116781,0.01015984,-0.00866642,-0.00971804,-0.16726557,0.1314
 8543,0.10102464,-0.00003745,0.00003366,0.00009482,0.00003014,0.0000026
 4,-0.00001690,-0.00001115,0.00000811,0.00000149,0.00000233,-0.00001434
 ,0.00000213,0.00000686,-0.00001586,0.00000886,0.00000308,-0.00002094,0
 .00002579,-0.00006117,-0.00012379,0.00010180,-0.00004060,0.00000246,0.
 00003949,0.00002262,0.00013051,-0.00002256,0.00058295,-0.00076874,-0.0
 0047425,0.00037287,0.00051593,0.00000243,0.00009854,-0.00039324,-0.000
 63740,0.17035028,-0.00057615,0.00158348,0.00026846,-0.00071084,-0.0006
 1879,-0.00047433,-0.00017408,0.00028204,0.00030349,0.00009308,0.000078
 55,-0.00001810,0.00010914,-0.00009639,-0.00001977,-0.00008938,0.000033
 19,0.00001218,-0.00004925,0.00005643,0.00001822,-0.00001352,-0.0000207
 9,-0.00000355,0.00007629,-0.00008938,-0.00007306,0.00015194,-0.0002999
 8,-0.00004163,-0.00069365,-0.00092996,0.00086120,0.00024869,0.00030906
 ,0.00025787,-0.00036087,0.00004287,-0.00015211,-0.00324055,-0.00444931
 ,0.00299924,0.01780120,-0.01985973,-0.01626242,0.13227267,-0.21289398,
 -0.11988481,-0.00007137,-0.00004111,0.00004905,0.00001927,-0.00000623,
 -0.00000819,0.00001567,-0.00000748,-0.00000302,0.00000594,0.00000162,-
 0.00000095,-0.00000874,-0.00000363,0.00000571,0.00000675,-0.00000678,-
 0.00003590,-0.00012131,-0.00003696,0.00010469,0.00002663,0.00006949,-0
 .00001266,-0.00017817,0.00003400,0.00002484,0.00101095,-0.00078988,-0.
 00102966,0.00070466,0.00110757,0.00066230,-0.00035160,0.00134046,-0.00
 070970,-0.14023529,0.22502292,-0.00202101,0.00185213,0.00001777,0.0000
 2551,-0.00064199,-0.00076432,-0.00027401,0.00017271,0.00034765,0.00012
 870,0.00007726,0.00000114,0.00015099,-0.00009617,-0.00001249,-0.000118
 32,0.00003591,0.00000503,-0.00007296,0.00005389,0.00001055,-0.00004013
 ,-0.00000962,-0.00003186,-0.00007972,0.00017546,0.00011975,-0.00033096
 ,0.00015037,0.00003931,0.00067323,0.00124099,-0.00082672,-0.00009734,0
 .00002459,-0.00025465,0.00022866,-0.00012734,0.00009098,0.00037668,0.0
 0124646,-0.00012141,-0.00573488,0.00407160,0.00442230,0.10160736,-0.12
 028338,-0.15235901,0.00003538,-0.00004150,0.00000185,0.00001298,-0.000
 00933,-0.00000357,0.00001761,-0.00000952,0.00000375,0.00000603,-0.0000
 0439,-0.00000514,-0.00000951,-0.00001147,0.00001946,0.00001556,-0.0000
 1361,0.00000014,0.00008214,0.00005084,-0.00004359,-0.00000448,-0.00001
 016,0.00004762,-0.00000892,0.00019206,0.00007503,-0.00009581,0.0003162
 4,0.00030641,-0.00040491,0.00073144,0.00007898,-0.00008885,-0.00031252
 ,0.00004634,-0.11111473,0.12778536,0.15230806,-0.00982266,-0.01888993,
 -0.00802336,0.01195909,0.01691116,0.01413158,0.00060513,-0.00686037,-0
 .00658007,-0.00199495,-0.00022079,0.00033513,-0.00110168,0.00079918,-0
 .00002162,0.00078949,-0.00027843,-0.00011521,0.00059327,-0.00054695,-0
 .00013503,0.00058723,-0.00026699,0.00018283,-0.00058380,0.00006841,0.0
 0016549,0.00066531,-0.00123802,-0.00053055,-0.00270753,-0.00069404,0.0
 0258859,0.00202459,-0.00004559,0.00098408,-0.00184514,0.00086983,-0.00
 060292,-0.00051436,-0.00106293,-0.00154483,-0.01263626,-0.01474647,-0.
 00239094,-0.30074920,-0.00678952,-0.08235258,0.00086071,0.00038010,-0.
 00055308,-0.00022666,0.00013090,0.00015345,-0.00011229,0.00006565,0.00
 003588,-0.00005649,0.00003740,0.00000514,0.00000009,0.00026155,-0.0001
 8941,0.00011740,-0.00000986,0.00005533,0.00005627,-0.00016359,0.000132
 20,-0.00016151,-0.00011159,0.00022597,-0.00072258,0.00004613,0.0000186
 9,-0.00118844,0.00039218,0.00034388,0.00072322,0.00168755,0.00006194,0
 .00093924,0.00055675,0.00041189,-0.00905479,0.00027770,-0.00276902,0.3
 1778537,-0.00424009,0.01038159,0.00599924,-0.00276963,-0.01590736,-0.0
 1168705,-0.00137138,0.00417167,0.00433147,0.00165507,0.00024618,-0.000
 24760,0.00084421,-0.00041057,0.00015443,-0.00063025,0.00016701,0.00007
 569,-0.00050338,0.00026325,0.00006396,-0.00055021,0.00025109,-0.000081
 62,-0.00011162,-0.00041165,-0.00033117,0.00015862,0.00000411,0.0003266
 9,0.00109879,0.00060827,-0.00061739,-0.00109990,-0.00021689,-0.0008866
 2,0.00025111,0.00025621,0.00043974,0.00057200,0.00140677,-0.00036791,-
 0.03628178,-0.00429310,-0.01075605,-0.01282106,-0.05249359,-0.00848882
 ,-0.00045843,-0.00012081,0.00010523,0.00022586,-0.00007041,-0.00009604
 ,0.00007701,-0.00003408,-0.00003519,0.00006028,-0.00007585,0.00000186,
 0.00001358,-0.00021439,0.00015662,-0.00005174,-0.00002639,-0.00019602,
 -0.00011129,-0.00040768,0.00034871,-0.00005481,0.00013554,-0.00003691,
 0.00034646,0.00012365,0.00016192,0.00049494,0.00018758,0.00024655,0.00
 018808,0.00089266,0.00030699,-0.00093119,-0.00701918,0.00179126,0.0217
 2036,0.00095532,0.00995479,0.02703265,0.06168177,-0.00166252,0.0001054
 9,-0.00703796,0.00305628,-0.00148954,-0.00000171,-0.00054957,-0.000973
 02,-0.00018546,-0.00022459,0.00012598,0.00020024,0.00012913,-0.0002252
 2,-0.00013938,-0.00008757,0.00006265,-0.00000439,0.00002629,0.00013109
 ,0.00003147,0.00010599,-0.00017091,-0.00007520,0.00015658,0.00024116,0
 .00004931,0.00004199,-0.00080356,-0.00044513,-0.00074394,-0.00037524,0
 .00095818,0.00148513,0.00076271,0.00075878,-0.00020841,-0.00007992,-0.
 00038951,-0.00106449,-0.00050510,-0.00064049,0.00628819,0.00047092,0.0
 0348368,-0.08735779,-0.00618830,-0.09187168,0.00021513,-0.00023512,0.0
 0004232,-0.00003423,-0.00001094,0.00000124,0.00002069,-0.00001622,0.00
 002075,-0.00001936,0.00004813,-0.00001179,-0.00003770,0.00004471,-0.00
 000601,-0.00001874,0.00004972,0.00006009,-0.00000389,0.00012637,-0.000
 06207,0.00010876,0.00002975,0.00015044,-0.00012208,-0.00021808,-0.0000
 9657,0.00003293,0.00012933,0.00006194,0.00110060,0.00057599,-0.0000225
 1,0.00032634,0.00162171,0.00002842,0.02174358,0.00341748,0.00803675,0.
 09244028,0.00439682,0.09985435,-0.00185205,0.00062204,0.00213910,0.000
 98851,0.00047819,-0.00111632,-0.00070623,0.00018652,0.00078569,0.00067
 532,-0.00015558,-0.00024968,-0.00022831,0.00056714,0.00035014,0.000096
 06,-0.00013658,-0.00001017,-0.00007407,-0.00042079,-0.00012565,-0.0003
 6378,0.00035181,0.00020330,0.00123442,0.00038432,0.00061937,-0.0019043
 0,0.00323430,0.00188031,0.00127998,0.00247525,-0.00498613,-0.00634827,
 -0.00142751,-0.00133285,0.00255176,-0.00218607,0.00045353,0.00048460,0
 .00087150,-0.00098257,-0.00125386,-0.00371525,0.01042764,-0.05671467,0
 .00353397,0.00217673,0.00003127,0.00005061,-0.00006935,-0.00002055,0.0
 0002501,-0.00005778,-0.00005072,0.00004452,-0.00002656,0.00004070,-0.0
 0012091,-0.00000286,0.00004900,-0.00011157,0.00007665,0.00019549,-0.00
 013207,-0.00051523,0.00025596,0.00011103,-0.00041539,-0.00026133,-0.00
 027066,-0.00002850,0.00022734,-0.00001040,-0.00009315,-0.00031708,0.00
 024167,0.00020541,-0.00019940,-0.00112500,-0.00019946,-0.00032106,0.00
 020421,0.00072340,-0.00015611,-0.00594582,0.01990475,0.00577196,0.0072
 4772,-0.03514298,0.05688943,-0.00107802,0.00091771,0.00062072,0.002123
 96,-0.00141096,-0.00115930,-0.00091339,0.00040322,0.00080308,0.0007381
 5,-0.00004125,-0.00017661,0.00010142,0.00015865,0.00018912,-0.00014154
 ,-0.00001650,0.00001822,-0.00016684,-0.00015691,-0.00004267,-0.0001659
 4,0.00020873,0.00027015,0.00206417,-0.00054668,0.00032981,0.00160683,0
 .00194351,0.00042354,0.00148973,-0.00253395,-0.00500100,-0.00380835,-0
 .00121284,-0.00016089,0.00129092,-0.00164485,-0.00027799,0.00057875,0.
 00121508,0.00010866,0.00106377,-0.00610612,0.02965706,0.00231727,-0.08
 200468,0.06489101,0.00003963,-0.00010212,-0.00007760,-0.00001127,-0.00
 000480,-0.00003548,0.00000005,0.00001106,-0.00002249,0.00002255,-0.000
 05770,-0.00000413,0.00003515,-0.00012437,0.00008236,0.00004404,-0.0000
 8724,-0.00074972,0.00001163,0.00007753,-0.00019106,0.00010025,-0.00013
 015,-0.00012203,-0.00005542,-0.00041234,-0.00059322,-0.00030999,0.0003
 7959,-0.00011900,-0.00220094,-0.00483225,-0.00000892,-0.00005551,0.001
 36799,-0.00032305,-0.00225738,0.00923340,-0.02656110,0.00240795,-0.000
 03074,-0.00104883,-0.00487162,0.08553998,0.00281024,-0.00354523,-0.002
 00802,-0.00226006,0.00250484,0.00364562,0.00188749,-0.00082787,-0.0022
 3534,-0.00133655,0.00002393,0.00038070,0.00004945,-0.00056756,-0.00042
 541,0.00011143,0.00010881,-0.00004175,0.00025430,0.00047312,0.00009751
 ,0.00040698,-0.00066951,-0.00011019,-0.00210509,-0.00065046,-0.0007945
 3,0.00274120,-0.00448452,-0.00349774,-0.00614127,-0.00794917,0.0039466
 9,0.00518952,0.00424242,0.00365166,-0.00633534,0.00259191,-0.00120546,
 -0.00032453,0.00042509,0.00206927,0.00242695,0.00796052,0.00663289,0.0
 0570503,0.05847513,-0.31256439,-0.00000192,0.00003040,0.00022751,0.000
 01250,-0.00001517,0.00009918,0.00004457,-0.00004836,0.00005960,-0.0000
 2672,0.00015265,-0.00000588,-0.00009298,0.00028455,-0.00018209,0.00006
 385,0.00002131,0.00069886,-0.00051456,-0.00070922,0.00080644,0.0000144
 4,0.00069314,-0.00002264,-0.00012498,-0.00020249,-0.00050000,0.0003360
 3,-0.00040301,-0.00058101,-0.00074698,-0.00335298,0.00141802,-0.000001
 98,-0.00076983,0.00032294,-0.00098590,0.00195977,-0.01155611,-0.006463
 74,0.00496641,-0.01274809,0.00540861,-0.06071861,0.32442174\\0.0000014
 0,0.00000444,0.00000430,-0.00000240,-0.00000283,-0.00000318,0.00000132
 ,-0.00000129,0.00000187,-0.00000099,0.00000062,-0.00000192,0.00000525,
 0.00000700,0.00000220,0.00000019,0.00000170,-0.00000001,-0.00000461,-0
 .00000828,-0.00000209,-0.00000014,-0.00000020,0.00000116,0.00000244,0.
 00000094,-0.00000030,-0.00000232,0.00000056,0.00000019,-0.00000258,0.0
 0000111,-0.00000086,0.00000175,0.00000104,0.00000016,0.00000100,0.0000
 0008,-0.00000031,0.00000029,-0.00000065,-0.00000061,0.00000027,-0.0000
 0022,0.00000011,-0.00000044,0.00000100,0.00000157,-0.00000020,-0.00000
 054,-0.00000136,0.00000070,0.00000015,0.00000115,-0.00000001,-0.000000
 84,-0.00000054,-0.00000034,-0.00000048,-0.00000074,0.00000100,0.000000
 51,-0.00000053,-0.00000075,-0.00000082,-0.00000079,-0.00000013,0.00000
 112,0.00000076,0.00000071,0.00000013,0.00000062,-0.00000043,0.00000035
 ,-0.00000082,-0.00000029,-0.00000117,0.00000004,0.00000018,-0.00000025
 ,0.00000106,-0.00000107,-0.00000033,-0.00000037,-0.00000046,0.00000040
 ,0.00000107,0.00000007,-0.00000041,-0.00000011,0.00000059,-0.00000282,
 -0.00000170\\\@


 MARY HAD A LITTLE LAMB
      HIS FEET WERE BLACK AS SOOT,
           AND EVERYWHERE THAT MARY WENT
                HIS SOOTY FOOT HE PUT.

                    -- NONAME
 Job cpu time:       1 days  8 hours 16 minutes 56.3 seconds.
 File lengths (MBytes):  RWF=   1351 Int=      0 D2E=      0 Chk=     46 Scr=      1
 Normal termination of Gaussian 09 at Thu Jul 29 12:03:58 2021.
