 Entering Gaussian System, Link 0=g09
 Input=opt_freq-conf-661.com
 Output=opt_freq-conf-661.log
 Initial command:
 /aerosol/software/g09/l1.exe "/scratch/nicole/10704/Gau-126110.inp" -scrdir="/scratch/nicole/10704/"
 Entering Link 1 = /aerosol/software/g09/l1.exe PID=    126113.
  
 Copyright (c) 1988,1990,1992,1993,1995,1998,2003,2009,2013,
            Gaussian, Inc.  All Rights Reserved.
  
 This is part of the Gaussian(R) 09 program.  It is based on
 the Gaussian(R) 03 system (copyright 2003, Gaussian, Inc.),
 the Gaussian(R) 98 system (copyright 1998, Gaussian, Inc.),
 the Gaussian(R) 94 system (copyright 1995, Gaussian, Inc.),
 the Gaussian 92(TM) system (copyright 1992, Gaussian, Inc.),
 the Gaussian 90(TM) system (copyright 1990, Gaussian, Inc.),
 the Gaussian 88(TM) system (copyright 1988, Gaussian, Inc.),
 the Gaussian 86(TM) system (copyright 1986, Carnegie Mellon
 University), and the Gaussian 82(TM) system (copyright 1983,
 Carnegie Mellon University). Gaussian is a federally registered
 trademark of Gaussian, Inc.
  
 This software contains proprietary and confidential information,
 including trade secrets, belonging to Gaussian, Inc.
  
 This software is provided under written license and may be
 used, copied, transmitted, or stored only in accord with that
 written license.
  
 The following legend is applicable only to US Government
 contracts under FAR:
  
                    RESTRICTED RIGHTS LEGEND
  
 Use, reproduction and disclosure by the US Government is
 subject to restrictions as set forth in subparagraphs (a)
 and (c) of the Commercial Computer Software - Restricted
 Rights clause in FAR 52.227-19.
  
 Gaussian, Inc.
 340 Quinnipiac St., Bldg. 40, Wallingford CT 06492
  
  
 ---------------------------------------------------------------
 Warning -- This program may not be used in any manner that
 competes with the business of Gaussian, Inc. or will provide
 assistance to any competitor of Gaussian, Inc.  The licensee
 of this program is prohibited from giving any competitor of
 Gaussian, Inc. access to this program.  By using this program,
 the user acknowledges that Gaussian, Inc. is engaged in the
 business of creating and licensing software in the field of
 computational chemistry and represents and warrants to the
 licensee that it is not a competitor of Gaussian, Inc. and that
 it will not use this program in any manner prohibited above.
 ---------------------------------------------------------------
  

 Cite this work as:
 Gaussian 09, Revision D.01,
 M. J. Frisch, G. W. Trucks, H. B. Schlegel, G. E. Scuseria, 
 M. A. Robb, J. R. Cheeseman, G. Scalmani, V. Barone, B. Mennucci, 
 G. A. Petersson, H. Nakatsuji, M. Caricato, X. Li, H. P. Hratchian, 
 A. F. Izmaylov, J. Bloino, G. Zheng, J. L. Sonnenberg, M. Hada, 
 M. Ehara, K. Toyota, R. Fukuda, J. Hasegawa, M. Ishida, T. Nakajima, 
 Y. Honda, O. Kitao, H. Nakai, T. Vreven, J. A. Montgomery, Jr., 
 J. E. Peralta, F. Ogliaro, M. Bearpark, J. J. Heyd, E. Brothers, 
 K. N. Kudin, V. N. Staroverov, T. Keith, R. Kobayashi, J. Normand, 
 K. Raghavachari, A. Rendell, J. C. Burant, S. S. Iyengar, J. Tomasi, 
 M. Cossi, N. Rega, J. M. Millam, M. Klene, J. E. Knox, J. B. Cross, 
 V. Bakken, C. Adamo, J. Jaramillo, R. Gomperts, R. E. Stratmann, 
 O. Yazyev, A. J. Austin, R. Cammi, C. Pomelli, J. W. Ochterski, 
 R. L. Martin, K. Morokuma, V. G. Zakrzewski, G. A. Voth, 
 P. Salvador, J. J. Dannenberg, S. Dapprich, A. D. Daniels, 
 O. Farkas, J. B. Foresman, J. V. Ortiz, J. Cioslowski, 
 and D. J. Fox, Gaussian, Inc., Wallingford CT, 2013.
 
 ******************************************
 Gaussian 09:  ES64L-G09RevD.01 24-Apr-2013
                29-Jul-2021 
 ******************************************
 %mem=2gb
 %nproc=4
 Will use up to    4 processors via shared memory.
 %chk=conf-661.chk
 ----------------------------------------------------------------------
 # B3LYP/6-311++G(2df,2pd) EmpiricalDispersion=GD3BJ guess=read geom=ch
 eckpoint opt=readfc freq=noraman nosymm integral(ultrafinegrid)
 ----------------------------------------------------------------------
 1/10=3,14=-1,18=20,19=15,26=4,29=2,38=1/1,3;
 2/9=110,12=2,15=1,40=1/2;
 3/5=4,6=6,7=1414,11=2,14=-4,16=1,25=1,30=1,71=1,74=-5,75=-5,116=-2,124=41/1,2,3;
 4/5=1/1;
 5/5=2,38=6/2;
 6/7=2,8=2,9=2,10=2,28=1/1;
 7/30=1/1,2,3,16;
 1/14=-1,18=20,19=15,26=4/3(2);
 2/9=110,15=1/2;
 99//99;
 2/9=110,15=1/2;
 3/5=4,6=6,7=1414,11=2,14=-2,16=1,25=1,30=1,71=1,74=-5,75=-5,124=41/1,2,3;
 4/5=5,16=3,69=1/1;
 5/5=2,38=5/2;
 7/30=1/1,2,3,16;
 1/14=-1,18=20,19=15,26=4/3(-5);
 2/9=110,15=1/2;
 6/7=2,8=2,9=2,10=2,19=2,28=1/1;
 99/9=1/99;
 ------------------------------------------------------------
 Candidate Structure: Conf:661 OPT and FREQ calc in gas phase
 ------------------------------------------------------------
 Structure from the checkpoint file:  "conf-661.chk"
 Charge =  1 Multiplicity = 1
 Redundant internal coordinates found in file.
 O,0,2.1179201979,1.1615003977,0.9266106678
 C,0,1.4124301724,0.9831809134,-0.0576945657
 N,0,0.1886522948,0.3888663743,0.0273285347
 C,0,-0.2461257897,-0.1219092366,1.3034106197
 C,0,0.787275293,-1.1488523171,1.7889231506
 O,0,0.8143650051,-1.4140305335,3.0877770433
 O,0,1.502829525,-1.7899484247,1.0342473019
 C,0,-1.6262827021,-0.834691061,1.1475989073
 C,0,-2.5950090143,-0.030419201,0.3520385868
 C,0,-2.9285445637,-0.0966930971,-0.9856108142
 N,0,-3.7888994499,0.9192032852,-1.3312969246
 C,0,-3.982000349,1.6027613952,-0.2250073675
 N,0,-3.2730350338,1.0802218353,0.8242344009
 C,0,1.9683545404,1.1516547653,-1.4657437273
 C,0,3.1114710286,0.1425759071,-1.5964778797
 N,0,2.6115091584,-1.2711888274,-1.3618677385
 H,0,-0.5020468565,0.4499117279,-0.7142962969
 H,0,-0.3163492212,0.6889123039,2.0399750013
 H,0,0.2592304147,-0.802620138,3.5957816605
 H,0,-2.0092527854,-1.0782668993,2.1440126316
 H,0,-1.4662515933,-1.7848818642,0.6292993125
 H,0,-2.6247841448,-0.8493130881,-1.7019190753
 H,0,-4.6172928089,2.4705975428,-0.1174647827
 H,0,-3.3003331521,1.4088749231,1.778393137
 H,0,2.3921997079,2.1522578744,-1.5800337817
 H,0,1.2127053988,1.0074853456,-2.2450042487
 H,0,3.8572828962,0.3335886301,-0.8240964805
 H,0,3.5795976953,0.1671772744,-2.5813437391
 H,0,3.3892921435,-1.9364340108,-1.377140315
 H,0,2.1165726093,-1.3934207438,-0.4221828766
 H,0,1.9541153636,-1.5559943732,-2.092444692
 Recover connectivity data from disk.

 GradGradGradGradGradGradGradGradGradGradGradGradGradGradGradGradGradGrad
 Berny optimization.
 Initialization pass.
 Force constant matrix read from checkpoint file:
 "conf-661.chk"
                           ----------------------------
                           !    Initial Parameters    !
                           ! (Angstroms and Degrees)  !
 --------------------------                            --------------------------
 ! Name  Definition              Value          Derivative Info.                !
 --------------------------------------------------------------------------------
 ! R1    R(1,2)                  1.2241         D2E/DX2 =    0.809              !
 ! R2    R(2,3)                  1.3631         D2E/DX2 =    0.471              !
 ! R3    R(2,14)                 1.5232         D2E/DX2 =    0.3005             !
 ! R4    R(3,4)                  1.4416         D2E/DX2 =    0.3866             !
 ! R5    R(3,17)                 1.0153         D2E/DX2 =    0.4462             !
 ! R6    R(4,5)                  1.5357         D2E/DX2 =    0.2612             !
 ! R7    R(4,8)                  1.5611         D2E/DX2 =    0.2522             !
 ! R8    R(4,18)                 1.0977         D2E/DX2 =    0.3275             !
 ! R9    R(5,6)                  1.3259         D2E/DX2 =    0.4782             !
 ! R10   R(5,7)                  1.2217         D2E/DX2 =    0.8107             !
 ! R11   R(6,19)                 0.9696         D2E/DX2 =    0.5158             !
 ! R12   R(8,9)                  1.4894         D2E/DX2 =    0.3243             !
 ! R13   R(8,20)                 1.0949         D2E/DX2 =    0.3364             !
 ! R14   R(8,21)                 1.0941         D2E/DX2 =    0.3395             !
 ! R15   R(9,10)                 1.3802         D2E/DX2 =    0.4027             !
 ! R16   R(9,13)                 1.3843         D2E/DX2 =    0.3654             !
 ! R17   R(10,11)                1.3754         D2E/DX2 =    0.3411             !
 ! R18   R(10,22)                1.0825         D2E/DX2 =    0.3688             !
 ! R19   R(11,12)                1.3147         D2E/DX2 =    0.4655             !
 ! R20   R(12,13)                1.3699         D2E/DX2 =    0.355              !
 ! R21   R(12,23)                1.0809         D2E/DX2 =    0.3756             !
 ! R22   R(13,24)                1.0095         D2E/DX2 =    0.4747             !
 ! R23   R(14,15)                1.5304         D2E/DX2 =    0.2933             !
 ! R24   R(14,25)                1.0927         D2E/DX2 =    0.3456             !
 ! R25   R(14,26)                1.095          D2E/DX2 =    0.3376             !
 ! R26   R(15,16)                1.5178         D2E/DX2 =    0.2658             !
 ! R27   R(15,27)                1.0905         D2E/DX2 =    0.351              !
 ! R28   R(15,28)                1.0907         D2E/DX2 =    0.3487             !
 ! R29   R(16,29)                1.0236         D2E/DX2 =    0.4351             !
 ! R30   R(16,30)                1.0691         D2E/DX2 =    0.259              !
 ! R31   R(16,31)                1.0232         D2E/DX2 =    0.435              !
 ! A1    A(1,2,3)              122.0588         D2E/DX2 =    0.2079             !
 ! A2    A(1,2,14)             121.1231         D2E/DX2 =    0.1593             !
 ! A3    A(3,2,14)             115.6935         D2E/DX2 =    0.1912             !
 ! A4    A(2,3,4)              118.7146         D2E/DX2 =    0.1744             !
 ! A5    A(2,3,17)             122.6147         D2E/DX2 =    0.0984             !
 ! A6    A(4,3,17)             117.5621         D2E/DX2 =    0.1146             !
 ! A7    A(3,4,5)              108.2906         D2E/DX2 =    0.1745             !
 ! A8    A(3,4,8)              109.8796         D2E/DX2 =    0.1107             !
 ! A9    A(3,4,18)             110.5818         D2E/DX2 =    0.0384             !
 ! A10   A(5,4,8)              108.7324         D2E/DX2 =    0.0897             !
 ! A11   A(5,4,18)             108.9579         D2E/DX2 =    0.0342             !
 ! A12   A(8,4,18)             110.3452         D2E/DX2 =    0.0357             !
 ! A13   A(4,5,6)              117.2063         D2E/DX2 =    0.1745             !
 ! A14   A(4,5,7)              123.3507         D2E/DX2 =    0.2139             !
 ! A15   A(6,5,7)              119.2222         D2E/DX2 =    0.2114             !
 ! A16   A(5,6,19)             112.0513         D2E/DX2 =    0.1732             !
 ! A17   A(4,8,9)              112.444          D2E/DX2 =    0.1675             !
 ! A18   A(4,8,20)             108.6608         D2E/DX2 =    0.0638             !
 ! A19   A(4,8,21)             108.3298         D2E/DX2 =    0.0582             !
 ! A20   A(9,8,20)             112.2555         D2E/DX2 =    0.0557             !
 ! A21   A(9,8,21)             108.1236         D2E/DX2 =    0.0495             !
 ! A22   A(20,8,21)            106.8016         D2E/DX2 =    0.0208             !
 ! A23   A(8,9,10)             130.4622         D2E/DX2 =    0.0941             !
 ! A24   A(8,9,13)             124.7252         D2E/DX2 =    0.0987             !
 ! A25   A(10,9,13)            104.5225         D2E/DX2 =    0.1037             !
 ! A26   A(9,10,11)            111.0561         D2E/DX2 =    0.1156             !
 ! A27   A(9,10,22)            127.3651         D2E/DX2 =    0.0818             !
 ! A28   A(11,10,22)           121.5167         D2E/DX2 =    0.0898             !
 ! A29   A(10,11,12)           105.3323         D2E/DX2 =    0.1326             !
 ! A30   A(11,12,13)           111.7264         D2E/DX2 =    0.1203             !
 ! A31   A(11,12,23)           125.9805         D2E/DX2 =    0.0899             !
 ! A32   A(13,12,23)           122.2924         D2E/DX2 =    0.0909             !
 ! A33   A(9,13,12)            107.3536         D2E/DX2 =    0.1041             !
 ! A34   A(9,13,24)            126.6439         D2E/DX2 =    0.0777             !
 ! A35   A(12,13,24)           125.8554         D2E/DX2 =    0.0797             !
 ! A36   A(2,14,15)            106.1803         D2E/DX2 =    0.4299             !
 ! A37   A(2,14,25)            109.8499         D2E/DX2 =    0.0808             !
 ! A38   A(2,14,26)            113.0438         D2E/DX2 =    0.0655             !
 ! A39   A(15,14,25)           107.7663         D2E/DX2 =    0.0755             !
 ! A40   A(15,14,26)           111.5834         D2E/DX2 =    0.0803             !
 ! A41   A(25,14,26)           108.2894         D2E/DX2 =    0.0275             !
 ! A42   A(14,15,16)           110.7886         D2E/DX2 =    0.2481             !
 ! A43   A(14,15,27)           109.5627         D2E/DX2 =    0.0472             !
 ! A44   A(14,15,28)           112.5098         D2E/DX2 =    0.0574             !
 ! A45   A(16,15,27)           106.1971         D2E/DX2 =    0.0619             !
 ! A46   A(16,15,28)           107.5747         D2E/DX2 =    0.0769             !
 ! A47   A(27,15,28)           110.0013         D2E/DX2 =    0.021              !
 ! A48   A(15,16,29)           110.6564         D2E/DX2 =    0.0981             !
 ! A49   A(15,16,30)           113.2573         D2E/DX2 =    0.1496             !
 ! A50   A(15,16,31)           111.1322         D2E/DX2 =    0.0981             !
 ! A51   A(29,16,30)           106.8934         D2E/DX2 =    0.0607             !
 ! A52   A(29,16,31)           107.2555         D2E/DX2 =    0.0533             !
 ! A53   A(30,16,31)           107.3564         D2E/DX2 =    0.0611             !
 ! D1    D(1,2,3,4)             -4.1184         D2E/DX2 =    0.043              !
 ! D2    D(1,2,3,17)           163.5425         D2E/DX2 =    0.0184             !
 ! D3    D(14,2,3,4)           163.8772         D2E/DX2 =    0.1182             !
 ! D4    D(14,2,3,17)          -28.4619         D2E/DX2 =    0.0475             !
 ! D5    D(1,2,14,15)           60.1035         D2E/DX2 =    0.0192             !
 ! D6    D(1,2,14,25)          -56.1623         D2E/DX2 =    0.0193             !
 ! D7    D(1,2,14,26)         -177.2356         D2E/DX2 =    0.0367             !
 ! D8    D(3,2,14,15)         -108.0137         D2E/DX2 =    0.0329             !
 ! D9    D(3,2,14,25)          135.7204         D2E/DX2 =    0.0344             !
 ! D10   D(3,2,14,26)           14.6471         D2E/DX2 =    0.0186             !
 ! D11   D(2,3,4,5)            -57.8071         D2E/DX2 =    0.0331             !
 ! D12   D(2,3,4,8)           -176.4396         D2E/DX2 =    0.0184             !
 ! D13   D(2,3,4,18)            61.5079         D2E/DX2 =    0.0131             !
 ! D14   D(17,3,4,5)           133.9079         D2E/DX2 =    0.0225             !
 ! D15   D(17,3,4,8)            15.2754         D2E/DX2 =    0.0181             !
 ! D16   D(17,3,4,18)         -106.7771         D2E/DX2 =    0.0195             !
 ! D17   D(3,4,5,6)            158.9921         D2E/DX2 =    0.0259             !
 ! D18   D(3,4,5,7)            -26.4593         D2E/DX2 =    0.0269             !
 ! D19   D(8,4,5,6)            -81.6501         D2E/DX2 =    0.0218             !
 ! D20   D(8,4,5,7)             92.8984         D2E/DX2 =    0.0251             !
 ! D21   D(18,4,5,6)            38.659          D2E/DX2 =    0.0164             !
 ! D22   D(18,4,5,7)          -146.7925         D2E/DX2 =    0.0216             !
 ! D23   D(3,4,8,9)            -46.5447         D2E/DX2 =    0.0359             !
 ! D24   D(3,4,8,20)          -171.4356         D2E/DX2 =    0.0348             !
 ! D25   D(3,4,8,21)            72.8879         D2E/DX2 =    0.0345             !
 ! D26   D(5,4,8,9)           -164.9047         D2E/DX2 =    0.0336             !
 ! D27   D(5,4,8,20)            70.2044         D2E/DX2 =    0.0329             !
 ! D28   D(5,4,8,21)           -45.4722         D2E/DX2 =    0.0344             !
 ! D29   D(18,4,8,9)            75.6485         D2E/DX2 =    0.0132             !
 ! D30   D(18,4,8,20)          -49.2424         D2E/DX2 =    0.0135             !
 ! D31   D(18,4,8,21)         -164.919          D2E/DX2 =    0.0152             !
 ! D32   D(4,5,6,19)            -9.5039         D2E/DX2 =    0.0102             !
 ! D33   D(7,5,6,19)           175.7131         D2E/DX2 =    0.016              !
 ! D34   D(4,8,9,10)            96.9049         D2E/DX2 =    0.0131             !
 ! D35   D(4,8,9,13)           -75.9182         D2E/DX2 =    0.0125             !
 ! D36   D(20,8,9,10)         -140.2008         D2E/DX2 =    0.0138             !
 ! D37   D(20,8,9,13)           46.9761         D2E/DX2 =    0.0137             !
 ! D38   D(21,8,9,10)          -22.6477         D2E/DX2 =    0.0139             !
 ! D39   D(21,8,9,13)          164.5292         D2E/DX2 =    0.0141             !
 ! D40   D(8,9,10,11)         -174.5457         D2E/DX2 =    0.0098             !
 ! D41   D(8,9,10,22)            8.3154         D2E/DX2 =    0.0072             !
 ! D42   D(13,9,10,11)          -0.6346         D2E/DX2 =    0.0142             !
 ! D43   D(13,9,10,22)        -177.7735         D2E/DX2 =    0.0099             !
 ! D44   D(8,9,13,12)          175.29           D2E/DX2 =    0.0083             !
 ! D45   D(8,9,13,24)           -8.9334         D2E/DX2 =    0.0028             !
 ! D46   D(10,9,13,12)           0.925          D2E/DX2 =    0.0125             !
 ! D47   D(10,9,13,24)         176.7016         D2E/DX2 =    0.0047             !
 ! D48   D(9,10,11,12)           0.079          D2E/DX2 =    0.0174             !
 ! D49   D(22,10,11,12)        177.4117         D2E/DX2 =    0.0101             !
 ! D50   D(10,11,12,13)          0.5383         D2E/DX2 =    0.0185             !
 ! D51   D(10,11,12,23)       -179.1616         D2E/DX2 =    0.0106             !
 ! D52   D(11,12,13,9)          -0.951          D2E/DX2 =    0.0172             !
 ! D53   D(11,12,13,24)       -176.7702         D2E/DX2 =    0.0081             !
 ! D54   D(23,12,13,9)         178.7617         D2E/DX2 =    0.0105             !
 ! D55   D(23,12,13,24)          2.9425         D2E/DX2 =    0.0066             !
 ! D56   D(2,14,15,16)          58.8057         D2E/DX2 =    0.0415             !
 ! D57   D(2,14,15,27)         -58.0374         D2E/DX2 =    0.0212             !
 ! D58   D(2,14,15,28)         179.2659         D2E/DX2 =    0.027              !
 ! D59   D(25,14,15,16)        176.4666         D2E/DX2 =    0.029              !
 ! D60   D(25,14,15,27)         59.6235         D2E/DX2 =    0.0172             !
 ! D61   D(25,14,15,28)        -63.0733         D2E/DX2 =    0.0195             !
 ! D62   D(26,14,15,16)        -64.7739         D2E/DX2 =    0.0189             !
 ! D63   D(26,14,15,27)        178.383          D2E/DX2 =    0.0227             !
 ! D64   D(26,14,15,28)         55.6863         D2E/DX2 =    0.017              !
 ! D65   D(14,15,16,29)       -175.5723         D2E/DX2 =    0.0157             !
 ! D66   D(14,15,16,30)        -55.5688         D2E/DX2 =    0.0216             !
 ! D67   D(14,15,16,31)         65.377          D2E/DX2 =    0.0137             !
 ! D68   D(27,15,16,29)        -56.6756         D2E/DX2 =    0.0153             !
 ! D69   D(27,15,16,30)         63.3279         D2E/DX2 =    0.0185             !
 ! D70   D(27,15,16,31)       -175.7263         D2E/DX2 =    0.017              !
 ! D71   D(28,15,16,29)         61.0748         D2E/DX2 =    0.0151             !
 ! D72   D(28,15,16,30)       -178.9218         D2E/DX2 =    0.0199             !
 ! D73   D(28,15,16,31)        -57.976          D2E/DX2 =    0.015              !
 --------------------------------------------------------------------------------
 Trust Radius=3.00D-01 FncErr=1.00D-07 GrdErr=1.00D-06
 Number of steps in this run=    167 maximum allowed number of steps=    186.
 GradGradGradGradGradGradGradGradGradGradGradGradGradGradGradGradGradGrad

                          Input orientation:                          
 ---------------------------------------------------------------------
 Center     Atomic      Atomic             Coordinates (Angstroms)
 Number     Number       Type             X           Y           Z
 ---------------------------------------------------------------------
      1          8           0        2.117920    1.161500    0.926611
      2          6           0        1.412430    0.983181   -0.057695
      3          7           0        0.188652    0.388866    0.027329
      4          6           0       -0.246126   -0.121909    1.303411
      5          6           0        0.787275   -1.148852    1.788923
      6          8           0        0.814365   -1.414031    3.087777
      7          8           0        1.502830   -1.789948    1.034247
      8          6           0       -1.626283   -0.834691    1.147599
      9          6           0       -2.595009   -0.030419    0.352039
     10          6           0       -2.928545   -0.096693   -0.985611
     11          7           0       -3.788899    0.919203   -1.331297
     12          6           0       -3.982000    1.602761   -0.225007
     13          7           0       -3.273035    1.080222    0.824234
     14          6           0        1.968355    1.151655   -1.465744
     15          6           0        3.111471    0.142576   -1.596478
     16          7           0        2.611509   -1.271189   -1.361868
     17          1           0       -0.502047    0.449912   -0.714296
     18          1           0       -0.316349    0.688912    2.039975
     19          1           0        0.259230   -0.802620    3.595782
     20          1           0       -2.009253   -1.078267    2.144013
     21          1           0       -1.466252   -1.784882    0.629299
     22          1           0       -2.624784   -0.849313   -1.701919
     23          1           0       -4.617293    2.470598   -0.117465
     24          1           0       -3.300333    1.408875    1.778393
     25          1           0        2.392200    2.152258   -1.580034
     26          1           0        1.212705    1.007485   -2.245004
     27          1           0        3.857283    0.333589   -0.824096
     28          1           0        3.579598    0.167177   -2.581344
     29          1           0        3.389292   -1.936434   -1.377140
     30          1           0        2.116573   -1.393421   -0.422183
     31          1           0        1.954115   -1.555994   -2.092445
 ---------------------------------------------------------------------
                    Distance matrix (angstroms):
                    1          2          3          4          5
     1  O    0.000000
     2  C    1.224080   0.000000
     3  N    2.264453   1.363111   0.000000
     4  C    2.716216   2.413429   1.441634   0.000000
     5  C    2.802129   2.889010   2.413741   1.535660   0.000000
     6  O    3.606003   3.999787   3.606702   2.445032   1.325924
     7  O    3.016782   2.981737   2.736454   2.431799   1.221703
     8  C    4.248844   3.740477   2.458879   1.561143   2.516993
     9  C    4.895151   4.153894   2.833727   2.535889   3.841273
    10  C    5.541340   4.568503   3.313417   3.526418   4.755249
    11  N    6.328299   5.355370   4.236513   4.536171   5.912191
    12  C    6.223340   5.432472   4.351041   4.389454   5.862873
    13  N    5.392540   4.768731   3.618882   3.291946   4.731333
    14  C    2.397045   1.523167   2.445087   3.767506   4.156938
    15  C    2.896779   2.441559   3.352652   4.444408   4.304720
    16  N    3.376202   2.867201   3.248982   4.073160   3.642839
    17  H    3.172249   2.093018   1.015283   2.112727   3.237979
    18  H    2.718196   2.734134   2.096616   1.097675   2.158331
    19  H    3.799601   4.226919   3.762775   2.444119   1.914013
    20  H    4.850998   4.561249   3.385797   2.174821   2.819865
    21  H    4.649285   4.052276   2.797545   2.169933   2.612976
    22  H    5.783233   4.728700   3.526870   3.901171   4.890588
    23  H    6.940239   6.210760   5.239435   5.277033   6.778207
    24  H    5.490373   5.075684   4.034807   3.449216   4.821890
    25  H    2.709261   2.155042   3.247889   4.521819   4.982267
    26  H    3.301859   2.196544   2.568048   3.999371   4.593839
    27  H    2.603036   2.643227   3.766541   4.644537   4.295399
    28  H    3.928221   3.425096   4.284020   5.459949   5.350536
    29  H    4.064585   3.764714   4.198053   4.867660   4.173097
    30  H    2.889095   2.505375   2.663735   3.190103   2.591493
    31  H    4.065256   3.298642   3.375319   4.292959   4.073364
                    6          7          8          9         10
     6  O    0.000000
     7  O    2.198245   0.000000
     8  C    3.171228   3.273638   0.000000
     9  C    4.585027   4.511500   1.489362   0.000000
    10  C    5.686584   5.155969   2.605976   1.380197   0.000000
    11  N    6.794280   6.398257   3.728000   2.271734   1.375411
    12  C    6.563589   6.571116   3.657134   2.219010   2.139260
    13  N    5.296391   5.575918   2.546223   1.384273   2.186171
    14  C    5.352475   3.888406   4.867910   5.052318   5.076270
    15  C    5.444443   3.639106   5.561593   6.032459   6.075541
    16  N    4.800986   2.690660   4.944374   5.620037   5.675668
    17  H    4.434296   3.477630   2.526017   2.397557   2.502055
    18  H    2.607446   3.235066   2.198551   2.925553   4.073685
    19  H    0.969570   3.013771   3.090273   4.389174   5.625780
    20  H    2.996038   3.751372   1.094914   2.156911   3.406336
    21  H    3.373849   2.996573   1.094124   2.104544   2.756124
    22  H    5.923499   5.040694   3.019432   2.211383   1.082499
    23  H    7.407214   7.545501   4.633731   3.250408   3.193200
    24  H    5.158878   5.818642   2.869483   2.145585   3.169334
    25  H    6.082469   4.813152   5.701758   5.776611   5.807016
    26  H    5.870347   4.320104   4.791996   4.724465   4.467128
    27  H    5.255119   3.675092   5.943227   6.568704   6.801374
    28  H    6.502743   4.606062   6.481508   6.838826   6.706110
    29  H    5.180602   3.065125   5.722249   6.514201   6.591889
    30  H    3.743793   1.629449   4.096994   4.965500   5.239481
    31  H    5.306023   3.167743   4.882357   5.384924   5.214883
                   11         12         13         14         15
    11  N    0.000000
    12  C    1.314692   0.000000
    13  N    2.222242   1.369886   0.000000
    14  C    5.763513   6.095051   5.720251   0.000000
    15  C    6.948999   7.370916   6.892093   1.530375   0.000000
    16  N    6.764908   7.281923   6.703435   2.508906   1.517806
    17  H    3.377029   3.698451   3.231523   2.675818   3.732320
    18  H    4.845319   4.404800   3.220736   4.209996   5.027149
    19  H    6.605160   6.194540   4.868621   5.688527   5.999019
    20  H    4.385750   4.085572   2.828080   5.815862   6.457828
    21  H    4.068256   4.305225   3.392829   4.980861   5.442860
    22  H    2.149459   3.167960   3.244193   5.015633   5.822335
    23  H    2.136925   1.080880   2.151039   6.850417   8.206153
    24  H    3.185694   2.125059   1.009543   6.192710   7.355576
    25  H    6.307795   6.539761   6.246971   1.092664   2.134583
    26  H    5.085146   5.605329   5.435751   1.095006   2.184941
    27  H    7.685330   7.963923   7.356350   2.156153   1.090548
    28  H    7.511519   8.049285   7.706503   2.193140   1.090738
    29  H    7.725490   8.257679   7.637596   3.400472   2.108928
    30  H    6.406974   6.797689   6.059731   2.754705   2.174414
    31  H    6.299855   6.978720   6.540623   2.779266   2.114378
                   16         17         18         19         20
    16  N    0.000000
    17  H    3.616043   0.000000
    18  H    4.897641   2.770851   0.000000
    19  H    5.507364   4.552488   2.230806   0.000000
    20  H    5.803435   3.574483   2.449422   2.707329   0.000000
    21  H    4.566920   2.780151   3.071146   3.569614   1.757416
    22  H    5.264255   2.677573   4.657980   6.032027   3.901601
    23  H    8.234384   4.623270   5.130991   6.948570   4.950817
    24  H    7.210677   3.868271   3.080736   4.567724   2.826029
    25  H    3.437394   3.467585   4.752061   6.330081   6.608903
    26  H    2.815837   2.365234   4.560761   6.188730   5.830510
    27  H    2.101538   4.362264   5.074285   5.811392   6.724526
    28  H    2.119720   4.497291   6.066893   7.079705   7.423973
    29  H    1.023587   4.612649   5.683388   5.984377   6.502250
    30  H    1.069070   3.215645   4.039485   4.465737   4.868995
    31  H    1.023242   3.457699   5.222213   5.982986   5.821003
                   21         22         23         24         25
    21  H    0.000000
    22  H    2.766237   0.000000
    23  H    5.347506   4.183586   0.000000
    24  H    3.858025   4.203374   2.540849   0.000000
    25  H    5.938844   5.847599   7.167526   6.651059   0.000000
    26  H    4.820347   4.297554   6.376206   6.059402   1.773104
    27  H    5.911032   6.647332   8.768385   7.691597   2.454683
    28  H    6.291213   6.348306   8.863716   8.239088   2.520532
    29  H    5.255956   6.120166   9.225731   8.117855   4.213402
    30  H    3.754396   4.941077   7.769713   6.483692   3.740110
    31  H    4.377121   4.649541   7.955966   7.168198   3.769034
                   26         27         28         29         30
    26  H    0.000000
    27  H    3.076834   0.000000
    28  H    2.534052   1.786818   0.000000
    29  H    3.762629   2.382829   2.431358   0.000000
    30  H    3.147063   2.484787   3.039389   1.681256   0.000000
    31  H    2.672899   2.966695   2.418788   1.648068   1.686000
                   31
    31  H    0.000000
 Symmetry turned off by external request.
 Stoichiometry    C9H15N4O3(1+)
 Framework group  C1[X(C9H15N4O3)]
 Deg. of freedom    87
 Full point group                 C1      NOp   1
 Rotational constants (GHZ):      0.7687975      0.3447106      0.2821954
 Standard basis: 6-311++G(2df,2pd) (5D, 7F)
   769 basis functions,  1102 primitive gaussians,   864 cartesian basis functions
    60 alpha electrons       60 beta electrons
       nuclear repulsion energy      1172.8515803906 Hartrees.
 NAtoms=   31 NActive=   31 NUniq=   31 SFac= 1.00D+00 NAtFMM=   60 NAOKFM=F Big=F
 Integral buffers will be    131072 words long.
 Raffenetti 2 integral format.
 Two-electron integral symmetry is turned off.
 Nuclear repulsion after empirical dispersion term =     1172.7923897918 Hartrees.
 One-electron integrals computed using PRISM.
 NBasis=   769 RedAO= T EigKep=  1.64D-06  NBF=   769
 NBsUse=   769 1.00D-06 EigRej= -1.00D+00 NBFU=   769
 Initial guess from the checkpoint file:  "conf-661.chk"
 B after Tr=     0.000000    0.000000    0.000000
         Rot=    1.000000    0.000000    0.000000    0.000000 Ang=   0.00 deg.
 Requested convergence on RMS density matrix=1.00D-08 within 128 cycles.
 Requested convergence on MAX density matrix=1.00D-06.
 Requested convergence on             energy=1.00D-06.
 No special actions if energy rises.
 SCF Done:  E(RB3LYP) =  -796.812115187     A.U. after   14 cycles
            NFock= 14  Conv=0.12D-08     -V/T= 2.0043

 **********************************************************************

            Population analysis using the SCF density.

 **********************************************************************

 Alpha  occ. eigenvalues --  -19.32727 -19.27346 -19.24271 -14.58379 -14.49312
 Alpha  occ. eigenvalues --  -14.48987 -14.40827 -10.46790 -10.42568 -10.39700
 Alpha  occ. eigenvalues --  -10.38457 -10.34623 -10.34076 -10.33953 -10.33330
 Alpha  occ. eigenvalues --  -10.30560  -1.26767  -1.19844  -1.18153  -1.15332
 Alpha  occ. eigenvalues --   -1.13537  -1.08663  -0.99246  -0.95875  -0.93538
 Alpha  occ. eigenvalues --   -0.87863  -0.82965  -0.80584  -0.78413  -0.75680
 Alpha  occ. eigenvalues --   -0.74202  -0.73543  -0.73405  -0.71634  -0.68923
 Alpha  occ. eigenvalues --   -0.66910  -0.66387  -0.65632  -0.64926  -0.61614
 Alpha  occ. eigenvalues --   -0.60421  -0.59312  -0.58326  -0.57770  -0.56811
 Alpha  occ. eigenvalues --   -0.56367  -0.54911  -0.53968  -0.53532  -0.52973
 Alpha  occ. eigenvalues --   -0.52868  -0.52568  -0.50928  -0.48185  -0.45165
 Alpha  occ. eigenvalues --   -0.42337  -0.41513  -0.40601  -0.38696  -0.35500
 Alpha virt. eigenvalues --   -0.16716  -0.16190  -0.15177  -0.13438  -0.12373
 Alpha virt. eigenvalues --   -0.11346  -0.10548  -0.10238  -0.09517  -0.09274
 Alpha virt. eigenvalues --   -0.08182  -0.07969  -0.06819  -0.06678  -0.06275
 Alpha virt. eigenvalues --   -0.06113  -0.05651  -0.04786  -0.04332  -0.03835
 Alpha virt. eigenvalues --   -0.03536  -0.03176  -0.02893  -0.02432  -0.01681
 Alpha virt. eigenvalues --   -0.01620  -0.01298  -0.00956  -0.00532  -0.00078
 Alpha virt. eigenvalues --    0.00387   0.00629   0.00922   0.01325   0.01612
 Alpha virt. eigenvalues --    0.01796   0.02440   0.02637   0.02733   0.02859
 Alpha virt. eigenvalues --    0.03446   0.03735   0.03911   0.04102   0.04290
 Alpha virt. eigenvalues --    0.04675   0.05051   0.05392   0.05729   0.05837
 Alpha virt. eigenvalues --    0.06129   0.06454   0.06789   0.07038   0.07429
 Alpha virt. eigenvalues --    0.07601   0.08017   0.08657   0.08891   0.09728
 Alpha virt. eigenvalues --    0.09957   0.10144   0.10492   0.10817   0.11331
 Alpha virt. eigenvalues --    0.11652   0.12144   0.12520   0.12911   0.13328
 Alpha virt. eigenvalues --    0.13840   0.14046   0.14499   0.14799   0.15138
 Alpha virt. eigenvalues --    0.15761   0.15961   0.16414   0.16970   0.17095
 Alpha virt. eigenvalues --    0.17940   0.18116   0.18903   0.19103   0.19496
 Alpha virt. eigenvalues --    0.19733   0.20435   0.20813   0.21183   0.21666
 Alpha virt. eigenvalues --    0.22201   0.22356   0.22818   0.23194   0.23382
 Alpha virt. eigenvalues --    0.23644   0.24070   0.24527   0.25146   0.25328
 Alpha virt. eigenvalues --    0.26267   0.26409   0.27748   0.28943   0.29152
 Alpha virt. eigenvalues --    0.29748   0.30947   0.31688   0.32140   0.33011
 Alpha virt. eigenvalues --    0.33302   0.33911   0.34599   0.35132   0.36223
 Alpha virt. eigenvalues --    0.36952   0.37308   0.37940   0.38429   0.39207
 Alpha virt. eigenvalues --    0.39601   0.40118   0.40668   0.41955   0.42379
 Alpha virt. eigenvalues --    0.43427   0.43910   0.44530   0.45170   0.45903
 Alpha virt. eigenvalues --    0.46057   0.46271   0.47123   0.47752   0.48063
 Alpha virt. eigenvalues --    0.48252   0.48599   0.49288   0.49794   0.50301
 Alpha virt. eigenvalues --    0.50972   0.51540   0.52191   0.52916   0.53345
 Alpha virt. eigenvalues --    0.53716   0.54197   0.54759   0.55600   0.55796
 Alpha virt. eigenvalues --    0.56254   0.57326   0.57902   0.58300   0.59188
 Alpha virt. eigenvalues --    0.59423   0.59996   0.60929   0.61863   0.62753
 Alpha virt. eigenvalues --    0.63117   0.63306   0.64465   0.65240   0.65585
 Alpha virt. eigenvalues --    0.66302   0.66661   0.67851   0.68317   0.69029
 Alpha virt. eigenvalues --    0.70624   0.70876   0.71423   0.72408   0.72772
 Alpha virt. eigenvalues --    0.73358   0.74157   0.74570   0.75370   0.76206
 Alpha virt. eigenvalues --    0.77079   0.79058   0.79958   0.80457   0.81917
 Alpha virt. eigenvalues --    0.82264   0.83148   0.84952   0.85454   0.85845
 Alpha virt. eigenvalues --    0.87158   0.87933   0.88185   0.89626   0.90015
 Alpha virt. eigenvalues --    0.90680   0.91623   0.91768   0.93906   0.94138
 Alpha virt. eigenvalues --    0.94621   0.95604   0.96197   0.97144   0.98144
 Alpha virt. eigenvalues --    0.98577   0.98895   0.99345   1.00169   1.01903
 Alpha virt. eigenvalues --    1.02190   1.02859   1.04252   1.04592   1.04808
 Alpha virt. eigenvalues --    1.05624   1.06077   1.07399   1.08040   1.09635
 Alpha virt. eigenvalues --    1.09756   1.09989   1.10572   1.11681   1.12697
 Alpha virt. eigenvalues --    1.13288   1.14223   1.14762   1.15662   1.16301
 Alpha virt. eigenvalues --    1.17754   1.18460   1.18881   1.19129   1.19693
 Alpha virt. eigenvalues --    1.19896   1.21105   1.22360   1.23250   1.23539
 Alpha virt. eigenvalues --    1.23602   1.25698   1.26383   1.27196   1.28099
 Alpha virt. eigenvalues --    1.28648   1.29864   1.30558   1.30803   1.31084
 Alpha virt. eigenvalues --    1.32495   1.33144   1.33893   1.34406   1.35144
 Alpha virt. eigenvalues --    1.36638   1.36747   1.37457   1.38402   1.38869
 Alpha virt. eigenvalues --    1.39533   1.40699   1.41649   1.42342   1.42686
 Alpha virt. eigenvalues --    1.43606   1.44813   1.46249   1.47381   1.47743
 Alpha virt. eigenvalues --    1.48242   1.48909   1.49633   1.51542   1.51993
 Alpha virt. eigenvalues --    1.53712   1.54849   1.56238   1.57974   1.58752
 Alpha virt. eigenvalues --    1.59241   1.60180   1.60995   1.61530   1.62770
 Alpha virt. eigenvalues --    1.64473   1.65739   1.67115   1.69104   1.70168
 Alpha virt. eigenvalues --    1.70845   1.71576   1.73943   1.76263   1.77252
 Alpha virt. eigenvalues --    1.79622   1.80797   1.81693   1.85827   1.87455
 Alpha virt. eigenvalues --    1.90365   1.90907   1.93472   1.94092   1.95295
 Alpha virt. eigenvalues --    1.98474   2.01814   2.05101   2.06568   2.09118
 Alpha virt. eigenvalues --    2.11916   2.15566   2.18621   2.22564   2.25600
 Alpha virt. eigenvalues --    2.30230   2.31411   2.32551   2.33990   2.36470
 Alpha virt. eigenvalues --    2.38109   2.38999   2.40250   2.41776   2.43425
 Alpha virt. eigenvalues --    2.44873   2.47536   2.48023   2.50970   2.52317
 Alpha virt. eigenvalues --    2.53770   2.54730   2.56047   2.58824   2.58976
 Alpha virt. eigenvalues --    2.60916   2.61312   2.62934   2.63125   2.64045
 Alpha virt. eigenvalues --    2.64676   2.66262   2.66897   2.68582   2.69747
 Alpha virt. eigenvalues --    2.70409   2.70557   2.71796   2.74562   2.74678
 Alpha virt. eigenvalues --    2.76246   2.76464   2.77139   2.78260   2.78596
 Alpha virt. eigenvalues --    2.78739   2.79353   2.80379   2.82347   2.83090
 Alpha virt. eigenvalues --    2.84778   2.84945   2.85406   2.86274   2.86397
 Alpha virt. eigenvalues --    2.87008   2.88342   2.88807   2.89817   2.90402
 Alpha virt. eigenvalues --    2.92491   2.92954   2.93593   2.94482   2.95178
 Alpha virt. eigenvalues --    2.95565   2.96373   2.97496   2.98249   2.99374
 Alpha virt. eigenvalues --    2.99607   3.00124   3.01252   3.01537   3.01777
 Alpha virt. eigenvalues --    3.03094   3.04079   3.04722   3.05404   3.06095
 Alpha virt. eigenvalues --    3.06854   3.07557   3.08587   3.09324   3.09470
 Alpha virt. eigenvalues --    3.10872   3.11273   3.12015   3.13141   3.13548
 Alpha virt. eigenvalues --    3.14717   3.15169   3.15911   3.16186   3.16789
 Alpha virt. eigenvalues --    3.17972   3.18283   3.18984   3.20332   3.21521
 Alpha virt. eigenvalues --    3.22109   3.22557   3.23417   3.24709   3.24979
 Alpha virt. eigenvalues --    3.25554   3.26538   3.27400   3.28062   3.28641
 Alpha virt. eigenvalues --    3.29032   3.29897   3.30884   3.31126   3.31540
 Alpha virt. eigenvalues --    3.32904   3.33057   3.34466   3.34856   3.35948
 Alpha virt. eigenvalues --    3.37070   3.37456   3.37976   3.38733   3.39793
 Alpha virt. eigenvalues --    3.40261   3.42310   3.42572   3.43147   3.43804
 Alpha virt. eigenvalues --    3.45014   3.45512   3.46754   3.47322   3.48585
 Alpha virt. eigenvalues --    3.50072   3.50474   3.51424   3.52417   3.53786
 Alpha virt. eigenvalues --    3.54279   3.55142   3.55957   3.56629   3.57433
 Alpha virt. eigenvalues --    3.57565   3.58135   3.58881   3.59850   3.60151
 Alpha virt. eigenvalues --    3.60813   3.61681   3.62698   3.63132   3.64925
 Alpha virt. eigenvalues --    3.66318   3.66794   3.67725   3.68357   3.68718
 Alpha virt. eigenvalues --    3.69633   3.70698   3.71853   3.73211   3.74359
 Alpha virt. eigenvalues --    3.75067   3.75324   3.76708   3.76767   3.77266
 Alpha virt. eigenvalues --    3.78198   3.79215   3.81217   3.81562   3.82735
 Alpha virt. eigenvalues --    3.83797   3.84528   3.84706   3.85273   3.85544
 Alpha virt. eigenvalues --    3.86125   3.87185   3.89251   3.89896   3.91017
 Alpha virt. eigenvalues --    3.91841   3.92208   3.92910   3.93335   3.93632
 Alpha virt. eigenvalues --    3.95197   3.96666   3.97508   3.98496   3.99198
 Alpha virt. eigenvalues --    3.99616   4.00555   4.01341   4.01704   4.02297
 Alpha virt. eigenvalues --    4.03858   4.05232   4.05368   4.06317   4.06586
 Alpha virt. eigenvalues --    4.08363   4.08985   4.09941   4.12156   4.13401
 Alpha virt. eigenvalues --    4.14700   4.15535   4.16557   4.17346   4.19690
 Alpha virt. eigenvalues --    4.20358   4.20706   4.21980   4.22671   4.23421
 Alpha virt. eigenvalues --    4.25461   4.27578   4.28017   4.29305   4.30077
 Alpha virt. eigenvalues --    4.32948   4.35032   4.36386   4.36675   4.37043
 Alpha virt. eigenvalues --    4.40593   4.42268   4.43690   4.45191   4.46018
 Alpha virt. eigenvalues --    4.46667   4.48267   4.48923   4.49879   4.50951
 Alpha virt. eigenvalues --    4.52676   4.53457   4.55913   4.58284   4.61399
 Alpha virt. eigenvalues --    4.63163   4.64838   4.65669   4.67399   4.70193
 Alpha virt. eigenvalues --    4.70858   4.72134   4.72829   4.73803   4.76048
 Alpha virt. eigenvalues --    4.76288   4.77919   4.78033   4.79588   4.80534
 Alpha virt. eigenvalues --    4.80845   4.81835   4.84852   4.85352   4.87761
 Alpha virt. eigenvalues --    4.88576   4.89871   4.91338   4.91890   4.92114
 Alpha virt. eigenvalues --    4.93452   4.94222   4.94598   4.95519   4.97348
 Alpha virt. eigenvalues --    4.98201   4.98974   4.99983   5.00191   5.01580
 Alpha virt. eigenvalues --    5.01930   5.03042   5.05001   5.05732   5.06559
 Alpha virt. eigenvalues --    5.07754   5.08434   5.09142   5.10492   5.11436
 Alpha virt. eigenvalues --    5.11878   5.13793   5.14423   5.15519   5.15876
 Alpha virt. eigenvalues --    5.16904   5.18631   5.20095   5.20324   5.21661
 Alpha virt. eigenvalues --    5.22177   5.23194   5.24333   5.25958   5.26623
 Alpha virt. eigenvalues --    5.28961   5.31390   5.33305   5.35364   5.36756
 Alpha virt. eigenvalues --    5.38307   5.39699   5.40723   5.41766   5.43034
 Alpha virt. eigenvalues --    5.45915   5.47144   5.48398   5.48824   5.51931
 Alpha virt. eigenvalues --    5.52746   5.54389   5.56074   5.56846   5.57903
 Alpha virt. eigenvalues --    5.60456   5.65455   5.67533   5.68572   5.69233
 Alpha virt. eigenvalues --    5.71243   5.77698   5.78607   5.83884   5.84967
 Alpha virt. eigenvalues --    5.86072   5.89784   5.91488   5.92634   5.93174
 Alpha virt. eigenvalues --    5.98158   5.98927   6.05152   6.08177   6.10019
 Alpha virt. eigenvalues --    6.15473   6.17324   6.20595   6.21419   6.25002
 Alpha virt. eigenvalues --    6.27920   6.28843   6.31356   6.34460   6.35090
 Alpha virt. eigenvalues --    6.42933   6.44019   6.57468   6.60093   6.75038
 Alpha virt. eigenvalues --    6.77620   6.78673   6.81083   6.83423   6.87442
 Alpha virt. eigenvalues --    6.88902   6.95059   7.04256   7.06972   7.09318
 Alpha virt. eigenvalues --    7.10509   7.11543   7.15389   7.20457   7.24011
 Alpha virt. eigenvalues --    7.27445   7.41348   7.44689   7.51103   7.60220
 Alpha virt. eigenvalues --    7.65618   7.76073   7.89606  24.40749  24.63693
 Alpha virt. eigenvalues --   24.72546  24.72910  24.87095  24.88891  24.94363
 Alpha virt. eigenvalues --   24.94634  24.99936  35.88025  36.11903  36.15680
 Alpha virt. eigenvalues --   36.39159  50.05391  50.10403  50.16661
          Condensed to atoms (all electrons):
               1          2          3          4          5          6
     1  O    8.015850   0.526076  -0.106775  -0.007989  -0.020514   0.002022
     2  C    0.526076   7.258666   0.006739  -0.386801  -0.335302  -0.013089
     3  N   -0.106775   0.006739   6.975104  -0.187424  -0.101005   0.008458
     4  C   -0.007989  -0.386801  -0.187424   9.682630  -1.362812   0.004374
     5  C   -0.020514  -0.335302  -0.101005  -1.362812   6.885939   0.343805
     6  O    0.002022  -0.013089   0.008458   0.004374   0.343805   7.678338
     7  O   -0.004613   0.046631  -0.002399   0.069685   0.245408  -0.026079
     8  C    0.004954  -0.386714   0.181004  -4.177065   1.839432  -0.143328
     9  C    0.010102   0.272117  -0.175660   1.506510  -1.131661   0.077781
    10  C   -0.002587   0.071211  -0.015959   0.117778  -0.136889   0.003670
    11  N    0.000266   0.001005   0.004086   0.011272   0.000155   0.000006
    12  C    0.001020   0.015490   0.055002   0.035468  -0.014040   0.001148
    13  N    0.000859  -0.023517   0.017470  -0.033347   0.047908  -0.001066
    14  C   -0.039660  -0.778580  -0.175382   0.314878  -0.225872  -0.002279
    15  C   -0.029464   0.050548  -0.000266   0.032844   0.045104   0.000550
    16  N   -0.007961  -0.101640   0.061862  -0.066581   0.024517   0.000299
    17  H    0.007686  -0.103993   0.323998  -0.067536   0.048235  -0.000638
    18  H   -0.011877   0.095806  -0.032337   0.525143  -0.091709  -0.003132
    19  H   -0.001426  -0.019765  -0.003808   0.081049   0.017623   0.180007
    20  H   -0.000137   0.010008   0.008470   0.024820  -0.031388   0.010070
    21  H   -0.000788   0.013735   0.011626  -0.029788  -0.052915  -0.005870
    22  H   -0.000163  -0.001391   0.004339  -0.015276   0.003632   0.000008
    23  H    0.000004   0.000839   0.001253   0.002062  -0.000828   0.000052
    24  H    0.000293  -0.004529  -0.005011  -0.005447   0.001617  -0.000235
    25  H   -0.002573  -0.063200  -0.002014  -0.003789   0.002997  -0.000116
    26  H    0.001617  -0.038068   0.009204   0.002539  -0.010373   0.000015
    27  H   -0.003297  -0.011306   0.004535   0.005470  -0.001412   0.000039
    28  H    0.000466  -0.009845  -0.001760   0.001341   0.000921  -0.000010
    29  H   -0.000241   0.016852   0.004308  -0.005704   0.006318  -0.000221
    30  H    0.013378   0.048091  -0.039671   0.050404  -0.058113   0.004885
    31  H   -0.001522   0.010352  -0.002548   0.000224  -0.004817   0.000019
               7          8          9         10         11         12
     1  O   -0.004613   0.004954   0.010102  -0.002587   0.000266   0.001020
     2  C    0.046631  -0.386714   0.272117   0.071211   0.001005   0.015490
     3  N   -0.002399   0.181004  -0.175660  -0.015959   0.004086   0.055002
     4  C    0.069685  -4.177065   1.506510   0.117778   0.011272   0.035468
     5  C    0.245408   1.839432  -1.131661  -0.136889   0.000155  -0.014040
     6  O   -0.026079  -0.143328   0.077781   0.003670   0.000006   0.001148
     7  O    8.077831  -0.008041  -0.034456  -0.000959  -0.000027  -0.001100
     8  C   -0.008041  15.779724  -5.820141  -0.612673  -0.150191  -0.434972
     9  C   -0.034456  -5.820141  11.166960  -0.313190   0.095926  -0.086155
    10  C   -0.000959  -0.612673  -0.313190   6.963938   0.264032  -0.247947
    11  N   -0.000027  -0.150191   0.095926   0.264032   6.791198   0.308386
    12  C   -0.001100  -0.434972  -0.086155  -0.247947   0.308386   5.415083
    13  N    0.000085  -0.075037   0.215462  -0.230083   0.055098   0.387233
    14  C   -0.050771  -0.345960   0.073343   0.028693  -0.004472   0.002089
    15  C   -0.007971   0.026458  -0.020724  -0.008703   0.001026   0.001174
    16  N    0.055667   0.021694  -0.004981   0.012192  -0.000371  -0.000291
    17  H   -0.005388   0.146030   0.048814  -0.089406  -0.005753  -0.016019
    18  H    0.013462  -0.184662  -0.056478   0.005464   0.000493   0.004612
    19  H   -0.019824  -0.057252   0.027541  -0.000730   0.000009   0.000426
    20  H   -0.002955   0.246457   0.096496  -0.029452   0.003266   0.003811
    21  H    0.015193   0.411719  -0.047880  -0.003074   0.000402  -0.006747
    22  H   -0.000504   0.040189  -0.213267   0.544050  -0.097823   0.029973
    23  H   -0.000052  -0.015557   0.037202   0.022022  -0.070988   0.450175
    24  H   -0.000140   0.018702  -0.081781   0.052649  -0.004045  -0.040333
    25  H   -0.001920   0.005259   0.001062  -0.004611   0.000060   0.000032
    26  H    0.004630  -0.016174  -0.002492   0.013392  -0.000365   0.000322
    27  H    0.003901  -0.000709   0.000201   0.000019   0.000005   0.000016
    28  H   -0.002037  -0.001940  -0.001561   0.000381  -0.000034  -0.000079
    29  H   -0.000103   0.001162  -0.000368   0.000191  -0.000012   0.000028
    30  H    0.017610  -0.027151  -0.003375  -0.002060  -0.000077  -0.000778
    31  H   -0.001049  -0.001046   0.005959   0.000876   0.000068   0.000183
              13         14         15         16         17         18
     1  O    0.000859  -0.039660  -0.029464  -0.007961   0.007686  -0.011877
     2  C   -0.023517  -0.778580   0.050548  -0.101640  -0.103993   0.095806
     3  N    0.017470  -0.175382  -0.000266   0.061862   0.323998  -0.032337
     4  C   -0.033347   0.314878   0.032844  -0.066581  -0.067536   0.525143
     5  C    0.047908  -0.225872   0.045104   0.024517   0.048235  -0.091709
     6  O   -0.001066  -0.002279   0.000550   0.000299  -0.000638  -0.003132
     7  O    0.000085  -0.050771  -0.007971   0.055667  -0.005388   0.013462
     8  C   -0.075037  -0.345960   0.026458   0.021694   0.146030  -0.184662
     9  C    0.215462   0.073343  -0.020724  -0.004981   0.048814  -0.056478
    10  C   -0.230083   0.028693  -0.008703   0.012192  -0.089406   0.005464
    11  N    0.055098  -0.004472   0.001026  -0.000371  -0.005753   0.000493
    12  C    0.387233   0.002089   0.001174  -0.000291  -0.016019   0.004612
    13  N    6.264336  -0.003801   0.001359  -0.000533   0.004129  -0.000588
    14  C   -0.003801   6.296178   0.042306  -0.071626  -0.041996   0.010471
    15  C    0.001359   0.042306   5.219934   0.055284   0.011038  -0.000776
    16  N   -0.000533  -0.071626   0.055284   5.965805   0.001329  -0.003016
    17  H    0.004129  -0.041996   0.011038   0.001329   0.601040  -0.019278
    18  H   -0.000588   0.010471  -0.000776  -0.003016  -0.019278   0.635754
    19  H   -0.000227   0.002274   0.000489  -0.000142   0.000136  -0.021473
    20  H   -0.002395   0.000612  -0.000682   0.000346  -0.000534  -0.007491
    21  H    0.004331  -0.006977  -0.000386   0.000210  -0.007785   0.009350
    22  H    0.014402   0.005082  -0.001744   0.000671  -0.002053  -0.001012
    23  H   -0.078314   0.000959   0.000019   0.000003  -0.003395   0.000481
    24  H    0.400583   0.000302   0.000091  -0.000175   0.002693  -0.004635
    25  H    0.000107   0.441759   0.004926  -0.010806   0.001767  -0.000151
    26  H   -0.000523   0.413744  -0.055833   0.030018  -0.012588   0.002486
    27  H    0.000016  -0.044342   0.430981  -0.004000   0.000345  -0.000272
    28  H   -0.000015  -0.026630   0.405137  -0.026004   0.000485   0.000449
    29  H   -0.000048  -0.014821  -0.035501   0.390449   0.001764  -0.000175
    30  H    0.000444   0.014937   0.000255   0.262927  -0.001967   0.007241
    31  H   -0.000043   0.023822  -0.020055   0.351233  -0.006459  -0.000841
              19         20         21         22         23         24
     1  O   -0.001426  -0.000137  -0.000788  -0.000163   0.000004   0.000293
     2  C   -0.019765   0.010008   0.013735  -0.001391   0.000839  -0.004529
     3  N   -0.003808   0.008470   0.011626   0.004339   0.001253  -0.005011
     4  C    0.081049   0.024820  -0.029788  -0.015276   0.002062  -0.005447
     5  C    0.017623  -0.031388  -0.052915   0.003632  -0.000828   0.001617
     6  O    0.180007   0.010070  -0.005870   0.000008   0.000052  -0.000235
     7  O   -0.019824  -0.002955   0.015193  -0.000504  -0.000052  -0.000140
     8  C   -0.057252   0.246457   0.411719   0.040189  -0.015557   0.018702
     9  C    0.027541   0.096496  -0.047880  -0.213267   0.037202  -0.081781
    10  C   -0.000730  -0.029452  -0.003074   0.544050   0.022022   0.052649
    11  N    0.000009   0.003266   0.000402  -0.097823  -0.070988  -0.004045
    12  C    0.000426   0.003811  -0.006747   0.029973   0.450175  -0.040333
    13  N   -0.000227  -0.002395   0.004331   0.014402  -0.078314   0.400583
    14  C    0.002274   0.000612  -0.006977   0.005082   0.000959   0.000302
    15  C    0.000489  -0.000682  -0.000386  -0.001744   0.000019   0.000091
    16  N   -0.000142   0.000346   0.000210   0.000671   0.000003  -0.000175
    17  H    0.000136  -0.000534  -0.007785  -0.002053  -0.003395   0.002693
    18  H   -0.021473  -0.007491   0.009350  -0.001012   0.000481  -0.004635
    19  H    0.595934  -0.002955   0.000226   0.000028   0.000036   0.000921
    20  H   -0.002955   0.624534  -0.016852  -0.000817   0.000064  -0.001559
    21  H    0.000226  -0.016852   0.617810  -0.002131  -0.000420  -0.000677
    22  H    0.000028  -0.000817  -0.002131   0.601171   0.001365   0.001936
    23  H    0.000036   0.000064  -0.000420   0.001365   0.538704  -0.006811
    24  H    0.000921  -0.001559  -0.000677   0.001936  -0.006811   0.530775
    25  H    0.000082   0.000084   0.000038  -0.000166   0.000004   0.000087
    26  H   -0.000346   0.000227   0.001027   0.000299   0.000128  -0.000333
    27  H   -0.000038  -0.000055   0.000108   0.000061  -0.000001   0.000008
    28  H   -0.000028   0.000008  -0.000011   0.000093   0.000000  -0.000010
    29  H    0.000035   0.000014  -0.000051   0.000016   0.000002  -0.000019
    30  H   -0.002781   0.000765  -0.000410   0.000016  -0.000039   0.000055
    31  H    0.000288  -0.000031   0.000182  -0.000342   0.000012   0.000023
              25         26         27         28         29         30
     1  O   -0.002573   0.001617  -0.003297   0.000466  -0.000241   0.013378
     2  C   -0.063200  -0.038068  -0.011306  -0.009845   0.016852   0.048091
     3  N   -0.002014   0.009204   0.004535  -0.001760   0.004308  -0.039671
     4  C   -0.003789   0.002539   0.005470   0.001341  -0.005704   0.050404
     5  C    0.002997  -0.010373  -0.001412   0.000921   0.006318  -0.058113
     6  O   -0.000116   0.000015   0.000039  -0.000010  -0.000221   0.004885
     7  O   -0.001920   0.004630   0.003901  -0.002037  -0.000103   0.017610
     8  C    0.005259  -0.016174  -0.000709  -0.001940   0.001162  -0.027151
     9  C    0.001062  -0.002492   0.000201  -0.001561  -0.000368  -0.003375
    10  C   -0.004611   0.013392   0.000019   0.000381   0.000191  -0.002060
    11  N    0.000060  -0.000365   0.000005  -0.000034  -0.000012  -0.000077
    12  C    0.000032   0.000322   0.000016  -0.000079   0.000028  -0.000778
    13  N    0.000107  -0.000523   0.000016  -0.000015  -0.000048   0.000444
    14  C    0.441759   0.413744  -0.044342  -0.026630  -0.014821   0.014937
    15  C    0.004926  -0.055833   0.430981   0.405137  -0.035501   0.000255
    16  N   -0.010806   0.030018  -0.004000  -0.026004   0.390449   0.262927
    17  H    0.001767  -0.012588   0.000345   0.000485   0.001764  -0.001967
    18  H   -0.000151   0.002486  -0.000272   0.000449  -0.000175   0.007241
    19  H    0.000082  -0.000346  -0.000038  -0.000028   0.000035  -0.002781
    20  H    0.000084   0.000227  -0.000055   0.000008   0.000014   0.000765
    21  H    0.000038   0.001027   0.000108  -0.000011  -0.000051  -0.000410
    22  H   -0.000166   0.000299   0.000061   0.000093   0.000016   0.000016
    23  H    0.000004   0.000128  -0.000001   0.000000   0.000002  -0.000039
    24  H    0.000087  -0.000333   0.000008  -0.000010  -0.000019   0.000055
    25  H    0.587165  -0.041498  -0.004764  -0.005827  -0.001783   0.002547
    26  H   -0.041498   0.643225   0.005111  -0.003133   0.001650  -0.006462
    27  H   -0.004764   0.005111   0.541941  -0.034878  -0.001261  -0.018525
    28  H   -0.005827  -0.003133  -0.034878   0.596272   0.001055   0.009641
    29  H   -0.001783   0.001650  -0.001261   0.001055   0.541159  -0.031772
    30  H    0.002547  -0.006462  -0.018525   0.009641  -0.031772   0.392316
    31  H    0.003166  -0.003812   0.003976  -0.012693  -0.037690  -0.027657
              31
     1  O   -0.001522
     2  C    0.010352
     3  N   -0.002548
     4  C    0.000224
     5  C   -0.004817
     6  O    0.000019
     7  O   -0.001049
     8  C   -0.001046
     9  C    0.005959
    10  C    0.000876
    11  N    0.000068
    12  C    0.000183
    13  N   -0.000043
    14  C    0.023822
    15  C   -0.020055
    16  N    0.351233
    17  H   -0.006459
    18  H   -0.000841
    19  H    0.000288
    20  H   -0.000031
    21  H    0.000182
    22  H   -0.000342
    23  H    0.000012
    24  H    0.000023
    25  H    0.003166
    26  H   -0.003812
    27  H    0.003976
    28  H   -0.012693
    29  H   -0.037690
    30  H   -0.027657
    31  H    0.583397
 Mulliken charges:
               1
     1  O   -0.343008
     2  C   -0.166425
     3  N    0.174563
     4  C   -0.118932
     5  C    0.066037
     6  O   -0.119484
     7  O   -0.379718
     8  C   -0.264171
     9  C    0.358693
    10  C   -0.402236
    11  N   -0.202602
    12  C    0.136790
    13  N    0.035717
    14  C    0.161719
    15  C   -0.147418
    16  N    0.063624
    17  H    0.185303
    18  H    0.128692
    19  H    0.223691
    20  H    0.067250
    21  H    0.096805
    22  H    0.089358
    23  H    0.121019
    24  H    0.145003
    25  H    0.092077
    26  H    0.062363
    27  H    0.128128
    28  H    0.110244
    29  H    0.164768
    30  H    0.395325
    31  H    0.136825
 Sum of Mulliken charges =   1.00000
 Mulliken charges with hydrogens summed into heavy atoms:
               1
     1  O   -0.343008
     2  C   -0.166425
     3  N    0.359865
     4  C    0.009760
     5  C    0.066037
     6  O    0.104207
     7  O   -0.379718
     8  C   -0.100116
     9  C    0.358693
    10  C   -0.312878
    11  N   -0.202602
    12  C    0.257809
    13  N    0.180720
    14  C    0.316159
    15  C    0.090955
    16  N    0.760542
 Electronic spatial extent (au):  <R**2>=           4006.1297
 Charge=              1.0000 electrons
 Dipole moment (field-independent basis, Debye):
    X=              4.3009    Y=             -1.5708    Z=             -1.3063  Tot=              4.7615
 Quadrupole moment (field-independent basis, Debye-Ang):
   XX=            -65.3034   YY=            -84.1602   ZZ=            -68.8400
   XY=            -12.5125   XZ=            -37.3421   YZ=              9.2293
 Traceless Quadrupole moment (field-independent basis, Debye-Ang):
   XX=              7.4645   YY=            -11.3923   ZZ=              3.9279
   XY=            -12.5125   XZ=            -37.3421   YZ=              9.2293
 Octapole moment (field-independent basis, Debye-Ang**2):
  XXX=            137.7649  YYY=             -2.7639  ZZZ=            -11.6271  XYY=             13.4892
  XXY=             -4.1287  XXZ=            -28.4867  XZZ=             40.1533  YZZ=            -13.4999
  YYZ=            -36.8976  XYZ=             -3.7583
 Hexadecapole moment (field-independent basis, Debye-Ang**3):
 XXXX=          -2944.7098 YYYY=           -702.7807 ZZZZ=           -910.6220 XXXY=             -9.0288
 XXXZ=           -316.7666 YYYX=            165.3338 YYYZ=            190.3219 ZZZX=            -88.8940
 ZZZY=            191.4534 XXYY=           -517.4772 XXZZ=           -699.6813 YYZZ=           -306.6034
 XXYZ=            150.5054 YYXZ=            -65.9007 ZZXY=             77.6035
 N-N= 1.172792389792D+03 E-N=-4.189661762904D+03  KE= 7.933688058347D+02
 Calling FoFJK, ICntrl=      2127 FMM=F ISym2X=0 I1Cent= 0 IOpClX= 0 NMat=1 NMatS=1 NMatT=0.
 -------------------------------------------------------------------
 Center     Atomic                   Forces (Hartrees/Bohr)
 Number     Number              X              Y              Z
 -------------------------------------------------------------------
      1        8          -0.007426973   -0.000769090   -0.009332723
      2        6           0.003725812   -0.001171773    0.004470001
      3        7           0.001172885    0.003081197    0.001889287
      4        6           0.000322858   -0.000322284    0.000138675
      5        6           0.004143779   -0.006883704   -0.003354019
      6        8          -0.001962250    0.003951669   -0.002408498
      7        8          -0.007589520    0.006775508    0.007210754
      8        6          -0.000507544   -0.001165672   -0.000325393
      9        6          -0.000975960    0.001484017   -0.003437327
     10        6           0.000811380   -0.001355787    0.002641177
     11        7           0.001953463    0.000722516    0.007916668
     12        6           0.000103198   -0.000342102   -0.001622672
     13        7          -0.000406289   -0.001087536   -0.002336940
     14        6           0.000863608    0.001088423   -0.000033161
     15        6           0.000394528   -0.000548922    0.000333501
     16        7          -0.000176551   -0.001717527   -0.000055523
     17        1           0.002708137   -0.000213792    0.001641110
     18        1           0.000322980   -0.002328658   -0.001837248
     19        1           0.002276143   -0.002402387   -0.001113872
     20        1           0.000699331    0.000835735   -0.002677077
     21        1          -0.000736511    0.002315366    0.001217330
     22        1          -0.000800920    0.002023002    0.001979690
     23        1           0.001574855   -0.002250905   -0.000277078
     24        1          -0.000170242   -0.000720081   -0.002816310
     25        1          -0.001139627   -0.002383714    0.000497604
     26        1           0.001642157    0.000304192    0.002402963
     27        1          -0.001368130   -0.000533442   -0.002390485
     28        1          -0.001318933    0.000305809    0.002449857
     29        1          -0.002321964    0.002272242    0.000096299
     30        1           0.002130592    0.000119932   -0.003196847
     31        1           0.002055709    0.000917766    0.002330256
 -------------------------------------------------------------------
 Cartesian Forces:  Max     0.009332723 RMS     0.002736759

 GradGradGradGradGradGradGradGradGradGradGradGradGradGradGradGradGradGrad
 Berny optimization.
 FormGI is forming the generalized inverse of G from B-inverse, IUseBI=4.
 Internal  Forces:  Max     0.012455157 RMS     0.002114164
 Search for a local minimum.
 Step number   1 out of a maximum of  167
 All quantities printed in internal units (Hartrees-Bohrs-Radians)
 Mixed Optimization -- RFO/linear search
 Second derivative matrix not updated -- first step.
 ITU=  0
     Eigenvalues ---    0.00137   0.00199   0.00255   0.00330   0.00423
     Eigenvalues ---    0.00512   0.00738   0.00860   0.00972   0.01269
     Eigenvalues ---    0.02064   0.02228   0.02591   0.03711   0.03961
     Eigenvalues ---    0.04004   0.04100   0.04232   0.04481   0.04701
     Eigenvalues ---    0.04783   0.04944   0.05129   0.05195   0.05323
     Eigenvalues ---    0.05433   0.06085   0.06383   0.07162   0.07345
     Eigenvalues ---    0.07923   0.08965   0.10185   0.10596   0.11029
     Eigenvalues ---    0.11211   0.11804   0.11970   0.12437   0.13305
     Eigenvalues ---    0.14743   0.15220   0.16168   0.16810   0.18192
     Eigenvalues ---    0.19745   0.20448   0.21254   0.21858   0.22302
     Eigenvalues ---    0.23123   0.23388   0.24326   0.24653   0.25368
     Eigenvalues ---    0.27146   0.27738   0.30211   0.30903   0.32517
     Eigenvalues ---    0.33530   0.33868   0.33949   0.33977   0.34534
     Eigenvalues ---    0.34748   0.34826   0.35211   0.35423   0.36839
     Eigenvalues ---    0.37172   0.37427   0.40118   0.43501   0.43667
     Eigenvalues ---    0.44601   0.45781   0.46437   0.46848   0.47254
     Eigenvalues ---    0.47864   0.50238   0.51938   0.58558   0.83448
     Eigenvalues ---    0.84232   1.29768
 RFO step:  Lambda=-1.61438815D-03 EMin= 1.36514659D-03
 Linear search not attempted -- first point.
 Iteration  1 RMS(Cart)=  0.05198264 RMS(Int)=  0.00082123
 Iteration  2 RMS(Cart)=  0.00133228 RMS(Int)=  0.00016839
 Iteration  3 RMS(Cart)=  0.00000082 RMS(Int)=  0.00016839
 Variable       Old X    -DE/DX   Delta X   Delta X   Delta X     New X
                                 (Linear)    (Quad)   (Total)
    R1        2.31318  -0.01190   0.00000  -0.01222  -0.01222   2.30096
    R2        2.57591  -0.00341   0.00000  -0.01215  -0.01215   2.56375
    R3        2.87837  -0.00199   0.00000  -0.00629  -0.00629   2.87208
    R4        2.72429  -0.00043   0.00000  -0.00456  -0.00456   2.71973
    R5        1.91861  -0.00305   0.00000  -0.00829  -0.00829   1.91032
    R6        2.90198  -0.00297   0.00000  -0.00563  -0.00563   2.89635
    R7        2.95013  -0.00160   0.00000  -0.00644  -0.00644   2.94370
    R8        2.07430  -0.00297   0.00000  -0.00883  -0.00883   2.06547
    R9        2.50563  -0.00375   0.00000  -0.00534  -0.00534   2.50030
   R10        2.30868  -0.01246   0.00000  -0.01567  -0.01567   2.29302
   R11        1.83222  -0.00340   0.00000  -0.00706  -0.00706   1.82516
   R12        2.81449  -0.00328   0.00000  -0.00833  -0.00833   2.80616
   R13        2.06909  -0.00287   0.00000  -0.00785  -0.00785   2.06124
   R14        2.06759  -0.00270   0.00000  -0.00770  -0.00770   2.05989
   R15        2.60819  -0.00680   0.00000  -0.01291  -0.01291   2.59528
   R16        2.61590  -0.00287   0.00000  -0.00631  -0.00631   2.60958
   R17        2.59915  -0.00261   0.00000  -0.00436  -0.00436   2.59479
   R18        2.04563  -0.00294   0.00000  -0.00806  -0.00806   2.03757
   R19        2.48441  -0.00605   0.00000  -0.01069  -0.01069   2.47372
   R20        2.58871  -0.00425   0.00000  -0.00622  -0.00622   2.58249
   R21        2.04257  -0.00276   0.00000  -0.00719  -0.00719   2.03537
   R22        1.90776  -0.00289   0.00000  -0.00603  -0.00603   1.90173
   R23        2.89199  -0.00095   0.00000  -0.00840  -0.00840   2.88359
   R24        2.06483  -0.00268   0.00000  -0.00717  -0.00717   2.05766
   R25        2.06926  -0.00288   0.00000  -0.00805  -0.00805   2.06121
   R26        2.86824  -0.00217   0.00000  -0.00567  -0.00567   2.86257
   R27        2.06084  -0.00272   0.00000  -0.00766  -0.00766   2.05318
   R28        2.06120  -0.00277   0.00000  -0.00759  -0.00759   2.05360
   R29        1.93430  -0.00324   0.00000  -0.00722  -0.00722   1.92708
   R30        2.02025  -0.00381   0.00000  -0.02119  -0.02119   1.99906
   R31        1.93365  -0.00324   0.00000  -0.00692  -0.00692   1.92673
    A1        2.13033  -0.00100   0.00000   0.00111   0.00097   2.13130
    A2        2.11400  -0.00042   0.00000  -0.00406  -0.00421   2.10979
    A3        2.01923   0.00176   0.00000   0.00859   0.00845   2.02768
    A4        2.07196   0.00290   0.00000   0.01386   0.01270   2.08466
    A5        2.14003  -0.00222   0.00000  -0.00519  -0.00639   2.13364
    A6        2.05185  -0.00072   0.00000   0.00765   0.00651   2.05836
    A7        1.89003   0.00107   0.00000   0.00399   0.00397   1.89400
    A8        1.91776   0.00017   0.00000   0.00340   0.00339   1.92115
    A9        1.93002  -0.00052   0.00000  -0.00416  -0.00415   1.92587
   A10        1.89774  -0.00084   0.00000   0.00203   0.00201   1.89975
   A11        1.90167   0.00000   0.00000  -0.00207  -0.00207   1.89961
   A12        1.92589   0.00012   0.00000  -0.00299  -0.00299   1.92290
   A13        2.04564   0.00100   0.00000   0.00151   0.00147   2.04710
   A14        2.15288  -0.00121   0.00000  -0.00449  -0.00453   2.14834
   A15        2.08082   0.00024   0.00000   0.00440   0.00436   2.08518
   A16        1.95566   0.00141   0.00000   0.01122   0.01122   1.96689
   A17        1.96252  -0.00034   0.00000  -0.00019  -0.00019   1.96233
   A18        1.89649   0.00013   0.00000  -0.00143  -0.00143   1.89506
   A19        1.89071   0.00050   0.00000   0.00615   0.00615   1.89686
   A20        1.95923  -0.00013   0.00000  -0.00223  -0.00223   1.95700
   A21        1.88711  -0.00009   0.00000  -0.00220  -0.00220   1.88491
   A22        1.86404  -0.00004   0.00000   0.00026   0.00026   1.86430
   A23        2.27700  -0.00035   0.00000  -0.00229  -0.00230   2.27470
   A24        2.17686   0.00013   0.00000   0.00027   0.00027   2.17713
   A25        1.82426   0.00023   0.00000   0.00256   0.00256   1.82682
   A26        1.93829  -0.00117   0.00000  -0.00464  -0.00464   1.93365
   A27        2.22294   0.00054   0.00000   0.00290   0.00289   2.22583
   A28        2.12087   0.00064   0.00000   0.00200   0.00199   2.12286
   A29        1.83840   0.00194   0.00000   0.00611   0.00611   1.84451
   A30        1.94999  -0.00158   0.00000  -0.00503  -0.00503   1.94496
   A31        2.19877   0.00077   0.00000   0.00274   0.00274   2.20152
   A32        2.13441   0.00081   0.00000   0.00227   0.00227   2.13668
   A33        1.87367   0.00058   0.00000   0.00108   0.00107   1.87475
   A34        2.21035   0.00003   0.00000   0.00164   0.00164   2.21199
   A35        2.19659  -0.00061   0.00000  -0.00233  -0.00234   2.19425
   A36        1.85320   0.00464   0.00000   0.00932   0.00931   1.86251
   A37        1.91724  -0.00131   0.00000  -0.00473  -0.00473   1.91251
   A38        1.97299  -0.00183   0.00000  -0.00356  -0.00358   1.96940
   A39        1.88088  -0.00152   0.00000  -0.00139  -0.00137   1.87950
   A40        1.94750  -0.00074   0.00000   0.00151   0.00151   1.94900
   A41        1.89001   0.00073   0.00000  -0.00111  -0.00112   1.88888
   A42        1.93363   0.00294   0.00000   0.00527   0.00526   1.93889
   A43        1.91223  -0.00023   0.00000   0.00311   0.00309   1.91532
   A44        1.96367  -0.00136   0.00000  -0.00433  -0.00432   1.95934
   A45        1.85349  -0.00083   0.00000   0.00131   0.00129   1.85477
   A46        1.87753  -0.00077   0.00000  -0.00095  -0.00094   1.87659
   A47        1.91988   0.00028   0.00000  -0.00420  -0.00420   1.91569
   A48        1.93132  -0.00040   0.00000  -0.00035  -0.00035   1.93097
   A49        1.97671   0.00035   0.00000   0.00129   0.00129   1.97800
   A50        1.93962   0.00006   0.00000   0.00115   0.00115   1.94077
   A51        1.86564  -0.00014   0.00000   0.00404   0.00404   1.86968
   A52        1.87196   0.00014   0.00000   0.00100   0.00100   1.87296
   A53        1.87372  -0.00001   0.00000  -0.00720  -0.00720   1.86652
    D1       -0.07188  -0.00044   0.00000  -0.04202  -0.04187  -0.11375
    D2        2.85436  -0.00072   0.00000   0.04864   0.04842   2.90278
    D3        2.86020   0.00128   0.00000  -0.01282  -0.01260   2.84760
    D4       -0.49675   0.00099   0.00000   0.07784   0.07769  -0.41906
    D5        1.04900   0.00004   0.00000  -0.02806  -0.02807   1.02093
    D6       -0.98022  -0.00004   0.00000  -0.02914  -0.02914  -1.00936
    D7       -3.09334   0.00119   0.00000  -0.02193  -0.02196  -3.11530
    D8       -1.88520  -0.00158   0.00000  -0.05762  -0.05760  -1.94280
    D9        2.36877  -0.00166   0.00000  -0.05870  -0.05867   2.31009
   D10        0.25564  -0.00043   0.00000  -0.05149  -0.05149   0.20415
   D11       -1.00892  -0.00094   0.00000   0.01012   0.01030  -0.99863
   D12       -3.07945  -0.00066   0.00000   0.00336   0.00352  -3.07593
   D13        1.07352  -0.00058   0.00000   0.00760   0.00777   1.08128
   D14        2.33713  -0.00045   0.00000  -0.07431  -0.07447   2.26266
   D15        0.26661  -0.00017   0.00000  -0.08107  -0.08125   0.18536
   D16       -1.86361  -0.00010   0.00000  -0.07683  -0.07700  -1.94061
   D17        2.77494  -0.00066   0.00000  -0.01253  -0.01252   2.76241
   D18       -0.46180  -0.00025   0.00000   0.00522   0.00520  -0.45660
   D19       -1.42506  -0.00032   0.00000  -0.00500  -0.00499  -1.43005
   D20        1.62138   0.00009   0.00000   0.01275   0.01274   1.63412
   D21        0.67473  -0.00067   0.00000  -0.00866  -0.00865   0.66608
   D22       -2.56201  -0.00026   0.00000   0.00909   0.00908  -2.55293
   D23       -0.81236   0.00036   0.00000   0.01340   0.01340  -0.79896
   D24       -2.99212   0.00067   0.00000   0.01745   0.01745  -2.97466
   D25        1.27213   0.00038   0.00000   0.01461   0.01462   1.28675
   D26       -2.87813  -0.00054   0.00000   0.00539   0.00538  -2.87275
   D27        1.22530  -0.00023   0.00000   0.00944   0.00944   1.23474
   D28       -0.79364  -0.00052   0.00000   0.00660   0.00660  -0.78704
   D29        1.32031  -0.00009   0.00000   0.00847   0.00847   1.32878
   D30       -0.85944   0.00022   0.00000   0.01252   0.01252  -0.84692
   D31       -2.87838  -0.00007   0.00000   0.00968   0.00968  -2.86870
   D32       -0.16588   0.00001   0.00000   0.01283   0.01287  -0.15301
   D33        3.06677  -0.00030   0.00000  -0.00365  -0.00369   3.06308
   D34        1.69131   0.00035   0.00000   0.03837   0.03836   1.72967
   D35       -1.32502   0.00023   0.00000   0.03154   0.03154  -1.29348
   D36       -2.44697   0.00017   0.00000   0.03466   0.03466  -2.41231
   D37        0.81989   0.00004   0.00000   0.02783   0.02784   0.84772
   D38       -0.39528  -0.00001   0.00000   0.03229   0.03229  -0.36298
   D39        2.87158  -0.00014   0.00000   0.02547   0.02547   2.89705
   D40       -3.04640   0.00008   0.00000  -0.00115  -0.00116  -3.04756
   D41        0.14513  -0.00004   0.00000  -0.00705  -0.00706   0.13807
   D42       -0.01108   0.00019   0.00000   0.00458   0.00457  -0.00650
   D43       -3.10273   0.00007   0.00000  -0.00132  -0.00133  -3.10406
   D44        3.05939  -0.00011   0.00000   0.00040   0.00039   3.05978
   D45       -0.15592  -0.00002   0.00000   0.00593   0.00593  -0.14998
   D46        0.01614  -0.00017   0.00000  -0.00469  -0.00471   0.01144
   D47        3.08403  -0.00008   0.00000   0.00084   0.00083   3.08486
   D48        0.00138  -0.00012   0.00000  -0.00257  -0.00257  -0.00119
   D49        3.09642   0.00000   0.00000   0.00297   0.00297   3.09939
   D50        0.00939  -0.00001   0.00000  -0.00061  -0.00061   0.00878
   D51       -3.12696   0.00008   0.00000   0.00171   0.00171  -3.12525
   D52       -0.01660   0.00013   0.00000   0.00351   0.00351  -0.01309
   D53       -3.08522   0.00001   0.00000  -0.00218  -0.00218  -3.08740
   D54        3.11998   0.00005   0.00000   0.00129   0.00129   3.12127
   D55        0.05136  -0.00007   0.00000  -0.00439  -0.00439   0.04697
   D56        1.02635   0.00024   0.00000   0.00021   0.00023   1.02658
   D57       -1.01294  -0.00035   0.00000  -0.00638  -0.00638  -1.01932
   D58        3.12878   0.00040   0.00000  -0.00025  -0.00025   3.12853
   D59        3.07992   0.00034   0.00000  -0.00118  -0.00117   3.07876
   D60        1.04063  -0.00025   0.00000  -0.00777  -0.00777   1.03285
   D61       -1.10084   0.00050   0.00000  -0.00164  -0.00164  -1.10248
   D62       -1.13052  -0.00015   0.00000  -0.00253  -0.00253  -1.13304
   D63        3.11337  -0.00073   0.00000  -0.00912  -0.00913   3.10424
   D64        0.97191   0.00001   0.00000  -0.00299  -0.00300   0.96891
   D65       -3.06431  -0.00041   0.00000   0.02329   0.02329  -3.04103
   D66       -0.96986  -0.00064   0.00000   0.02912   0.02912  -0.94074
   D67        1.14104  -0.00037   0.00000   0.02152   0.02152   1.16256
   D68       -0.98918   0.00041   0.00000   0.03065   0.03065  -0.95853
   D69        1.10528   0.00018   0.00000   0.03648   0.03648   1.14176
   D70       -3.06700   0.00046   0.00000   0.02888   0.02888  -3.03812
   D71        1.06596  -0.00007   0.00000   0.02597   0.02597   1.09193
   D72       -3.12277  -0.00030   0.00000   0.03180   0.03180  -3.09097
   D73       -1.01187  -0.00003   0.00000   0.02420   0.02420  -0.98767
         Item               Value     Threshold  Converged?
 Maximum Force            0.012455     0.000450     NO 
 RMS     Force            0.002114     0.000300     NO 
 Maximum Displacement     0.222272     0.001800     NO 
 RMS     Displacement     0.051822     0.001200     NO 
 Predicted change in Energy=-8.550165D-04
 GradGradGradGradGradGradGradGradGradGradGradGradGradGradGradGradGradGrad

                          Input orientation:                          
 ---------------------------------------------------------------------
 Center     Atomic      Atomic             Coordinates (Angstroms)
 Number     Number       Type             X           Y           Z
 ---------------------------------------------------------------------
      1          8           0        2.095103    1.158499    0.904232
      2          6           0        1.390123    0.960338   -0.068560
      3          7           0        0.166682    0.382873    0.032952
      4          6           0       -0.265723   -0.139947    1.302219
      5          6           0        0.757991   -1.177822    1.775435
      6          8           0        0.795348   -1.446371    3.070455
      7          8           0        1.464456   -1.806119    1.014830
      8          6           0       -1.652213   -0.833594    1.150410
      9          6           0       -2.610073   -0.018734    0.360725
     10          6           0       -2.974150   -0.107376   -0.960533
     11          7           0       -3.808222    0.926991   -1.306694
     12          6           0       -3.957627    1.640170   -0.219206
     13          7           0       -3.244011    1.117805    0.822650
     14          6           0        1.938690    1.125884   -1.476246
     15          6           0        3.122366    0.171009   -1.601081
     16          7           0        2.696894   -1.260590   -1.347822
     17          1           0       -0.501523    0.397965   -0.725459
     18          1           0       -0.324259    0.661391    2.043221
     19          1           0        0.248532   -0.844624    3.591727
     20          1           0       -2.034355   -1.067837    2.144823
     21          1           0       -1.512743   -1.783544    0.634325
     22          1           0       -2.709059   -0.879864   -1.664506
     23          1           0       -4.562251    2.525820   -0.118507
     24          1           0       -3.239359    1.468411    1.765940
     25          1           0        2.316193    2.139208   -1.603917
     26          1           0        1.189332    0.941373   -2.247051
     27          1           0        3.865122    0.406326   -0.843844
     28          1           0        3.578394    0.207267   -2.586822
     29          1           0        3.506913   -1.880036   -1.338882
     30          1           0        2.194444   -1.391520   -0.426156
     31          1           0        2.068583   -1.593247   -2.078651
 ---------------------------------------------------------------------
                    Distance matrix (angstroms):
                    1          2          3          4          5
     1  O    0.000000
     2  C    1.217615   0.000000
     3  N    2.253782   1.356680   0.000000
     4  C    2.723573   2.414847   1.439220   0.000000
     5  C    2.829357   2.893379   2.412813   1.532680   0.000000
     6  O    3.628668   3.999928   3.601081   2.441163   1.323099
     7  O    3.032969   2.971960   2.727634   2.419140   1.213412
     8  C    4.251048   3.736294   2.457007   1.557738   2.513609
     9  C    4.880570   4.140585   2.824729   2.529246   3.832590
    10  C    5.547712   4.580667   3.330492   3.529403   4.749764
    11  N    6.308014   5.343864   4.229725   4.527040   5.897463
    12  C    6.174922   5.392894   4.319063   4.371923   5.844376
    13  N    5.339892   4.721679   3.577230   3.268352   4.711022
    14  C    2.385834   1.519839   2.443309   3.765851   4.156266
    15  C    2.882186   2.443834   3.383936   4.472694   4.337105
    16  N    3.359447   2.876922   3.318053   4.129849   3.677081
    17  H    3.158603   2.079930   1.010897   2.111026   3.213091
    18  H    2.719875   2.736438   2.088007   1.093001   2.150739
    19  H    3.826873   4.237785   3.765412   2.450077   1.915591
    20  H    4.852634   4.554076   3.377739   2.167722   2.818819
[...]
 753,-0.00002076,-0.00002817,0.00001750,-0.00002614,0.00000997,0.000015
 19,-0.00000754,0.00002967,-0.00001822,0.00003429,0.00001421,0.00878659
 ,0.03067245,-0.05142251,-0.00230878,-0.00272590,-0.00068674,0.00110513
 ,-0.00082597,0.00074241,-0.00001297,0.00015838,-0.00017009,0.00014409,
 0.00015488,-0.00016872,0.00002745,-0.00000706,0.00004424,0.00008074,0.
 00006037,0.00003258,0.00000648,0.00000631,0.00000870,0.00001564,0.0000
 1209,-0.00000225,0.00000256,0.00000049,0.00000412,-0.00000164,0.000015
 81,0.00000125,-0.01296327,-0.03309038,0.05283759,0.00048848,-0.0003621
 6,0.00499646,0.01020508,0.00293795,0.00673718,-0.00060803,-0.00003018,
 0.00032089,0.00037392,0.00039136,-0.00031247,0.00005657,0.00010809,0.0
 0001162,-0.00001758,-0.00003184,-0.00002098,0.00008117,-0.00006965,-0.
 00004800,-0.00002202,-0.00001231,-0.00006077,0.00003582,0.00002385,0.0
 0006387,0.00005828,-0.00001087,-0.00006554,-0.00001006,0.00004363,-0.0
 0000504,-0.00001603,0.00000514,-0.00001641,0.00001003,-0.00003866,-0.0
 0000843,-0.17228743,-0.03453138,-0.12457050,-0.02003848,-0.00620758,-0
 .01854997,0.00165111,-0.00045272,0.00037736,0.00006140,-0.00039321,0.0
 0108329,0.00004140,0.00001982,0.00003506,0.00001034,0.00001339,-0.0000
 0896,0.00001229,0.00001657,0.00000301,0.00000255,0.00000694,-0.0000051
 3,-0.00001400,-0.00002032,0.00000412,-0.00000090,0.00000076,-0.0000018
 5,0.00000341,-0.00000063,0.00000441,-0.00667324,-0.00139561,-0.0067519
 3,0.18857717,0.00017021,0.00228738,0.00047714,0.00183815,-0.00276414,0
 .00230497,0.00023056,-0.00010375,0.00000211,0.00019941,0.00005575,0.00
 000856,-0.00005474,-0.00002160,0.00016804,-0.00000015,0.00001319,-0.00
 009943,0.00005768,0.00001642,-0.00013723,-0.00006992,0.00003166,-0.000
 04645,0.00001488,0.00001120,0.00001782,-0.00002254,0.00006545,-0.00002
 642,0.00000044,-0.00006438,0.00004312,0.00001520,-0.00004748,-0.000050
 28,0.00001520,-0.00000194,0.00003064,-0.03528668,-0.05938331,-0.035412
 98,0.01594999,0.00266520,0.01599457,-0.00043634,0.00221367,0.00049475,
 -0.00026238,0.00051208,0.00030356,0.00000450,0.00003187,-0.00003521,-0
 .00000417,-0.00000328,0.00002053,0.00002609,0.00000019,0.00000436,0.00
 000757,-0.00001206,0.00000295,-0.00002254,-0.00001438,-0.00001073,0.00
 000828,0.00000300,-0.00000603,-0.00000279,0.00000895,-0.00000255,-0.01
 996890,-0.00330686,-0.02152849,0.03550166,0.05952737,0.00318703,0.0018
 0438,-0.00894713,-0.02689237,-0.00866805,-0.01373750,0.00101959,0.0004
 7845,0.00217395,0.00017032,0.00023496,0.00019414,-0.00029514,-0.000317
 26,-0.00007965,0.00008988,-0.00000699,0.00014859,0.00005177,0.00019437
 ,0.00024644,-0.00007357,-0.00000652,0.00004115,0.00001338,-0.00004955,
 -0.00008228,-0.00007609,-0.00002191,0.00003096,-0.00000366,-0.00006481
 ,0.00003433,0.00002474,-0.00000100,0.00001516,-0.00001847,0.00007685,0
 .00004262,-0.12227614,-0.03387554,-0.17874109,0.00467358,0.00188250,0.
 00460111,-0.00005038,0.00034008,0.00005770,0.00167291,0.00026409,-0.00
 092227,-0.00013626,-0.00004346,0.00020387,-0.00005587,-0.00003728,-0.0
 0000937,-0.00001667,-0.00001028,0.00000420,0.00002101,0.00002283,-0.00
 000701,0.00004472,0.00004909,0.00000942,0.00000428,0.00000057,0.000003
 07,-0.00000952,-0.00000295,-0.00001898,0.00329985,0.00002001,0.0032178
 4,0.13519105,0.03804883,0.19096314,0.00270375,-0.00028267,0.00073919,-
 0.00230411,-0.00138740,-0.00382402,0.00061320,0.00046135,0.00029882,0.
 00004744,-0.00004551,0.00014940,-0.00017163,-0.00008496,0.00025448,0.0
 0001393,0.00003558,-0.00012437,0.00013149,0.00009218,-0.00005127,-0.00
 007226,-0.00000688,-0.00001061,0.00002263,0.00000571,-0.00001134,-0.00
 000874,0.00000519,-0.00003537,0.00001692,-0.00003603,0.00002620,0.0000
 0580,-0.00001344,-0.00000281,0.00000484,0.00003728,0.00003137,-0.02000
 981,-0.00269957,-0.01659062,-0.17614828,-0.04351330,-0.12747478,-0.005
 81908,-0.00440067,-0.00493851,0.00013458,0.00010546,-0.00011507,-0.000
 03644,-0.00000527,0.00000487,-0.00001982,-0.00001723,0.00003657,0.0000
 1559,-0.00000036,0.00000312,0.00000991,0.00000207,0.00000075,0.0000037
 2,0.00000645,-0.00000530,-0.00000045,0.00000119,0.00000062,-0.00001587
 ,0.00000381,0.00000272,0.00118605,-0.00030925,0.00009690,-0.00255390,0
 .00322046,0.00119168,0.18990744,-0.00084100,-0.00067029,-0.00062892,0.
 00024700,0.00053819,0.00174377,-0.00023826,0.00013062,-0.00029092,-0.0
 0009634,0.00002148,0.00000712,0.00015742,-0.00012954,-0.00016021,-0.00
 005029,0.00004315,0.00008217,-0.00015263,0.00008263,0.00040069,0.00001
 052,-0.00001742,-0.00001548,0.00000259,0.00001353,0.00002526,0.0000298
 3,-0.00000850,-0.00001675,0.00000202,0.00002983,-0.00001817,-0.0000105
 5,0.00001117,0.00000929,-0.00000030,-0.00001794,-0.00002110,0.01648424
 ,0.00465081,0.01500814,-0.03785500,-0.06074942,-0.03558468,-0.02715834
 ,-0.01900341,-0.02398821,-0.00021532,-0.00017538,0.00014791,0.00001498
 ,0.00000672,-0.00003186,0.00000923,0.00000231,0.00001720,0.00000339,0.
 00000637,-0.00000246,0.00000334,0.00000221,-0.00000042,-0.00000752,-0.
 00001625,0.00000570,-0.00000247,-0.00000061,0.00000059,0.00000032,-0.0
 0000016,0.00000649,-0.00041993,0.00087462,0.00038159,0.00391762,-0.002
 09620,-0.00157885,0.04551777,0.07867184,0.00017206,-0.00024137,-0.0007
 3313,0.00196954,0.00078660,0.00081281,-0.00072430,-0.00054507,-0.00032
 056,0.00004729,0.00006230,-0.00016996,-0.00001799,0.00021847,0.0000555
 8,0.00001129,-0.00006313,-0.00005056,0.00008033,-0.00017756,-0.0002429
 4,0.00004885,0.00001613,0.00002517,-0.00001866,-0.00000802,0.00000105,
 -0.00000461,0.00000324,0.00003433,-0.00001461,0.00001227,-0.00001553,0
 .00000218,0.00000442,0.00000016,-0.00000395,-0.00002884,-0.00001833,0.
 00164715,0.00181151,0.00271475,-0.13454110,-0.04509141,-0.18846686,0.0
 0825209,0.00472844,0.00734299,-0.00003641,-0.00004243,0.00016126,0.000
 03117,-0.00000833,0.00002532,0.00001906,0.00002500,-0.00003354,-0.0000
 1565,-0.00000308,-0.00000132,-0.00000957,-0.00000316,-0.00000401,0.000
 00012,0.00000127,0.00000113,0.00000231,-0.00000077,-0.00000060,0.00001
 527,-0.00000080,-0.00000454,-0.00057228,0.00038531,0.00044305,0.001360
 41,-0.00028983,0.00048402,0.14049043,0.04342799,0.19337337,0.00148508,
 -0.00073781,0.00072699,-0.00367053,0.00390269,-0.00306407,0.00000510,-
 0.00045565,0.00094949,-0.00004178,-0.00028384,-0.00020051,-0.00010575,
 -0.00000967,-0.00006343,0.00001809,-0.00003320,0.00007028,-0.00004163,
 -0.00002083,0.00027621,0.00005238,-0.00001434,0.00011103,-0.00000347,-
 0.00000170,0.00000847,0.00000834,0.00000776,0.00003955,-0.00001290,0.0
 0002263,-0.00003060,-0.00000113,0.00001298,0.00000620,-0.00000294,-0.0
 0003795,-0.00003832,-0.01138399,0.00126066,0.02376391,-0.09448153,-0.0
 0388412,0.09795794,-0.00461999,-0.00384063,0.00885765,0.00005881,0.000
 11331,0.00013913,0.00002313,0.00001118,-0.00000314,-0.00000746,0.00000
 865,-0.00002383,-0.00003987,-0.00001211,-0.00000675,-0.00000245,-0.000
 00171,-0.00000168,-0.00000625,-0.00000823,0.00000878,0.,-0.00000191,-0
 .00000057,0.00001144,-0.00000336,-0.00000175,0.00098855,-0.00026262,-0
 .00037863,0.00078014,-0.00103216,-0.00027601,0.01153194,0.00209796,-0.
 01932699,0.09903748,0.00015471,0.00058747,-0.00066726,0.00288579,-0.00
 328635,0.00194025,0.00068877,0.00089626,-0.00129327,0.00001377,0.00009
 652,0.00047311,0.00083776,-0.00115466,-0.00065022,-0.00024219,0.000251
 56,0.00049465,-0.00162163,0.00067033,0.00189859,-0.00003453,0.00007359
 ,-0.00015589,0.00000716,0.00000650,0.00001431,0.00002268,0.00000392,-0
 .00004558,0.00001063,0.00000637,0.00001236,-0.00001163,-0.00000770,-0.
 00001170,0.00000597,0.00002478,0.00001198,0.00788823,0.00137477,-0.019
 92288,-0.00028860,-0.04936814,-0.00255820,-0.01905078,-0.01225787,0.03
 740335,-0.00010427,-0.00010791,-0.00011884,-0.00004978,0.00003865,-0.0
 0006240,0.00003312,-0.00003672,0.00009120,0.00006125,0.00002631,0.0000
 0458,0.00003347,0.00000995,0.00001484,-0.00000619,-0.00000899,-0.00000
 079,-0.00000307,0.00000130,-0.00000063,-0.00001655,-0.00000167,0.00000
 986,-0.00065233,0.00057771,0.00001241,-0.00042125,0.00061724,0.0006456
 5,0.00423071,0.00151838,-0.00615254,0.00435714,0.06191232,0.00136637,-
 0.00013865,0.00069698,-0.00135261,0.00004612,-0.00080273,0.00026125,-0
 .00010748,0.00016588,-0.00001424,-0.00010779,0.00007219,-0.00006254,-0
 .00008420,0.00008045,-0.00000277,0.00002653,-0.00003721,-0.00004599,0.
 00000940,0.00010362,-0.00002893,-0.00000542,0.00001025,0.00001194,0.00
 000564,0.00000637,0.00000462,0.00000595,-0.00001659,0.00000936,-0.0000
 0638,0.00000142,-0.00000124,-0.00000289,0.00000204,0.00000338,0.000005
 87,0.00000185,-0.00137466,-0.00035569,0.00153261,0.10062297,0.00785372
 ,-0.28138818,-0.00000853,0.00057539,-0.00073005,-0.00000698,0.00002873
 ,-0.00001310,-0.00000782,0.00000415,-0.00000803,-0.00000665,-0.0000033
 3,0.00002027,0.00000035,0.00000025,0.00000101,0.00000358,0.00000106,0.
 00000195,-0.00000357,-0.00000399,-0.00000055,-0.00000095,0.00000015,0.
 00000005,-0.00000645,0.00000100,0.00000370,0.00039273,-0.00042218,0.00
 001599,0.00022830,-0.00013004,0.00062472,0.00939785,0.00062645,-0.0170
 2068,-0.10944109,-0.00865344,0.29565999,0.00004782,-0.00008116,-0.0003
 3243,-0.00059502,-0.00009693,0.00069575,0.00018450,0.00021278,-0.00013
 670,0.00009205,-0.00000339,0.00004331,-0.00037521,0.00036661,0.0008492
 2,0.00007122,0.00000434,-0.00054355,0.00079654,-0.00063029,-0.00054391
 ,-0.00006789,-0.00003229,-0.00000549,0.00001869,0.00002707,0.00001579,
 0.00000315,0.00002271,-0.00003855,0.00003856,-0.00003670,0.00000156,0.
 00000350,-0.00000873,0.00001069,0.00001471,0.00000554,0.00000765,-0.00
 084815,-0.00270444,0.00037542,0.01329853,-0.00551540,-0.00028943,-0.29
 057363,0.16411454,-0.01098431,-0.00006895,-0.00002656,-0.00000712,0.00
 000865,-0.00002591,-0.00000345,-0.00001706,0.00000850,0.00004925,0.000
 01459,-0.00000082,-0.00000109,-0.00001595,-0.00000671,-0.00000048,-0.0
 0001477,-0.00001027,-0.00000732,-0.00000421,0.00000018,0.00000055,-0.0
 0001937,0.00000839,0.00001477,0.00067549,-0.00064391,-0.00005196,0.000
 01882,0.00003262,0.00009243,0.00059673,-0.00046026,-0.00015014,0.00028
 141,-0.00018611,0.00017863,0.30745319,-0.00031792,0.00018387,-0.000171
 56,-0.00046245,0.00003078,0.00091020,-0.00020672,0.00023746,0.00015053
 ,0.00007211,0.00001354,-0.00014744,0.00026077,-0.00020690,-0.00052636,
 -0.00003490,-0.00001012,0.00038246,-0.00061456,-0.00039724,0.00113949,
 0.00005779,0.00002325,0.00001977,-0.00002550,-0.00002844,-0.00002019,-
 0.00001997,-0.00002145,0.00003951,-0.00002746,0.00001025,-0.00000312,0
 .00000392,0.00001288,0.00000225,-0.00001364,-0.00000652,-0.00000619,-0
 .00410923,-0.00561609,0.00105048,0.02634849,-0.01864182,0.00002971,0.1
 6915066,-0.17489117,0.00525447,0.00014966,-0.00011715,0.00000738,-0.00
 001720,-0.00000220,0.00004868,0.00002998,0.00002156,-0.00001629,-0.000
 01746,0.00000699,0.00000621,0.00000751,0.00002204,-0.00001363,0.000023
 44,0.00002190,0.00000333,0.00000393,0.00000058,-0.00000025,0.00001788,
 -0.00000163,-0.00001139,0.00163708,-0.00081072,-0.00022109,-0.00018835
 ,0.00028984,0.00018673,0.00000898,0.00112562,-0.00120161,0.00011868,0.
 00117941,0.00063663,-0.17689769,0.18479644,-0.00023997,0.00019003,-0.0
 0021178,0.00047616,0.00025795,0.00054237,-0.00018749,-0.00028656,-0.00
 017395,-0.00005466,0.00010526,0.00013405,0.00022809,-0.00013159,-0.000
 16071,-0.00012668,-0.00007031,-0.00005060,-0.00031034,0.00122430,-0.00
 136043,0.00005241,0.00002584,-0.00001014,-0.00000598,-0.00000235,0.000
 00025,0.00001053,0.00000056,0.00001737,-0.00001546,0.00002141,-0.00001
 776,-0.00000334,0.00000512,0.00000309,-0.00000452,-0.00001135,-0.00002
 346,0.00069837,0.00087151,-0.00031282,-0.00483758,0.00368882,-0.000686
 35,-0.00606827,0.00178450,-0.05837921,-0.00002239,0.00000355,-0.000028
 07,0.00000211,0.00003092,-0.00003463,0.00002770,-0.00002277,-0.0000410
 0,0.00000959,0.00000315,-0.00000588,0.00000821,-0.00000355,0.00001036,
 0.00000178,-0.00000018,0.00000680,0.00000044,-0.00000074,-0.00000004,0
 .00000672,-0.00000470,0.00000235,-0.00018294,0.00014158,0.00035883,0.0
 0023664,-0.00019535,0.00005046,0.00007444,-0.00103393,0.00039603,-0.00
 036298,0.00038544,-0.00052459,0.01031690,-0.00516222,0.05345556,-0.002
 77659,-0.00057383,0.00039089,0.00625479,0.00414055,-0.00136049,-0.0022
 7305,-0.00342146,0.00080067,0.00094048,0.00109195,-0.00078723,-0.00944
 154,0.01010266,0.00945932,0.00198897,-0.00176507,-0.00686617,0.0063423
 8,-0.00563028,-0.01067956,-0.00050083,-0.00055699,0.00014899,0.0001155
 4,0.00016792,-0.00006345,-0.00009498,0.00001060,-0.00028114,0.00022441
 ,-0.00035468,0.00016933,0.00008080,-0.00008968,0.00007642,0.00005303,0
 .00016396,0.00023660,0.00098819,0.00130995,-0.00038890,-0.00288176,-0.
 00699186,0.00322108,-0.11654648,-0.00719340,0.09231522,-0.00033663,0.0
 0036145,-0.00011455,0.00038495,-0.00037934,0.00024987,-0.00018296,0.00
 023941,-0.00037582,-0.00000832,-0.00006611,0.00003060,-0.00023657,-0.0
 0011873,-0.00005025,-0.00000673,0.00000911,-0.00007017,0.00000057,0.00
 000812,0.00001044,-0.00009500,0.00008109,0.00002770,-0.00062513,0.0002
 0321,0.00019493,-0.00016793,0.00001503,0.00000359,-0.00045746,0.000210
 63,-0.00002913,0.00034310,0.00109098,-0.00038368,-0.01356228,-0.002545
 29,0.02481440,0.11725103,-0.00157912,0.00049368,-0.00038518,0.00389149
 ,-0.00313507,0.00041665,-0.00102195,-0.00045771,0.00003623,0.00086595,
 -0.00018938,-0.00151669,-0.00265677,0.00431859,-0.00010272,0.00164953,
 -0.00068357,-0.00233137,0.00284550,-0.01044401,-0.00021286,-0.00009890
 ,-0.00006999,0.00014328,-0.00004754,-0.00001424,-0.00006235,-0.0001093
 9,-0.00001075,0.00005806,0.00003042,-0.00012287,0.00002419,0.00005211,
 -0.00000370,0.00003899,-0.00000829,-0.00002409,0.00004748,0.00035050,0
 .00129824,0.00066523,-0.01475443,-0.00171222,0.02801468,-0.01218328,-0
 .06603367,0.02180738,0.00027861,0.00003358,0.00036160,0.00013111,-0.00
 026692,0.00035317,0.00002932,0.00028850,-0.00028004,-0.00008719,-0.000
 03898,0.00002252,-0.00012495,-0.00001005,-0.00006262,0.00002655,0.0000
 4043,-0.00001982,0.00001187,0.00000232,0.00000252,0.00001771,0.0000311
 7,-0.00002342,-0.00031651,0.00032468,-0.00018522,0.00011679,-0.0001349
 8,-0.00004449,-0.00012075,0.00099279,-0.00030522,-0.00141422,-0.005461
 65,-0.00017298,0.00939560,0.00314035,-0.02105267,0.00680779,0.07664410
 ,0.00058542,0.00217730,-0.00358659,-0.00230189,-0.00212576,0.00708452,
 0.00188085,0.00115708,-0.00273638,-0.00242833,-0.00161846,0.00259380,0
 .01435113,-0.01815771,-0.01693909,-0.00288060,0.00288861,0.01120305,-0
 .02063849,0.00985438,0.00936276,0.00093630,0.00145120,-0.00032375,-0.0
 0029601,-0.00022118,0.00014558,0.00023952,0.00010314,0.00044594,-0.000
 32207,0.00060657,-0.00030191,-0.00015161,0.00009238,-0.00020002,-0.000
 02821,-0.00036316,-0.00040968,-0.00048836,-0.00125126,-0.00066194,-0.0
 0032644,0.01226625,0.00287299,0.09135436,0.01290168,-0.23251874,-0.000
 48998,0.00046608,0.00010659,-0.00042697,0.00068251,-0.00066518,0.00114
 452,-0.00013068,0.00036708,0.00011533,0.00003476,-0.00010586,0.0002781
 1,0.00003020,0.00018014,-0.00008873,-0.00008899,0.00006734,-0.00000483
 ,-0.00001277,-0.00002201,0.00013765,-0.00012221,0.00000244,0.00065258,
 -0.00039098,-0.00025568,0.00007790,0.00020320,-0.00046140,-0.00035725,
 -0.00106477,0.00099060,-0.00038974,-0.00354405,0.00092943,-0.00128556,
 -0.00302495,0.00688961,-0.08891694,-0.01417634,0.23615967,-0.00070265,
 0.00019490,-0.00039573,0.00133284,0.00042950,0.00035211,-0.00045490,-0
 .00078484,-0.00020424,-0.00018910,-0.00011185,0.00017147,0.00045886,-0
 .00052920,-0.00030964,-0.00006566,0.00014596,0.00023687,-0.00196105,-0
 .00046022,0.00096876,0.00006237,0.00016467,0.00003871,-0.00002268,0.00
 003127,0.00007632,0.00002350,0.00013054,0.00006100,0.00002209,-0.00000
 308,-0.00006100,-0.00000431,-0.00002509,-0.00002912,0.00002840,-0.0001
 1448,-0.00007804,0.00185017,0.00056872,0.00117915,-0.00557653,-0.00540
 959,-0.00481479,-0.18160441,-0.06296794,-0.15005834,-0.00023986,0.0004
 2258,0.00021074,-0.00000613,0.00002373,-0.00006557,0.00008673,0.000026
 62,0.00004712,0.00000500,-0.00002949,-0.00003144,-0.00002102,-0.000059
 07,0.00003708,-0.00008625,-0.00005319,-0.00001453,-0.00000125,-0.00000
 149,-0.00000838,0.00000724,0.00000484,0.00002113,-0.00040044,0.0001099
 7,-0.00009188,-0.00005840,-0.00014463,-0.00057166,0.00067187,-0.001200
 68,0.00131586,-0.00020333,0.00036677,0.00026736,-0.01745567,-0.0123925
 3,-0.02454190,0.01522602,0.00802245,0.01006833,0.18927857,0.00030390,-
 0.00004356,0.00073368,0.00002777,-0.00019227,-0.00124573,-0.00026390,0
 .00016036,0.00037429,0.00010633,0.00013496,-0.00026456,-0.00007038,0.0
 0008914,-0.00019570,0.00004306,-0.00006919,0.00018362,-0.00060460,-0.0
 0050588,0.00041264,0.00008251,0.00006733,0.00006620,-0.00004607,-0.000
 03353,-0.00003644,-0.00006116,0.00000909,0.00008943,-0.00002774,-0.000
 03001,-0.00000633,0.00001800,0.00000243,0.00000049,-0.00001339,-0.0000
 2636,-0.00001067,-0.00037624,0.00126142,-0.00081902,-0.02143736,-0.011
 19305,-0.02573544,-0.06895361,-0.09627841,-0.08845684,0.00032652,-0.00
 010117,-0.00006621,-0.00001247,-0.00002508,0.00008875,0.00002681,0.000
 04199,-0.00004395,-0.00003012,-0.00001403,-0.00000007,-0.00001853,0.00
 000791,-0.00000431,0.00002498,0.00004436,-0.00000664,0.00000917,0.0000
 0107,-0.00000250,0.00002642,0.00000511,-0.00001452,0.00003956,0.000290
 73,0.00055685,0.00106315,-0.00039613,0.00047956,-0.00081091,-0.0058371
 6,0.00268022,0.00014245,0.00181831,0.00036743,0.01316870,0.00963471,0.
 01923832,0.00367231,0.00120542,0.00137792,0.07364486,0.09997148,0.0002
 7618,0.00003147,0.00018683,-0.00087497,-0.00067010,-0.00047110,0.00004
 792,0.00073467,0.00028310,0.00001191,0.00005735,-0.00015146,0.00058912
 ,-0.00035159,-0.00074167,-0.00016588,-0.00003316,0.00050118,0.00083989
 ,0.00103246,0.00054848,0.00010858,-0.00003146,0.00001364,-0.00000416,-
 0.00002449,0.00001323,0.00000450,0.00000341,0.00008115,-0.00004674,0.0
 0004762,-0.00005575,-0.00000560,0.00003457,0.00001863,-0.00002538,-0.0
 0004748,-0.00008059,0.00088579,-0.00029698,0.00020491,0.00625485,0.000
 99006,0.00871477,-0.15538838,-0.08398814,-0.24672612,0.00027861,-0.000
 23775,0.00006983,-0.00003970,0.00001477,0.00004645,-0.00002568,-0.0000
 4958,-0.00003473,-0.00002752,0.00001585,-0.00000228,0.00003991,0.00003
 489,-0.00000013,0.00000890,0.00000170,0.00003949,0.00000286,-0.0000023
 7,-0.00000169,0.00002721,-0.00001158,-0.00000946,-0.00007424,0.0000685
 1,-0.00005392,-0.00030560,-0.00015411,-0.00014022,0.00074191,0.0025463
 6,0.00022094,0.00069448,0.00042512,0.00061095,0.00172960,0.00065846,0.
 00015427,-0.02178259,-0.01105801,-0.02021330,0.16622422,0.09025953,0.2
 5697455\\0.00000316,0.00000091,0.00000339,0.00000010,-0.00000007,-0.00
 000337,-0.00000262,0.00000052,0.00000074,-0.00000038,-0.00000238,0.000
 00125,-0.00000205,0.00000246,0.00000140,0.00000128,-0.00000290,0.00000
 003,0.00000338,-0.00000360,-0.00000407,0.00000086,-0.00000055,-0.00000
 001,0.00000031,-0.00000139,0.00000222,-0.00000027,0.00000060,-0.000001
 01,-0.00000118,-0.00000044,-0.00000204,-0.00000049,-0.00000017,0.00000
 230,0.00000010,0.00000009,0.00000190,-0.00000053,0.00000105,0.00000071
 ,-0.00000060,0.00000123,-0.00000027,-0.00000022,0.00000109,-0.00000023
 ,-0.00000049,-0.00000032,-0.00000128,0.00000017,-0.00000013,0.00000081
 ,-0.00000018,-0.00000082,-0.00000009,0.00000017,-0.00000162,0.00000087
 ,0.00000026,-0.00000136,-0.00000111,0.00000010,-0.00000043,-0.00000069
 ,-0.00000091,0.00000038,0.00000198,0.00000016,-0.00000106,0.00000223,0
 .00000002,0.00000195,0.00000044,-0.00000118,0.00000116,-0.00000071,0.0
 0000011,0.00000162,0.00000065,0.00000023,0.00000167,-0.00000130,0.0000
 0086,0.00000039,-0.00000154,0.00000058,0.00000119,-0.00000151,-0.00000
 077,0.00000094,-0.00000170\\\@


 THE GREAT THING ABOUT BEING IMPERFECT IS THE JOY IT BRINGS OTHERS.
   -- SIGN OUTSIDE LAKE AGASSIZ JR. HIGH SCHOOL, FARGO, N.D.
 Job cpu time:       1 days  5 hours 50 minutes 44.8 seconds.
 File lengths (MBytes):  RWF=   1351 Int=      0 D2E=      0 Chk=     46 Scr=      1
 Normal termination of Gaussian 09 at Thu Jul 29 12:24:47 2021.
