 Entering Gaussian System, Link 0=g09
 Input=opt_freq-conf-318.com
 Output=opt_freq-conf-318.log
 Initial command:
 /aerosol/software/g09/l1.exe "/scratch/nicole/10766/Gau-635725.inp" -scrdir="/scratch/nicole/10766/"
 Entering Link 1 = /aerosol/software/g09/l1.exe PID=    635726.
  
 Copyright (c) 1988,1990,1992,1993,1995,1998,2003,2009,2013,
            Gaussian, Inc.  All Rights Reserved.
  
 This is part of the Gaussian(R) 09 program.  It is based on
 the Gaussian(R) 03 system (copyright 2003, Gaussian, Inc.),
 the Gaussian(R) 98 system (copyright 1998, Gaussian, Inc.),
 the Gaussian(R) 94 system (copyright 1995, Gaussian, Inc.),
 the Gaussian 92(TM) system (copyright 1992, Gaussian, Inc.),
 the Gaussian 90(TM) system (copyright 1990, Gaussian, Inc.),
 the Gaussian 88(TM) system (copyright 1988, Gaussian, Inc.),
 the Gaussian 86(TM) system (copyright 1986, Carnegie Mellon
 University), and the Gaussian 82(TM) system (copyright 1983,
 Carnegie Mellon University). Gaussian is a federally registered
 trademark of Gaussian, Inc.
  
 This software contains proprietary and confidential information,
 including trade secrets, belonging to Gaussian, Inc.
  
 This software is provided under written license and may be
 used, copied, transmitted, or stored only in accord with that
 written license.
  
 The following legend is applicable only to US Government
 contracts under FAR:
  
                    RESTRICTED RIGHTS LEGEND
  
 Use, reproduction and disclosure by the US Government is
 subject to restrictions as set forth in subparagraphs (a)
 and (c) of the Commercial Computer Software - Restricted
 Rights clause in FAR 52.227-19.
  
 Gaussian, Inc.
 340 Quinnipiac St., Bldg. 40, Wallingford CT 06492
  
  
 ---------------------------------------------------------------
 Warning -- This program may not be used in any manner that
 competes with the business of Gaussian, Inc. or will provide
 assistance to any competitor of Gaussian, Inc.  The licensee
 of this program is prohibited from giving any competitor of
 Gaussian, Inc. access to this program.  By using this program,
 the user acknowledges that Gaussian, Inc. is engaged in the
 business of creating and licensing software in the field of
 computational chemistry and represents and warrants to the
 licensee that it is not a competitor of Gaussian, Inc. and that
 it will not use this program in any manner prohibited above.
 ---------------------------------------------------------------
  

 Cite this work as:
 Gaussian 09, Revision D.01,
 M. J. Frisch, G. W. Trucks, H. B. Schlegel, G. E. Scuseria, 
 M. A. Robb, J. R. Cheeseman, G. Scalmani, V. Barone, B. Mennucci, 
 G. A. Petersson, H. Nakatsuji, M. Caricato, X. Li, H. P. Hratchian, 
 A. F. Izmaylov, J. Bloino, G. Zheng, J. L. Sonnenberg, M. Hada, 
 M. Ehara, K. Toyota, R. Fukuda, J. Hasegawa, M. Ishida, T. Nakajima, 
 Y. Honda, O. Kitao, H. Nakai, T. Vreven, J. A. Montgomery, Jr., 
 J. E. Peralta, F. Ogliaro, M. Bearpark, J. J. Heyd, E. Brothers, 
 K. N. Kudin, V. N. Staroverov, T. Keith, R. Kobayashi, J. Normand, 
 K. Raghavachari, A. Rendell, J. C. Burant, S. S. Iyengar, J. Tomasi, 
 M. Cossi, N. Rega, J. M. Millam, M. Klene, J. E. Knox, J. B. Cross, 
 V. Bakken, C. Adamo, J. Jaramillo, R. Gomperts, R. E. Stratmann, 
 O. Yazyev, A. J. Austin, R. Cammi, C. Pomelli, J. W. Ochterski, 
 R. L. Martin, K. Morokuma, V. G. Zakrzewski, G. A. Voth, 
 P. Salvador, J. J. Dannenberg, S. Dapprich, A. D. Daniels, 
 O. Farkas, J. B. Foresman, J. V. Ortiz, J. Cioslowski, 
 and D. J. Fox, Gaussian, Inc., Wallingford CT, 2013.
 
 ******************************************
 Gaussian 09:  ES64L-G09RevD.01 24-Apr-2013
                30-Jul-2021 
 ******************************************
 %mem=2gb
 %nproc=4
 Will use up to    4 processors via shared memory.
 %chk=conf-318.chk
 ----------------------------------------------------------------------
 # B3LYP/6-311++G(2df,2pd) EmpiricalDispersion=GD3BJ guess=read geom=ch
 eckpoint opt=readfc freq=noraman nosymm integral(ultrafinegrid)
 ----------------------------------------------------------------------
 1/10=3,14=-1,18=20,19=15,26=4,29=2,38=1/1,3;
 2/9=110,12=2,15=1,40=1/2;
 3/5=4,6=6,7=1414,11=2,14=-4,16=1,25=1,30=1,71=1,74=-5,75=-5,116=-2,124=41/1,2,3;
 4/5=1/1;
 5/5=2,38=6/2;
 6/7=2,8=2,9=2,10=2,28=1/1;
 7/30=1/1,2,3,16;
 1/14=-1,18=20,19=15,26=4/3(2);
 2/9=110,15=1/2;
 99//99;
 2/9=110,15=1/2;
 3/5=4,6=6,7=1414,11=2,14=-2,16=1,25=1,30=1,71=1,74=-5,75=-5,124=41/1,2,3;
 4/5=5,16=3,69=1/1;
 5/5=2,38=5/2;
 7/30=1/1,2,3,16;
 1/14=-1,18=20,19=15,26=4/3(-5);
 2/9=110,15=1/2;
 6/7=2,8=2,9=2,10=2,19=2,28=1/1;
 99/9=1/99;
 ------------------------------------------------------------
 Candidate Structure: Conf:318 OPT and FREQ calc in gas phase
 ------------------------------------------------------------
 Structure from the checkpoint file:  "conf-318.chk"
 Charge =  1 Multiplicity = 1
 Redundant internal coordinates found in file.
 O,0,0.7076737143,0.6091273089,1.2960408013
 C,0,0.8469797377,-0.440149803,0.6860240162
 N,0,-0.0987379723,-1.3999480919,0.6214734977
 C,0,-1.4433333161,-1.1865862308,1.1078437015
 C,0,-2.0241456743,-2.5728692879,1.406117662
 O,0,-2.9084384937,-2.6728727769,2.4087018409
 O,0,-1.7308050984,-3.5194197823,0.7341503909
 C,0,-2.3648636735,-0.497129277,0.0334728001
 C,0,-1.6732404929,0.6578755097,-0.5781400234
 C,0,-0.7236097449,0.6798710713,-1.5605018739
 N,0,-0.0755638768,1.8962561468,-1.5705380292
 C,0,-0.6493199284,2.6198192231,-0.6271852448
 N,0,-1.6267087342,1.9172634627,-0.0179193477
 C,0,2.1639008139,-0.7580841832,-0.0321171521
 C,0,3.0243141541,0.4807074493,-0.2130780763
 N,0,2.6146447326,1.3162244464,-1.4039601185
 H,0,0.0467961487,-2.2437020167,0.0907711493
 H,0,-1.385630188,-0.5602801576,1.9963983852
 H,0,-2.9870886937,-1.8557661244,2.9142956105
 H,0,-2.5947625663,-1.2348646124,-0.732717876
 H,0,-3.3042781085,-0.205679562,0.5050991157
 H,0,-0.4633693716,-0.1126543671,-2.2409952573
 H,0,-0.3969387562,3.631396406,-0.3616485067
 H,0,-2.1836889002,2.244440457,0.7540493825
 H,0,1.9887924378,-1.2745720129,-0.9778682442
 H,0,2.7225625687,-1.4537890607,0.5968314838
 H,0,4.0685332383,0.2193352573,-0.3613258898
 H,0,2.9256679979,1.1191065381,0.6603293211
 H,0,2.7847180063,0.8184092648,-2.2772820614
 H,0,3.1624631621,2.1748934099,-1.4390341822
 H,0,1.5774290478,1.6038832656,-1.4170866552
 Recover connectivity data from disk.

 GradGradGradGradGradGradGradGradGradGradGradGradGradGradGradGradGradGrad
 Berny optimization.
 Initialization pass.
 Force constant matrix read from checkpoint file:
 "conf-318.chk"
                           ----------------------------
                           !    Initial Parameters    !
                           ! (Angstroms and Degrees)  !
 --------------------------                            --------------------------
 ! Name  Definition              Value          Derivative Info.                !
 --------------------------------------------------------------------------------
 ! R1    R(1,2)                  1.2217         D2E/DX2 =    0.8085             !
 ! R2    R(2,3)                  1.349          D2E/DX2 =    0.4915             !
 ! R3    R(2,14)                 1.5333         D2E/DX2 =    0.3232             !
 ! R4    R(3,4)                  1.4457         D2E/DX2 =    0.3748             !
 ! R5    R(3,17)                 1.0073         D2E/DX2 =    0.4781             !
 ! R6    R(4,5)                  1.5323         D2E/DX2 =    0.2681             !
 ! R7    R(4,8)                  1.5744         D2E/DX2 =    0.3193             !
 ! R8    R(4,18)                 1.0886         D2E/DX2 =    0.3278             !
 ! R9    R(5,6)                  1.3406         D2E/DX2 =    0.4514             !
 ! R10   R(5,7)                  1.1973         D2E/DX2 =    0.8735             !
 ! R11   R(6,19)                 0.9641         D2E/DX2 =    0.5164             !
 ! R12   R(8,9)                  1.4787         D2E/DX2 =    0.3836             !
 ! R13   R(8,20)                 1.0882         D2E/DX2 =    0.3345             !
 ! R14   R(8,21)                 1.0908         D2E/DX2 =    0.3453             !
 ! R15   R(9,10)                 1.3665         D2E/DX2 =    0.4406             !
 ! R16   R(9,13)                 1.3792         D2E/DX2 =    0.3666             !
 ! R17   R(10,11)                1.3783         D2E/DX2 =    0.3595             !
 ! R18   R(10,22)                1.0765         D2E/DX2 =    0.3767             !
 ! R19   R(11,12)                1.3201         D2E/DX2 =    0.452              !
 ! R20   R(12,13)                1.3491         D2E/DX2 =    0.418              !
 ! R21   R(12,23)                1.0759         D2E/DX2 =    0.3778             !
 ! R22   R(13,24)                1.0066         D2E/DX2 =    0.4747             !
 ! R23   R(14,15)                1.5191         D2E/DX2 =    0.3081             !
 ! R24   R(14,25)                1.0917         D2E/DX2 =    0.3345             !
 ! R25   R(14,26)                1.0916         D2E/DX2 =    0.3391             !
 ! R26   R(15,16)                1.5113         D2E/DX2 =    0.2747             !
 ! R27   R(15,27)                1.0866         D2E/DX2 =    0.3474             !
 ! R28   R(15,28)                1.0863         D2E/DX2 =    0.3477             !
 ! R29   R(16,29)                1.0195         D2E/DX2 =    0.4352             !
 ! R30   R(16,30)                1.0191         D2E/DX2 =    0.4363             !
 ! R31   R(16,31)                1.0764         D2E/DX2 =    0.2374             !
 ! A1    A(1,2,3)              123.7136         D2E/DX2 =    0.2096             !
 ! A2    A(1,2,14)             120.6561         D2E/DX2 =    0.193              !
 ! A3    A(3,2,14)             115.6057         D2E/DX2 =    0.2569             !
 ! A4    A(2,3,4)              122.0684         D2E/DX2 =    0.4659             !
 ! A5    A(2,3,17)             121.3239         D2E/DX2 =    0.1752             !
 ! A6    A(4,3,17)             115.7998         D2E/DX2 =    0.1916             !
 ! A7    A(3,4,5)              106.5289         D2E/DX2 =    0.2489             !
 ! A8    A(3,4,8)              112.2987         D2E/DX2 =    0.8067             !
 ! A9    A(3,4,18)             108.0716         D2E/DX2 =    0.0675             !
 ! A10   A(5,4,8)              107.887          D2E/DX2 =    0.232              !
 ! A11   A(5,4,18)             112.4384         D2E/DX2 =    0.0533             !
 ! A12   A(8,4,18)             109.6371         D2E/DX2 =    0.0532             !
 ! A13   A(4,5,6)              117.5864         D2E/DX2 =    0.1766             !
 ! A14   A(4,5,7)              120.8705         D2E/DX2 =    0.2036             !
 ! A15   A(6,5,7)              121.4912         D2E/DX2 =    0.2031             !
 ! A16   A(5,6,19)             112.5068         D2E/DX2 =    0.1711             !
 ! A17   A(4,8,9)              110.5202         D2E/DX2 =    1.1289             !
 ! A18   A(4,8,20)             107.8932         D2E/DX2 =    0.1253             !
 ! A19   A(4,8,21)             109.0284         D2E/DX2 =    0.1612             !
 ! A20   A(9,8,20)             109.7027         D2E/DX2 =    0.115              !
 ! A21   A(9,8,21)             111.8976         D2E/DX2 =    0.1992             !
 ! A22   A(20,8,21)            107.675          D2E/DX2 =    0.0394             !
 ! A23   A(8,9,10)             129.4178         D2E/DX2 =    0.1885             !
 ! A24   A(8,9,13)             124.1281         D2E/DX2 =    0.1851             !
 ! A25   A(10,9,13)            104.7068         D2E/DX2 =    0.1069             !
 ! A26   A(9,10,11)            110.2544         D2E/DX2 =    0.1234             !
 ! A27   A(9,10,22)            127.631          D2E/DX2 =    0.0861             !
 ! A28   A(11,10,22)           122.1036         D2E/DX2 =    0.0923             !
 ! A29   A(10,11,12)           105.9126         D2E/DX2 =    0.1466             !
 ! A30   A(11,12,13)           110.62           D2E/DX2 =    0.1244             !
 ! A31   A(11,12,23)           126.1411         D2E/DX2 =    0.0905             !
 ! A32   A(13,12,23)           123.2385         D2E/DX2 =    0.0912             !
 ! A33   A(9,13,12)            108.4533         D2E/DX2 =    0.1097             !
 ! A34   A(9,13,24)            126.1335         D2E/DX2 =    0.0816             !
 ! A35   A(12,13,24)           125.3072         D2E/DX2 =    0.0824             !
 ! A36   A(2,14,15)            111.9108         D2E/DX2 =    0.461              !
 ! A37   A(2,14,25)            111.4733         D2E/DX2 =    0.0788             !
 ! A38   A(2,14,26)            107.568          D2E/DX2 =    0.0953             !
 ! A39   A(15,14,25)           111.9284         D2E/DX2 =    0.0798             !
 ! A40   A(15,14,26)           107.3661         D2E/DX2 =    0.1226             !
 ! A41   A(25,14,26)           106.2419         D2E/DX2 =    0.028              !
 ! A42   A(14,15,16)           113.0267         D2E/DX2 =    0.3403             !
 ! A43   A(14,15,27)           111.3709         D2E/DX2 =    0.0679             !
 ! A44   A(14,15,28)           109.3913         D2E/DX2 =    0.0578             !
 ! A45   A(16,15,27)           106.6168         D2E/DX2 =    0.0913             !
 ! A46   A(16,15,28)           106.5007         D2E/DX2 =    0.0739             !
 ! A47   A(27,15,28)           109.7742         D2E/DX2 =    0.0233             !
 ! A48   A(15,16,29)           111.0888         D2E/DX2 =    0.099              !
 ! A49   A(15,16,30)           110.3161         D2E/DX2 =    0.1006             !
 ! A50   A(15,16,31)           114.7418         D2E/DX2 =    0.1738             !
 ! A51   A(29,16,30)           106.9926         D2E/DX2 =    0.0528             !
 ! A52   A(29,16,31)           106.3064         D2E/DX2 =    0.065              !
 ! A53   A(30,16,31)           106.9997         D2E/DX2 =    0.0621             !
 ! D1    D(1,2,3,4)              9.3732         D2E/DX2 =    0.0625             !
 ! D2    D(1,2,3,17)           178.6457         D2E/DX2 =    0.0393             !
 ! D3    D(14,2,3,4)          -172.425          D2E/DX2 =    0.2363             !
 ! D4    D(14,2,3,17)           -3.1525         D2E/DX2 =    0.0673             !
 ! D5    D(1,2,14,15)          -16.1525         D2E/DX2 =    0.0386             !
 ! D6    D(1,2,14,25)         -142.3641         D2E/DX2 =    0.0397             !
 ! D7    D(1,2,14,26)          101.5446         D2E/DX2 =    0.0214             !
 ! D8    D(3,2,14,15)          165.5863         D2E/DX2 =    0.1522             !
 ! D9    D(3,2,14,25)           39.3747         D2E/DX2 =    0.0385             !
 ! D10   D(3,2,14,26)          -76.7166         D2E/DX2 =    0.0672             !
 ! D11   D(2,3,4,5)           -157.2216         D2E/DX2 =    0.0668             !
 ! D12   D(2,3,4,8)             84.8752         D2E/DX2 =    0.2122             !
 ! D13   D(2,3,4,18)           -36.1817         D2E/DX2 =    0.0359             !
 ! D14   D(17,3,4,5)            32.9508         D2E/DX2 =    0.0238             !
 ! D15   D(17,3,4,8)           -84.9523         D2E/DX2 =    0.0645             !
 ! D16   D(17,3,4,18)          153.9908         D2E/DX2 =    0.0432             !
 ! D17   D(3,4,5,6)            148.2275         D2E/DX2 =    0.135              !
 ! D18   D(3,4,5,7)            -34.353          D2E/DX2 =    0.121              !
 ! D19   D(8,4,5,6)            -90.9974         D2E/DX2 =    0.0941             !
 ! D20   D(8,4,5,7)             86.4221         D2E/DX2 =    0.1019             !
 ! D21   D(18,4,5,6)            30.0223         D2E/DX2 =    0.0165             !
 ! D22   D(18,4,5,7)          -152.5582         D2E/DX2 =    0.0172             !
 ! D23   D(3,4,8,9)            -46.9142         D2E/DX2 =    0.1284             !
 ! D24   D(3,4,8,20)            73.0276         D2E/DX2 =    0.0385             !
 ! D25   D(3,4,8,21)          -170.3031         D2E/DX2 =    0.0807             !
 ! D26   D(5,4,8,9)           -164.0093         D2E/DX2 =    0.0498             !
 ! D27   D(5,4,8,20)           -44.0675         D2E/DX2 =    0.0334             !
 ! D28   D(5,4,8,21)            72.6018         D2E/DX2 =    0.0266             !
 ! D29   D(18,4,8,9)            73.2389         D2E/DX2 =    0.0391             !
 ! D30   D(18,4,8,20)         -166.8193         D2E/DX2 =    0.0514             !
 ! D31   D(18,4,8,21)          -50.15           D2E/DX2 =    0.0188             !
 ! D32   D(4,5,6,19)            -7.9103         D2E/DX2 =    0.0093             !
 ! D33   D(7,5,6,19)           174.6871         D2E/DX2 =    0.0168             !
 ! D34   D(4,8,9,10)            79.5101         D2E/DX2 =    0.0358             !
 ! D35   D(4,8,9,13)           -83.0563         D2E/DX2 =    0.0189             !
 ! D36   D(20,8,9,10)          -39.3384         D2E/DX2 =    0.0224             !
 ! D37   D(20,8,9,13)          158.0953         D2E/DX2 =    0.039              !
 ! D38   D(21,8,9,10)         -158.7786         D2E/DX2 =    0.046              !
 ! D39   D(21,8,9,13)           38.655          D2E/DX2 =    0.0201             !
 ! D40   D(8,9,10,11)         -162.8328         D2E/DX2 =    0.0299             !
 ! D41   D(8,9,10,22)           15.9674         D2E/DX2 =    0.011              !
 ! D42   D(13,9,10,11)           2.3103         D2E/DX2 =    0.018              !
 ! D43   D(13,9,10,22)        -178.8895         D2E/DX2 =    0.012              !
 ! D44   D(8,9,13,12)          164.0096         D2E/DX2 =    0.0322             !
 ! D45   D(8,9,13,24)          -12.3952         D2E/DX2 =    0.0156             !
 ! D46   D(10,9,13,12)          -2.1456         D2E/DX2 =    0.0135             !
 ! D47   D(10,9,13,24)        -178.5504         D2E/DX2 =    0.0058             !
 ! D48   D(9,10,11,12)          -1.6086         D2E/DX2 =    0.0237             !
 ! D49   D(22,10,11,12)        179.5131         D2E/DX2 =    0.0112             !
 ! D50   D(10,11,12,13)          0.2001         D2E/DX2 =    0.0227             !
 ! D51   D(10,11,12,23)       -179.5733         D2E/DX2 =    0.0103             !
 ! D52   D(11,12,13,9)           1.2501         D2E/DX2 =    0.0182             !
 ! D53   D(11,12,13,24)        177.6921         D2E/DX2 =    0.0128             !
 ! D54   D(23,12,13,9)        -178.9686         D2E/DX2 =    0.0108             !
 ! D55   D(23,12,13,24)         -2.5267         D2E/DX2 =    0.0071             !
 ! D56   D(2,14,15,16)         -81.6255         D2E/DX2 =    0.0611             !
 ! D57   D(2,14,15,27)         158.3753         D2E/DX2 =    0.0386             !
 ! D58   D(2,14,15,28)          36.8498         D2E/DX2 =    0.026              !
 ! D59   D(25,14,15,16)         44.3376         D2E/DX2 =    0.0217             !
 ! D60   D(25,14,15,27)        -75.6616         D2E/DX2 =    0.018              !
 ! D61   D(25,14,15,28)        162.8129         D2E/DX2 =    0.0288             !
 ! D62   D(26,14,15,16)        160.5567         D2E/DX2 =    0.0314             !
 ! D63   D(26,14,15,27)         40.5575         D2E/DX2 =    0.0186             !
 ! D64   D(26,14,15,28)        -80.968          D2E/DX2 =    0.0178             !
 ! D65   D(14,15,16,29)        -66.4998         D2E/DX2 =    0.0138             !
 ! D66   D(14,15,16,30)        175.0248         D2E/DX2 =    0.0171             !
 ! D67   D(14,15,16,31)         54.1016         D2E/DX2 =    0.0264             !
 ! D68   D(27,15,16,29)         56.1873         D2E/DX2 =    0.0167             !
 ! D69   D(27,15,16,30)        -62.2882         D2E/DX2 =    0.0153             !
 ! D70   D(27,15,16,31)        176.7886         D2E/DX2 =    0.0255             !
 ! D71   D(28,15,16,29)        173.357          D2E/DX2 =    0.0169             !
 ! D72   D(28,15,16,30)         54.8815         D2E/DX2 =    0.0155             !
 ! D73   D(28,15,16,31)        -66.0416         D2E/DX2 =    0.0204             !
 --------------------------------------------------------------------------------
 Trust Radius=3.00D-01 FncErr=1.00D-07 GrdErr=1.00D-06
 Number of steps in this run=    167 maximum allowed number of steps=    186.
 GradGradGradGradGradGradGradGradGradGradGradGradGradGradGradGradGradGrad

                          Input orientation:                          
 ---------------------------------------------------------------------
 Center     Atomic      Atomic             Coordinates (Angstroms)
 Number     Number       Type             X           Y           Z
 ---------------------------------------------------------------------
      1          8           0        0.707674    0.609127    1.296041
      2          6           0        0.846980   -0.440150    0.686024
      3          7           0       -0.098738   -1.399948    0.621473
      4          6           0       -1.443333   -1.186586    1.107844
      5          6           0       -2.024146   -2.572869    1.406118
      6          8           0       -2.908438   -2.672873    2.408702
      7          8           0       -1.730805   -3.519420    0.734150
      8          6           0       -2.364864   -0.497129    0.033473
      9          6           0       -1.673240    0.657876   -0.578140
     10          6           0       -0.723610    0.679871   -1.560502
     11          7           0       -0.075564    1.896256   -1.570538
     12          6           0       -0.649320    2.619819   -0.627185
     13          7           0       -1.626709    1.917263   -0.017919
     14          6           0        2.163901   -0.758084   -0.032117
     15          6           0        3.024314    0.480707   -0.213078
     16          7           0        2.614645    1.316224   -1.403960
     17          1           0        0.046796   -2.243702    0.090771
     18          1           0       -1.385630   -0.560280    1.996398
     19          1           0       -2.987089   -1.855766    2.914296
     20          1           0       -2.594763   -1.234865   -0.732718
     21          1           0       -3.304278   -0.205680    0.505099
     22          1           0       -0.463369   -0.112654   -2.240995
     23          1           0       -0.396939    3.631396   -0.361649
     24          1           0       -2.183689    2.244440    0.754049
     25          1           0        1.988792   -1.274572   -0.977868
     26          1           0        2.722563   -1.453789    0.596831
     27          1           0        4.068533    0.219335   -0.361326
     28          1           0        2.925668    1.119107    0.660329
     29          1           0        2.784718    0.818409   -2.277282
     30          1           0        3.162463    2.174893   -1.439034
     31          1           0        1.577429    1.603883   -1.417087
 ---------------------------------------------------------------------
                    Distance matrix (angstroms):
                    1          2          3          4          5
     1  O    0.000000
     2  C    1.221683   0.000000
     3  N    2.267537   1.348985   0.000000
     4  C    2.808351   2.445533   1.445689   0.000000
     5  C    4.195242   3.648340   2.387175   1.532348   0.000000
     6  O    5.008573   4.696364   3.564960   2.459230   1.340578
     7  O    4.827712   4.016117   2.677405   2.380000   1.197308
     8  C    3.501195   3.277958   2.509213   1.574434   2.511760
     9  C    3.030459   3.025769   2.855305   2.509470   3.807640
    10  C    3.195843   2.961094   3.078495   3.334926   4.590484
    11  N    3.238431   3.376678   3.958587   4.306790   5.712314
    12  C    3.095660   3.650595   4.245093   4.257876   5.743560
    13  N    2.981116   3.488849   3.707750   3.306789   4.727275
    14  C    2.398722   1.533326   2.441046   3.807264   4.785572
    15  C    2.767807   2.529258   3.739893   4.948189   6.118257
    16  N    3.380315   3.252311   4.340786   5.388915   6.673827
    17  H    3.166713   2.060927   1.007346   2.091032   2.475336
    18  H    2.497986   2.591536   2.061929   1.088631   2.192407
    19  H    4.727126   4.655024   3.715827   2.468654   1.927718
    20  H    4.292115   3.806572   2.844508   2.171586   2.586596
    21  H    4.169563   4.161809   3.422763   2.188286   2.837985
    22  H    3.795120   3.223618   3.159717   3.650806   4.667988
    23  H    3.619698   4.384340   5.135161   5.144639   6.653248
    24  H    3.365707   4.049272   4.200734   3.527781   4.863859
    25  H    3.218734   2.183697   2.632755   4.017141   4.844857
    26  H    2.967203   2.133830   2.821922   4.205618   4.943534
    27  H    3.767516   3.451126   4.577567   5.875010   6.931161
    28  H    2.362987   2.598631   3.936264   4.960309   6.219931
    29  H    4.138423   3.757657   4.651689   5.775422   6.942145
    30  H    3.994778   4.088494   5.259336   6.244957   7.585318
    31  H    3.017793   3.022367   3.998533   4.825660   6.195731
                    6          7          8          9         10
     6  O    0.000000
     7  O    2.215307   0.000000
     8  C    3.266657   3.166578   0.000000
     9  C    4.641209   4.378951   1.478665   0.000000
    10  C    5.636395   4.890186   2.572897   1.366498   0.000000
    11  N    6.688533   6.113997   3.679951   2.251891   1.378280
    12  C    6.506367   6.380682   3.618691   2.213604   2.154065
    13  N    5.347960   5.489442   2.525234   1.379156   2.174003
    14  C    5.945809   4.835377   4.536751   4.126347   3.569509
    15  C    7.212236   6.285652   5.482717   4.715048   3.987750
    16  N    7.807287   6.843822   5.490899   4.416035   3.401969
    17  H    3.780265   2.280627   2.978238   3.438767   3.444925
    18  H    2.636662   3.235572   2.194530   2.862668   3.824629
    19  H    0.964092   3.016459   3.245335   4.499077   5.619306
    20  H    3.469118   2.849091   1.088189   2.110820   2.802258
    21  H    3.141247   3.675480   1.090813   2.139957   3.422098
    22  H    5.844037   4.697226   2.989432   2.196040   1.076519
    23  H    7.329821   7.356232   4.590596   3.243091   3.202416
    24  H    5.238617   5.781659   2.840468   2.133653   3.152278
    25  H    6.116124   4.669663   4.536689   4.159882   3.393587
    26  H    6.039637   4.911025   5.207156   5.016251   4.591590
    27  H    8.044629   6.986464   6.485197   5.762577   4.961325
    28  H    7.174449   6.572984   5.567306   4.785029   4.294444
    29  H    8.158402   6.948053   5.795552   4.773494   3.583480
    30  H    8.669588   7.816138   6.313424   5.140672   4.165502
    31  H    7.283564   6.466875   4.696813   3.487924   2.483777
                   11         12         13         14         15
    11  N    0.000000
    12  C    1.320096   0.000000
    13  N    2.194793   1.349103   0.000000
    14  C    3.798350   4.436051   4.639656   0.000000
    15  C    3.668204   4.271167   4.871734   1.519099   0.000000
    16  N    2.757065   3.599473   4.502381   2.527425   1.511330
    17  H    4.462530   4.965267   4.486208   2.589265   4.047264
    18  H    4.524807   4.187884   3.202158   4.093064   5.041136
    19  H    6.532104   6.167505   4.968327   6.034811   7.167743
    20  H    4.105146   4.319082   3.374015   4.833533   5.898071
    21  H    4.376185   4.039098   2.755844   5.522204   6.406090
    22  H    2.153051   3.178895   3.227382   3.492602   4.077801
    23  H    2.139020   1.075869   2.137460   5.092547   4.653374
    24  H    3.157393   2.098334   1.006582   5.341793   5.582955
    25  H    3.829749   4.716874   4.917435   1.091727   2.176744
    26  H    4.873377   5.427899   5.536973   1.091643   2.118793
    27  H    4.631177   5.300108   5.952871   2.165953   1.086594
    28  H    3.819440   4.085385   4.671318   2.140938   1.086336
    29  H    3.137268   4.214322   5.076700   2.812741   2.105323
    30  H    3.252653   3.922595   5.002210   3.402778   2.095786
    31  H    1.685650   2.571863   3.510324   2.800175   2.191948
                   16         17         18         19         20
    16  N    0.000000
    17  H    4.636933   0.000000
    18  H    5.575474   2.918419   0.000000
    19  H    7.751663   4.162600   2.255103   0.000000
    20  H    5.839225   2.945118   3.060252   3.720235   0.000000
    21  H    6.402683   3.943970   2.455794   2.937281   1.759211
    22  H    3.495210   3.199807   4.359637   5.998718   2.842023
    23  H    3.939044   5.909176   4.909995   6.895625   5.352440
    24  H    5.342527   5.055534   3.169667   4.703595   3.805919
    25  H    2.699161   2.419205   4.554471   6.343983   4.590278
    26  H    3.418741   2.835452   4.431071   6.175139   5.485397
    27  H    2.098581   4.737649   5.992876   8.050934   6.830237
    28  H    2.096874   4.463270   4.815881   6.992204   6.160918
    29  H    1.019527   4.741352   6.128371   8.210813   5.961579
    30  H    1.019141   5.618867   6.322066   8.544863   6.728371
    31  H    1.076446   4.406857   5.011507   7.180868   5.092547
                   21         22         23         24         25
    21  H    0.000000
    22  H    3.952272   0.000000
    23  H    4.891526   4.189782   0.000000
    24  H    2.705695   4.181589   2.522083   0.000000
    25  H    5.599850   2.993099   5.489988   5.726481   0.000000
    26  H    6.155404   4.472367   6.042275   6.145968   1.746487
    27  H    7.435703   4.917470   5.619840   6.665988   2.633857
    28  H    6.371137   4.628228   4.289027   5.232656   3.048135
    29  H    6.772465   3.379093   4.658915   5.992295   2.588927
    30  H    7.159995   4.361500   3.993933   5.778909   3.672736
    31  H    5.549809   2.791090   3.020412   4.389778   2.940687
                   26         27         28         29         30
    26  H    0.000000
    27  H    2.351393   0.000000
    28  H    2.581681   1.777501   0.000000
    29  H    3.664325   2.382847   2.956323   0.000000
    30  H    4.183969   2.409694   2.361797   1.638719   0.000000
    31  H    3.836217   3.039277   2.523572   1.677633   1.684894
                   31
    31  H    0.000000
 Symmetry turned off by external request.
 Stoichiometry    C9H15N4O3(1+)
 Framework group  C1[X(C9H15N4O3)]
 Deg. of freedom    87
 Full point group                 C1      NOp   1
 Rotational constants (GHZ):      0.8536106      0.3911063      0.3092147
 Standard basis: 6-311++G(2df,2pd) (5D, 7F)
   769 basis functions,  1102 primitive gaussians,   864 cartesian basis functions
    60 alpha electrons       60 beta electrons
       nuclear repulsion energy      1203.5232281060 Hartrees.
 NAtoms=   31 NActive=   31 NUniq=   31 SFac= 1.00D+00 NAtFMM=   60 NAOKFM=F Big=F
 Integral buffers will be    131072 words long.
 Raffenetti 2 integral format.
 Two-electron integral symmetry is turned off.
 Nuclear repulsion after empirical dispersion term =     1203.4600824738 Hartrees.
 One-electron integrals computed using PRISM.
 NBasis=   769 RedAO= T EigKep=  2.12D-06  NBF=   769
 NBsUse=   769 1.00D-06 EigRej= -1.00D+00 NBFU=   769
 Initial guess from the checkpoint file:  "conf-318.chk"
 B after Tr=     0.000000    0.000000    0.000000
         Rot=    1.000000    0.000000    0.000000    0.000000 Ang=   0.00 deg.
 Requested convergence on RMS density matrix=1.00D-08 within 128 cycles.
 Requested convergence on MAX density matrix=1.00D-06.
 Requested convergence on             energy=1.00D-06.
 No special actions if energy rises.
 SCF Done:  E(RB3LYP) =  -796.823601620     A.U. after    2 cycles
            NFock=  2  Conv=0.54D-09     -V/T= 2.0040

 **********************************************************************

            Population analysis using the SCF density.

 **********************************************************************

 Alpha  occ. eigenvalues --  -19.29611 -19.23450 -19.23000 -14.57250 -14.50905
 Alpha  occ. eigenvalues --  -14.47769 -14.44810 -10.42975 -10.41612 -10.38500
 Alpha  occ. eigenvalues --  -10.37072 -10.36735 -10.34489 -10.34064 -10.32753
 Alpha  occ. eigenvalues --  -10.32415  -1.23420  -1.18675  -1.16482  -1.15448
 Alpha  occ. eigenvalues --   -1.14581  -1.07439  -1.02191  -0.95112  -0.93373
 Alpha  occ. eigenvalues --   -0.88580  -0.82974  -0.80241  -0.76385  -0.75384
 Alpha  occ. eigenvalues --   -0.73951  -0.73592  -0.73181  -0.72004  -0.69617
 Alpha  occ. eigenvalues --   -0.67225  -0.65371  -0.63878  -0.62531  -0.61612
 Alpha  occ. eigenvalues --   -0.59481  -0.58817  -0.58128  -0.57574  -0.56328
 Alpha  occ. eigenvalues --   -0.56049  -0.55597  -0.54880  -0.53826  -0.53331
 Alpha  occ. eigenvalues --   -0.52155  -0.51034  -0.50119  -0.44942  -0.44573
 Alpha  occ. eigenvalues --   -0.43231  -0.41862  -0.40320  -0.39942  -0.37274
 Alpha virt. eigenvalues --   -0.15859  -0.13994  -0.13453  -0.12597  -0.12253
 Alpha virt. eigenvalues --   -0.12093  -0.10686  -0.10445  -0.09875  -0.09598
 Alpha virt. eigenvalues --   -0.08574  -0.08054  -0.07160  -0.07074  -0.06458
 Alpha virt. eigenvalues --   -0.05966  -0.05125  -0.04697  -0.04132  -0.04077
 Alpha virt. eigenvalues --   -0.03356  -0.02883  -0.02373  -0.01966  -0.01592
 Alpha virt. eigenvalues --   -0.00948  -0.00854  -0.00176   0.00166   0.00536
 Alpha virt. eigenvalues --    0.00724   0.00832   0.01246   0.01387   0.01852
 Alpha virt. eigenvalues --    0.02052   0.02270   0.02813   0.02851   0.03244
 Alpha virt. eigenvalues --    0.03553   0.03990   0.04142   0.04489   0.05027
 Alpha virt. eigenvalues --    0.05089   0.05183   0.05443   0.06043   0.06216
 Alpha virt. eigenvalues --    0.06707   0.06959   0.07191   0.07802   0.08167
 Alpha virt. eigenvalues --    0.08444   0.08648   0.09033   0.09729   0.09982
 Alpha virt. eigenvalues --    0.10171   0.10648   0.10741   0.11394   0.11806
 Alpha virt. eigenvalues --    0.12059   0.12424   0.12745   0.12956   0.13491
 Alpha virt. eigenvalues --    0.13910   0.14290   0.14502   0.15108   0.15964
 Alpha virt. eigenvalues --    0.16549   0.17036   0.17582   0.17792   0.18186
 Alpha virt. eigenvalues --    0.18350   0.18899   0.19072   0.19861   0.20101
 Alpha virt. eigenvalues --    0.20450   0.20879   0.21178   0.21602   0.21958
 Alpha virt. eigenvalues --    0.22681   0.22819   0.23226   0.23326   0.23542
 Alpha virt. eigenvalues --    0.23932   0.24359   0.24953   0.25490   0.25671
 Alpha virt. eigenvalues --    0.26251   0.27600   0.27892   0.28499   0.29594
 Alpha virt. eigenvalues --    0.30652   0.30984   0.31664   0.32601   0.33697
 Alpha virt. eigenvalues --    0.33808   0.34262   0.34470   0.35297   0.36328
 Alpha virt. eigenvalues --    0.38332   0.38864   0.39164   0.39615   0.39970
 Alpha virt. eigenvalues --    0.40437   0.40909   0.41566   0.42403   0.43037
 Alpha virt. eigenvalues --    0.43197   0.44622   0.45171   0.45457   0.45706
 Alpha virt. eigenvalues --    0.46302   0.46967   0.47604   0.47942   0.48540
 Alpha virt. eigenvalues --    0.49549   0.49844   0.50262   0.50438   0.50814
 Alpha virt. eigenvalues --    0.51560   0.52287   0.53025   0.53491   0.53967
 Alpha virt. eigenvalues --    0.54411   0.54658   0.55924   0.56277   0.56707
 Alpha virt. eigenvalues --    0.57593   0.57827   0.58194   0.58998   0.59481
 Alpha virt. eigenvalues --    0.60464   0.61024   0.61383   0.62230   0.62788
 Alpha virt. eigenvalues --    0.63321   0.64704   0.65660   0.66054   0.66593
 Alpha virt. eigenvalues --    0.67203   0.67756   0.68331   0.68797   0.69152
 Alpha virt. eigenvalues --    0.70108   0.71322   0.71454   0.73695   0.73952
 Alpha virt. eigenvalues --    0.75498   0.76688   0.76765   0.77472   0.78438
 Alpha virt. eigenvalues --    0.79521   0.80777   0.80925   0.81561   0.82046
 Alpha virt. eigenvalues --    0.82838   0.83914   0.84939   0.85993   0.86950
 Alpha virt. eigenvalues --    0.87582   0.88956   0.89968   0.91307   0.91726
 Alpha virt. eigenvalues --    0.92113   0.92934   0.94791   0.95350   0.96165
 Alpha virt. eigenvalues --    0.97013   0.97924   0.98260   0.98796   0.99595
 Alpha virt. eigenvalues --    0.99843   1.00280   1.00937   1.01752   1.03162
 Alpha virt. eigenvalues --    1.04158   1.04732   1.05787   1.06182   1.06911
 Alpha virt. eigenvalues --    1.07438   1.08803   1.09435   1.09825   1.10958
 Alpha virt. eigenvalues --    1.11940   1.12289   1.12760   1.13071   1.13172
 Alpha virt. eigenvalues --    1.14658   1.14979   1.15515   1.17377   1.18466
 Alpha virt. eigenvalues --    1.18705   1.19736   1.20036   1.20831   1.21207
 Alpha virt. eigenvalues --    1.21470   1.22787   1.23458   1.24355   1.25107
 Alpha virt. eigenvalues --    1.25850   1.26020   1.26914   1.27813   1.28999
 Alpha virt. eigenvalues --    1.29630   1.30033   1.31622   1.32217   1.32665
 Alpha virt. eigenvalues --    1.33141   1.33824   1.35102   1.35545   1.36316
 Alpha virt. eigenvalues --    1.36889   1.38356   1.38620   1.39306   1.40554
 Alpha virt. eigenvalues --    1.41040   1.41174   1.42293   1.43007   1.44062
 Alpha virt. eigenvalues --    1.44276   1.46802   1.47230   1.47940   1.48437
 Alpha virt. eigenvalues --    1.49233   1.51628   1.52083   1.53487   1.53911
 Alpha virt. eigenvalues --    1.54350   1.55658   1.57422   1.58874   1.59664
 Alpha virt. eigenvalues --    1.60031   1.61130   1.62585   1.63540   1.66042
 Alpha virt. eigenvalues --    1.66801   1.67787   1.68861   1.70025   1.72049
 Alpha virt. eigenvalues --    1.72901   1.73617   1.75379   1.76404   1.77751
 Alpha virt. eigenvalues --    1.79125   1.81624   1.83971   1.86501   1.87916
 Alpha virt. eigenvalues --    1.89460   1.91343   1.93115   1.95889   1.98128
 Alpha virt. eigenvalues --    2.00043   2.01390   2.04527   2.05514   2.09200
 Alpha virt. eigenvalues --    2.11030   2.13407   2.16749   2.21063   2.29135
 Alpha virt. eigenvalues --    2.31523   2.31931   2.34130   2.35140   2.37155
 Alpha virt. eigenvalues --    2.40179   2.41319   2.43606   2.44914   2.46153
 Alpha virt. eigenvalues --    2.47361   2.49164   2.50383   2.53663   2.54335
 Alpha virt. eigenvalues --    2.54475   2.56247   2.58053   2.59050   2.60106
 Alpha virt. eigenvalues --    2.61867   2.62019   2.62896   2.63865   2.65069
 Alpha virt. eigenvalues --    2.65606   2.67003   2.67990   2.68408   2.70073
 Alpha virt. eigenvalues --    2.70506   2.72243   2.73450   2.74263   2.75634
 Alpha virt. eigenvalues --    2.76646   2.77314   2.78363   2.79255   2.80235
 Alpha virt. eigenvalues --    2.80449   2.81101   2.82597   2.83631   2.84033
 Alpha virt. eigenvalues --    2.84439   2.85604   2.86129   2.86640   2.88003
 Alpha virt. eigenvalues --    2.89682   2.89963   2.90776   2.91301   2.91587
 Alpha virt. eigenvalues --    2.92375   2.92954   2.93680   2.94972   2.95659
 Alpha virt. eigenvalues --    2.97247   2.97875   2.98778   2.99185   2.99522
 Alpha virt. eigenvalues --    2.99657   3.00939   3.01861   3.02352   3.03068
 Alpha virt. eigenvalues --    3.03885   3.04761   3.05614   3.06124   3.07049
 Alpha virt. eigenvalues --    3.07962   3.08230   3.09322   3.09861   3.10264
 Alpha virt. eigenvalues --    3.11522   3.12841   3.13722   3.13974   3.15320
 Alpha virt. eigenvalues --    3.16234   3.16499   3.16961   3.17473   3.19035
 Alpha virt. eigenvalues --    3.19860   3.20031   3.20232   3.20954   3.22205
 Alpha virt. eigenvalues --    3.22506   3.23282   3.24860   3.25411   3.25703
 Alpha virt. eigenvalues --    3.26466   3.27801   3.28344   3.29593   3.30585
 Alpha virt. eigenvalues --    3.30872   3.31706   3.32377   3.33458   3.33976
 Alpha virt. eigenvalues --    3.34461   3.35155   3.36049   3.37120   3.38112
 Alpha virt. eigenvalues --    3.38460   3.39900   3.40788   3.41135   3.41946
 Alpha virt. eigenvalues --    3.42267   3.43535   3.44382   3.44732   3.45665
 Alpha virt. eigenvalues --    3.46664   3.47919   3.48440   3.49032   3.49615
 Alpha virt. eigenvalues --    3.50507   3.50807   3.51553   3.54071   3.54552
 Alpha virt. eigenvalues --    3.55079   3.55282   3.55733   3.57314   3.58385
 Alpha virt. eigenvalues --    3.58625   3.59689   3.60671   3.62238   3.62428
 Alpha virt. eigenvalues --    3.63187   3.63959   3.64461   3.65187   3.65631
 Alpha virt. eigenvalues --    3.66403   3.67370   3.69127   3.69971   3.71004
 Alpha virt. eigenvalues --    3.71455   3.72147   3.73973   3.74750   3.75969
 Alpha virt. eigenvalues --    3.76786   3.77028   3.77929   3.78455   3.78754
 Alpha virt. eigenvalues --    3.79882   3.80918   3.81489   3.82850   3.83165
 Alpha virt. eigenvalues --    3.83823   3.84612   3.85289   3.85752   3.87337
 Alpha virt. eigenvalues --    3.88434   3.88737   3.89628   3.90178   3.91357
 Alpha virt. eigenvalues --    3.92051   3.92761   3.94619   3.95296   3.96431
 Alpha virt. eigenvalues --    3.97409   3.98178   3.99014   3.99081   4.00744
 Alpha virt. eigenvalues --    4.01055   4.01870   4.02456   4.03055   4.04203
 Alpha virt. eigenvalues --    4.04898   4.05339   4.06276   4.08419   4.09358
 Alpha virt. eigenvalues --    4.09860   4.10921   4.12424   4.13169   4.14568
 Alpha virt. eigenvalues --    4.15250   4.17010   4.18156   4.19475   4.20135
 Alpha virt. eigenvalues --    4.21115   4.21388   4.22218   4.23160   4.25416
 Alpha virt. eigenvalues --    4.27253   4.28405   4.29447   4.30333   4.32753
 Alpha virt. eigenvalues --    4.35150   4.35417   4.37566   4.38347   4.40660
 Alpha virt. eigenvalues --    4.41536   4.43276   4.43432   4.44972   4.45896
 Alpha virt. eigenvalues --    4.47027   4.50520   4.50618   4.51381   4.52554
 Alpha virt. eigenvalues --    4.53107   4.56862   4.57667   4.62256   4.62869
 Alpha virt. eigenvalues --    4.64683   4.67571   4.68003   4.69202   4.69624
 Alpha virt. eigenvalues --    4.70757   4.71661   4.73980   4.75483   4.76715
 Alpha virt. eigenvalues --    4.77691   4.79511   4.81158   4.81957   4.83477
 Alpha virt. eigenvalues --    4.83728   4.85311   4.85866   4.87866   4.88838
 Alpha virt. eigenvalues --    4.89781   4.90348   4.92440   4.93507   4.93980
 Alpha virt. eigenvalues --    4.93999   4.95127   4.96539   4.96969   4.99333
 Alpha virt. eigenvalues --    4.99976   5.00782   5.01399   5.01976   5.02215
 Alpha virt. eigenvalues --    5.03470   5.04354   5.06295   5.06758   5.07769
 Alpha virt. eigenvalues --    5.08713   5.10014   5.11245   5.11993   5.12496
 Alpha virt. eigenvalues --    5.13559   5.13760   5.14996   5.18029   5.18583
 Alpha virt. eigenvalues --    5.20038   5.21265   5.23351   5.24528   5.25034
 Alpha virt. eigenvalues --    5.25925   5.27719   5.28105   5.30096   5.30451
 Alpha virt. eigenvalues --    5.34004   5.35209   5.36872   5.38395   5.40007
 Alpha virt. eigenvalues --    5.41648   5.42359   5.43083   5.44580   5.45060
 Alpha virt. eigenvalues --    5.48300   5.50573   5.51622   5.52036   5.53190
 Alpha virt. eigenvalues --    5.55656   5.56521   5.57404   5.59818   5.62255
 Alpha virt. eigenvalues --    5.63163   5.64030   5.69727   5.71228   5.71788
 Alpha virt. eigenvalues --    5.73951   5.79324   5.81410   5.82522   5.85090
 Alpha virt. eigenvalues --    5.89601   5.90192   5.92408   5.94953   5.97934
 Alpha virt. eigenvalues --    6.00370   6.01003   6.09267   6.11335   6.14674
 Alpha virt. eigenvalues --    6.18117   6.19502   6.23013   6.28142   6.28425
 Alpha virt. eigenvalues --    6.30344   6.32637   6.36054   6.36670   6.38733
 Alpha virt. eigenvalues --    6.45151   6.46625   6.57114   6.61713   6.74576
 Alpha virt. eigenvalues --    6.79883   6.81961   6.84038   6.85716   6.89379
 Alpha virt. eigenvalues --    6.92519   6.98807   7.04446   7.09218   7.09532
 Alpha virt. eigenvalues --    7.10253   7.13351   7.19268   7.20548   7.24568
 Alpha virt. eigenvalues --    7.29873   7.34403   7.47533   7.48352   7.59441
 Alpha virt. eigenvalues --    7.63425   7.67549   7.88096  24.44212  24.64233
 Alpha virt. eigenvalues --   24.72429  24.78506  24.87993  24.92819  24.97558
 Alpha virt. eigenvalues --   24.99107  25.04264  35.87266  36.15104  36.17546
 Alpha virt. eigenvalues --   36.40476  50.08784  50.11732  50.18890
          Condensed to atoms (all electrons):
               1          2          3          4          5          6
     1  O    8.206559   0.329883  -0.108048  -0.013670   0.003026   0.000043
     2  C    0.329883   8.190838  -0.121611  -0.907078  -0.124495   0.005643
     3  N   -0.108048  -0.121611   6.646953  -0.118772  -0.009107   0.003782
     4  C   -0.013670  -0.907078  -0.118772   9.236484  -1.206628  -0.013922
     5  C    0.003026  -0.124495  -0.009107  -1.206628   6.309108   0.363254
     6  O    0.000043   0.005643   0.003782  -0.013922   0.363254   7.714688
     7  O    0.000032   0.044896  -0.017795   0.083823   0.347765  -0.064407
     8  C   -0.056593   0.298320   0.147899  -2.022463   0.991810  -0.100940
     9  C    0.058195   0.436924  -0.097389   0.179813  -0.774622   0.028210
    10  C   -0.084672  -0.586475  -0.009884   0.341755  -0.011040  -0.000735
    11  N    0.011034   0.034942   0.033309  -0.055261   0.011207   0.000066
    12  C    0.045554  -0.129434   0.042180   0.073387   0.016448   0.001082
    13  N   -0.025352  -0.071017   0.044876  -0.046391   0.064568  -0.000117
    14  C    0.063506  -0.922533   0.111495  -0.168514   0.104582  -0.004292
    15  C   -0.030171  -0.509327   0.005729   0.038804   0.008820  -0.000606
    16  N   -0.021939   0.053830  -0.002080   0.007941   0.000061   0.000010
    17  H   -0.002820  -0.072095   0.358919  -0.051006   0.031942   0.004343
    18  H    0.001517   0.022521  -0.067984   0.507785  -0.066557   0.008744
    19  H    0.000588  -0.004794  -0.001001   0.103259  -0.061903   0.191173
    20  H    0.000005  -0.000688  -0.015627   0.080690  -0.076691  -0.002279
    21  H    0.000518   0.014234   0.010738  -0.034398  -0.003520   0.003767
    22  H   -0.003013   0.025322  -0.007796   0.016152  -0.006108  -0.000118
    23  H   -0.001225  -0.007922   0.002269   0.000326   0.000386   0.000044
    24  H   -0.004091  -0.000942  -0.001837   0.005811  -0.001541   0.000122
    25  H    0.000090   0.000702  -0.008048  -0.016607  -0.002544  -0.000097
    26  H    0.002999  -0.129971   0.014035   0.022383  -0.006300   0.000121
    27  H    0.004034   0.021111  -0.002710  -0.000041   0.000411  -0.000021
    28  H    0.000886   0.066865  -0.007719  -0.011414  -0.001115   0.000018
    29  H   -0.000603   0.011173  -0.000576  -0.001134   0.000322   0.000009
    30  H   -0.001578   0.003880  -0.001184  -0.000926  -0.000169  -0.000002
    31  H    0.010611   0.033250   0.001413  -0.009880  -0.000867  -0.000013
               7          8          9         10         11         12
     1  O    0.000032  -0.056593   0.058195  -0.084672   0.011034   0.045554
     2  C    0.044896   0.298320   0.436924  -0.586475   0.034942  -0.129434
     3  N   -0.017795   0.147899  -0.097389  -0.009884   0.033309   0.042180
     4  C    0.083823  -2.022463   0.179813   0.341755  -0.055261   0.073387
     5  C    0.347765   0.991810  -0.774622  -0.011040   0.011207   0.016448
     6  O   -0.064407  -0.100940   0.028210  -0.000735   0.000066   0.001082
     7  O    7.994222  -0.070505  -0.005390  -0.023012   0.000482  -0.000159
     8  C   -0.070505  10.648762  -2.538533  -1.055454   0.034183  -0.154531
     9  C   -0.005390  -2.538533  11.673394  -3.548627   0.332872   0.107233
    10  C   -0.023012  -1.055454  -3.548627  11.656783  -0.477883  -0.829532
    11  N    0.000482   0.034183   0.332872  -0.477883   7.106564   0.416086
    12  C   -0.000159  -0.154531   0.107233  -0.829532   0.416086   5.523177
    13  N   -0.000581  -0.085697  -0.057733   0.169600   0.010925   0.444011
    14  C   -0.027689  -0.053027  -0.070299  -0.001002   0.006589   0.050130
    15  C   -0.003771  -0.062015  -0.147251   0.362886  -0.099241  -0.042056
    16  N    0.000136   0.008802   0.031650  -0.109486   0.034559   0.043347
    17  H    0.021433   0.045188  -0.035091   0.001339   0.000994  -0.002493
    18  H    0.006361  -0.001981  -0.019116  -0.073772   0.003996  -0.004877
    19  H   -0.001386  -0.047660   0.026413   0.002988  -0.000027   0.000923
    20  H    0.006982   0.262598   0.065230  -0.017627  -0.004339  -0.005759
    21  H   -0.002135   0.379577  -0.003789  -0.030815   0.001670  -0.000021
    22  H   -0.002019  -0.082584  -0.203248   0.688731  -0.113563  -0.003934
    23  H    0.000001  -0.000741   0.070364  -0.041631  -0.061476   0.446228
    24  H   -0.000148  -0.062109  -0.043959   0.081204  -0.005989  -0.042163
    25  H   -0.000154   0.009728   0.023720  -0.029445  -0.002224  -0.009001
    26  H    0.000571  -0.007610   0.011330  -0.016505   0.000524   0.008220
    27  H   -0.000089  -0.001526   0.002642  -0.003522  -0.002131  -0.000220
    28  H   -0.000031   0.002999   0.004927  -0.006704   0.004924  -0.004868
    29  H    0.000032   0.001975  -0.002587  -0.007824  -0.003894   0.003400
    30  H   -0.000012  -0.000049   0.003496   0.008690  -0.001153  -0.010722
    31  H    0.000167   0.030540   0.022051  -0.071519   0.080027  -0.021294
              13         14         15         16         17         18
     1  O   -0.025352   0.063506  -0.030171  -0.021939  -0.002820   0.001517
     2  C   -0.071017  -0.922533  -0.509327   0.053830  -0.072095   0.022521
     3  N    0.044876   0.111495   0.005729  -0.002080   0.358919  -0.067984
     4  C   -0.046391  -0.168514   0.038804   0.007941  -0.051006   0.507785
     5  C    0.064568   0.104582   0.008820   0.000061   0.031942  -0.066557
     6  O   -0.000117  -0.004292  -0.000606   0.000010   0.004343   0.008744
     7  O   -0.000581  -0.027689  -0.003771   0.000136   0.021433   0.006361
     8  C   -0.085697  -0.053027  -0.062015   0.008802   0.045188  -0.001981
     9  C   -0.057733  -0.070299  -0.147251   0.031650  -0.035091  -0.019116
    10  C    0.169600  -0.001002   0.362886  -0.109486   0.001339  -0.073772
    11  N    0.010925   0.006589  -0.099241   0.034559   0.000994   0.003996
    12  C    0.444011   0.050130  -0.042056   0.043347  -0.002493  -0.004877
    13  N    6.121999   0.014852  -0.006592   0.000229   0.003270  -0.005155
    14  C    0.014852   5.839206   0.273823  -0.016754   0.010378  -0.028151
    15  C   -0.006592   0.273823   5.773388  -0.033398  -0.015346   0.002878
    16  N    0.000229  -0.016754  -0.033398   5.932296   0.000903   0.000413
    17  H    0.003270   0.010378  -0.015346   0.000903   0.545105   0.007399
    18  H   -0.005155  -0.028151   0.002878   0.000413   0.007399   0.637112
    19  H    0.000631   0.004021   0.000207   0.000006  -0.004224  -0.018324
    20  H   -0.004165  -0.004743   0.002738   0.000181  -0.001191   0.010371
    21  H    0.002427   0.001714  -0.000582  -0.000073  -0.000281  -0.009867
    22  H    0.022454  -0.022623   0.016497   0.000873  -0.004006  -0.003223
    23  H   -0.064779   0.003837  -0.002090   0.006905  -0.000078  -0.000856
    24  H    0.398067   0.001337   0.000529   0.000048   0.000184  -0.002346
    25  H   -0.000961   0.397913  -0.041499   0.016442  -0.002084  -0.001155
    26  H   -0.000236   0.488512  -0.041124  -0.002522   0.000751   0.001713
    27  H   -0.000210  -0.033304   0.407574  -0.030918   0.000404   0.000291
    28  H   -0.000437  -0.074840   0.400840  -0.003049  -0.000892  -0.000950
    29  H    0.000341   0.003436  -0.017863   0.350930   0.000113  -0.000001
    30  H   -0.000403  -0.009322  -0.012981   0.366143  -0.000184   0.000012
    31  H   -0.002340   0.003473  -0.054478   0.294745   0.000195   0.000424
              19         20         21         22         23         24
     1  O    0.000588   0.000005   0.000518  -0.003013  -0.001225  -0.004091
     2  C   -0.004794  -0.000688   0.014234   0.025322  -0.007922  -0.000942
     3  N   -0.001001  -0.015627   0.010738  -0.007796   0.002269  -0.001837
     4  C    0.103259   0.080690  -0.034398   0.016152   0.000326   0.005811
     5  C   -0.061903  -0.076691  -0.003520  -0.006108   0.000386  -0.001541
     6  O    0.191173  -0.002279   0.003767  -0.000118   0.000044   0.000122
     7  O   -0.001386   0.006982  -0.002135  -0.002019   0.000001  -0.000148
     8  C   -0.047660   0.262598   0.379577  -0.082584  -0.000741  -0.062109
     9  C    0.026413   0.065230  -0.003789  -0.203248   0.070364  -0.043959
    10  C    0.002988  -0.017627  -0.030815   0.688731  -0.041631   0.081204
    11  N   -0.000027  -0.004339   0.001670  -0.113563  -0.061476  -0.005989
    12  C    0.000923  -0.005759  -0.000021  -0.003934   0.446228  -0.042163
    13  N    0.000631  -0.004165   0.002427   0.022454  -0.064779   0.398067
    14  C    0.004021  -0.004743   0.001714  -0.022623   0.003837   0.001337
    15  C    0.000207   0.002738  -0.000582   0.016497  -0.002090   0.000529
    16  N    0.000006   0.000181  -0.000073   0.000873   0.006905   0.000048
    17  H   -0.004224  -0.001191  -0.000281  -0.004006  -0.000078   0.000184
    18  H   -0.018324   0.010371  -0.009867  -0.003223  -0.000856  -0.002346
    19  H    0.586632   0.001167  -0.000133   0.000123   0.000075   0.000450
    20  H    0.001167   0.607472  -0.019016   0.001970  -0.000103   0.000853
    21  H   -0.000133  -0.019016   0.624264  -0.000939  -0.000187  -0.001517
    22  H    0.000123   0.001970  -0.000939   0.588820  -0.001753   0.002294
    23  H    0.000075  -0.000103  -0.000187  -0.001753   0.532759  -0.004636
    24  H    0.000450   0.000853  -0.001517   0.002294  -0.004636   0.530056
    25  H    0.000155   0.000520   0.000448  -0.005643  -0.000151  -0.000106
    26  H   -0.000040   0.000040  -0.000050  -0.001059   0.000246  -0.000060
    27  H   -0.000006   0.000094  -0.000058  -0.000314  -0.000169   0.000016
    28  H    0.000003  -0.000147   0.000157   0.000599  -0.000508   0.000086
    29  H    0.000000  -0.000213   0.000015   0.000656   0.000395   0.000013
    30  H    0.000000   0.000099  -0.000005   0.000695  -0.000738   0.000047
    31  H   -0.000040  -0.001026   0.000172  -0.005927  -0.001549  -0.001399
              25         26         27         28         29         30
     1  O    0.000090   0.002999   0.004034   0.000886  -0.000603  -0.001578
     2  C    0.000702  -0.129971   0.021111   0.066865   0.011173   0.003880
     3  N   -0.008048   0.014035  -0.002710  -0.007719  -0.000576  -0.001184
     4  C   -0.016607   0.022383  -0.000041  -0.011414  -0.001134  -0.000926
     5  C   -0.002544  -0.006300   0.000411  -0.001115   0.000322  -0.000169
     6  O   -0.000097   0.000121  -0.000021   0.000018   0.000009  -0.000002
     7  O   -0.000154   0.000571  -0.000089  -0.000031   0.000032  -0.000012
     8  C    0.009728  -0.007610  -0.001526   0.002999   0.001975  -0.000049
     9  C    0.023720   0.011330   0.002642   0.004927  -0.002587   0.003496
    10  C   -0.029445  -0.016505  -0.003522  -0.006704  -0.007824   0.008690
    11  N   -0.002224   0.000524  -0.002131   0.004924  -0.003894  -0.001153
    12  C   -0.009001   0.008220  -0.000220  -0.004868   0.003400  -0.010722
    13  N   -0.000961  -0.000236  -0.000210  -0.000437   0.000341  -0.000403
    14  C    0.397913   0.488512  -0.033304  -0.074840   0.003436  -0.009322
    15  C   -0.041499  -0.041124   0.407574   0.400840  -0.017863  -0.012981
    16  N    0.016442  -0.002522  -0.030918  -0.003049   0.350930   0.366143
    17  H   -0.002084   0.000751   0.000404  -0.000892   0.000113  -0.000184
    18  H   -0.001155   0.001713   0.000291  -0.000950  -0.000001   0.000012
    19  H    0.000155  -0.000040  -0.000006   0.000003   0.000000   0.000000
    20  H    0.000520   0.000040   0.000094  -0.000147  -0.000213   0.000099
    21  H    0.000448  -0.000050  -0.000058   0.000157   0.000015  -0.000005
    22  H   -0.005643  -0.001059  -0.000314   0.000599   0.000656   0.000695
    23  H   -0.000151   0.000246  -0.000169  -0.000508   0.000395  -0.000738
    24  H   -0.000106  -0.000060   0.000016   0.000086   0.000013   0.000047
    25  H    0.687161  -0.058333  -0.008508   0.010775  -0.004985   0.002179
    26  H   -0.058333   0.635338  -0.004202  -0.006582   0.003273  -0.002194
    27  H   -0.008508  -0.004202   0.576335  -0.031657  -0.006925  -0.002067
    28  H    0.010775  -0.006582  -0.031657   0.558085   0.002037  -0.001105
    29  H   -0.004985   0.003273  -0.006925   0.002037   0.571455  -0.027769
    30  H    0.002179  -0.002194  -0.002067  -0.001105  -0.027769   0.548363
    31  H   -0.004985   0.001044   0.009299  -0.010449  -0.018238  -0.020462
              31
     1  O    0.010611
     2  C    0.033250
     3  N    0.001413
     4  C   -0.009880
     5  C   -0.000867
     6  O   -0.000013
     7  O    0.000167
     8  C    0.030540
     9  C    0.022051
    10  C   -0.071519
    11  N    0.080027
    12  C   -0.021294
    13  N   -0.002340
    14  C    0.003473
    15  C   -0.054478
    16  N    0.294745
    17  H    0.000195
    18  H    0.000424
    19  H   -0.000040
    20  H   -0.001026
    21  H    0.000172
    22  H   -0.005927
    23  H   -0.001549
    24  H   -0.001399
    25  H   -0.004985
    26  H    0.001044
    27  H    0.009299
    28  H   -0.010449
    29  H   -0.018238
    30  H   -0.020462
    31  H    0.363270
 Mulliken charges:
               1
     1  O   -0.385307
     2  C   -0.005954
     3  N    0.175574
     4  C   -0.020310
     5  C    0.099496
     6  O   -0.137571
     7  O   -0.287623
     8  C   -0.458367
     9  C    0.469169
    10  C   -0.276808
    11  N   -0.297772
    12  C    0.039658
    13  N    0.073916
    14  C    0.058290
    15  C   -0.174325
    16  N    0.069767
    17  H    0.158929
    18  H    0.092778
    19  H    0.220725
    20  H    0.112604
    21  H    0.067685
    22  H    0.102685
    23  H    0.126754
    24  H    0.151726
    25  H    0.046696
    26  H    0.085688
    27  H    0.106386
    28  H    0.109266
    29  H    0.143036
    30  H    0.159423
    31  H    0.373785
 Sum of Mulliken charges =   1.00000
 Mulliken charges with hydrogens summed into heavy atoms:
               1
     1  O   -0.385307
     2  C   -0.005954
     3  N    0.334503
     4  C    0.072468
     5  C    0.099496
     6  O    0.083154
     7  O   -0.287623
     8  C   -0.278077
     9  C    0.469169
    10  C   -0.174124
    11  N   -0.297772
    12  C    0.166412
    13  N    0.225642
    14  C    0.190674
    15  C    0.041327
    16  N    0.746011
 Electronic spatial extent (au):  <R**2>=           3669.1985
 Charge=              1.0000 electrons
 Dipole moment (field-independent basis, Debye):
    X=              5.1425    Y=              5.3222    Z=             -1.7571  Tot=              7.6064
 Quadrupole moment (field-independent basis, Debye-Ang):
   XX=            -48.7249   YY=            -89.0062   ZZ=            -80.5652
   XY=             -1.2748   XZ=            -21.2289   YZ=             -0.7698
 Traceless Quadrupole moment (field-independent basis, Debye-Ang):
   XX=             24.0406   YY=            -16.2408   ZZ=             -7.7997
   XY=             -1.2748   XZ=            -21.2289   YZ=             -0.7698
 Octapole moment (field-independent basis, Debye-Ang**2):
  XXX=            155.6326  YYY=            154.0809  ZZZ=            -22.8004  XYY=             72.8690
  XXY=             64.3669  XXZ=            -22.3972  XZZ=             29.2096  YZZ=              6.1561
  YYZ=            -24.3003  XYZ=            -26.8598
 Hexadecapole moment (field-independent basis, Debye-Ang**3):
 XXXX=          -1615.8075 YYYY=          -1856.9343 ZZZZ=           -726.1713 XXXY=           -268.6441
 XXXZ=             83.8375 YYYX=           -461.3828 YYYZ=            446.2358 ZZZX=            117.5267
 ZZZY=            360.5614 XXYY=           -605.6906 XXZZ=           -342.2770 YYZZ=           -453.6591
 XXYZ=             95.8143 YYXZ=             78.3564 ZZXY=            -75.6061
 N-N= 1.203460082474D+03 E-N=-4.251713835103D+03  KE= 7.936602857975D+02
 Calling FoFJK, ICntrl=      2127 FMM=F ISym2X=0 I1Cent= 0 IOpClX= 0 NMat=1 NMatS=1 NMatT=0.
 -------------------------------------------------------------------
 Center     Atomic                   Forces (Hartrees/Bohr)
 Number     Number              X              Y              Z
 -------------------------------------------------------------------
      1        8           0.000384720   -0.001235324   -0.000134934
      2        6           0.002905970    0.002127872   -0.000213720
      3        7          -0.001554565    0.003137817   -0.000013145
      4        6          -0.000863764   -0.003596156    0.000475954
      5        6           0.000113659    0.001123895    0.001867941
      6        8           0.000079974    0.000315431   -0.001238261
      7        8          -0.000075661   -0.000724196   -0.000462413
      8        6          -0.000068422   -0.000036930    0.001369010
      9        6          -0.000701929    0.000810220   -0.000337911
     10        6          -0.000333288   -0.000684686   -0.000394062
     11        7           0.003146955    0.000747231   -0.000153394
     12        6          -0.001014163    0.000778046    0.000379108
     13        7           0.000201975    0.000415903   -0.000060899
     14        6          -0.000238164    0.000340946    0.000601771
     15        6          -0.000091696    0.000763426   -0.000285614
     16        7          -0.000397800   -0.001166797    0.000798647
     17        1           0.000173278   -0.002504247   -0.000301166
     18        1           0.000242805   -0.000025044   -0.000050148
     19        1          -0.000072301    0.000274675   -0.000012083
     20        1          -0.000340286    0.000073956   -0.000622669
     21        1          -0.000157359   -0.000964756   -0.000255327
     22        1           0.000160799    0.000125756    0.000144758
     23        1          -0.000002757    0.000062337    0.000012693
     24        1          -0.000010158   -0.000059186    0.000061472
     25        1          -0.000268151   -0.000248923    0.000155099
     26        1           0.000044769   -0.000454307   -0.000134428
     27        1           0.000032956   -0.000272889    0.000306432
     28        1           0.000285484    0.000143598    0.000015570
     29        1           0.000089345    0.000089151    0.000067386
     30        1           0.000085979   -0.000144951   -0.000057254
     31        1          -0.001758202    0.000788132   -0.001528415
 -------------------------------------------------------------------
 Cartesian Forces:  Max     0.003596156 RMS     0.000942694

 GradGradGradGradGradGradGradGradGradGradGradGradGradGradGradGradGradGrad
 Berny optimization.
 FormGI is forming the generalized inverse of G from B-inverse, IUseBI=4.
 Internal  Forces:  Max     0.004097186 RMS     0.001059595
 Search for a local minimum.
 Step number   1 out of a maximum of  167
 All quantities printed in internal units (Hartrees-Bohrs-Radians)
 Mixed Optimization -- RFO/linear search
 Second derivative matrix not updated -- first step.
 ITU=  0
     Eigenvalues ---    0.00279   0.00299   0.00319   0.00464   0.00688
     Eigenvalues ---    0.00896   0.01055   0.01168   0.01220   0.01434
     Eigenvalues ---    0.01986   0.02397   0.02965   0.03689   0.03908
     Eigenvalues ---    0.04009   0.04363   0.04438   0.04609   0.04716
     Eigenvalues ---    0.04875   0.05094   0.05263   0.05664   0.05865
     Eigenvalues ---    0.06458   0.06773   0.07405   0.07946   0.08230
     Eigenvalues ---    0.09172   0.09889   0.10654   0.11147   0.11471
     Eigenvalues ---    0.11922   0.12435   0.12857   0.13593   0.14309
     Eigenvalues ---    0.14778   0.15952   0.17079   0.17839   0.19377
     Eigenvalues ---    0.20823   0.21134   0.22538   0.22586   0.23577
     Eigenvalues ---    0.23922   0.24462   0.25053   0.25684   0.26510
     Eigenvalues ---    0.27659   0.29626   0.32465   0.32892   0.33475
     Eigenvalues ---    0.33711   0.34083   0.34253   0.34562   0.34726
     Eigenvalues ---    0.34930   0.35274   0.36335   0.37759   0.37931
     Eigenvalues ---    0.38834   0.41963   0.43525   0.43778   0.45346
     Eigenvalues ---    0.46224   0.47258   0.47583   0.47823   0.50387
     Eigenvalues ---    0.51887   0.58349   0.71056   0.83522   0.89398
     Eigenvalues ---    1.04098   5.04899
 RFO step:  Lambda=-2.10442807D-04 EMin= 2.78935993D-03
 Linear search not attempted -- first point.
 Iteration  1 RMS(Cart)=  0.01524395 RMS(Int)=  0.00013337
 Iteration  2 RMS(Cart)=  0.00024512 RMS(Int)=  0.00003351
 Iteration  3 RMS(Cart)=  0.00000002 RMS(Int)=  0.00003351
 Variable       Old X    -DE/DX   Delta X   Delta X   Delta X     New X
                                 (Linear)    (Quad)   (Total)
    R1        2.30865  -0.00117   0.00000  -0.00051  -0.00051   2.30814
    R2        2.54921   0.00125   0.00000   0.00079   0.00079   2.55000
    R3        2.89757  -0.00184   0.00000  -0.00106  -0.00106   2.89650
    R4        2.73196  -0.00024   0.00000  -0.00050  -0.00050   2.73146
    R5        1.90361   0.00228   0.00000   0.00119   0.00119   1.90480
    R6        2.89572  -0.00088   0.00000  -0.00176  -0.00176   2.89395
    R7        2.97525  -0.00006   0.00000   0.00046   0.00046   2.97570
    R8        2.05722  -0.00004   0.00000   0.00040   0.00040   2.05761
    R9        2.53333  -0.00098   0.00000  -0.00030  -0.00030   2.53302
   R10        2.26258   0.00081   0.00000   0.00020   0.00020   2.26278
   R11        1.82187   0.00023   0.00000   0.00009   0.00009   1.82196
   R12        2.79427   0.00253   0.00000   0.00142   0.00142   2.79569
   R13        2.05638   0.00046   0.00000   0.00045   0.00045   2.05683
   R14        2.06134  -0.00023   0.00000  -0.00020  -0.00020   2.06113
   R15        2.58231   0.00122   0.00000   0.00006   0.00006   2.58237
   R16        2.60623   0.00064   0.00000   0.00033   0.00033   2.60656
   R17        2.60457   0.00201   0.00000   0.00046   0.00046   2.60503
   R18        2.03433  -0.00015   0.00000  -0.00016  -0.00016   2.03417
   R19        2.49462   0.00110   0.00000   0.00055   0.00055   2.49517
   R20        2.54943   0.00033   0.00000   0.00013   0.00013   2.54957
   R21        2.03310   0.00006   0.00000  -0.00003  -0.00003   2.03307
   R22        1.90216   0.00003   0.00000   0.00003   0.00003   1.90219
   R23        2.87068  -0.00075   0.00000   0.00042   0.00042   2.87110
   R24        2.06306   0.00003   0.00000   0.00007   0.00007   2.06313
   R25        2.06291   0.00023   0.00000   0.00017   0.00017   2.06307
   R26        2.85600   0.00087   0.00000  -0.00022  -0.00022   2.85578
   R27        2.05336   0.00006   0.00000   0.00007   0.00007   2.05344
   R28        2.05288   0.00007   0.00000   0.00003   0.00003   2.05291
   R29        1.92663  -0.00009   0.00000  -0.00003  -0.00003   1.92660
   R30        1.92590  -0.00007   0.00000   0.00001   0.00001   1.92591
   R31        2.03419   0.00192   0.00000   0.00171   0.00171   2.03590
    A1        2.15921   0.00048   0.00000  -0.00046  -0.00046   2.15875
    A2        2.10585   0.00032   0.00000   0.00055   0.00054   2.10639
    A3        2.01770  -0.00075   0.00000   0.00006   0.00006   2.01776
    A4        2.13049   0.00102   0.00000   0.00474   0.00450   2.13500
    A5        2.11750  -0.00026   0.00000   0.00274   0.00251   2.12001
    A6        2.02109  -0.00096   0.00000  -0.00116  -0.00140   2.01969
    A7        1.85928   0.00155   0.00000   0.00310   0.00311   1.86239
    A8        1.95998  -0.00407   0.00000  -0.00484  -0.00484   1.95514
    A9        1.88621   0.00138   0.00000   0.00070   0.00069   1.88690
   A10        1.88298   0.00218   0.00000   0.00268   0.00268   1.88567
   A11        1.96242  -0.00097   0.00000  -0.00138  -0.00138   1.96104
   A12        1.91353  -0.00017   0.00000  -0.00034  -0.00034   1.91319
   A13        2.05227  -0.00088   0.00000  -0.00161  -0.00161   2.05066
   A14        2.10959   0.00067   0.00000   0.00152   0.00152   2.11111
   A15        2.12042   0.00019   0.00000   0.00001   0.00001   2.12043
   A16        1.96361  -0.00014   0.00000   0.00020   0.00020   1.96382
   A17        1.92894  -0.00410   0.00000  -0.00177  -0.00177   1.92717
   A18        1.88309   0.00102   0.00000   0.00167   0.00166   1.88475
   A19        1.90290   0.00151   0.00000   0.00056   0.00056   1.90347
   A20        1.91467   0.00148   0.00000  -0.00360  -0.00360   1.91107
   A21        1.95298   0.00105   0.00000   0.00359   0.00359   1.95657
   A22        1.87928  -0.00085   0.00000  -0.00045  -0.00044   1.87884
   A23        2.25877   0.00064   0.00000  -0.00205  -0.00205   2.25671
   A24        2.16644  -0.00024   0.00000   0.00267   0.00267   2.16911
   A25        1.82748  -0.00052   0.00000  -0.00032  -0.00032   1.82715
   A26        1.92430   0.00032   0.00000   0.00048   0.00048   1.92478
   A27        2.22758  -0.00004   0.00000  -0.00003  -0.00003   2.22755
   A28        2.13111  -0.00029   0.00000  -0.00049  -0.00049   2.13062
   A29        1.84852  -0.00073   0.00000  -0.00048  -0.00048   1.84804
   A30        1.93068   0.00027   0.00000   0.00011   0.00011   1.93079
   A31        2.20158  -0.00012   0.00000   0.00003   0.00002   2.20160
   A32        2.15092  -0.00014   0.00000  -0.00013  -0.00013   2.15079
   A33        1.89287   0.00065   0.00000   0.00019   0.00019   1.89306
   A34        2.20145  -0.00037   0.00000   0.00023   0.00023   2.20168
   A35        2.18702  -0.00029   0.00000  -0.00036  -0.00036   2.18666
   A36        1.95321  -0.00185   0.00000   0.00230   0.00230   1.95551
   A37        1.94558   0.00060   0.00000  -0.00144  -0.00144   1.94414
   A38        1.87742   0.00036   0.00000   0.00048   0.00047   1.87789
   A39        1.95352  -0.00036   0.00000  -0.00045  -0.00045   1.95307
   A40        1.87389   0.00187   0.00000   0.00000   0.00000   1.87389
   A41        1.85427  -0.00046   0.00000  -0.00096  -0.00097   1.85331
   A42        1.97269  -0.00265   0.00000   0.00104   0.00104   1.97373
   A43        1.94379   0.00053   0.00000  -0.00178  -0.00178   1.94201
   A44        1.90924   0.00079   0.00000   0.00126   0.00126   1.91050
   A45        1.86081   0.00093   0.00000   0.00004   0.00004   1.86086
   A46        1.85879   0.00091   0.00000   0.00022   0.00022   1.85901
   A47        1.91592  -0.00049   0.00000  -0.00078  -0.00078   1.91514
   A48        1.93886  -0.00049   0.00000  -0.00049  -0.00049   1.93838
   A49        1.92538  -0.00039   0.00000  -0.00092  -0.00092   1.92446
   A50        2.00262   0.00216   0.00000   0.00207   0.00207   2.00469
   A51        1.86737   0.00002   0.00000  -0.00071  -0.00071   1.86666
   A52        1.85540  -0.00086   0.00000   0.00009   0.00009   1.85548
   A53        1.86750  -0.00057   0.00000  -0.00016  -0.00016   1.86733
    D1        0.16359   0.00053   0.00000  -0.01088  -0.01091   0.15268
    D2        3.11796  -0.00092   0.00000   0.03060   0.03063  -3.13460
    D3       -3.00938   0.00204   0.00000  -0.00537  -0.00540  -3.01478
    D4       -0.05502   0.00060   0.00000   0.03612   0.03615  -0.01888
    D5       -0.28191  -0.00148   0.00000  -0.00891  -0.00891  -0.29082
    D6       -2.48472  -0.00003   0.00000  -0.00897  -0.00897  -2.49369
    D7        1.77229  -0.00002   0.00000  -0.00730  -0.00730   1.76499
    D8        2.89003  -0.00294   0.00000  -0.01422  -0.01422   2.87581
    D9        0.68722  -0.00149   0.00000  -0.01428  -0.01428   0.67294
   D10       -1.33896  -0.00148   0.00000  -0.01262  -0.01262  -1.35157
   D11       -2.74403  -0.00172   0.00000   0.01728   0.01727  -2.72676
   D12        1.48135  -0.00309   0.00000   0.01478   0.01477   1.49612
   D13       -0.63149  -0.00126   0.00000   0.01777   0.01776  -0.61373
   D14        0.57510  -0.00041   0.00000  -0.02241  -0.02240   0.55270
   D15       -1.48270  -0.00177   0.00000  -0.02491  -0.02490  -1.50759
   D16        2.68765   0.00006   0.00000  -0.02192  -0.02191   2.66574
   D17        2.58706   0.00222   0.00000   0.03221   0.03221   2.61927
   D18       -0.59957   0.00163   0.00000   0.03036   0.03036  -0.56922
   D19       -1.58820  -0.00055   0.00000   0.02965   0.02966  -1.55855
   D20        1.50835  -0.00114   0.00000   0.02780   0.02780   1.53615
   D21        0.52399   0.00011   0.00000   0.03018   0.03018   0.55417
   D22       -2.66264  -0.00048   0.00000   0.02833   0.02833  -2.63431
   D23       -0.81881  -0.00014   0.00000  -0.00722  -0.00723  -0.82603
   D24        1.27457  -0.00012   0.00000  -0.01162  -0.01163   1.26294
   D25       -2.97235   0.00023   0.00000  -0.01094  -0.01094  -2.98329
   D26       -2.86250  -0.00108   0.00000  -0.00993  -0.00992  -2.87243
   D27       -0.76912  -0.00105   0.00000  -0.01433  -0.01433  -0.78345
   D28        1.26714  -0.00070   0.00000  -0.01364  -0.01364   1.25350
   D29        1.27826  -0.00117   0.00000  -0.00972  -0.00972   1.26854
   D30       -2.91155  -0.00114   0.00000  -0.01412  -0.01412  -2.92567
   D31       -0.87528  -0.00079   0.00000  -0.01344  -0.01344  -0.88872
   D32       -0.13806  -0.00017   0.00000  -0.00045  -0.00045  -0.13851
   D33        3.04887   0.00041   0.00000   0.00138   0.00138   3.05024
   D34        1.38771  -0.00092   0.00000   0.00235   0.00235   1.39006
   D35       -1.44961  -0.00025   0.00000   0.00094   0.00094  -1.44866
   D36       -0.68658  -0.00058   0.00000   0.00363   0.00363  -0.68296
   D37        2.75928   0.00009   0.00000   0.00223   0.00222   2.76151
   D38       -2.77121  -0.00116   0.00000   0.00429   0.00429  -2.76692
   D39        0.67466  -0.00049   0.00000   0.00288   0.00288   0.67754
   D40       -2.84197   0.00103   0.00000  -0.00085  -0.00085  -2.84281
   D41        0.27868   0.00021   0.00000  -0.00289  -0.00289   0.27579
   D42        0.04032   0.00046   0.00000   0.00084   0.00084   0.04116
   D43       -3.12221  -0.00036   0.00000  -0.00120  -0.00120  -3.12341
   D44        2.86251  -0.00047   0.00000   0.00054   0.00055   2.86305
   D45       -0.21634  -0.00035   0.00000  -0.00051  -0.00051  -0.21684
   D46       -0.03745  -0.00011   0.00000  -0.00016  -0.00016  -0.03761
   D47       -3.11629   0.00001   0.00000  -0.00122  -0.00122  -3.11751
   D48       -0.02808  -0.00065   0.00000  -0.00121  -0.00121  -0.02928
   D49        3.13309   0.00011   0.00000   0.00070   0.00070   3.13380
   D50        0.00349   0.00057   0.00000   0.00108   0.00108   0.00458
   D51       -3.13414   0.00014   0.00000  -0.00045  -0.00045  -3.13460
   D52        0.02182  -0.00030   0.00000  -0.00059  -0.00059   0.02123
   D53        3.10131  -0.00041   0.00000   0.00048   0.00048   3.10179
   D54       -3.12359   0.00012   0.00000   0.00089   0.00089  -3.12270
   D55       -0.04410   0.00000   0.00000   0.00196   0.00196  -0.04214
   D56       -1.42463   0.00023   0.00000  -0.00163  -0.00163  -1.42626
   D57        2.76417   0.00050   0.00000  -0.00113  -0.00113   2.76304
   D58        0.64315   0.00023   0.00000   0.00016   0.00016   0.64331
   D59        0.77384  -0.00070   0.00000  -0.00209  -0.00209   0.77174
   D60       -1.32054  -0.00043   0.00000  -0.00160  -0.00160  -1.32215
   D61        2.84162  -0.00070   0.00000  -0.00031  -0.00031   2.84131
   D62        2.80224  -0.00033   0.00000  -0.00351  -0.00351   2.79874
   D63        0.70786  -0.00005   0.00000  -0.00301  -0.00301   0.70485
   D64       -1.41316  -0.00032   0.00000  -0.00172  -0.00172  -1.41488
   D65       -1.16064  -0.00017   0.00000   0.01364   0.01364  -1.14700
   D66        3.05476   0.00037   0.00000   0.01542   0.01542   3.07018
   D67        0.94425  -0.00012   0.00000   0.01487   0.01487   0.95912
   D68        0.98065  -0.00052   0.00000   0.01209   0.01209   0.99274
   D69       -1.08713   0.00002   0.00000   0.01387   0.01387  -1.07326
   D70        3.08554  -0.00047   0.00000   0.01332   0.01332   3.09886
   D71        3.02565  -0.00019   0.00000   0.01132   0.01132   3.03697
   D72        0.95786   0.00035   0.00000   0.01310   0.01310   0.97097
   D73       -1.15264  -0.00014   0.00000   0.01255   0.01255  -1.14009
         Item               Value     Threshold  Converged?
 Maximum Force            0.004097     0.000450     NO 
 RMS     Force            0.001060     0.000300     NO 
 Maximum Displacement     0.067139     0.001800     NO 
 RMS     Displacement     0.015165     0.001200     NO 
 Predicted change in Energy=-1.065651D-04
 GradGradGradGradGradGradGradGradGradGradGradGradGradGradGradGradGradGrad

                          Input orientation:                          
 ---------------------------------------------------------------------
 Center     Atomic      Atomic             Coordinates (Angstroms)
 Number     Number       Type             X           Y           Z
 ---------------------------------------------------------------------
      1          8           0        0.716188    0.605461    1.303783
      2          6           0        0.852885   -0.441035    0.688952
      3          7           0       -0.098115   -1.395530    0.615274
      4          6           0       -1.441381   -1.187852    1.106964
      5          6           0       -2.017790   -2.573529    1.411731
      6          8           0       -2.925806   -2.663762    2.393608
      7          8           0       -1.702494   -3.528400    0.761649
      8          6           0       -2.364295   -0.501543    0.031412
      9          6           0       -1.676573    0.660640   -0.572775
     10          6           0       -0.724435    0.689640   -1.552571
     11          7           0       -0.081115    1.908838   -1.557784
     12          6           0       -0.661611    2.627797   -0.614630
     13          7           0       -1.637378    1.919172   -0.009650
     14          6           0        2.168038   -0.759185   -0.031129
     15          6           0        3.028734    0.478545   -0.219717
     16          7           0        2.618740    1.309101   -1.413807
     17          1           0        0.052809   -2.250211    0.102676
     18          1           0       -1.383701   -0.558982    1.993967
     19          1           0       -3.022617   -1.839275    2.883930
     20          1           0       -2.583419   -1.236038   -0.741360
     21          1           0       -3.309058   -0.221750    0.499148
     22          1           0       -0.457847   -0.100269   -2.233517
     23          1           0       -0.414355    3.639663   -0.345458
     24          1           0       -2.198454    2.242579    0.760959
     25          1           0        1.989837   -1.278930   -0.974557
     26          1           0        2.728951   -1.453431    0.597581
     27          1           0        4.072146    0.214145   -0.368553
     28          1           0        2.933900    1.121459    0.650818
     29          1           0        2.775699    0.801896   -2.284157
     30          1           0        3.177848    2.159900   -1.460711
     31          1           0        1.584621    1.611128   -1.421873
 ---------------------------------------------------------------------
                    Distance matrix (angstroms):
                    1          2          3          4          5
     1  O    0.000000
     2  C    1.221415   0.000000
     3  N    2.267399   1.349404   0.000000
     4  C    2.812439   2.448699   1.445425   0.000000
     5  C    4.194313   3.648385   2.388970   1.531415   0.000000
     6  O    5.013946   4.703708   3.573055   2.457088   1.340418
     7  O    4.820034   4.008374   2.672936   2.380249   1.197412
     8  C    3.511945   3.284244   2.505130   1.574675   2.513657
     9  C    3.041351   3.033776   2.851460   2.508736   3.809795
    10  C    3.200193   2.964926   3.072420   3.333484   4.594358
    11  N    3.243925   3.382614   3.954910   4.305890   5.714922
    12  C    3.109418   3.662069   4.244685   4.258063   5.744489
    13  N    2.998368   3.501432   3.707710   3.307392   4.727515
    14  C    2.398356   1.532763   2.440947   3.808795   4.784855
    15  C    2.772189   2.530934   3.739860   4.951656   6.119165
    16  N    3.391180   3.256196   4.337453   5.391998   6.675019
    17  H    3.168216   2.063240   1.007976   2.090409   2.470939
    18  H    2.498362   2.592159   2.062362   1.088843   2.190769
    19  H    4.738381   4.668245   3.727790   2.466225   1.927739
    20  H    4.296642   3.806049   2.835953   2.173218   2.597041
[...]
 3178,0.00020406,-0.02827349,-0.11354001,-0.22978388,0.00093682,0.00590
 208,0.00651605,-0.00001887,0.00002002,0.00203397,0.00090642,0.00057759
 ,-0.00048061,-0.00021672,-0.00002324,0.00007820,-0.00001700,-0.0000108
 1,0.00000058,0.00000868,0.00000375,0.00000309,0.00001217,-0.00002075,0
 .00001796,0.00001225,0.00004394,0.00013044,-0.00000957,0.00001704,-0.0
 0000816,-0.00004297,0.00003128,-0.00002454,0.03242696,0.12431285,0.247
 32807,0.00011257,-0.00168514,0.00344580,-0.01691060,0.01806931,-0.0188
 5131,-0.00015047,-0.00105832,0.00196457,-0.00022268,-0.00062537,0.0009
 1073,-0.00018008,0.00048270,0.00020040,-0.00012686,-0.00017784,0.00004
 890,0.00007424,-0.00020505,-0.00000693,0.00025230,-0.00020124,0.000082
 58,0.00017067,-0.00002396,-0.00022118,-0.00024082,-0.00009685,0.000038
 14,0.00040987,-0.00015993,-0.00003334,-0.00008530,0.00010385,0.0001819
 7,0.00015190,0.00007796,-0.00001399,-0.12298976,0.08420411,-0.09205940
 ,0.00887376,-0.00913557,0.01155782,-0.00119966,-0.00564741,0.00179713,
 -0.00069340,0.00020427,-0.00057915,-0.00010629,-0.00007766,-0.00000327
 ,0.00003254,-0.00000401,-0.00004812,-0.00001652,0.00001625,-0.00002602
 ,-0.00000424,-0.00000312,0.00000646,0.00003830,-0.00000852,0.00008406,
 -0.00000412,-0.00000493,0.00000525,0.00000612,0.00000878,-0.00000595,-
 0.00248957,0.00246124,-0.00284959,0.13465058,0.00029081,0.00063692,-0.
 00180182,0.00587876,-0.00487475,0.00274316,-0.00119695,-0.00032391,0.0
 0041734,0.00033452,0.00003752,-0.00035504,0.00001182,0.00022500,0.0000
 0859,-0.00002950,-0.00006527,0.00001308,0.00002188,-0.00014930,-0.0000
 0015,-0.00016660,-0.00003109,0.00012209,0.00006093,-0.00001618,-0.0000
 3546,-0.00011486,-0.00011942,-0.00004776,0.00029015,-0.00008977,-0.000
 01107,-0.00007471,0.00008756,0.00015772,0.00004242,0.00007605,-0.00006
 176,0.07972417,-0.13090135,0.09387772,0.01412738,-0.01570712,0.0179139
 2,-0.00303217,-0.00486616,0.00024002,-0.00023483,0.00017454,-0.0000054
 6,-0.00003197,0.00000421,0.00003728,0.00001682,0.00000601,-0.00002096,
 0.00000733,0.00000493,-0.00000688,-0.00004699,0.00003541,-0.00004018,0
 .00005046,0.00000424,0.00008703,-0.00000023,-0.00000188,0.00000784,0.0
 0001086,0.00000291,0.00000042,-0.00972327,0.01093810,-0.01077442,-0.08
 630863,0.14349065,0.00041670,0.00027238,-0.00332424,0.00747394,-0.0107
 5604,0.01211769,0.00017927,0.00089817,-0.00015401,-0.00025957,0.000210
 96,-0.00026872,-0.00000074,-0.00008478,0.00003491,0.00011805,0.0000598
 8,-0.00009104,0.00005519,0.00000724,-0.00005102,-0.00003966,0.00000717
 ,-0.00000581,0.00002172,0.00004729,-0.00010478,-0.00008485,0.00002058,
 -0.00007662,-0.00018457,-0.00003584,0.00002510,-0.00002765,0.00001136,
 -0.00002442,-0.00004302,0.00007928,0.00012113,-0.08483125,0.09222351,-
 0.14257905,-0.00273642,0.00296099,-0.00491708,0.00124752,0.00163711,0.
 00067245,-0.00012191,0.00009394,-0.00010367,0.00003205,-0.00000779,0.0
 0001246,-0.00001450,0.00000505,0.00002375,-0.00000198,0.00000173,0.000
 00394,0.00000573,-0.00001079,0.00001298,0.00008402,0.00001264,0.000085
 77,-0.00000603,0.00000840,-0.00000229,0.00000153,0.00000991,-0.0000060
 0,-0.01458697,0.01568907,-0.01706369,0.09319592,-0.10309564,0.15493275
 ,0.00002073,-0.00018493,-0.00022833,0.00044343,-0.00252821,-0.00037226
 ,-0.00092485,0.00017485,0.00043299,0.00007004,-0.00019704,-0.00012132,
 0.00001644,0.00017663,-0.00003960,-0.00006419,-0.00006132,0.00005816,-
 0.00002359,-0.00008666,0.00000260,-0.00002168,-0.00001532,0.00004717,-
 0.00001477,-0.00001913,-0.00000399,-0.00000988,0.00004925,0.00002273,-
 0.00015410,0.00002174,0.00004912,-0.00000025,-0.00006371,-0.00001335,-
 0.00001172,0.00001574,0.00000827,-0.01402811,0.00256327,0.00420793,-0.
 30323159,0.05839192,0.03500934,-0.00739250,0.00392532,-0.00215681,-0.0
 0000051,0.00012201,0.00004784,0.00000335,0.00000959,0.00000167,0.00002
 163,0.00000197,-0.00002449,0.00000037,0.00000232,-0.00000330,-0.000011
 31,0.00001405,-0.00001121,0.00000784,-0.00000212,0.00001796,-0.0000021
 6,-0.00000383,0.00000182,0.00000765,-0.00001752,-0.00000343,-0.0000442
 9,0.00000261,-0.00037075,0.00109922,0.00024547,0.00014259,0.32382199,0
 .00077631,0.00188998,-0.00008332,-0.00055416,-0.00691234,-0.00201225,-
 0.00207197,0.00068931,0.00104472,0.00004770,-0.00041800,-0.00014361,-0
 .00006707,0.00020539,-0.00003075,-0.00009213,-0.00009579,0.00008652,-0
 .00003445,-0.00007018,0.00001074,-0.00006618,-0.00005049,0.00005999,0.
 00005778,-0.00003820,-0.00004525,-0.00011056,-0.00022680,-0.00003782,0
 .00116822,-0.00044145,-0.00012943,-0.00011475,0.00024685,0.00034015,0.
 00023071,0.00008849,-0.00027116,-0.02844676,0.00504474,0.00686782,0.05
 566258,-0.06237204,-0.00953838,0.01946943,-0.00755040,0.00288120,0.000
 04284,0.00019108,0.00005863,-0.00002696,0.00001187,0.00001854,0.000029
 12,-0.00000640,-0.00002231,0.00000142,0.00001046,-0.00000700,-0.000014
 71,0.00003844,-0.00003851,0.00000322,0.00000068,0.00004172,0.00001732,
 -0.00000388,0.00000819,-0.00000214,0.00002439,-0.00000050,0.00018353,0
 .00025150,-0.00057286,0.00008185,0.00153157,-0.00012978,-0.06302819,0.
 07038490,0.00111998,0.00137627,0.00005590,0.00076522,-0.00061092,-0.00
 008722,0.00083248,0.00021124,-0.00012188,-0.00028656,0.00021923,0.0000
 5005,-0.00002711,-0.00010897,0.00011004,0.00011270,0.00005962,-0.00009
 230,0.00006900,0.00004781,-0.00004920,0.00004503,0.00003870,-0.0000213
 1,-0.00013192,0.00004886,0.00010291,0.00015228,0.00041042,0.00006949,-
 0.00209286,0.00063711,0.00013790,0.00011218,-0.00035286,-0.00056427,-0
 .00032007,-0.00020369,0.00046354,0.00319312,-0.00132642,-0.00091033,0.
 04328438,-0.01311823,-0.05591170,-0.03826491,0.01524889,-0.00551892,-0
 .00000239,-0.00009484,0.00001183,-0.00000629,-0.00001989,-0.00000326,-
 0.00003180,0.00000530,0.00001727,-0.00000619,-0.00001122,0.00000601,0.
 00002009,-0.00003707,0.00003421,-0.00001090,-0.00000433,-0.00005743,-0
 .00005028,0.00005362,-0.00003298,-0.00002751,-0.00003669,0.00001007,-0
 .00004415,0.00035859,0.00005435,0.00100808,0.00029343,0.00030404,-0.03
 652747,0.00106552,0.06349889,-0.00035279,0.00184030,0.00118887,-0.0008
 8056,-0.00333581,-0.00219128,0.00121579,0.00169604,0.00059309,-0.00028
 402,0.00016783,0.00025644,-0.00015203,-0.00030230,0.00014064,0.0001377
 2,0.00009565,-0.00010402,0.00008665,0.00021258,-0.00002632,0.00003179,
 0.00001523,-0.00010220,-0.00004687,0.00004128,-0.00000317,0.00012054,-
 0.00000332,-0.00006196,-0.00030090,0.00005963,0.00018612,-0.00000080,0
 .00008064,-0.00008607,-0.00010750,-0.00005883,0.00021783,0.00189120,-0
 .01241527,-0.01439475,-0.05265766,0.02315664,0.02652851,0.00036867,-0.
 00740182,-0.01362562,0.00035673,0.00000576,-0.00020491,-0.00008023,-0.
 00006534,0.00001107,-0.00005377,-0.00000962,0.00004339,-0.00000269,-0.
 00000001,0.00000653,0.00003205,-0.00003720,0.00002464,0.00004286,0.000
 01744,0.00000226,-0.00002052,0.00006529,-0.00003627,-0.00007099,0.0000
 3983,-0.00001354,-0.00196764,-0.00301586,0.00100430,0.00024320,0.00023
 430,0.00007489,-0.00099256,0.01922750,0.02367196,0.05265418,0.00202175
 ,0.00234484,0.00079691,0.00137084,-0.00233492,-0.00254796,0.00008149,0
 .00035280,0.00011416,0.00006001,0.00007213,0.00001156,0.00003450,-0.00
 008847,-0.00002678,-0.00001689,0.00001572,0.00001935,-0.00003102,0.000
 06511,0.00003327,-0.00001389,-0.00001158,-0.00000140,0.00000947,-0.000
 06024,-0.00005486,-0.00009827,-0.00013483,0.00000657,0.00029687,-0.000
 15083,-0.00003093,-0.00004919,0.00013541,0.00010389,0.00011614,0.00006
 047,-0.00008674,-0.00132210,-0.01911099,-0.02032147,0.02027243,-0.1649
 6607,-0.13843402,-0.00065775,0.01203719,0.02173879,0.00017421,0.000143
 56,-0.00011503,-0.00005229,0.00001908,0.00003248,-0.00000600,-0.000001
 51,-0.00000014,0.00000517,-0.00000006,0.00000403,-0.00000065,0.0000036
 0,-0.00000332,0.00000791,-0.00002669,0.00003864,0.00004120,-0.00002550
 ,0.00002857,-0.00000006,0.00002595,-0.00000264,-0.00220591,-0.00355790
 ,0.00208986,0.00029642,0.00011569,0.00010075,0.00008425,-0.00318822,-0
 .00397225,-0.02061313,0.17817672,0.00147286,0.00079945,-0.00180163,0.0
 0120984,0.00045396,0.00017162,-0.00032992,-0.00091676,-0.00022848,0.00
 009951,-0.00001299,-0.00003955,-0.00000338,0.00004992,0.00001598,0.000
 00001,-0.00001372,-0.00001300,-0.00000435,-0.00004837,-0.00001112,-0.0
 0000795,0.00000199,0.00001012,0.00002322,0.00004677,0.00002109,0.00001
 606,-0.00000637,-0.00003402,-0.00010149,0.00008999,-0.00001164,-0.0000
 9392,-0.00003481,0.00003813,-0.00000724,-0.00000951,-0.00001261,-0.002
 17198,0.00155700,0.00782913,0.01863501,-0.12759726,-0.20427066,0.00083
 248,-0.01389050,-0.02882055,-0.00024185,-0.00001498,0.00018358,0.00003
 872,0.00002045,-0.00000209,0.00001052,0.00000343,0.00000274,0.00000002
 ,0.00000109,-0.00000313,-0.00000130,0.00000627,-0.00000313,0.00000545,
 0.00001945,-0.00001582,-0.00002538,0.00001814,0.00000931,0.00001734,-0
 .00000985,0.00002475,0.00192948,0.00136961,0.00006362,-0.00053445,-0.0
 0052849,0.00014490,0.00119516,-0.00114732,0.00011551,-0.02119168,0.137
 46086,0.22880527,0.00002562,-0.00018840,-0.00002341,-0.00002905,0.0001
 6819,0.00028743,-0.00011444,-0.00001841,-0.00013765,0.00000704,0.00001
 852,0.00001558,-0.00010832,-0.00012778,0.00005528,0.00006667,0.0000370
 0,-0.00005794,0.00002541,0.00007547,-0.00002417,0.00001208,-0.00003522
 ,0.00006209,-0.00025133,-0.00014187,0.00052416,-0.00023861,0.00047262,
 0.00033842,-0.00211146,-0.00067569,-0.00195790,0.00062871,0.00015900,-
 0.00049259,0.00008473,-0.00061272,-0.00034960,0.00002251,0.00041900,0.
 00123299,0.00114626,-0.00673032,-0.01022244,-0.06038602,0.02639746,0.0
 3939419,-0.00000291,-0.00008157,0.00007655,0.00001156,0.00000017,-0.00
 000748,-0.00001537,-0.00000773,0.00003384,-0.00001714,-0.00000760,-0.0
 0000015,0.00001465,0.00001459,-0.00002428,-0.00044217,-0.00024023,-0.0
 0017132,0.00000010,-0.00000170,-0.00004546,-0.00000980,-0.00000962,0.0
 0002019,0.00030927,-0.00024974,-0.00005429,-0.00015441,-0.00017276,-0.
 00018145,-0.00028321,-0.00053537,-0.00053157,-0.00052833,0.00160769,-0
 .00150607,0.05561311,0.00009851,-0.00073092,-0.00033077,-0.00081273,0.
 00059373,0.00031479,0.00007071,-0.00013445,-0.00009328,-0.00010870,-0.
 00000323,0.00002463,-0.00006054,0.00008219,0.00009079,0.00006156,-0.00
 000829,-0.00005296,0.00005241,-0.00006476,-0.00006208,0.00000658,0.000
 04376,-0.00001821,-0.00005976,0.00001100,0.00004765,0.00025300,0.00035
 060,0.00011684,-0.00016527,0.00054482,0.00058269,0.00002432,-0.0002954
 2,-0.00027100,-0.00024126,-0.00010021,0.00020365,0.00094035,0.00247693
 ,0.00114210,-0.00316488,0.01429953,0.01604850,0.01887932,-0.17767658,-
 0.16141291,-0.00007807,-0.00005125,0.00009264,0.00001900,-0.00001037,-
 0.00001460,-0.00000936,0.00000743,0.00000386,-0.00001218,-0.00000999,0
 .00000404,0.00000410,-0.00001908,0.00001008,-0.00012057,0.00002842,-0.
 00006070,-0.00000975,0.00001004,-0.00000694,-0.00002360,-0.00002249,-0
 .00000794,-0.00036260,-0.00079548,-0.00089075,0.00000778,-0.00010904,-
 0.00027251,-0.00009242,0.00047468,-0.00034608,0.00148487,-0.00204315,0
 .00366878,-0.02372389,0.18675924,-0.00021147,0.00032013,0.00032905,0.0
 0096496,-0.00038655,-0.00049754,-0.00039969,-0.00005840,0.00010777,0.0
 0011177,-0.00010849,-0.00006039,0.00012136,0.00018503,-0.00006263,-0.0
 0010137,-0.00006133,0.00007319,-0.00006605,-0.00010719,0.00000097,0.00
 000304,0.00003330,0.00004599,-0.00007207,-0.00004652,0.00000180,-0.000
 05912,0.00023923,0.00004649,-0.00094824,0.00023048,-0.00037425,0.00009
 939,-0.00011564,-0.00024491,-0.00008785,-0.00005354,0.00014369,0.00059
 199,-0.00076911,0.00165768,0.00264842,-0.01540142,-0.02486466,0.030827
 95,-0.16698134,-0.28362842,0.00005255,0.00010769,0.00002092,-0.0000130
 6,0.00001831,0.00000325,0.00003413,0.00000513,-0.00002991,0.00000395,-
 0.00001128,0.00000440,-0.00002058,0.00000728,-0.00000277,-0.00001933,-
 0.00000887,0.00017949,0.00000794,-0.00001473,-0.00000667,0.00005184,-0
 .00004925,0.00001138,0.00050460,0.00106198,0.00011728,-0.00041101,-0.0
 0022233,0.00049829,-0.00030042,-0.00040518,0.00153454,-0.00245659,0.00
 407604,-0.00256082,-0.03333486,0.17528517,0.30171324,0.00009237,0.0000
 3669,-0.00013160,-0.00038019,0.00015974,-0.00008964,0.00020968,0.00007
 543,-0.00002320,-0.00001411,0.00008206,0.00003063,-0.00011645,-0.00015
 457,0.00004890,0.00007796,0.00004676,-0.00006249,0.00003908,0.00009175
 ,-0.00000665,-0.00002672,-0.00005571,-0.00004747,0.00028350,0.00025141
 ,-0.00013811,0.00040318,-0.00002620,-0.00028854,-0.00092559,0.00225646
 ,0.00009984,-0.00044535,0.00003242,-0.00000710,-0.00002652,0.00008692,
 0.00017955,-0.00064908,0.00100532,-0.00222326,0.00829205,0.01113111,-0
 .00057342,-0.17442043,-0.17231120,0.02468915,-0.00002167,-0.00005184,-
 0.00001372,0.00000267,-0.00000854,-0.00000023,-0.00002202,-0.00000731,
 0.00003299,-0.00000633,0.00000500,-0.00000323,0.00001982,0.00000787,-0
 .00001064,0.00007635,-0.00001511,0.00007063,-0.00010714,0.00006020,0.0
 0001022,0.00004482,-0.00001665,0.00006539,-0.00013819,-0.00015251,0.00
 007037,0.00040193,0.00057669,-0.00031799,0.00015906,0.00087229,0.00000
 364,0.00029236,-0.00028418,0.00039809,0.00302701,0.00640469,-0.0006408
 8,0.17851055,0.00020465,0.00014457,-0.00007844,-0.00009109,-0.00030439
 ,0.00014478,0.00015232,0.00005708,-0.00004895,-0.00003602,0.00006295,0
 .00000595,-0.00008627,-0.00008091,0.00006042,0.00007383,0.00003060,-0.
 00005774,0.00003978,0.00004055,-0.00002120,-0.00000853,-0.00001249,-0.
 00001420,-0.00007843,-0.00015485,0.00000896,-0.00018999,-0.00028777,0.
 00012123,0.00169705,-0.00148794,0.00011957,0.00000630,0.00036990,0.000
 42471,0.00030813,0.00005224,-0.00043227,0.00197625,-0.00057340,0.00238
 589,-0.00797396,-0.01215664,0.00321493,-0.16189090,-0.28352377,0.03038
 938,-0.00000982,-0.00004189,0.00002057,0.00000290,-0.00000733,0.000000
 31,-0.00002080,-0.00000054,0.00002290,-0.00000659,0.00000153,0.0000019
 4,0.00001107,-0.00000108,-0.00000477,-0.00005745,-0.00002861,-0.000041
 81,0.00014324,-0.00001943,-0.00001714,-0.00004448,0.00008185,-0.000023
 11,0.00024460,0.00045882,0.00001690,-0.00067815,-0.00035290,0.00026460
 ,0.00040370,0.00011440,-0.00088839,-0.00030447,0.00123049,-0.00053460,
 -0.01400105,-0.01756023,0.00399354,0.17867872,0.30140870,-0.00002422,-
 0.00052893,-0.00022744,-0.00067654,0.00054475,0.00052928,0.00015029,-0
 .00015097,-0.00005508,-0.00004205,-0.00002066,0.00005468,0.00002275,0.
 00006149,0.00001140,-0.00000799,-0.00001208,-0.00000135,0.00000373,-0.
 00004605,-0.00001061,0.00004919,0.00000435,0.00000549,0.00001023,-0.00
 001346,-0.00010436,-0.00012935,-0.00010371,-0.00003258,-0.00007730,0.0
 0001322,-0.00013177,0.00000168,0.00007444,0.00005291,0.00005840,0.0000
 6509,-0.00000769,-0.00346824,0.00140608,-0.00504469,0.01866456,0.02432
 846,-0.00302687,0.02806209,0.03686228,-0.06348729,-0.00004982,-0.00000
 162,-0.00005144,0.00000863,0.00000345,-0.00000322,0.00000643,0.0000052
 0,-0.00000418,0.00000219,-0.00000391,0.00000153,-0.00000038,-0.0000059
 1,0.00001057,0.00005820,0.00003620,0.00005804,0.00007326,-0.00005233,0
 .00003893,0.00003973,0.00000623,0.00001263,-0.00019821,-0.00023219,0.0
 0029276,0.00104926,0.00131607,-0.00022276,-0.00023529,-0.00031385,0.00
 132768,0.00088090,-0.00054797,-0.00005417,-0.02096096,-0.02667815,0.00
 583517,-0.02475933,-0.03726606,0.06488113,-0.00483012,0.00127744,0.000
 17697,0.00795109,-0.00106177,-0.00136978,-0.00416250,-0.00027246,-0.00
 025876,0.00223287,0.00047454,-0.00062234,-0.00080188,-0.00173890,-0.00
 045469,0.00005185,0.00031181,-0.00006091,-0.00029705,0.00116978,0.0004
 2044,-0.00091269,-0.00104670,0.00007084,0.00276815,-0.00178326,-0.0043
 0786,-0.00917065,-0.01098590,-0.00068138,0.01666540,-0.01732014,0.0049
 5310,-0.00537150,0.00886792,0.01445511,0.00769897,0.00577630,-0.008732
 66,0.00099151,0.00098244,0.00160590,0.00224196,0.00717185,-0.01415587,
 -0.18837515,0.03604432,0.01214911,0.00050985,0.00007394,0.00019269,-0.
 00002800,-0.00000562,0.00014766,-0.00000482,-0.00015653,0.00032698,0.0
 0001817,0.00026944,-0.00009446,-0.00001687,0.00039410,-0.00045819,0.00
 151968,0.00062925,0.00127964,0.00162363,-0.00078410,0.00061626,-0.0003
 0043,0.00146332,-0.00002295,-0.00023546,0.00010000,0.00004392,-0.00094
 243,-0.00079129,0.00038943,0.00153951,-0.00270639,0.00397185,0.0010261
 2,-0.00112904,0.00033719,0.00369783,0.00073839,0.00311868,-0.01463260,
 0.00153544,0.00148814,0.17954553,0.00135340,-0.00039369,-0.00034423,-0
 .00290132,-0.00023447,0.00128311,0.00141077,0.00013569,-0.00007428,-0.
 00089873,-0.00017988,0.00032259,0.00014533,0.00041119,0.00026271,0.000
 08396,-0.00004962,-0.00006738,0.00014994,-0.00029481,-0.00017631,0.000
 36970,0.00034223,0.00034952,-0.00226012,-0.00121186,0.00229829,-0.0047
 5904,0.00367817,0.00260639,-0.00941077,-0.00905662,-0.00644147,0.00453
 029,-0.00222277,-0.00348306,-0.00154793,-0.00249194,0.00094529,0.00027
 216,-0.00028307,-0.00095791,0.01117783,-0.00556290,0.00193984,0.042440
 67,-0.07831327,-0.00489464,-0.00015762,-0.00013187,-0.00002607,0.00001
 810,-0.00001004,-0.00004712,-0.00002826,0.00004342,-0.00006720,-0.0000
 1316,-0.00005708,0.00002332,0.00000800,-0.00017318,0.00017123,-0.00073
 065,-0.00040533,-0.00083024,-0.00032833,0.00016465,-0.00018277,-0.0002
 7986,-0.00020809,-0.00007765,0.00013446,-0.00043179,-0.00007226,0.0000
 8718,0.00023685,-0.00022882,0.00009572,0.00017545,0.00105724,-0.000877
 82,0.00090221,-0.00080162,0.01819198,-0.00604743,-0.00076211,-0.028777
 72,0.01254048,0.00125055,-0.02749817,0.08912936,-0.00019472,-0.0016545
 2,0.00019854,0.00055582,0.00286613,0.00070459,-0.00043339,-0.00067023,
 -0.00038851,0.00008805,-0.00013932,-0.00006064,0.00014740,0.00019735,-
 0.00006176,-0.00011317,-0.00005960,0.00006332,-0.00006659,-0.00013774,
 -0.00000376,0.00029611,-0.00008163,0.00010025,-0.00010445,0.00046358,0
 .00084189,-0.00001329,0.00103785,-0.00038049,-0.00141138,-0.00528602,-
 0.00909276,0.00548179,0.00209654,-0.00239727,0.00073320,-0.00197519,-0
 .00125905,0.00050453,-0.00019893,0.00097191,-0.02539491,0.00558052,0.0
 0447771,0.00373105,-0.00197471,-0.06460718,-0.00005089,0.00004386,0.00
 006249,0.00001958,0.00003504,-0.00000809,0.00004049,0.00000322,-0.0000
 2059,-0.00002891,-0.00003031,0.00000796,-0.00000217,0.00008637,-0.0000
 4811,-0.00027956,-0.00007847,-0.00004063,-0.00009593,-0.00018595,-0.00
 019094,0.00038426,0.00015471,-0.00018145,0.00014998,0.00006058,-0.0000
 6496,0.00006660,-0.00022829,0.00000506,-0.00083334,0.00244551,-0.00453
 340,-0.00033305,-0.00051020,0.00044668,0.02804285,-0.00711734,0.000008
 37,0.00363809,-0.00176789,-0.00064667,-0.01452407,0.00702508,0.0760974
 7\\-0.00000245,0.00000400,-0.00000640,0.00001003,0.00001771,0.00000788
 ,0.00000091,-0.00001051,-0.00000464,0.00000578,0.00002105,-0.00003304,
 -0.00000805,0.00001094,0.00001287,0.00000486,-0.00000482,-0.00000222,0
 .00000651,-0.00000437,-0.00000584,-0.00003420,-0.00001871,0.00000882,0
 .00000549,0.00000508,0.00001065,-0.00000063,0.00000433,-0.00000419,0.0
 0000723,-0.00001020,-0.00000252,0.00000356,0.00000560,0.00000590,0.000
 00896,-0.00000003,0.00000320,0.00000079,0.00000244,0.00000438,-0.00000
 645,-0.00000052,-0.00000024,0.00001533,-0.00000358,-0.00001306,0.00000
 144,-0.00001609,-0.00000499,0.00000035,-0.00000111,0.00000444,0.000001
 05,0.00000043,0.00000110,-0.00000213,-0.00000295,0.00000575,-0.0000004
 6,0.00000140,-0.00000364,0.00000144,-0.00000104,0.00000138,-0.00000079
 ,0.00000224,-0.00000085,-0.00000037,-0.00000223,0.00000234,-0.00000143
 ,-0.00000163,0.00000072,0.00000118,-0.00000212,-0.00000194,0.00000021,
 -0.00000042,0.00000120,0.00000206,0.00000078,-0.00000128,0.00000168,-0
 .00000018,-0.00000087,0.00000085,-0.00000087,-0.00000114,-0.00002278,0
 .00000538,0.00001625\\\@


 WERE I TO AWAIT PERFECTION, MY BOOK WOULD NEVER BE FINISHED.
                                    -- HISTORY OF CHINESE WRITING

                                       TAI T'UNG, 13TH CENTURY
 Job cpu time:       1 days  6 hours 52 minutes 49.6 seconds.
 File lengths (MBytes):  RWF=   1351 Int=      0 D2E=      0 Chk=     46 Scr=      1
 Normal termination of Gaussian 09 at Sat Jul 31 05:03:44 2021.
