 Entering Gaussian System, Link 0=g09
 Input=opt_freq-conf-342.com
 Output=opt_freq-conf-342.log
 Initial command:
 /aerosol/software/g09/l1.exe "/scratch/nicole/10767/Gau-635724.inp" -scrdir="/scratch/nicole/10767/"
 Entering Link 1 = /aerosol/software/g09/l1.exe PID=    635730.
  
 Copyright (c) 1988,1990,1992,1993,1995,1998,2003,2009,2013,
            Gaussian, Inc.  All Rights Reserved.
  
 This is part of the Gaussian(R) 09 program.  It is based on
 the Gaussian(R) 03 system (copyright 2003, Gaussian, Inc.),
 the Gaussian(R) 98 system (copyright 1998, Gaussian, Inc.),
 the Gaussian(R) 94 system (copyright 1995, Gaussian, Inc.),
 the Gaussian 92(TM) system (copyright 1992, Gaussian, Inc.),
 the Gaussian 90(TM) system (copyright 1990, Gaussian, Inc.),
 the Gaussian 88(TM) system (copyright 1988, Gaussian, Inc.),
 the Gaussian 86(TM) system (copyright 1986, Carnegie Mellon
 University), and the Gaussian 82(TM) system (copyright 1983,
 Carnegie Mellon University). Gaussian is a federally registered
 trademark of Gaussian, Inc.
  
 This software contains proprietary and confidential information,
 including trade secrets, belonging to Gaussian, Inc.
  
 This software is provided under written license and may be
 used, copied, transmitted, or stored only in accord with that
 written license.
  
 The following legend is applicable only to US Government
 contracts under FAR:
  
                    RESTRICTED RIGHTS LEGEND
  
 Use, reproduction and disclosure by the US Government is
 subject to restrictions as set forth in subparagraphs (a)
 and (c) of the Commercial Computer Software - Restricted
 Rights clause in FAR 52.227-19.
  
 Gaussian, Inc.
 340 Quinnipiac St., Bldg. 40, Wallingford CT 06492
  
  
 ---------------------------------------------------------------
 Warning -- This program may not be used in any manner that
 competes with the business of Gaussian, Inc. or will provide
 assistance to any competitor of Gaussian, Inc.  The licensee
 of this program is prohibited from giving any competitor of
 Gaussian, Inc. access to this program.  By using this program,
 the user acknowledges that Gaussian, Inc. is engaged in the
 business of creating and licensing software in the field of
 computational chemistry and represents and warrants to the
 licensee that it is not a competitor of Gaussian, Inc. and that
 it will not use this program in any manner prohibited above.
 ---------------------------------------------------------------
  

 Cite this work as:
 Gaussian 09, Revision D.01,
 M. J. Frisch, G. W. Trucks, H. B. Schlegel, G. E. Scuseria, 
 M. A. Robb, J. R. Cheeseman, G. Scalmani, V. Barone, B. Mennucci, 
 G. A. Petersson, H. Nakatsuji, M. Caricato, X. Li, H. P. Hratchian, 
 A. F. Izmaylov, J. Bloino, G. Zheng, J. L. Sonnenberg, M. Hada, 
 M. Ehara, K. Toyota, R. Fukuda, J. Hasegawa, M. Ishida, T. Nakajima, 
 Y. Honda, O. Kitao, H. Nakai, T. Vreven, J. A. Montgomery, Jr., 
 J. E. Peralta, F. Ogliaro, M. Bearpark, J. J. Heyd, E. Brothers, 
 K. N. Kudin, V. N. Staroverov, T. Keith, R. Kobayashi, J. Normand, 
 K. Raghavachari, A. Rendell, J. C. Burant, S. S. Iyengar, J. Tomasi, 
 M. Cossi, N. Rega, J. M. Millam, M. Klene, J. E. Knox, J. B. Cross, 
 V. Bakken, C. Adamo, J. Jaramillo, R. Gomperts, R. E. Stratmann, 
 O. Yazyev, A. J. Austin, R. Cammi, C. Pomelli, J. W. Ochterski, 
 R. L. Martin, K. Morokuma, V. G. Zakrzewski, G. A. Voth, 
 P. Salvador, J. J. Dannenberg, S. Dapprich, A. D. Daniels, 
 O. Farkas, J. B. Foresman, J. V. Ortiz, J. Cioslowski, 
 and D. J. Fox, Gaussian, Inc., Wallingford CT, 2013.
 
 ******************************************
 Gaussian 09:  ES64L-G09RevD.01 24-Apr-2013
                30-Jul-2021 
 ******************************************
 %mem=2gb
 %nproc=4
 Will use up to    4 processors via shared memory.
 %chk=conf-342.chk
 ----------------------------------------------------------------------
 # B3LYP/6-311++G(2df,2pd) EmpiricalDispersion=GD3BJ guess=read geom=ch
 eckpoint opt=readfc freq=noraman nosymm integral(ultrafinegrid)
 ----------------------------------------------------------------------
 1/10=3,14=-1,18=20,19=15,26=4,29=2,38=1/1,3;
 2/9=110,12=2,15=1,40=1/2;
 3/5=4,6=6,7=1414,11=2,14=-4,16=1,25=1,30=1,71=1,74=-5,75=-5,116=-2,124=41/1,2,3;
 4/5=1/1;
 5/5=2,38=6/2;
 6/7=2,8=2,9=2,10=2,28=1/1;
 7/30=1/1,2,3,16;
 1/14=-1,18=20,19=15,26=4/3(2);
 2/9=110,15=1/2;
 99//99;
 2/9=110,15=1/2;
 3/5=4,6=6,7=1414,11=2,14=-2,16=1,25=1,30=1,71=1,74=-5,75=-5,124=41/1,2,3;
 4/5=5,16=3,69=1/1;
 5/5=2,38=5/2;
 7/30=1/1,2,3,16;
 1/14=-1,18=20,19=15,26=4/3(-5);
 2/9=110,15=1/2;
 6/7=2,8=2,9=2,10=2,19=2,28=1/1;
 99/9=1/99;
 ------------------------------------------------------------
 Candidate Structure: Conf:342 OPT and FREQ calc in gas phase
 ------------------------------------------------------------
 Structure from the checkpoint file:  "conf-342.chk"
 Charge =  1 Multiplicity = 1
 Redundant internal coordinates found in file.
 O,0,1.0467247958,-1.137551269,0.4415550579
 C,0,1.4038768413,-0.0573051816,-0.0079617309
 N,0,0.5779700515,0.8722498117,-0.5012622559
 C,0,-0.8478919329,0.6453559844,-0.6418790551
 C,0,-1.3403077676,1.6691927956,-1.6720575787
 O,0,-2.6370751995,1.659952156,-1.9526240508
 O,0,-0.5796226333,2.4378362625,-2.2019773023
 C,0,-1.596515952,0.7365137235,0.7145409075
 C,0,-2.9491229858,0.1184765813,0.6689523221
 C,0,-4.2161165436,0.6484010428,0.6065215018
 N,0,-5.1586817401,-0.3511644249,0.5510646704
 C,0,-4.4881314964,-1.474042101,0.5814873283
 N,0,-3.142530212,-1.2503069052,0.6454863762
 C,0,2.8922289428,0.3233342703,-0.0034323942
 C,0,3.7040635156,-0.9474764428,0.1531685394
 N,0,5.1811663258,-0.6238546985,0.32316396
 H,0,0.9165858496,1.6877933293,-0.9984756
 H,0,-1.0031794829,-0.3545351272,-1.0533718709
 H,0,-3.1428508546,1.0727814525,-1.359194334
 H,0,-1.6796556435,1.7798982878,1.0166095102
 H,0,-0.9789897405,0.2313211478,1.4568696858
 H,0,-4.4962557205,1.6888756819,0.6231408533
 H,0,-4.9094615161,-2.4649428005,0.5587873803
 H,0,-2.4229051942,-1.9507796875,0.7151807232
 H,0,3.064170005,0.9995601836,0.8388042405
 H,0,3.1558904728,0.8590970364,-0.917138355
 H,0,3.6282368954,-1.5965616171,-0.7151142208
 H,0,3.3959571947,-1.5083697238,1.0301682112
 H,0,5.5496058602,-0.1174527395,-0.4843101731
 H,0,5.3370791805,-0.0404828567,1.1477202885
 H,0,5.7354669245,-1.4748723221,0.4355673252
 Recover connectivity data from disk.

 GradGradGradGradGradGradGradGradGradGradGradGradGradGradGradGradGradGrad
 Berny optimization.
 Initialization pass.
 Force constant matrix read from checkpoint file:
 "conf-342.chk"
                           ----------------------------
                           !    Initial Parameters    !
                           ! (Angstroms and Degrees)  !
 --------------------------                            --------------------------
 ! Name  Definition              Value          Derivative Info.                !
 --------------------------------------------------------------------------------
 ! R1    R(1,2)                  1.2233         D2E/DX2 =    0.7138             !
 ! R2    R(2,3)                  1.3377         D2E/DX2 =    0.5386             !
 ! R3    R(2,14)                 1.5363         D2E/DX2 =    0.2536             !
 ! R4    R(3,4)                  1.4506         D2E/DX2 =    0.3421             !
 ! R5    R(3,17)                 1.0134         D2E/DX2 =    0.4412             !
 ! R6    R(4,5)                  1.5336         D2E/DX2 =    0.2753             !
 ! R7    R(4,8)                  1.552          D2E/DX2 =    0.2587             !
 ! R8    R(4,18)                 1.0923         D2E/DX2 =    0.3305             !
 ! R9    R(5,6)                  1.3268         D2E/DX2 =    0.4699             !
 ! R10   R(5,7)                  1.2043         D2E/DX2 =    0.7765             !
 ! R11   R(6,19)                 0.9761         D2E/DX2 =    0.4548             !
 ! R12   R(8,9)                  1.4878         D2E/DX2 =    0.3235             !
 ! R13   R(8,20)                 1.0894         D2E/DX2 =    0.3412             !
 ! R14   R(8,21)                 1.0898         D2E/DX2 =    0.3399             !
 ! R15   R(9,10)                 1.3748         D2E/DX2 =    0.4012             !
 ! R16   R(9,13)                 1.3826         D2E/DX2 =    0.3643             !
 ! R17   R(10,11)                1.375          D2E/DX2 =    0.3373             !
 ! R18   R(10,22)                1.0777         D2E/DX2 =    0.3709             !
 ! R19   R(11,12)                1.3082         D2E/DX2 =    0.4674             !
 ! R20   R(12,13)                1.3656         D2E/DX2 =    0.3565             !
 ! R21   R(12,23)                1.077          D2E/DX2 =    0.3752             !
 ! R22   R(13,24)                1.0067         D2E/DX2 =    0.4734             !
 ! R23   R(14,15)                1.5161         D2E/DX2 =    0.2942             !
 ! R24   R(14,25)                1.0937         D2E/DX2 =    0.3385             !
 ! R25   R(14,26)                1.0915         D2E/DX2 =    0.33               !
 ! R26   R(15,16)                1.5217         D2E/DX2 =    0.24               !
 ! R27   R(15,27)                1.0867         D2E/DX2 =    0.356              !
 ! R28   R(15,28)                1.0857         D2E/DX2 =    0.3581             !
 ! R29   R(16,29)                1.0219         D2E/DX2 =    0.4283             !
 ! R30   R(16,30)                1.022          D2E/DX2 =    0.4289             !
 ! R31   R(16,31)                1.0218         D2E/DX2 =    0.4288             !
 ! A1    A(1,2,3)              124.6699         D2E/DX2 =    0.2092             !
 ! A2    A(1,2,14)             120.0364         D2E/DX2 =    0.2047             !
 ! A3    A(3,2,14)             115.2809         D2E/DX2 =    0.1715             !
 ! A4    A(2,3,4)              122.2699         D2E/DX2 =    0.1332             !
 ! A5    A(2,3,17)             122.2648         D2E/DX2 =    0.088              !
 ! A6    A(4,3,17)             114.0004         D2E/DX2 =    0.0954             !
 ! A7    A(3,4,5)              106.0391         D2E/DX2 =    0.1152             !
 ! A8    A(3,4,8)              112.3476         D2E/DX2 =    0.0944             !
 ! A9    A(3,4,18)             108.6278         D2E/DX2 =    0.0312             !
 ! A10   A(5,4,8)              113.1412         D2E/DX2 =    0.114              !
 ! A11   A(5,4,18)             108.204          D2E/DX2 =    0.0248             !
 ! A12   A(8,4,18)             108.3265         D2E/DX2 =    0.0344             !
 ! A13   A(4,5,6)              116.8212         D2E/DX2 =    0.2026             !
 ! A14   A(4,5,7)              121.2567         D2E/DX2 =    0.2189             !
 ! A15   A(6,5,7)              121.9212         D2E/DX2 =    0.2081             !
 ! A16   A(5,6,19)             112.4617         D2E/DX2 =    0.2                !
 ! A17   A(4,8,9)              112.7899         D2E/DX2 =    0.1825             !
 ! A18   A(4,8,20)             109.5973         D2E/DX2 =    0.0613             !
 ! A19   A(4,8,21)             107.1444         D2E/DX2 =    0.0629             !
 ! A20   A(9,8,20)             109.6921         D2E/DX2 =    0.0522             !
 ! A21   A(9,8,21)             110.088          D2E/DX2 =    0.0565             !
 ! A22   A(20,8,21)            107.3592         D2E/DX2 =    0.0213             !
 ! A23   A(8,9,10)             132.7751         D2E/DX2 =    0.096              !
 ! A24   A(8,9,13)             122.6122         D2E/DX2 =    0.1039             !
 ! A25   A(10,9,13)            104.5915         D2E/DX2 =    0.104              !
 ! A26   A(9,10,11)            110.694          D2E/DX2 =    0.1159             !
 ! A27   A(9,10,22)            127.6646         D2E/DX2 =    0.0825             !
 ! A28   A(11,10,22)           121.621          D2E/DX2 =    0.09               !
 ! A29   A(10,11,12)           105.7632         D2E/DX2 =    0.1329             !
 ! A30   A(11,12,13)           111.4405         D2E/DX2 =    0.1206             !
 ! A31   A(11,12,23)           126.0651         D2E/DX2 =    0.0899             !
 ! A32   A(13,12,23)           122.4944         D2E/DX2 =    0.0907             !
 ! A33   A(9,13,12)            107.5082         D2E/DX2 =    0.104              !
 ! A34   A(9,13,24)            125.995          D2E/DX2 =    0.0787             !
 ! A35   A(12,13,24)           126.4159         D2E/DX2 =    0.0788             !
 ! A36   A(2,14,15)            108.1435         D2E/DX2 =    0.1784             !
 ! A37   A(2,14,25)            107.9248         D2E/DX2 =    0.0507             !
 ! A38   A(2,14,26)            110.6813         D2E/DX2 =    0.0487             !
 ! A39   A(15,14,25)           110.7646         D2E/DX2 =    0.0556             !
 ! A40   A(15,14,26)           111.626          D2E/DX2 =    0.0559             !
 ! A41   A(25,14,26)           107.648          D2E/DX2 =    0.0218             !
 ! A42   A(14,15,16)           110.675          D2E/DX2 =    0.1333             !
 ! A43   A(14,15,27)           112.3806         D2E/DX2 =    0.0439             !
 ! A44   A(14,15,28)           111.3783         D2E/DX2 =    0.0445             !
 ! A45   A(16,15,27)           106.5003         D2E/DX2 =    0.0539             !
 ! A46   A(16,15,28)           107.1645         D2E/DX2 =    0.0526             !
 ! A47   A(27,15,28)           108.4842         D2E/DX2 =    0.0179             !
 ! A48   A(15,16,29)           111.5378         D2E/DX2 =    0.0999             !
 ! A49   A(15,16,30)           111.0765         D2E/DX2 =    0.0988             !
 ! A50   A(15,16,31)           111.2072         D2E/DX2 =    0.0956             !
 ! A51   A(29,16,30)           107.4365         D2E/DX2 =    0.0537             !
 ! A52   A(29,16,31)           107.702          D2E/DX2 =    0.0537             !
 ! A53   A(30,16,31)           107.6912         D2E/DX2 =    0.054              !
 ! D1    D(1,2,3,4)             -4.5975         D2E/DX2 =    0.0128             !
 ! D2    D(1,2,3,17)          -169.9553         D2E/DX2 =    0.0118             !
 ! D3    D(14,2,3,4)           176.7115         D2E/DX2 =    0.0107             !
 ! D4    D(14,2,3,17)           11.3537         D2E/DX2 =    0.0069             !
 ! D5    D(1,2,14,15)           19.0395         D2E/DX2 =    0.0139             !
 ! D6    D(1,2,14,25)         -100.8355         D2E/DX2 =    0.0168             !
 ! D7    D(1,2,14,26)          141.6037         D2E/DX2 =    0.0172             !
 ! D8    D(3,2,14,15)         -162.204          D2E/DX2 =    0.0149             !
 ! D9    D(3,2,14,25)           77.921          D2E/DX2 =    0.016              !
 ! D10   D(3,2,14,26)          -39.6398         D2E/DX2 =    0.018              !
 ! D11   D(2,3,4,5)           -159.7328         D2E/DX2 =    0.0168             !
 ! D12   D(2,3,4,8)             76.1901         D2E/DX2 =    0.0172             !
 ! D13   D(2,3,4,18)           -43.6335         D2E/DX2 =    0.0088             !
 ! D14   D(17,3,4,5)             6.7357         D2E/DX2 =    0.0186             !
 ! D15   D(17,3,4,8)          -117.3413         D2E/DX2 =    0.0175             !
 ! D16   D(17,3,4,18)          122.8351         D2E/DX2 =    0.0106             !
 ! D17   D(3,4,5,6)           -179.1867         D2E/DX2 =    0.0237             !
 ! D18   D(3,4,5,7)              1.1531         D2E/DX2 =    0.0228             !
 ! D19   D(8,4,5,6)            -55.6061         D2E/DX2 =    0.0273             !
 ! D20   D(8,4,5,7)            124.7337         D2E/DX2 =    0.0231             !
 ! D21   D(18,4,5,6)            64.4277         D2E/DX2 =    0.0173             !
 ! D22   D(18,4,5,7)          -115.2325         D2E/DX2 =    0.0161             !
 ! D23   D(3,4,8,9)           -162.7331         D2E/DX2 =    0.0211             !
 ! D24   D(3,4,8,20)            74.7491         D2E/DX2 =    0.0204             !
 ! D25   D(3,4,8,21)           -41.4356         D2E/DX2 =    0.0207             !
 ! D26   D(5,4,8,9)             77.2293         D2E/DX2 =    0.0294             !
 ! D27   D(5,4,8,20)           -45.2885         D2E/DX2 =    0.021              !
 ! D28   D(5,4,8,21)          -161.4732         D2E/DX2 =    0.0241             !
 ! D29   D(18,4,8,9)           -42.7345         D2E/DX2 =    0.0136             !
 ! D30   D(18,4,8,20)         -165.2523         D2E/DX2 =    0.0154             !
 ! D31   D(18,4,8,21)           78.5631         D2E/DX2 =    0.0139             !
 ! D32   D(4,5,6,19)             8.3335         D2E/DX2 =    0.0145             !
 ! D33   D(7,5,6,19)          -172.0087         D2E/DX2 =    0.0235             !
 ! D34   D(4,8,9,10)          -104.0638         D2E/DX2 =    0.0154             !
 ! D35   D(4,8,9,13)            73.9833         D2E/DX2 =    0.0149             !
 ! D36   D(20,8,9,10)           18.4009         D2E/DX2 =    0.0134             !
 ! D37   D(20,8,9,13)         -163.552          D2E/DX2 =    0.0145             !
 ! D38   D(21,8,9,10)          136.3253         D2E/DX2 =    0.0146             !
 ! D39   D(21,8,9,13)          -45.6275         D2E/DX2 =    0.0145             !
 ! D40   D(8,9,10,11)          178.4954         D2E/DX2 =    0.0095             !
 ! D41   D(8,9,10,22)           -3.145          D2E/DX2 =    0.0073             !
 ! D42   D(13,9,10,11)           0.1951         D2E/DX2 =    0.0141             !
 ! D43   D(13,9,10,22)         178.5548         D2E/DX2 =    0.0103             !
 ! D44   D(8,9,13,12)         -178.9523         D2E/DX2 =    0.0082             !
 ! D45   D(8,9,13,24)            4.1567         D2E/DX2 =    0.0028             !
 ! D46   D(10,9,13,12)          -0.4334         D2E/DX2 =    0.0124             !
 ! D47   D(10,9,13,24)        -177.3244         D2E/DX2 =    0.0048             !
 ! D48   D(9,10,11,12)           0.1285         D2E/DX2 =    0.0174             !
 ! D49   D(22,10,11,12)       -178.3466         D2E/DX2 =    0.0103             !
 ! D50   D(10,11,12,13)         -0.4162         D2E/DX2 =    0.0185             !
 ! D51   D(10,11,12,23)        179.6866         D2E/DX2 =    0.0106             !
 ! D52   D(11,12,13,9)           0.5502         D2E/DX2 =    0.0172             !
 ! D53   D(11,12,13,24)        177.4244         D2E/DX2 =    0.0081             !
 ! D54   D(23,12,13,9)        -179.5484         D2E/DX2 =    0.0105             !
 ! D55   D(23,12,13,24)         -2.6741         D2E/DX2 =    0.0065             !
 ! D56   D(2,14,15,16)        -173.5907         D2E/DX2 =    0.0171             !
 ! D57   D(2,14,15,27)          67.4825         D2E/DX2 =    0.0148             !
 ! D58   D(2,14,15,28)         -54.4823         D2E/DX2 =    0.0144             !
 ! D59   D(25,14,15,16)        -55.5163         D2E/DX2 =    0.0156             !
 ! D60   D(25,14,15,27)       -174.4431         D2E/DX2 =    0.017              !
 ! D61   D(25,14,15,28)         63.592          D2E/DX2 =    0.0183             !
 ! D62   D(26,14,15,16)         64.424          D2E/DX2 =    0.0191             !
 ! D63   D(26,14,15,27)        -54.5028         D2E/DX2 =    0.0166             !
 ! D64   D(26,14,15,28)       -176.4676         D2E/DX2 =    0.0165             !
 ! D65   D(14,15,16,29)        -60.1199         D2E/DX2 =    0.0144             !
 ! D66   D(14,15,16,30)         59.7045         D2E/DX2 =    0.0143             !
 ! D67   D(14,15,16,31)        179.6299         D2E/DX2 =    0.0142             !
 ! D68   D(27,15,16,29)         62.3075         D2E/DX2 =    0.0163             !
 ! D69   D(27,15,16,30)       -177.868          D2E/DX2 =    0.0156             !
 ! D70   D(27,15,16,31)        -57.9427         D2E/DX2 =    0.0156             !
 ! D71   D(28,15,16,29)        178.2564         D2E/DX2 =    0.0156             !
 ! D72   D(28,15,16,30)        -61.9192         D2E/DX2 =    0.0163             !
 ! D73   D(28,15,16,31)         58.0062         D2E/DX2 =    0.0166             !
 --------------------------------------------------------------------------------
 Trust Radius=3.00D-01 FncErr=1.00D-07 GrdErr=1.00D-06
 Number of steps in this run=    167 maximum allowed number of steps=    186.
 GradGradGradGradGradGradGradGradGradGradGradGradGradGradGradGradGradGrad

                          Input orientation:                          
 ---------------------------------------------------------------------
 Center     Atomic      Atomic             Coordinates (Angstroms)
 Number     Number       Type             X           Y           Z
 ---------------------------------------------------------------------
      1          8           0        1.046725   -1.137551    0.441555
      2          6           0        1.403877   -0.057305   -0.007962
      3          7           0        0.577970    0.872250   -0.501262
      4          6           0       -0.847892    0.645356   -0.641879
      5          6           0       -1.340308    1.669193   -1.672058
      6          8           0       -2.637075    1.659952   -1.952624
      7          8           0       -0.579623    2.437836   -2.201977
      8          6           0       -1.596516    0.736514    0.714541
      9          6           0       -2.949123    0.118477    0.668952
     10          6           0       -4.216117    0.648401    0.606522
     11          7           0       -5.158682   -0.351164    0.551065
     12          6           0       -4.488131   -1.474042    0.581487
     13          7           0       -3.142530   -1.250307    0.645486
     14          6           0        2.892229    0.323334   -0.003432
     15          6           0        3.704064   -0.947476    0.153169
     16          7           0        5.181166   -0.623855    0.323164
     17          1           0        0.916586    1.687793   -0.998476
     18          1           0       -1.003179   -0.354535   -1.053372
     19          1           0       -3.142851    1.072781   -1.359194
     20          1           0       -1.679656    1.779898    1.016610
     21          1           0       -0.978990    0.231321    1.456870
     22          1           0       -4.496256    1.688876    0.623141
     23          1           0       -4.909462   -2.464943    0.558787
     24          1           0       -2.422905   -1.950780    0.715181
     25          1           0        3.064170    0.999560    0.838804
     26          1           0        3.155890    0.859097   -0.917138
     27          1           0        3.628237   -1.596562   -0.715114
     28          1           0        3.395957   -1.508370    1.030168
     29          1           0        5.549606   -0.117453   -0.484310
     30          1           0        5.337079   -0.040483    1.147720
     31          1           0        5.735467   -1.474872    0.435567
 ---------------------------------------------------------------------
                    Distance matrix (angstroms):
                    1          2          3          4          5
     1  O    0.000000
     2  C    1.223337   0.000000
     3  N    2.268906   1.337737   0.000000
     4  C    2.818184   2.442549   1.450633   0.000000
     5  C    4.247716   3.644250   2.384464   1.533618   0.000000
     6  O    5.208503   4.802081   3.614338   2.438982   1.326804
     7  O    4.734624   3.869587   2.585249   2.391414   1.204271
     8  C    3.251671   3.186615   2.494993   1.551974   2.575148
     9  C    4.194772   4.408823   3.791828   2.532006   3.236253
    10  C    5.560066   5.697362   4.925501   3.592137   3.808440
    11  N    6.255994   6.592878   5.959304   4.582475   4.858405
    12  C    5.546841   6.088543   5.687075   4.386322   4.986701
    13  N    4.195731   4.745531   4.434231   3.242871   4.140350
    14  C    2.395430   1.536261   2.430008   3.807862   4.744472
    15  C    2.679691   2.471685   3.675887   4.887690   5.968592
    16  N    4.167914   3.833867   4.909931   6.236325   7.195040
    17  H    3.173830   2.064931   1.013407   2.080197   2.355340
    18  H    2.655189   2.641051   2.076020   1.092347   2.142872
    19  H    5.067624   4.876029   3.823711   2.442145   1.924253
    20  H    4.034272   3.732725   2.867862   2.174765   2.712258
    21  H    2.647300   2.811955   2.582478   2.143212   3.462400
    22  H    6.224652   6.185386   5.261077   3.999971   3.902349
    23  H    6.103431   6.780573   6.509414   5.254703   5.899712
    24  H    3.574149   4.330409   4.295868   3.325988   4.469354
    25  H    2.965660   2.142557   2.827221   4.197870   5.113928
    26  H    3.206436   2.176223   2.611283   4.018921   4.630546
    27  H    2.865795   2.795917   3.929999   5.006724   6.022236
    28  H    2.450074   2.674264   3.994206   5.044257   6.311191
    29  H    4.708903   4.173439   5.069217   6.444741   7.216215
    30  H    4.484347   4.099508   5.118725   6.475099   7.447257
    31  H    4.700864   4.579180   5.743379   6.999777   8.024576
                    6          7          8          9         10
     6  O    0.000000
     7  O    2.213683   0.000000
     8  C    3.008201   3.526280   0.000000
     9  C    3.057153   4.385909   1.487815   0.000000
    10  C    3.172670   4.930906   2.623307   1.374769   0.000000
    11  N    4.083081   6.027068   3.728109   2.261992   1.375004
    12  C    4.435093   6.190873   3.642211   2.216374   2.139949
    13  N    3.933862   5.317795   2.518409   1.382579   2.181559
    14  C    6.013244   4.621523   4.564541   5.883490   7.141869
    15  C    7.172384   5.946177   5.589911   6.757750   8.092071
    16  N    8.456943   6.995497   6.923926   8.171428   9.487247
    17  H    3.679631   2.061461   3.186697   4.492970   5.477316
    18  H    2.745256   3.048940   2.160544   2.641370   3.752878
    19  H    0.976083   3.023871   2.608564   2.249802   2.279482
    20  H    3.122081   3.464427   1.089408   2.119607   2.807506
    21  H    4.051528   4.291313   1.089775   2.124847   3.372838
    22  H    3.176784   4.886947   3.053496   2.204965   1.077656
    23  H    5.337198   7.099758   4.609685   3.244860   3.189971
    24  H    4.494489   5.582782   2.811488   2.135618   3.159613
    25  H    6.382193   4.959054   4.669757   6.079873   7.292451
    26  H    5.939028   4.254091   5.026208   6.351015   7.530765
    27  H    7.168713   6.016079   5.897898   6.936761   8.265619
    28  H    7.438602   6.467190   5.483057   6.560270   7.923055
    29  H    8.505108   6.859105   7.296133   8.579864   9.856256
    30  H    8.723001   7.236705   6.990430   8.301544   9.593279
    31  H    9.253650   7.883292   7.663291   8.832629  10.177010
                   11         12         13         14         15
    11  N    0.000000
    12  C    1.308212   0.000000
    13  N    2.209579   1.365575   0.000000
    14  C    8.098122   7.618557   6.270228   0.000000
    15  C    8.891691   8.220267   6.870948   1.516100   0.000000
    16  N   10.345954   9.710040   8.353458   2.498613   1.521664
    17  H    6.592974   6.457899   5.273658   2.599043   4.005117
    18  H    4.454484   4.008859   2.874952   4.090976   4.895453
    19  H    3.120943   3.473087   3.068466   6.230726   7.297186
    20  H    4.106310   4.320300   3.385244   4.905527   6.096600
    21  H    4.316202   3.998579   2.744899   4.138512   5.002018
    22  H    2.146105   3.163202   3.236026   7.539695   8.626498
    23  H    2.128434   1.076995   2.145904   8.304032   8.755572
    24  H    3.173354   2.123750   1.006668   5.825689   6.233957
    25  H    8.338018   7.951238   6.604726   1.093713   2.161137
    26  H    8.529505   8.131451   6.823598   1.091521   2.170198
    27  H    8.964606   8.220196   6.914797   2.175821   1.086727
    28  H    8.645838   7.896920   6.554876   2.162686   1.085661
    29  H   10.760764  10.184912   8.838158   2.736273   2.121637
    30  H   10.517296   9.945375   8.580192   2.726684   2.116249
    31  H   10.952558  10.224640   8.883317   3.392679   2.117663
                   16         17         18         19         20
    16  N    0.000000
    17  H    5.027633   0.000000
    18  H    6.341413   2.803501   0.000000
    19  H    8.660148   4.121575   2.590165   0.000000
    20  H    7.302724   3.287784   3.049303   2.878437   0.000000
    21  H    6.321719   3.426841   2.577814   3.649735   1.755805
    22  H    9.954457   5.650531   4.380389   2.478090   2.845407
    23  H   10.259917   7.322098   4.723549   4.394890   5.353496
    24  H    7.728927   5.227622   2.773337   3.736747   3.815919
    25  H    2.717174   2.908845   4.685855   6.585109   4.810865
    26  H    2.799864   2.389108   4.334666   6.317849   5.288645
    27  H    2.106127   4.268528   4.806981   7.306700   6.524804
    28  H    2.114047   4.525277   5.002487   7.424783   6.047705
    29  H    1.021864   4.998815   6.581720   8.817079   7.623314
    30  H    1.022020   5.209017   6.718803   8.912530   7.250210
    31  H    1.021819   5.939743   6.991527   9.409370   8.118817
                   21         22         23         24         25
    21  H    0.000000
    22  H    3.897529   0.000000
    23  H    4.850258   4.174816   0.000000
    24  H    2.719661   4.189791   2.543970   0.000000
    25  H    4.161651   7.594847   8.698275   6.231194   0.000000
    26  H    4.809080   7.849607   8.847457   6.456224   1.763938
    27  H    5.411581   8.865236   8.675783   6.227964   3.077772
    28  H    4.727447   8.524968   8.373602   5.844151   2.537009
    29  H    6.819999  10.266869  10.769905   8.268059   3.029149
    30  H    6.329469   9.998017  10.545921   8.003354   2.518578
    31  H    7.002720  10.711332  10.691582   8.177023   3.663502
                   26         27         28         29         30
    26  H    0.000000
    27  H    2.508821   0.000000
    28  H    3.074823   1.762879   0.000000
    29  H    2.621233   2.435712   2.977666   0.000000
    30  H    3.135358   2.968447   2.436486   1.647609   0.000000
    31  H    3.732484   2.404016   2.414121   1.650244   1.650257
                   31
    31  H    0.000000
 Symmetry turned off by external request.
 Stoichiometry    C9H15N4O3(1+)
 Framework group  C1[X(C9H15N4O3)]
 Deg. of freedom    87
 Full point group                 C1      NOp   1
 Rotational constants (GHZ):      0.9622962      0.2404423      0.2008015
 Standard basis: 6-311++G(2df,2pd) (5D, 7F)
   769 basis functions,  1102 primitive gaussians,   864 cartesian basis functions
    60 alpha electrons       60 beta electrons
       nuclear repulsion energy      1118.4755951547 Hartrees.
 NAtoms=   31 NActive=   31 NUniq=   31 SFac= 1.00D+00 NAtFMM=   60 NAOKFM=F Big=F
 Integral buffers will be    131072 words long.
 Raffenetti 2 integral format.
 Two-electron integral symmetry is turned off.
 Nuclear repulsion after empirical dispersion term =     1118.4201918030 Hartrees.
 One-electron integrals computed using PRISM.
 NBasis=   769 RedAO= T EigKep=  2.22D-06  NBF=   769
 NBsUse=   769 1.00D-06 EigRej= -1.00D+00 NBFU=   769
 Initial guess from the checkpoint file:  "conf-342.chk"
 B after Tr=     0.000000    0.000000    0.000000
         Rot=    1.000000    0.000000    0.000000    0.000000 Ang=   0.00 deg.
 Requested convergence on RMS density matrix=1.00D-08 within 128 cycles.
 Requested convergence on MAX density matrix=1.00D-06.
 Requested convergence on             energy=1.00D-06.
 No special actions if energy rises.
 SCF Done:  E(RB3LYP) =  -796.793031643     A.U. after    2 cycles
            NFock=  2  Conv=0.12D-08     -V/T= 2.0040

 **********************************************************************

            Population analysis using the SCF density.

 **********************************************************************

 Alpha  occ. eigenvalues --  -19.27099 -19.23450 -19.22001 -14.64334 -14.47495
 Alpha  occ. eigenvalues --  -14.46503 -14.38350 -10.42185 -10.42006 -10.41431
 Alpha  occ. eigenvalues --  -10.36135 -10.35032 -10.31690 -10.30804 -10.30317
 Alpha  occ. eigenvalues --  -10.28004  -1.21630  -1.21052  -1.18811  -1.13633
 Alpha  occ. eigenvalues --   -1.11467  -1.07022  -0.97410  -0.96967  -0.91892
 Alpha  occ. eigenvalues --   -0.86614  -0.83738  -0.79560  -0.79345  -0.78081
 Alpha  occ. eigenvalues --   -0.73818  -0.71818  -0.71103  -0.69904  -0.69195
 Alpha  occ. eigenvalues --   -0.67908  -0.65612  -0.64065  -0.61482  -0.61151
 Alpha  occ. eigenvalues --   -0.58853  -0.58045  -0.56947  -0.56174  -0.55265
 Alpha  occ. eigenvalues --   -0.54889  -0.53795  -0.52600  -0.51430  -0.51258
 Alpha  occ. eigenvalues --   -0.50602  -0.49518  -0.48226  -0.43223  -0.41195
 Alpha  occ. eigenvalues --   -0.40517  -0.39506  -0.38180  -0.36222  -0.33282
 Alpha virt. eigenvalues --   -0.20444  -0.15031  -0.14598  -0.13790  -0.12520
 Alpha virt. eigenvalues --   -0.11092  -0.10862  -0.09716  -0.09589  -0.09116
 Alpha virt. eigenvalues --   -0.08491  -0.07665  -0.06873  -0.06645  -0.06411
 Alpha virt. eigenvalues --   -0.06001  -0.05670  -0.05152  -0.04429  -0.04136
 Alpha virt. eigenvalues --   -0.03565  -0.03116  -0.02617  -0.01911  -0.01513
 Alpha virt. eigenvalues --   -0.01152  -0.00993  -0.00656  -0.00408  -0.00002
 Alpha virt. eigenvalues --    0.00293   0.00674   0.01006   0.01096   0.01816
 Alpha virt. eigenvalues --    0.02022   0.02415   0.02667   0.03117   0.03307
 Alpha virt. eigenvalues --    0.03474   0.03829   0.04646   0.04796   0.05084
 Alpha virt. eigenvalues --    0.05131   0.05380   0.05638   0.05844   0.06450
 Alpha virt. eigenvalues --    0.07019   0.07207   0.07629   0.07936   0.08112
 Alpha virt. eigenvalues --    0.08310   0.09055   0.09559   0.09995   0.10396
 Alpha virt. eigenvalues --    0.10729   0.10962   0.11523   0.11892   0.12243
 Alpha virt. eigenvalues --    0.12639   0.13066   0.13449   0.14033   0.14411
 Alpha virt. eigenvalues --    0.14855   0.15358   0.15745   0.16319   0.16598
 Alpha virt. eigenvalues --    0.16940   0.17257   0.18135   0.18339   0.18577
 Alpha virt. eigenvalues --    0.19120   0.19445   0.19580   0.19906   0.20709
 Alpha virt. eigenvalues --    0.21026   0.21434   0.22045   0.22417   0.22719
 Alpha virt. eigenvalues --    0.23499   0.23649   0.23984   0.24351   0.24451
 Alpha virt. eigenvalues --    0.25021   0.25223   0.25690   0.26671   0.26991
 Alpha virt. eigenvalues --    0.27740   0.28266   0.28496   0.28663   0.29290
 Alpha virt. eigenvalues --    0.29856   0.30630   0.31073   0.31563   0.31974
 Alpha virt. eigenvalues --    0.32281   0.33110   0.34130   0.35002   0.35770
 Alpha virt. eigenvalues --    0.36346   0.37271   0.37655   0.38731   0.39261
 Alpha virt. eigenvalues --    0.39620   0.40467   0.41062   0.42029   0.42176
 Alpha virt. eigenvalues --    0.42593   0.43208   0.43963   0.44324   0.44939
 Alpha virt. eigenvalues --    0.46005   0.46782   0.47201   0.47914   0.48598
 Alpha virt. eigenvalues --    0.49283   0.49572   0.50072   0.50636   0.51133
 Alpha virt. eigenvalues --    0.51554   0.52091   0.52854   0.53140   0.53379
 Alpha virt. eigenvalues --    0.54014   0.54427   0.55867   0.56714   0.56916
 Alpha virt. eigenvalues --    0.57216   0.58449   0.58758   0.59671   0.60083
 Alpha virt. eigenvalues --    0.60908   0.61171   0.61385   0.62134   0.63100
 Alpha virt. eigenvalues --    0.63660   0.64681   0.64752   0.65382   0.66054
 Alpha virt. eigenvalues --    0.66916   0.67334   0.68141   0.69435   0.70431
 Alpha virt. eigenvalues --    0.70839   0.72009   0.72688   0.73281   0.74055
 Alpha virt. eigenvalues --    0.74339   0.74902   0.75527   0.76344   0.77028
 Alpha virt. eigenvalues --    0.77916   0.79189   0.80302   0.81287   0.81488
 Alpha virt. eigenvalues --    0.81951   0.83148   0.84119   0.84846   0.85103
 Alpha virt. eigenvalues --    0.87179   0.87392   0.88472   0.89031   0.90287
 Alpha virt. eigenvalues --    0.91748   0.92146   0.93329   0.94128   0.94794
 Alpha virt. eigenvalues --    0.95374   0.95873   0.96262   0.96967   0.97699
 Alpha virt. eigenvalues --    0.98386   0.98813   0.99522   1.00099   1.01067
 Alpha virt. eigenvalues --    1.01505   1.02515   1.02989   1.03148   1.03727
 Alpha virt. eigenvalues --    1.04043   1.04952   1.06261   1.07190   1.07315
 Alpha virt. eigenvalues --    1.08202   1.08698   1.09597   1.10580   1.11023
 Alpha virt. eigenvalues --    1.11992   1.12189   1.12904   1.13327   1.14336
 Alpha virt. eigenvalues --    1.15772   1.16326   1.16740   1.18411   1.18703
 Alpha virt. eigenvalues --    1.19581   1.21238   1.22304   1.23401   1.24160
 Alpha virt. eigenvalues --    1.24544   1.25032   1.25667   1.26349   1.27404
 Alpha virt. eigenvalues --    1.28483   1.29262   1.30618   1.31653   1.32283
 Alpha virt. eigenvalues --    1.32494   1.33530   1.34558   1.34902   1.36063
 Alpha virt. eigenvalues --    1.36853   1.37379   1.37841   1.38433   1.38719
 Alpha virt. eigenvalues --    1.39494   1.40153   1.41098   1.41827   1.42315
 Alpha virt. eigenvalues --    1.43516   1.44167   1.44270   1.46327   1.47242
 Alpha virt. eigenvalues --    1.48904   1.49140   1.50133   1.50831   1.52767
 Alpha virt. eigenvalues --    1.53195   1.54505   1.55088   1.56527   1.58202
 Alpha virt. eigenvalues --    1.59166   1.59622   1.60926   1.61787   1.62081
 Alpha virt. eigenvalues --    1.64861   1.65195   1.66732   1.68015   1.70709
 Alpha virt. eigenvalues --    1.71757   1.73249   1.73530   1.77009   1.77934
 Alpha virt. eigenvalues --    1.78631   1.81250   1.82166   1.85167   1.87433
 Alpha virt. eigenvalues --    1.88296   1.91043   1.93626   1.95796   1.97011
 Alpha virt. eigenvalues --    2.01833   2.02589   2.03876   2.06262   2.07811
 Alpha virt. eigenvalues --    2.12053   2.14978   2.18447   2.23640   2.24734
 Alpha virt. eigenvalues --    2.26405   2.28561   2.31728   2.33995   2.37244
 Alpha virt. eigenvalues --    2.39625   2.42048   2.43195   2.45765   2.47660
 Alpha virt. eigenvalues --    2.48243   2.49246   2.50787   2.51784   2.54044
 Alpha virt. eigenvalues --    2.55884   2.56158   2.57546   2.59420   2.60935
 Alpha virt. eigenvalues --    2.61243   2.62882   2.63417   2.64098   2.65169
 Alpha virt. eigenvalues --    2.66181   2.67082   2.67886   2.68296   2.68768
 Alpha virt. eigenvalues --    2.71091   2.71948   2.73515   2.73618   2.74719
 Alpha virt. eigenvalues --    2.76511   2.76888   2.77118   2.77843   2.78439
 Alpha virt. eigenvalues --    2.79698   2.79800   2.80655   2.81435   2.82735
 Alpha virt. eigenvalues --    2.84102   2.84212   2.84408   2.86248   2.86290
 Alpha virt. eigenvalues --    2.86928   2.87873   2.88879   2.89964   2.90273
 Alpha virt. eigenvalues --    2.90975   2.91814   2.92452   2.93925   2.94258
 Alpha virt. eigenvalues --    2.95038   2.95818   2.96842   2.98675   2.99568
 Alpha virt. eigenvalues --    3.00244   3.00773   3.01446   3.02094   3.02171
 Alpha virt. eigenvalues --    3.03267   3.03643   3.04437   3.04818   3.05429
 Alpha virt. eigenvalues --    3.05864   3.07037   3.08087   3.08765   3.08966
 Alpha virt. eigenvalues --    3.10204   3.10894   3.12087   3.13774   3.14175
 Alpha virt. eigenvalues --    3.14621   3.15507   3.15742   3.16518   3.17029
 Alpha virt. eigenvalues --    3.18085   3.18721   3.18987   3.20620   3.20682
 Alpha virt. eigenvalues --    3.21376   3.22649   3.23167   3.24567   3.25445
 Alpha virt. eigenvalues --    3.26403   3.27316   3.27714   3.28345   3.29476
 Alpha virt. eigenvalues --    3.30205   3.30861   3.31059   3.31898   3.32559
 Alpha virt. eigenvalues --    3.32778   3.34821   3.35257   3.35516   3.36084
 Alpha virt. eigenvalues --    3.37310   3.39234   3.39727   3.40019   3.40693
 Alpha virt. eigenvalues --    3.41574   3.41805   3.42391   3.43045   3.44188
 Alpha virt. eigenvalues --    3.44509   3.45430   3.46131   3.48483   3.48933
 Alpha virt. eigenvalues --    3.49142   3.49922   3.51244   3.52338   3.53730
 Alpha virt. eigenvalues --    3.54137   3.54829   3.55493   3.55972   3.57469
 Alpha virt. eigenvalues --    3.58414   3.59731   3.60112   3.60788   3.61586
 Alpha virt. eigenvalues --    3.61952   3.63278   3.63885   3.64110   3.65131
 Alpha virt. eigenvalues --    3.65935   3.66649   3.68853   3.69726   3.70651
 Alpha virt. eigenvalues --    3.71311   3.72720   3.72883   3.73633   3.74946
 Alpha virt. eigenvalues --    3.75260   3.75584   3.76278   3.77256   3.77726
 Alpha virt. eigenvalues --    3.79741   3.80122   3.80309   3.81825   3.82406
 Alpha virt. eigenvalues --    3.82890   3.84238   3.84611   3.86287   3.86628
 Alpha virt. eigenvalues --    3.87956   3.88483   3.88936   3.89052   3.89979
 Alpha virt. eigenvalues --    3.90522   3.90736   3.92364   3.92595   3.93193
 Alpha virt. eigenvalues --    3.94075   3.94783   3.95776   3.96723   3.98622
 Alpha virt. eigenvalues --    3.99214   4.00124   4.01553   4.01744   4.03263
 Alpha virt. eigenvalues --    4.04518   4.04950   4.06170   4.06857   4.08629
 Alpha virt. eigenvalues --    4.08867   4.09645   4.11385   4.12007   4.13875
 Alpha virt. eigenvalues --    4.14274   4.16296   4.17541   4.17739   4.18542
 Alpha virt. eigenvalues --    4.19523   4.21757   4.22559   4.22951   4.24734
 Alpha virt. eigenvalues --    4.26468   4.28246   4.29694   4.31169   4.32200
 Alpha virt. eigenvalues --    4.34700   4.35393   4.38510   4.40009   4.41123
 Alpha virt. eigenvalues --    4.42030   4.43307   4.44702   4.45991   4.46985
 Alpha virt. eigenvalues --    4.47067   4.48785   4.49086   4.52233   4.53600
 Alpha virt. eigenvalues --    4.55832   4.56038   4.57239   4.60156   4.61117
 Alpha virt. eigenvalues --    4.63552   4.66245   4.68949   4.70226   4.71252
 Alpha virt. eigenvalues --    4.71836   4.73283   4.73724   4.76483   4.77575
 Alpha virt. eigenvalues --    4.78126   4.79226   4.80738   4.81478   4.81724
 Alpha virt. eigenvalues --    4.83208   4.84203   4.85397   4.88620   4.89458
 Alpha virt. eigenvalues --    4.91814   4.92020   4.93229   4.94343   4.95304
 Alpha virt. eigenvalues --    4.96209   4.97129   4.97523   4.97955   4.98439
 Alpha virt. eigenvalues --    4.99304   4.99987   5.00643   5.01441   5.02288
 Alpha virt. eigenvalues --    5.02751   5.03885   5.04429   5.06051   5.06450
 Alpha virt. eigenvalues --    5.06749   5.08828   5.09352   5.10830   5.11996
 Alpha virt. eigenvalues --    5.12630   5.12699   5.14698   5.16209   5.17091
 Alpha virt. eigenvalues --    5.19034   5.19618   5.20494   5.22447   5.24276
 Alpha virt. eigenvalues --    5.25795   5.26065   5.28245   5.30406   5.30967
 Alpha virt. eigenvalues --    5.32297   5.33630   5.35565   5.36001   5.38307
 Alpha virt. eigenvalues --    5.40156   5.41587   5.42925   5.43556   5.44452
 Alpha virt. eigenvalues --    5.44730   5.45425   5.46684   5.47837   5.51951
 Alpha virt. eigenvalues --    5.52164   5.52833   5.56376   5.58139   5.58830
 Alpha virt. eigenvalues --    5.60790   5.68116   5.69920   5.71449   5.73539
 Alpha virt. eigenvalues --    5.75584   5.80987   5.82967   5.83450   5.84886
 Alpha virt. eigenvalues --    5.86033   5.87239   5.89740   5.91584   5.92303
 Alpha virt. eigenvalues --    5.97481   5.99426   6.01778   6.13470   6.14621
 Alpha virt. eigenvalues --    6.17048   6.19896   6.20783   6.23562   6.26185
 Alpha virt. eigenvalues --    6.28232   6.32342   6.36445   6.38468   6.39662
 Alpha virt. eigenvalues --    6.46377   6.48632   6.62409   6.64868   6.74370
 Alpha virt. eigenvalues --    6.79353   6.81218   6.84941   6.91436   6.93225
 Alpha virt. eigenvalues --    6.95720   6.97561   7.00464   7.01420   7.07383
 Alpha virt. eigenvalues --    7.12373   7.13468   7.16298   7.20258   7.21544
 Alpha virt. eigenvalues --    7.34944   7.39892   7.46761   7.54397   7.59144
 Alpha virt. eigenvalues --    7.62045   7.72490   7.90306  24.45676  24.67149
 Alpha virt. eigenvalues --   24.71263  24.79350  24.87544  24.93935  24.94457
 Alpha virt. eigenvalues --   25.00857  25.05278  35.91936  36.14298  36.19268
 Alpha virt. eigenvalues --   36.38115  50.09089  50.11852  50.21121
          Condensed to atoms (all electrons):
               1          2          3          4          5          6
     1  O    8.206204   0.212030  -0.054191   0.050072  -0.002484   0.000015
     2  C    0.212030   7.952532   0.017587  -0.809108   0.079291   0.003647
     3  N   -0.054191   0.017587   6.552431   0.117870  -0.069937   0.003648
     4  C    0.050072  -0.809108   0.117870   8.378266  -0.799055  -0.090623
     5  C   -0.002484   0.079291  -0.069937  -0.799055   6.086249   0.388099
     6  O    0.000015   0.003647   0.003648  -0.090623   0.388099   7.763700
     7  O   -0.000529   0.037639  -0.023149  -0.078082   0.381648  -0.059744
     8  C    0.001187  -0.077048  -0.077411  -1.407817   0.258322   0.068591
     9  C   -0.028460  -0.135233   0.139280  -0.126110  -0.007925  -0.035365
    10  C   -0.002584   0.066301   0.003710   0.174173   0.000377  -0.004554
    11  N   -0.000002   0.004445   0.001848   0.013072  -0.009745  -0.006668
    12  C    0.000720   0.005457  -0.003524   0.088358  -0.044831  -0.009057
    13  N   -0.001312  -0.001561  -0.000462   0.029958  -0.001207   0.000051
    14  C    0.092038  -1.483903   0.008958   0.144161  -0.089637  -0.001534
    15  C   -0.056404   0.443660  -0.045490  -0.195061   0.028173  -0.000214
    16  N    0.007531  -0.023915   0.004331   0.008455   0.000362   0.000001
    17  H    0.001263  -0.058082   0.309662   0.060539  -0.040614   0.005428
    18  H   -0.001812   0.003475  -0.060317   0.465998  -0.091030  -0.006843
    19  H    0.000344   0.014000   0.001137   0.064487  -0.104027   0.216048
    20  H    0.005826   0.020702  -0.002853   0.021314  -0.040033  -0.007394
    21  H   -0.028594  -0.042038   0.012677  -0.094102   0.016249  -0.000952
    22  H   -0.000091  -0.000228  -0.000111   0.000101  -0.003407   0.000860
    23  H   -0.000029  -0.000884   0.000009  -0.002362   0.000489  -0.000486
    24  H    0.001361   0.003517   0.000381   0.005534   0.001236   0.001080
    25  H    0.001186  -0.181256   0.016219   0.020728   0.004081  -0.000036
    26  H    0.005678  -0.042973   0.011856   0.002515  -0.004630  -0.000191
    27  H   -0.007861  -0.007724   0.001357   0.007976   0.001106   0.000012
    28  H    0.005038   0.035672  -0.000476   0.003176  -0.001602   0.000005
    29  H   -0.000832  -0.005373  -0.000780   0.000092   0.000078   0.000000
    30  H    0.000772   0.005352  -0.000859   0.000233  -0.000156   0.000001
    31  H    0.001760  -0.002635   0.000473  -0.000501   0.000126   0.000000
               7          8          9         10         11         12
     1  O   -0.000529   0.001187  -0.028460  -0.002584  -0.000002   0.000720
     2  C    0.037639  -0.077048  -0.135233   0.066301   0.004445   0.005457
     3  N   -0.023149  -0.077411   0.139280   0.003710   0.001848  -0.003524
     4  C   -0.078082  -1.407817  -0.126110   0.174173   0.013072   0.088358
     5  C    0.381648   0.258322  -0.007925   0.000377  -0.009745  -0.044831
     6  O   -0.059744   0.068591  -0.035365  -0.004554  -0.006668  -0.009057
     7  O    8.090716  -0.005841  -0.021184   0.002880  -0.000002  -0.000245
     8  C   -0.005841  12.509703  -3.936118  -1.267901  -0.114526  -0.310257
     9  C   -0.021184  -3.936118  10.051124  -0.227821  -0.057832  -0.142009
    10  C    0.002880  -1.267901  -0.227821   7.284717   0.370168  -0.170982
    11  N   -0.000002  -0.114526  -0.057832   0.370168   6.865261   0.249076
    12  C   -0.000245  -0.310257  -0.142009  -0.170982   0.249076   5.392514
    13  N    0.000170  -0.215027   0.238887  -0.109586   0.071091   0.321227
    14  C   -0.026949  -0.190218   0.128267   0.005523  -0.000197   0.005607
    15  C    0.000876   0.000618   0.009411   0.000938   0.000063  -0.000255
    16  N    0.000023   0.000477   0.000299  -0.000006   0.000000  -0.000002
    17  H    0.053534   0.032419  -0.047908  -0.006825   0.000008  -0.000575
    18  H   -0.007857   0.123274  -0.159116  -0.024268   0.001113   0.005852
    19  H    0.010887  -0.099502   0.106081  -0.026352   0.006570   0.006212
    20  H   -0.001424   0.520627  -0.172236  -0.047236  -0.001918  -0.010174
    21  H   -0.002163   0.428840   0.036299  -0.066187   0.001832  -0.001879
    22  H   -0.000074  -0.062449  -0.110476   0.545950  -0.083547   0.032962
    23  H    0.000005  -0.004106   0.024891   0.019808  -0.080086   0.455831
    24  H    0.000144  -0.016927  -0.058841   0.045878  -0.001929  -0.044688
    25  H    0.000705  -0.005257   0.000374  -0.000604  -0.000005   0.000081
    26  H   -0.003843  -0.004837   0.006824   0.000533  -0.000001   0.000103
    27  H    0.000239  -0.000558  -0.001233  -0.000192   0.000004  -0.000042
    28  H   -0.000067   0.001132  -0.000692   0.000434  -0.000010  -0.000008
    29  H    0.000016  -0.000020  -0.000156  -0.000009   0.000000   0.000000
    30  H    0.000013   0.000056   0.000095   0.000005   0.000000  -0.000002
    31  H    0.000003  -0.000015   0.000258   0.000011   0.000000   0.000000
              13         14         15         16         17         18
     1  O   -0.001312   0.092038  -0.056404   0.007531   0.001263  -0.001812
     2  C   -0.001561  -1.483903   0.443660  -0.023915  -0.058082   0.003475
     3  N   -0.000462   0.008958  -0.045490   0.004331   0.309662  -0.060317
     4  C    0.029958   0.144161  -0.195061   0.008455   0.060539   0.465998
     5  C   -0.001207  -0.089637   0.028173   0.000362  -0.040614  -0.091030
     6  O    0.000051  -0.001534  -0.000214   0.000001   0.005428  -0.006843
     7  O    0.000170  -0.026949   0.000876   0.000023   0.053534  -0.007857
     8  C   -0.215027  -0.190218   0.000618   0.000477   0.032419   0.123274
     9  C    0.238887   0.128267   0.009411   0.000299  -0.047908  -0.159116
    10  C   -0.109586   0.005523   0.000938  -0.000006  -0.006825  -0.024268
    11  N    0.071091  -0.000197   0.000063   0.000000   0.000008   0.001113
    12  C    0.321227   0.005607  -0.000255  -0.000002  -0.000575   0.005852
    13  N    6.305682  -0.003163   0.000202  -0.000025   0.000916   0.013644
    14  C   -0.003163   6.648034  -0.335975   0.012051   0.017870   0.000900
    15  C    0.000202  -0.335975   5.881452   0.066730  -0.043168  -0.006656
    16  N   -0.000025   0.012051   0.066730   5.494677   0.001468  -0.000712
    17  H    0.000916   0.017870  -0.043168   0.001468   0.568731   0.010793
    18  H    0.013644   0.000900  -0.006656  -0.000712   0.010793   0.641002
    19  H    0.001508   0.002112   0.000653   0.000004  -0.006838  -0.005819
    20  H    0.001829   0.009964  -0.001616  -0.000065   0.001050   0.005670
    21  H    0.012868  -0.008206   0.006350   0.000282  -0.002092  -0.002928
    22  H    0.014014   0.000185   0.000071  -0.000001  -0.000515  -0.002113
    23  H   -0.078062   0.000073  -0.000027   0.000001   0.000006  -0.000135
    24  H    0.403745  -0.001350  -0.000080  -0.000015  -0.000106  -0.003512
    25  H   -0.000049   0.528672  -0.072142   0.009272   0.003697  -0.001963
    26  H   -0.000017   0.410971  -0.012638   0.004948  -0.006726  -0.000847
    27  H   -0.000087   0.009606   0.354202  -0.018487   0.002112  -0.000423
    28  H    0.000033  -0.044686   0.371864  -0.012412   0.000637   0.000616
    29  H   -0.000001   0.005139  -0.019151   0.374406   0.000328   0.000054
    30  H   -0.000007   0.002448  -0.027811   0.370550   0.000221   0.000034
    31  H   -0.000004  -0.005641  -0.024378   0.403698  -0.000319  -0.000143
              19         20         21         22         23         24
     1  O    0.000344   0.005826  -0.028594  -0.000091  -0.000029   0.001361
     2  C    0.014000   0.020702  -0.042038  -0.000228  -0.000884   0.003517
     3  N    0.001137  -0.002853   0.012677  -0.000111   0.000009   0.000381
     4  C    0.064487   0.021314  -0.094102   0.000101  -0.002362   0.005534
     5  C   -0.104027  -0.040033   0.016249  -0.003407   0.000489   0.001236
     6  O    0.216048  -0.007394  -0.000952   0.000860  -0.000486   0.001080
     7  O    0.010887  -0.001424  -0.002163  -0.000074   0.000005   0.000144
     8  C   -0.099502   0.520627   0.428840  -0.062449  -0.004106  -0.016927
     9  C    0.106081  -0.172236   0.036299  -0.110476   0.024891  -0.058841
    10  C   -0.026352  -0.047236  -0.066187   0.545950   0.019808   0.045878
    11  N    0.006570  -0.001918   0.001832  -0.083547  -0.080086  -0.001929
    12  C    0.006212  -0.010174  -0.001879   0.032962   0.455831  -0.044688
    13  N    0.001508   0.001829   0.012868   0.014014  -0.078062   0.403745
    14  C    0.002112   0.009964  -0.008206   0.000185   0.000073  -0.001350
    15  C    0.000653  -0.001616   0.006350   0.000071  -0.000027  -0.000080
    16  N    0.000004  -0.000065   0.000282  -0.000001   0.000001  -0.000015
    17  H   -0.006838   0.001050  -0.002092  -0.000515   0.000006  -0.000106
    18  H   -0.005819   0.005670  -0.002928  -0.002113  -0.000135  -0.003512
    19  H    0.477655   0.007557  -0.000599  -0.000783  -0.000692   0.000933
    20  H    0.007557   0.645975  -0.053198  -0.002817  -0.000357   0.001558
    21  H   -0.000599  -0.053198   0.693086   0.001920  -0.000587  -0.002989
    22  H   -0.000783  -0.002817   0.001920   0.575397   0.001060   0.001677
    23  H   -0.000692  -0.000357  -0.000587   0.001060   0.550139  -0.005475
    24  H    0.000933   0.001558  -0.002989   0.001677  -0.005475   0.517360
    25  H    0.000079  -0.000337   0.001475  -0.000035   0.000003   0.000010
    26  H    0.000309  -0.000465   0.000578   0.000038   0.000002  -0.000091
    27  H   -0.000013   0.000140  -0.000030  -0.000007  -0.000003   0.000032
    28  H   -0.000030  -0.000008  -0.001499   0.000001   0.000008  -0.000094
    29  H    0.000000   0.000023  -0.000015  -0.000001   0.000000   0.000000
    30  H   -0.000002   0.000009  -0.000058   0.000000   0.000000   0.000002
    31  H    0.000002  -0.000042   0.000085   0.000000   0.000000  -0.000006
              25         26         27         28         29         30
     1  O    0.001186   0.005678  -0.007861   0.005038  -0.000832   0.000772
     2  C   -0.181256  -0.042973  -0.007724   0.035672  -0.005373   0.005352
     3  N    0.016219   0.011856   0.001357  -0.000476  -0.000780  -0.000859
     4  C    0.020728   0.002515   0.007976   0.003176   0.000092   0.000233
     5  C    0.004081  -0.004630   0.001106  -0.001602   0.000078  -0.000156
     6  O   -0.000036  -0.000191   0.000012   0.000005   0.000000   0.000001
     7  O    0.000705  -0.003843   0.000239  -0.000067   0.000016   0.000013
     8  C   -0.005257  -0.004837  -0.000558   0.001132  -0.000020   0.000056
     9  C    0.000374   0.006824  -0.001233  -0.000692  -0.000156   0.000095
    10  C   -0.000604   0.000533  -0.000192   0.000434  -0.000009   0.000005
    11  N   -0.000005  -0.000001   0.000004  -0.000010   0.000000   0.000000
    12  C    0.000081   0.000103  -0.000042  -0.000008   0.000000  -0.000002
    13  N   -0.000049  -0.000017  -0.000087   0.000033  -0.000001  -0.000007
    14  C    0.528672   0.410971   0.009606  -0.044686   0.005139   0.002448
    15  C   -0.072142  -0.012638   0.354202   0.371864  -0.019151  -0.027811
    16  N    0.009272   0.004948  -0.018487  -0.012412   0.374406   0.370550
    17  H    0.003697  -0.006726   0.002112   0.000637   0.000328   0.000221
    18  H   -0.001963  -0.000847  -0.000423   0.000616   0.000054   0.000034
    19  H    0.000079   0.000309  -0.000013  -0.000030   0.000000  -0.000002
    20  H   -0.000337  -0.000465   0.000140  -0.000008   0.000023   0.000009
    21  H    0.001475   0.000578  -0.000030  -0.001499  -0.000015  -0.000058
    22  H   -0.000035   0.000038  -0.000007   0.000001  -0.000001   0.000000
    23  H    0.000003   0.000002  -0.000003   0.000008   0.000000   0.000000
    24  H    0.000010  -0.000091   0.000032  -0.000094   0.000000   0.000002
    25  H    0.686881  -0.067669   0.012917  -0.016324  -0.002275   0.001454
    26  H   -0.067669   0.657677  -0.018936   0.010769   0.001976  -0.002917
    27  H    0.012917  -0.018936   0.578235  -0.025011  -0.006536   0.004583
    28  H   -0.016324   0.010769  -0.025011   0.542707   0.003188  -0.005252
    29  H   -0.002275   0.001976  -0.006536   0.003188   0.538099  -0.026980
    30  H    0.001454  -0.002917   0.004583  -0.005252  -0.026980   0.538210
    31  H    0.000309   0.002314  -0.004664  -0.001366  -0.026239  -0.023387
              31
     1  O    0.001760
     2  C   -0.002635
     3  N    0.000473
     4  C   -0.000501
     5  C    0.000126
     6  O    0.000000
     7  O    0.000003
     8  C   -0.000015
     9  C    0.000258
    10  C    0.000011
    11  N    0.000000
    12  C    0.000000
    13  N   -0.000004
    14  C   -0.005641
    15  C   -0.024378
    16  N    0.403698
    17  H   -0.000319
    18  H   -0.000143
    19  H    0.000002
    20  H   -0.000042
    21  H    0.000085
    22  H    0.000000
    23  H    0.000000
    24  H   -0.000006
    25  H    0.000309
    26  H    0.002314
    27  H   -0.004664
    28  H   -0.001366
    29  H   -0.026239
    30  H   -0.023387
    31  H    0.519582
 Mulliken charges:
               1
     1  O   -0.407841
     2  C   -0.033346
     3  N    0.136126
     4  C   -0.054260
     5  C    0.064432
     6  O   -0.227526
     7  O   -0.348346
     8  C   -0.149411
     9  C    0.526625
    10  C   -0.566299
    11  N   -0.228080
    12  C    0.174532
    13  N   -0.005255
    14  C    0.158876
    15  C   -0.324197
    16  N    0.296077
    17  H    0.143087
    18  H    0.104068
    19  H    0.328079
    20  H    0.099929
    21  H    0.095574
    22  H    0.092418
    23  H    0.120966
    24  H    0.151658
    25  H    0.059807
    26  H    0.049691
    27  H    0.119283
    28  H    0.134256
    29  H    0.164969
    30  H    0.163392
    31  H    0.160716
 Sum of Mulliken charges =   1.00000
 Mulliken charges with hydrogens summed into heavy atoms:
               1
     1  O   -0.407841
     2  C   -0.033346
     3  N    0.279213
     4  C    0.049809
     5  C    0.064432
     6  O    0.100552
     7  O   -0.348346
     8  C    0.046092
     9  C    0.526625
    10  C   -0.473881
    11  N   -0.228080
    12  C    0.295498
    13  N    0.146402
    14  C    0.268374
    15  C   -0.070658
    16  N    0.785154
 Electronic spatial extent (au):  <R**2>=           5351.5015
 Charge=              1.0000 electrons
 Dipole moment (field-independent basis, Debye):
    X=             21.7447    Y=             -3.9852    Z=              2.7839  Tot=             22.2815
 Quadrupole moment (field-independent basis, Debye-Ang):
   XX=             13.1604   YY=            -88.1199   ZZ=            -96.8807
   XY=             -4.6184   XZ=              3.9099   YZ=              6.9026
 Traceless Quadrupole moment (field-independent basis, Debye-Ang):
   XX=             70.4404   YY=            -30.8398   ZZ=            -39.6006
   XY=             -4.6184   XZ=              3.9099   YZ=              6.9026
 Octapole moment (field-independent basis, Debye-Ang**2):
  XXX=            923.1404  YYY=            -91.1400  ZZZ=             53.2980  XYY=             58.6457
  XXY=           -106.3769  XXZ=             40.9095  XZZ=             94.5661  YZZ=            -39.5419
  YYZ=             39.7782  XYZ=             -9.3348
 Hexadecapole moment (field-independent basis, Debye-Ang**3):
 XXXX=          -2883.6081 YYYY=           -846.3503 ZZZZ=           -670.1722 XXXY=           -216.5710
 XXXZ=            276.7938 YYYX=            165.1273 YYYZ=            281.5765 ZZZX=             28.7041
 ZZZY=            286.2758 XXYY=           -779.2318 XXZZ=           -963.9599 YYZZ=           -297.7659
 XXYZ=             55.8008 YYXZ=            -32.7485 ZZXY=             61.0171
 N-N= 1.118420191803D+03 E-N=-4.082926803058D+03  KE= 7.935953916564D+02
 Calling FoFJK, ICntrl=      2127 FMM=F ISym2X=0 I1Cent= 0 IOpClX= 0 NMat=1 NMatS=1 NMatT=0.
 -------------------------------------------------------------------
 Center     Atomic                   Forces (Hartrees/Bohr)
 Number     Number              X              Y              Z
 -------------------------------------------------------------------
      1        8           0.000000716    0.000047741    0.000021696
      2        6           0.000039325   -0.000046065    0.000008840
      3        7           0.000017638   -0.000031592   -0.000015231
      4        6          -0.000009979   -0.000001882   -0.000000415
      5        6           0.000014569    0.000008692    0.000000140
      6        8          -0.000008370    0.000000830    0.000003171
      7        8          -0.000005345   -0.000004575    0.000003919
      8        6           0.000000542   -0.000001103    0.000001847
      9        6          -0.000003531   -0.000000354    0.000007411
     10        6           0.000006579    0.000000255   -0.000006576
     11        7           0.000002648   -0.000003745    0.000001221
     12        6          -0.000002265    0.000003074   -0.000002014
     13        7           0.000000601    0.000000708   -0.000000180
     14        6           0.000001442    0.000057375   -0.000017447
     15        6           0.000019526   -0.000076305   -0.000020932
     16        7          -0.000024462    0.000012135    0.000017027
     17        1           0.000001976    0.000001359    0.000008492
     18        1           0.000000225    0.000003499   -0.000005780
     19        1           0.000001541   -0.000000610   -0.000000900
     20        1          -0.000004526   -0.000000755   -0.000002356
     21        1          -0.000000021    0.000000666   -0.000001919
     22        1           0.000000009   -0.000001513    0.000003328
     23        1           0.000000753    0.000001701    0.000000325
     24        1           0.000000597    0.000001955    0.000000200
     25        1          -0.000014062   -0.000021972    0.000014889
     26        1           0.000000810   -0.000006698    0.000003480
     27        1          -0.000005804    0.000020193    0.000002172
     28        1          -0.000024630    0.000035584   -0.000018773
     29        1          -0.000006042   -0.000000649    0.000000193
     30        1           0.000002731    0.000002225   -0.000002805
     31        1          -0.000003189   -0.000000175   -0.000003022
 -------------------------------------------------------------------
 Cartesian Forces:  Max     0.000076305 RMS     0.000016044

 GradGradGradGradGradGradGradGradGradGradGradGradGradGradGradGradGradGrad
 Berny optimization.
 FormGI is forming the generalized inverse of G from B-inverse, IUseBI=4.
 GSVD:  received Info=                   1 from GESDD.
 Internal  Forces:  Max     0.000072360 RMS     0.000011497
 Search for a local minimum.
 Step number   1 out of a maximum of  167
 All quantities printed in internal units (Hartrees-Bohrs-Radians)
 Mixed Optimization -- En-DIIS/RFO-DIIS
 Second derivative matrix not updated -- first step.
 ITU=  0
     Eigenvalues ---    0.00011   0.00125   0.00199   0.00297   0.00347
     Eigenvalues ---    0.00487   0.00567   0.00615   0.00988   0.01021
     Eigenvalues ---    0.01836   0.02073   0.02579   0.02796   0.03567
     Eigenvalues ---    0.03930   0.03962   0.04140   0.04247   0.04350
     Eigenvalues ---    0.04638   0.04676   0.04896   0.05004   0.05082
     Eigenvalues ---    0.05184   0.05546   0.06087   0.06476   0.07025
     Eigenvalues ---    0.07802   0.07912   0.10151   0.10434   0.11041
     Eigenvalues ---    0.11222   0.11556   0.11864   0.12581   0.12782
     Eigenvalues ---    0.13187   0.15109   0.15948   0.17473   0.17885
     Eigenvalues ---    0.18223   0.19043   0.19401   0.20010   0.21834
     Eigenvalues ---    0.22732   0.23243   0.23385   0.24610   0.24688
     Eigenvalues ---    0.26202   0.26278   0.31103   0.32115   0.32754
     Eigenvalues ---    0.32977   0.33824   0.33906   0.34346   0.34621
     Eigenvalues ---    0.35311   0.35865   0.36040   0.37237   0.37405
     Eigenvalues ---    0.38688   0.39268   0.40116   0.42720   0.42784
     Eigenvalues ---    0.43242   0.43367   0.44552   0.45538   0.46376
     Eigenvalues ---    0.47635   0.48312   0.50723   0.53916   0.58731
     Eigenvalues ---    0.77243   0.80886
 RFO step:  Lambda=-9.89429842D-06 EMin= 1.06274481D-04
 Linear search not attempted -- first point.
 Iteration  1 RMS(Cart)=  0.06247793 RMS(Int)=  0.00245417
 Iteration  2 RMS(Cart)=  0.00324213 RMS(Int)=  0.00000944
 Iteration  3 RMS(Cart)=  0.00000745 RMS(Int)=  0.00000895
 Iteration  4 RMS(Cart)=  0.00000000 RMS(Int)=  0.00000895
 Variable       Old X    -DE/DX   Delta X   Delta X   Delta X     New X
                                 (Linear)    (Quad)   (Total)
    R1        2.31177  -0.00003   0.00000   0.00006   0.00006   2.31183
    R2        2.52796  -0.00002   0.00000   0.00161   0.00161   2.52957
    R3        2.90311  -0.00005   0.00000  -0.00106  -0.00106   2.90205
    R4        2.74130   0.00001   0.00000   0.00031   0.00031   2.74161
    R5        1.91506   0.00000   0.00000   0.00039   0.00039   1.91545
    R6        2.89812   0.00000   0.00000  -0.00044  -0.00044   2.89768
    R7        2.93281   0.00000   0.00000  -0.00055  -0.00055   2.93226
    R8        2.06424   0.00000   0.00000   0.00017   0.00017   2.06441
    R9        2.50730   0.00001   0.00000  -0.00061  -0.00061   2.50669
   R10        2.27574  -0.00001   0.00000  -0.00225  -0.00225   2.27349
   R11        1.84453   0.00000   0.00000   0.00002   0.00002   1.84454
   R12        2.81156  -0.00001   0.00000   0.00008   0.00008   2.81164
   R13        2.05868   0.00000   0.00000   0.00016   0.00016   2.05884
   R14        2.05938   0.00000   0.00000   0.00026   0.00026   2.05963
   R15        2.59794  -0.00001   0.00000  -0.00014  -0.00014   2.59780
   R16        2.61270   0.00000   0.00000  -0.00023  -0.00023   2.61246
   R17        2.59838   0.00000   0.00000  -0.00004  -0.00004   2.59834
   R18        2.03647   0.00000   0.00000   0.00012   0.00012   2.03660
   R19        2.47216   0.00000   0.00000  -0.00033  -0.00033   2.47183
   R20        2.58056   0.00000   0.00000  -0.00008  -0.00008   2.58049
   R21        2.03523   0.00000   0.00000   0.00008   0.00008   2.03531
   R22        1.90233   0.00000   0.00000  -0.00001  -0.00001   1.90231
   R23        2.86501  -0.00002   0.00000   0.00131   0.00131   2.86632
   R24        2.06682   0.00000   0.00000   0.00067   0.00067   2.06749
   R25        2.06268  -0.00001   0.00000   0.00032   0.00032   2.06299
   R26        2.87553  -0.00003   0.00000  -0.00054  -0.00054   2.87499
   R27        2.05362  -0.00001   0.00000  -0.00061  -0.00061   2.05301
   R28        2.05160  -0.00003   0.00000  -0.00098  -0.00098   2.05062
   R29        1.93104   0.00000   0.00000  -0.00006  -0.00006   1.93098
   R30        1.93134   0.00000   0.00000   0.00011   0.00011   1.93144
   R31        1.93096   0.00000   0.00000  -0.00019  -0.00019   1.93076
    A1        2.17590  -0.00001   0.00000   0.00131   0.00128   2.17718
    A2        2.09503   0.00000   0.00000  -0.00226  -0.00228   2.09275
    A3        2.01203   0.00001   0.00000   0.00071   0.00069   2.01272
    A4        2.13401   0.00000   0.00000  -0.00192  -0.00197   2.13205
    A5        2.13392   0.00000   0.00000  -0.00122  -0.00127   2.13265
    A6        1.98968   0.00000   0.00000  -0.00065  -0.00070   1.98898
    A7        1.85073   0.00001   0.00000   0.00079   0.00079   1.85153
    A8        1.96084   0.00000   0.00000  -0.00107  -0.00107   1.95976
    A9        1.89591   0.00000   0.00000  -0.00064  -0.00064   1.89527
   A10        1.97469   0.00000   0.00000   0.00215   0.00215   1.97683
   A11        1.88852   0.00000   0.00000  -0.00092  -0.00092   1.88759
   A12        1.89065   0.00000   0.00000  -0.00039  -0.00040   1.89026
   A13        2.03891  -0.00001   0.00000   0.00004   0.00004   2.03895
   A14        2.11633   0.00000   0.00000   0.00005   0.00005   2.11638
   A15        2.12793   0.00000   0.00000  -0.00009  -0.00010   2.12783
   A16        1.96283   0.00000   0.00000  -0.00036  -0.00036   1.96246
   A17        1.96856   0.00000   0.00000   0.00032   0.00032   1.96887
   A18        1.91283   0.00000   0.00000   0.00014   0.00014   1.91298
   A19        1.87002   0.00000   0.00000   0.00038   0.00038   1.87040
   A20        1.91449   0.00000   0.00000  -0.00066  -0.00066   1.91383
   A21        1.92140   0.00000   0.00000   0.00065   0.00065   1.92205
   A22        1.87377   0.00000   0.00000  -0.00087  -0.00087   1.87291
   A23        2.31736   0.00000   0.00000  -0.00048  -0.00048   2.31689
   A24        2.13999   0.00000   0.00000   0.00058   0.00058   2.14056
   A25        1.82547   0.00000   0.00000  -0.00008  -0.00008   1.82538
   A26        1.93197   0.00000   0.00000   0.00011   0.00011   1.93208
   A27        2.22817   0.00000   0.00000  -0.00016  -0.00016   2.22801
   A28        2.12269   0.00000   0.00000   0.00008   0.00007   2.12276
   A29        1.84592   0.00000   0.00000  -0.00014  -0.00014   1.84578
   A30        1.94500   0.00000   0.00000   0.00012   0.00012   1.94512
   A31        2.20025   0.00000   0.00000  -0.00012  -0.00012   2.20013
   A32        2.13793   0.00000   0.00000   0.00001   0.00001   2.13794
   A33        1.87637   0.00000   0.00000   0.00000   0.00000   1.87637
   A34        2.19903   0.00000   0.00000  -0.00006  -0.00006   2.19897
   A35        2.20637   0.00000   0.00000   0.00009   0.00009   2.20647
   A36        1.88746  -0.00007   0.00000  -0.00306  -0.00308   1.88438
   A37        1.88364   0.00000   0.00000  -0.00959  -0.00959   1.87405
   A38        1.93175   0.00004   0.00000   0.01018   0.01018   1.94194
   A39        1.93321   0.00002   0.00000   0.00210   0.00207   1.93528
   A40        1.94824   0.00001   0.00000   0.00234   0.00233   1.95057
   A41        1.87881   0.00000   0.00000  -0.00223  -0.00221   1.87660
   A42        1.93164  -0.00002   0.00000  -0.00182  -0.00182   1.92982
   A43        1.96141   0.00000   0.00000   0.00047   0.00047   1.96188
   A44        1.94392  -0.00002   0.00000  -0.00147  -0.00147   1.94245
   A45        1.85878   0.00002   0.00000   0.00114   0.00114   1.85992
   A46        1.87037   0.00002   0.00000   0.00296   0.00296   1.87333
   A47        1.89341   0.00001   0.00000  -0.00103  -0.00104   1.89237
   A48        1.94670  -0.00001   0.00000   0.00142   0.00142   1.94812
   A49        1.93865   0.00001   0.00000  -0.00029  -0.00029   1.93836
   A50        1.94093   0.00000   0.00000  -0.00118  -0.00118   1.93976
   A51        1.87512   0.00000   0.00000  -0.00015  -0.00015   1.87498
   A52        1.87975   0.00000   0.00000   0.00129   0.00129   1.88104
   A53        1.87957   0.00000   0.00000  -0.00110  -0.00110   1.87846
    D1       -0.08024  -0.00001   0.00000   0.00459   0.00458  -0.07566
    D2       -2.96628  -0.00001   0.00000   0.02332   0.02330  -2.94297
    D3        3.08420   0.00001   0.00000   0.01703   0.01704   3.10124
    D4        0.19816   0.00000   0.00000   0.03576   0.03576   0.23392
    D5        0.33230   0.00002   0.00000   0.11473   0.11473   0.44703
    D6       -1.75991   0.00003   0.00000   0.11935   0.11932  -1.64060
    D7        2.47145   0.00001   0.00000   0.12203   0.12204   2.59349
    D8       -2.83099   0.00001   0.00000   0.10295   0.10297  -2.72803
    D9        1.35998   0.00002   0.00000   0.10757   0.10755   1.46753
   D10       -0.69185  -0.00001   0.00000   0.11025   0.11027  -0.58157
   D11       -2.78786  -0.00001   0.00000   0.01486   0.01486  -2.77300
   D12        1.32977  -0.00001   0.00000   0.01230   0.01230   1.34206
   D13       -0.76155  -0.00001   0.00000   0.01389   0.01388  -0.74766
   D14        0.11756   0.00000   0.00000  -0.00251  -0.00250   0.11506
   D15       -2.04799   0.00000   0.00000  -0.00507  -0.00507  -2.05306
   D16        2.14388   0.00000   0.00000  -0.00348  -0.00348   2.14040
   D17       -3.12740   0.00000   0.00000   0.00809   0.00809  -3.11931
   D18        0.02013   0.00000   0.00000   0.00943   0.00942   0.02955
   D19       -0.97051   0.00000   0.00000   0.00866   0.00866  -0.96185
   D20        2.17701   0.00000   0.00000   0.00999   0.00999   2.18701
   D21        1.12448   0.00000   0.00000   0.00888   0.00888   1.13335
   D22       -2.01119   0.00000   0.00000   0.01021   0.01021  -2.00098
   D23       -2.84023   0.00001   0.00000   0.00089   0.00089  -2.83934
   D24        1.30462   0.00000   0.00000   0.00142   0.00142   1.30604
   D25       -0.72319   0.00000   0.00000   0.00216   0.00216  -0.72103
   D26        1.34791   0.00000   0.00000  -0.00091  -0.00091   1.34699
   D27       -0.79043   0.00000   0.00000  -0.00039  -0.00039  -0.79082
   D28       -2.81824   0.00000   0.00000   0.00036   0.00036  -2.81788
   D29       -0.74586   0.00000   0.00000  -0.00083  -0.00083  -0.74669
   D30       -2.88420   0.00000   0.00000  -0.00030  -0.00030  -2.88450
   D31        1.37118   0.00000   0.00000   0.00044   0.00044   1.37162
   D32        0.14545   0.00000   0.00000  -0.00187  -0.00187   0.14358
   D33       -3.00212   0.00000   0.00000  -0.00321  -0.00321  -3.00533
   D34       -1.81626   0.00000   0.00000  -0.00329  -0.00329  -1.81954
   D35        1.29125   0.00000   0.00000  -0.00260  -0.00260   1.28866
   D36        0.32116   0.00000   0.00000  -0.00336  -0.00336   0.31779
   D37       -2.85452   0.00000   0.00000  -0.00267  -0.00267  -2.85719
   D38        2.37933   0.00000   0.00000  -0.00443  -0.00443   2.37490
   D39       -0.79635   0.00000   0.00000  -0.00374  -0.00374  -0.80009
   D40        3.11533   0.00000   0.00000   0.00026   0.00026   3.11559
   D41       -0.05489   0.00000   0.00000   0.00115   0.00115  -0.05374
   D42        0.00341   0.00000   0.00000  -0.00036  -0.00036   0.00305
   D43        3.11637   0.00000   0.00000   0.00054   0.00054   3.11691
   D44       -3.12331   0.00000   0.00000  -0.00030  -0.00030  -3.12361
   D45        0.07255   0.00000   0.00000  -0.00107  -0.00107   0.07147
   D46       -0.00756   0.00000   0.00000   0.00021   0.00021  -0.00736
   D47       -3.09490   0.00000   0.00000  -0.00056  -0.00056  -3.09546
   D48        0.00224   0.00000   0.00000   0.00037   0.00037   0.00261
   D49       -3.11274   0.00000   0.00000  -0.00046  -0.00046  -3.11320
   D50       -0.00726   0.00000   0.00000  -0.00023  -0.00023  -0.00749
   D51        3.13612   0.00000   0.00000  -0.00001  -0.00001   3.13611
   D52        0.00960   0.00000   0.00000   0.00001   0.00001   0.00962
   D53        3.09664   0.00000   0.00000   0.00078   0.00078   3.09742
   D54       -3.13371   0.00000   0.00000  -0.00020  -0.00020  -3.13391
   D55       -0.04667   0.00000   0.00000   0.00057   0.00057  -0.04610
   D56       -3.02973   0.00002   0.00000   0.01941   0.01941  -3.01032
   D57        1.17779   0.00001   0.00000   0.01889   0.01889   1.19668
   D58       -0.95090   0.00002   0.00000   0.02096   0.02097  -0.92993
   D59       -0.96894  -0.00001   0.00000   0.00712   0.00712  -0.96183
   D60       -3.04461  -0.00002   0.00000   0.00660   0.00660  -3.03801
   D61        1.10989  -0.00001   0.00000   0.00868   0.00868   1.11857
   D62        1.12441   0.00001   0.00000   0.00727   0.00727   1.13168
   D63       -0.95125   0.00001   0.00000   0.00675   0.00675  -0.94450
   D64       -3.07994   0.00001   0.00000   0.00883   0.00883  -3.07111
   D65       -1.04929  -0.00001   0.00000  -0.00488  -0.00488  -1.05417
   D66        1.04204  -0.00001   0.00000  -0.00431  -0.00431   1.03773
   D67        3.13513  -0.00001   0.00000  -0.00668  -0.00668   3.12846
   D68        1.08747  -0.00001   0.00000  -0.00465  -0.00465   1.08282
   D69       -3.10438  -0.00001   0.00000  -0.00408  -0.00408  -3.10847
   D70       -1.01129  -0.00001   0.00000  -0.00645  -0.00645  -1.01774
   D71        3.11116   0.00002   0.00000  -0.00386  -0.00386   3.10730
   D72       -1.08069   0.00001   0.00000  -0.00329  -0.00329  -1.08399
   D73        1.01240   0.00002   0.00000  -0.00566  -0.00566   1.00674
         Item               Value     Threshold  Converged?
 Maximum Force            0.000072     0.000450     YES
 RMS     Force            0.000011     0.000300     YES
 Maximum Displacement     0.255154     0.001800     NO 
 RMS     Displacement     0.063077     0.001200     NO 
 Predicted change in Energy=-5.349638D-06
 GradGradGradGradGradGradGradGradGradGradGradGradGradGradGradGradGradGrad

                          Input orientation:                          
 ---------------------------------------------------------------------
 Center     Atomic      Atomic             Coordinates (Angstroms)
 Number     Number       Type             X           Y           Z
 ---------------------------------------------------------------------
      1          8           0        1.046357   -1.133197    0.481434
      2          6           0        1.403959   -0.056172    0.024526
      3          7           0        0.580548    0.866048   -0.488628
      4          6           0       -0.843558    0.632470   -0.637548
      5          6           0       -1.327994    1.625303   -1.700973
      6          8           0       -2.623195    1.611414   -1.987011
      7          8           0       -0.563063    2.373185   -2.251386
      8          6           0       -1.604302    0.757118    0.709096
      9          6           0       -2.954977    0.134435    0.668288
     10          6           0       -4.222534    0.659832    0.584355
     11          7           0       -5.162669   -0.342784    0.545844
     12          6           0       -4.490077   -1.462926    0.608022
     13          7           0       -3.145463   -1.234810    0.676282
     14          6           0        2.888559    0.335175    0.058906
     15          6           0        3.708214   -0.940750    0.087915
     16          7           0        5.180093   -0.625658    0.308998
     17          1           0        0.922791    1.666831   -1.007305
     18          1           0       -0.992178   -0.378760   -1.023230
     19          1           0       -3.133004    1.043048   -1.378892
     20          1           0       -1.693341    1.807914    0.982764
     21          1           0       -0.991710    0.274500    1.470488
     22          1           0       -4.504767    1.699885    0.573630
     23          1           0       -4.909267   -2.455038    0.605903
     24          1           0       -2.424865   -1.931817    0.767302
     25          1           0        3.050430    0.923427    0.967060
     26          1           0        3.151578    0.965878   -0.792457
     27          1           0        3.646597   -1.493855   -0.845121
     28          1           0        3.392551   -1.593644    0.895146
     29          1           0        5.555195   -0.036663   -0.437007
     30          1           0        5.320911   -0.129087    1.191170
     31          1           0        5.738911   -1.480357    0.342420
 ---------------------------------------------------------------------
                    Distance matrix (angstroms):
                    1          2          3          4          5
     1  O    0.000000
     2  C    1.223367   0.000000
     3  N    2.270458   1.338590   0.000000
     4  C    2.818064   2.442111   1.450798   0.000000
     5  C    4.243791   3.642564   2.385117   1.533384   0.000000
     6  O    5.204971   4.800531   3.614512   2.438542   1.326483
     7  O    4.727923   3.866617   2.585850   2.390238   1.203080
     8  C    3.263604   3.190566   2.493989   1.551683   2.576533
     9  C    4.201485   4.410338   3.791260   2.532062   3.237770
    10  C    5.566574   5.699429   4.925791   3.593226   3.812245
    11  N    6.259465   6.593521   5.959526   4.583258   4.860688
    12  C    5.547688   6.087617   5.686651   4.386255   4.986721
    13  N    4.197576   4.744598   4.433258   3.242168   4.139418
    14  C    2.393398   1.535699   2.430748   3.808167   4.747728
    15  C    2.697661   2.469025   3.657761   4.870313   5.928587
    16  N    4.168346   3.829416   4.900736   6.226011   7.173703
    17  H    3.173605   2.065173   1.013612   2.080051   2.355617
    18  H    2.643637   2.635020   2.075768   1.092440   2.142049
    19  H    5.065956   4.874618   3.822874   2.441255   1.923751
[...]
 9,-0.00001852,-0.00000317,-0.00000999,-0.00000086,-0.00000044,-0.00000
 525,0.00001741,0.00000219,-0.03325602,-0.11218341,-0.22360523,0.000618
 63,0.00069574,0.00195535,0.00039002,0.00074773,0.00088352,-0.00000399,
 -0.00046084,-0.00044154,0.00005220,0.00000738,-0.00002480,0.00001811,0
 .00000103,-0.00000406,-0.00000544,0.00001037,0.00000489,-0.00000887,0.
 00002011,-0.00003294,0.00000187,-0.00000158,0.00000026,0.00000009,0.00
 000065,-0.00000115,0.00000085,0.00000736,-0.00000379,0.03759939,0.1245
 5020,0.23945495,-0.00763433,-0.00377104,-0.00182012,0.00024024,-0.0180
 2774,0.02804019,0.00071045,0.00106719,-0.00152284,0.00004897,-0.000066
 68,-0.00026443,-0.00028080,-0.00026069,0.00016069,0.00018035,0.0000791
 5,-0.00001684,0.00023904,0.00017464,-0.00017586,0.00015910,0.00005365,
 0.00002929,0.00003621,-0.00005642,-0.00005785,-0.00001593,0.00000451,-
 0.00002309,-0.00003536,0.00002480,-0.00000002,0.00006004,0.00001621,0.
 00000767,-0.00003764,0.00000335,-0.00000057,-0.06371440,-0.03076486,0.
 04969269,0.00358424,0.01336788,-0.01788852,0.00180650,-0.00021210,-0.0
 0035121,-0.00174582,0.00046035,-0.00011619,0.00007820,0.00005665,0.000
 03860,-0.00002026,-0.00003181,0.00005263,-0.00001976,0.00001311,-0.000
 00852,0.00003799,-0.00003660,-0.00006704,-0.00000273,0.00000223,0.0000
 0520,0.00000008,0.00000076,0.00000036,0.00007283,0.00000970,-0.0000052
 2,0.00117132,0.00360830,-0.00458573,0.06764529,-0.00232518,0.00053247,
 0.00001750,-0.00227588,-0.00660716,0.00567644,0.00179892,0.00009885,-0
 .00035390,-0.00034904,-0.00029013,-0.00055537,-0.00003339,0.00010069,-
 0.00002803,0.00001447,-0.00002848,0.00002133,-0.00000043,-0.00010480,0
 .00000506,0.00015114,0.00005740,0.00007519,0.00003287,-0.00004465,-0.0
 0005399,-0.00002114,0.00001389,-0.00000230,0.00001259,0.00003169,0.000
 00428,0.00003422,0.00000092,0.00000174,-0.00001132,-0.00001906,-0.0000
 0509,-0.03028155,-0.12888923,0.11479421,-0.00736598,-0.01715482,0.0222
 8005,-0.00036452,0.00100386,-0.00031350,0.00049496,0.00102600,0.000153
 51,-0.00005301,0.00003961,0.00004149,-0.00001404,0.00000174,0.00000229
 ,0.00000065,0.00000106,-0.00001055,-0.00000226,-0.00001675,0.00000159,
 -0.00000157,0.00000135,-0.00000065,0.00000093,-0.00000030,0.00000187,0
 .00001732,-0.00000620,0.00000719,0.00439976,0.01097834,-0.01380922,0.0
 3253138,0.14154158,-0.00052202,-0.00107956,0.00099022,-0.00162781,-0.0
 0039377,0.00042918,-0.00029765,-0.00035819,0.00022848,0.00019925,-0.00
 006925,0.00039341,0.00005038,0.00007742,-0.00006972,0.00001263,-0.0000
 1809,0.00002475,-0.00000793,-0.00009767,-0.00002194,-0.00009477,-0.000
 01472,-0.00005808,-0.00001319,0.00001766,0.00003321,0.00000307,0.00000
 094,0.00000934,0.00001701,-0.00001245,-0.00000505,-0.00003015,-0.00000
 114,-0.00000121,0.00001941,-0.00000490,-0.00000439,0.04984414,0.116543
 24,-0.21473447,-0.00048830,-0.00129090,0.00170587,-0.00056510,-0.00020
 939,0.00013955,0.00013130,-0.00026843,0.00052957,-0.00003789,-0.000031
 60,-0.00001703,-0.00000840,0.00000641,0.00000284,0.00001135,-0.0000032
 5,-0.00000635,-0.00000951,-0.00000836,0.00001809,0.00000006,0.00000082
 ,-0.00000007,-0.00000093,-0.00000062,0.00000070,-0.00002031,-0.0000030
 4,0.00000184,0.00643128,0.01488135,-0.02033828,-0.05222949,-0.12767571
 ,0.22888603,-0.00043692,-0.00109043,-0.00042561,0.00203524,0.00145563,
 0.00031167,-0.00050703,-0.00010832,-0.00028718,0.00010330,0.00010922,0
 .00004795,0.00003009,-0.00000467,0.00003617,-0.00004922,0.00000142,-0.
 00002548,-0.00003115,-0.00001689,-0.00003737,-0.00001652,-0.00001935,0
 .00000100,0.00000221,0.00001841,0.00000294,0.00001415,-0.00000383,-0.0
 0000209,-0.00000767,-0.00002322,-0.00000178,-0.00002276,-0.00000138,-0
 .00000144,0.00000298,-0.00000095,-0.00000986,0.00176820,0.00892754,0.0
 1679693,-0.04920971,0.00059132,0.00401530,-0.01265488,-0.02034742,-0.0
 3594240,0.00005652,-0.00002015,0.00012154,-0.00005155,-0.00001843,0.00
 001296,0.00000628,0.00000990,0.00000701,0.00001200,-0.00000740,-0.0000
 0231,0.00000472,0.00001281,-0.00000181,0.00000215,-0.00000126,0.000001
 61,-0.00000221,0.00000007,0.00000231,-0.00000487,0.00001502,0.00001729
 ,-0.00204160,0.00315956,-0.00070429,0.00056051,-0.00064466,-0.00055295
 ,0.06177309,0.00007522,0.00031705,-0.00036156,-0.00092940,-0.00024150,
 0.00000744,0.00012633,0.00007227,0.00028571,0.00000270,-0.00000370,0.0
 0002118,0.00007363,0.00004795,-0.00003859,-0.00003957,-0.00001813,0.00
 000756,-0.00004653,-0.00001680,0.00005155,0.00000695,-0.00000523,-0.00
 000479,0.00000002,0.00000622,0.00000804,0.00000425,-0.00000265,0.00000
 504,0.00000064,-0.00000632,0.00000099,-0.00000678,0.00000269,-0.000001
 75,0.00000302,-0.00000258,-0.00000045,0.00051015,-0.01394220,-0.023492
 79,-0.00419050,-0.11511662,-0.11471210,-0.00252537,-0.00324701,-0.0049
 6943,0.00002817,-0.00006575,-0.00011865,0.00002435,0.00000953,-0.00000
 244,0.00000762,0.00000748,-0.00001404,-0.00000742,0.00000340,-0.000003
 82,0.00000053,-0.00001103,0.00000155,0.00000048,-0.00000075,-0.0000019
 7,-0.00000123,0.00000032,0.00000020,-0.00000087,0.00000980,0.00000283,
 0.00343776,-0.00331456,0.00066999,-0.00108000,0.00109133,0.00012755,0.
 00326883,0.12281199,0.00004221,0.00093525,0.00045985,-0.00004978,-0.00
 117998,0.00065302,0.00017324,0.00017064,-0.00032913,-0.00001343,-0.000
 02712,-0.00002027,-0.00004000,-0.00001687,0.00001946,0.00003133,0.0000
 0552,-0.00000323,0.00002463,0.00001411,-0.00002838,0.00001082,0.000007
 29,0.00002138,0.00000333,-0.00001183,-0.00001015,-0.00000679,0.0000036
 1,-0.00000458,0.00000010,0.00000965,-0.00000034,0.00001065,-0.00000020
 ,0.00000114,-0.00000291,0.00000057,0.00000004,0.00129520,0.00166605,0.
 00404472,-0.00771600,-0.11681944,-0.26109590,-0.00095129,-0.00047923,-
 0.00189862,-0.00003911,0.00003235,-0.00000939,-0.00000511,0.00000761,0
 .00001008,-0.00000816,-0.00000585,0.00001158,-0.00000090,0.00000004,-0
 .00000231,0.00000046,-0.00000050,-0.00000644,-0.00000102,0.00000086,0.
 00000126,0.00000100,-0.00000028,0.00000056,0.00000715,-0.00000873,-0.0
 0000022,-0.00074375,0.00108754,0.00132674,0.00039238,-0.00010275,0.000
 92212,0.00948371,0.12625139,0.27275106,-0.00228231,-0.00199353,0.00166
 425,0.00125705,0.00392395,-0.00196957,0.00033053,-0.00197440,0.0008571
 4,-0.00025186,-0.00006244,0.00000053,-0.00001276,0.00014308,-0.0001635
 6,0.00001650,-0.00004551,0.00004983,-0.00001180,-0.00013151,0.00015113
 ,-0.00002268,0.00000615,-0.00002087,-0.00001765,0.00003502,0.00000084,
 -0.00000517,0.00000452,0.00001334,0.00005608,-0.00000447,0.00000176,-0
 .00005001,-0.00000746,-0.00000342,0.00004339,-0.00002317,0.00000061,0.
 00729271,0.00992407,-0.01466176,-0.06719504,-0.04436610,0.05488234,-0.
 02139692,-0.02244672,0.02460911,0.00051407,0.00001679,0.00002970,-0.00
 003290,0.00003307,-0.00003351,-0.00001118,0.00001065,-0.00002541,0.000
 01563,-0.00001241,0.00001275,-0.00002228,0.00002791,0.00005271,-0.0000
 0126,0.00000130,-0.00000209,-0.00000122,-0.00000162,0.00000014,-0.0000
 5801,-0.00000803,-0.00000411,0.00069483,-0.00032630,0.00040094,-0.0029
 9343,0.00330268,0.00046626,0.00244642,0.00198934,-0.00114081,0.0850582
 0,-0.00173033,0.00120325,-0.00135989,-0.00121330,-0.00149485,0.0011422
 8,-0.00017776,0.00016803,0.00000745,0.00005367,0.00009394,-0.00004763,
 -0.00002272,-0.00005760,0.00006719,-0.00000821,0.00001453,-0.00002079,
 0.00002464,0.00004004,-0.00004111,0.00001283,0.00000220,0.00000672,0.0
 0001260,0.00001846,-0.00000852,0.00001172,-0.00000694,-0.00000345,-0.0
 0000989,-0.00002089,0.00000105,-0.00001615,0.00000308,-0.00000024,-0.0
 0000258,-0.00000276,0.00000034,-0.00496566,-0.01794775,0.02167909,-0.0
 4951719,-0.14842936,0.12112717,-0.00283335,-0.00294403,0.00220226,-0.0
 0013195,0.00008203,-0.00001440,0.00002995,-0.00000489,0.00000506,0.000
 00812,0.00000338,0.00000373,-0.00000430,-0.00000035,0.00000058,0.00001
 716,0.00000160,-0.00002095,0.00000160,-0.00000144,0.00000094,-0.000003
 02,0.00000054,-0.00000030,-0.00000151,0.00002625,-0.00000078,-0.000767
 28,0.00081805,-0.00027018,0.00293707,-0.00331919,-0.00088899,0.0058831
 0,0.01121064,-0.01193345,0.05297191,0.15992293,0.00143299,-0.00158897,
 -0.00038610,0.00086797,0.00187490,-0.00031488,-0.00010677,-0.00017516,
 0.00018830,0.00001876,0.00004078,-0.00002395,0.00000812,-0.00001028,-0
 .00000515,-0.00001406,0.00000270,-0.00000727,-0.00000598,-0.00000480,0
 .00000823,0.00000738,-0.00000941,0.00000884,0.00000283,0.00000159,-0.0
 0000564,0.00000516,-0.00000159,-0.00000172,-0.00000420,-0.00000610,-0.
 00000097,-0.00000158,0.00000063,-0.00000051,-0.00000174,0.00000127,-0.
 00000978,-0.00204873,0.00003920,0.00088394,0.06473879,0.12472525,-0.20
 977696,-0.00705824,-0.00877045,0.00888814,-0.00003520,-0.00002302,0.00
 007793,-0.00000126,-0.00000949,-0.00000714,0.00000221,0.00000177,0.000
 00340,0.00000506,-0.00000444,0.00000313,-0.00000087,0.00000622,0.00001
 525,0.00000099,-0.00000073,0.00000143,-0.00000048,0.00000042,0.0000021
 6,-0.00000410,0.00000634,0.00001836,-0.00051554,-0.00000818,0.00074365
 ,0.00043162,-0.00026430,0.00137065,0.00812439,0.01646164,-0.01830233,-
 0.06447544,-0.13142059,0.21538549,0.00014304,0.00138938,-0.00043684,-0
 .00203440,-0.00166268,0.00004684,0.00071729,0.00011062,-0.00000661,-0.
 00021149,-0.00010268,0.00004366,-0.00019108,0.00007729,-0.00011130,0.0
 0019861,-0.00002546,0.00005748,0.00013062,-0.00003374,0.00005394,0.000
 01455,0.00000907,0.00004031,-0.00000368,-0.00000967,-0.00004014,-0.000
 03022,0.00001377,-0.00000357,0.00005361,0.00002888,0.00000120,-0.00000
 623,0.00000391,0.00000083,0.00002997,-0.00002873,-0.00000737,0.0027560
 9,-0.00016705,0.00111045,-0.01251611,-0.02010193,0.02521509,-0.1042960
 0,-0.07617871,0.09791523,-0.00010066,0.00015727,-0.00008760,0.00003495
 ,0.00001165,0.00000453,-0.00004880,-0.00001686,0.00002091,0.00000046,0
 .00000028,-0.00000350,-0.00000614,-0.00000097,0.00002267,-0.00000682,0
 .00000436,0.00000242,-0.00000022,-0.00000152,0.00000187,-0.00002153,-0
 .00002032,0.00001341,-0.00019882,0.00017936,0.00005729,-0.00040945,0.0
 0091838,-0.00071291,0.00165448,-0.00005562,-0.00034448,-0.00538615,-0.
 00010055,-0.00325123,0.10861676,-0.00007974,-0.00039230,0.00013750,0.0
 0025726,-0.00016935,-0.00000200,0.00018936,-0.00011510,0.00004046,-0.0
 0001067,-0.00001879,0.00004666,0.00009470,0.00010071,-0.00005725,-0.00
 005385,-0.00003356,0.00001164,-0.00006146,-0.00008150,0.00004213,-0.00
 000382,0.00000222,-0.00000181,-0.00000021,0.00001491,0.00000445,0.0000
 0565,0.00000026,0.00000562,0.00000367,-0.00001360,0.00000053,-0.000015
 95,0.00000034,-0.00000155,0.00000678,-0.00000890,-0.00000131,0.0006065
 4,0.00188335,-0.00149174,-0.00495815,-0.00313674,0.00260476,-0.0705922
 6,-0.17939476,0.14492310,0.00008494,0.00004738,0.00000019,-0.00000575,
 -0.00000349,0.00000304,0.00000511,0.00001448,-0.00001229,0.00000515,-0
 .00000324,-0.00000153,-0.00000369,0.00000367,0.00000428,0.00000177,-0.
 00000076,-0.00000155,-0.00000159,0.,0.00000036,-0.00000675,0.00000936,
 0.00000044,0.00010386,0.00000046,-0.00021339,-0.00016017,0.00009158,0.
 00079500,0.00011088,-0.00045487,-0.00013368,-0.00050892,0.00060113,-0.
 00093606,0.08027054,0.18435910,-0.00055967,0.00027403,-0.00012482,0.00
 047570,-0.00025234,0.00005024,-0.00041262,0.00022981,-0.00019946,0.000
 11952,0.00007986,-0.00001325,-0.00001402,-0.00012942,0.00014324,-0.000
 02665,0.00003888,-0.00005232,0.00001248,0.00007686,-0.00012108,-0.0000
 1094,-0.00000475,-0.00000280,0.00000905,-0.00000238,0.00000361,0.00000
 943,-0.00000396,-0.00000817,-0.00002988,-0.00000955,-0.00000519,0.0000
 1152,0.00000085,0.00000137,-0.00001820,0.00001305,-0.00000397,-0.00024
 127,-0.00142765,0.00084438,0.00056504,-0.00533423,0.00942743,0.0898341
 4,0.14216011,-0.23884579,-0.00004062,-0.00004998,0.00010255,-0.0000168
 4,-0.00001244,0.00000916,0.00000963,-0.00000388,0.00002115,-0.00000097
 ,0.00000116,0.00000074,0.00000889,0.00000078,-0.00002547,0.00000208,-0
 .00000104,0.00000378,0.,0.00000066,0.00000210,0.00001900,0.00000808,0.
 00000656,0.00020224,-0.00001455,-0.00036148,0.00012989,0.00037278,-0.0
 0029564,-0.00050606,-0.00059241,0.00047198,-0.00238146,-0.00031797,0.0
 0011632,-0.09862690,-0.15580046,0.25054826,0.00046273,0.00050973,0.000
 07173,-0.00122712,-0.00061203,0.00059316,0.00068697,-0.00008202,0.0000
 7019,-0.00021012,-0.00013950,-0.00002691,-0.00015619,0.00010535,-0.000
 15044,0.00017079,-0.00003113,0.00006690,0.00009991,-0.00005683,0.00009
 296,0.00002418,0.00001381,0.00003688,-0.00000692,-0.00001191,-0.000031
 58,-0.00003135,0.00001548,0.00000130,0.00005916,0.00003215,0.00000262,
 -0.00000645,0.00000243,-0.00000040,0.00003209,-0.00002894,-0.00000110,
 0.00224667,-0.00061166,-0.00090669,-0.00239822,-0.01678757,-0.03190492
 ,-0.05947394,-0.01782754,-0.03493236,-0.00004370,0.00013418,-0.0001121
 0,0.00003175,0.00001911,-0.00000287,-0.00004246,-0.00001337,0.00000593
 ,-0.00000086,0.00000068,-0.00000313,-0.00001206,-0.00000474,0.00003109
 ,-0.00000680,0.00000428,0.00000034,0.00000014,-0.00000162,0.00000093,-
 0.00002493,-0.00002323,0.00000218,-0.00032333,0.00135879,0.00089389,0.
 00004032,0.00013599,0.00023820,-0.00685178,-0.00064365,0.00031044,0.00
 121064,-0.00033333,0.00061176,0.00139932,0.00875212,0.01279032,0.06156
 731,-0.00015332,-0.00060870,0.00029882,0.00073612,0.00019491,-0.000456
 70,0.00003836,-0.00010427,0.00001863,0.00001609,-0.00000097,0.00005606
 ,0.00007383,0.00004148,-0.00000645,-0.00004774,-0.00001572,-0.00000214
 ,-0.00004051,-0.00004100,-0.00000044,-0.00001173,0.00000867,-0.0000102
 0,0.00000342,0.00001932,0.00000378,0.00001115,-0.00000232,0.00000331,-
 0.00000430,-0.00002145,-0.00000055,-0.00001914,0.00000003,-0.00000053,
 0.00000247,-0.00000517,0.00000141,0.00008807,0.00177916,0.00185580,-0.
 00348230,-0.00326792,-0.00548290,-0.01278501,-0.13771339,-0.14036677,0
 .00002758,0.00002037,0.00004794,-0.00001026,-0.00000679,-0.00000194,0.
 00000908,0.00001207,-0.00000646,0.00000731,-0.00000546,0.00000375,-0.0
 0000079,0.00001123,-0.00000384,0.00000274,-0.00000130,-0.00000003,-0.0
 0000198,0.00000017,-0.00000041,-0.00000545,0.00001441,-0.00000448,-0.0
 0002126,0.00001158,-0.00085213,0.00011141,-0.00013125,0.00005626,-0.00
 092699,0.00043347,0.00070530,-0.00010717,-0.00050367,0.00007272,0.0038
 0198,0.01399609,0.02167579,0.01779946,0.13942339,0.00047603,0.00012869
 ,-0.00026380,-0.00076695,-0.00044833,0.00018284,0.00054911,-0.00003904
 ,0.00003601,-0.00016809,-0.00007603,0.00004469,-0.00013558,0.00003152,
 -0.00006010,0.00014874,-0.00001268,0.00002734,0.00010164,-0.00001137,0
 .00001612,0.00001054,0.00000075,0.00003994,0.00000121,-0.00000661,-0.0
 0003762,-0.00001722,0.00001047,-0.00001043,0.00003081,0.00001510,-0.00
 000461,-0.00000192,0.00000240,0.00000210,0.00001663,-0.00001662,-0.000
 01660,0.00112265,0.00169715,0.00071479,-0.00518592,-0.00231319,-0.0021
 6328,-0.02620512,-0.13946239,-0.32398142,-0.00005611,0.00009682,-0.000
 03002,0.00001625,0.00000530,-0.00000136,-0.00003988,-0.00001541,0.0000
 3355,0.00000943,-0.00000751,0.00000467,-0.00000747,0.00001396,0.000025
 73,-0.00000337,0.00000252,0.00000660,-0.00000006,-0.00000062,0.0000050
 8,-0.00001717,-0.00001157,0.00002673,-0.00039276,0.00008641,-0.0000712
 0,-0.00009705,-0.00009980,-0.00029298,0.00003107,0.00018634,0.00148791
 ,0.00074472,0.00033579,0.00103510,-0.00343153,-0.01422506,-0.02257161,
 0.03204879,0.15227651,0.34152947,0.00047419,-0.00104953,0.00026489,0.0
 0051607,0.00340272,-0.00087771,-0.00075592,-0.00055080,0.00015506,0.00
 002535,0.00015331,-0.00010160,-0.00012615,-0.00005373,0.00001662,0.000
 02382,0.00001932,-0.00001173,0.00004673,0.00000432,-0.00000151,-0.0000
 0997,-0.00000515,-0.00001479,-0.00000566,0.00001806,0.00000544,-0.0000
 0057,-0.00000010,0.00000517,0.00002346,-0.00000680,-0.00000097,-0.0000
 2840,0.00000077,-0.00000192,0.00002095,-0.00001162,-0.00000064,-0.0064
 9891,-0.00402174,-0.00083673,-0.01614398,0.02698755,-0.00056734,-0.154
 14143,0.16111133,-0.00413104,0.00000065,-0.00001252,0.00004370,-0.0000
 1479,0.00000226,-0.00000415,0.00000010,0.00000236,-0.00000309,0.000000
 67,-0.00000121,0.00000204,-0.00000386,0.00000421,0.00001416,-0.0000019
 2,0.00000078,-0.00000047,-0.00000229,-0.00000067,0.00000058,-0.0000194
 6,0.00000336,0.00000075,0.00045019,-0.00042742,0.00013698,0.00023818,-
 0.00010228,-0.00020499,0.00141552,-0.00003304,-0.00072312,0.00081658,-
 0.00012528,0.00126738,0.00971803,-0.01403535,-0.00131283,0.00278424,-0
 .00511112,0.00121859,0.16119859,-0.00030736,-0.00000835,-0.00006251,-0
 .00005989,0.00066052,0.00012138,-0.00052902,-0.00001353,-0.00006141,0.
 00013341,0.00005751,-0.00005443,0.00015156,-0.00002549,0.00006845,-0.0
 0015329,0.00000736,-0.00003828,-0.00010101,0.00000029,-0.00003494,0.00
 000134,-0.00000207,-0.00002796,0.00000680,0.00001990,0.00002451,0.0000
 2562,-0.00000992,0.00000397,-0.00003300,-0.00003495,0.00000034,-0.0000
 1321,0.00000089,-0.00000171,-0.00001276,0.00001115,0.00000381,-0.00177
 688,-0.00110495,-0.00043239,-0.00196626,0.01243733,0.00056562,0.151581
 59,-0.30574692,0.00852837,0.00005859,-0.00008137,0.00008811,-0.0000303
 6,-0.00000619,-0.00000370,0.00003718,0.00002002,-0.00001953,0.00000124
 ,-0.00000272,0.00000220,0.00000791,0.00000276,-0.00001615,0.00000548,-
 0.00000359,-0.00000189,-0.00000242,0.00000133,-0.00000109,0.00000973,0
 .00002756,-0.00000780,0.00002498,-0.00007561,0.00014719,-0.00005425,-0
 .00000035,-0.00007662,-0.00032835,0.00042556,-0.00017786,-0.00037067,0
 .00052364,-0.00000186,0.01152975,-0.01729810,-0.00097566,0.00832553,-0
 .01353697,0.00185651,-0.16616200,0.32375526,0.00001757,-0.00013989,-0.
 00012349,0.00012079,0.00052920,0.00046043,-0.00013556,-0.00001645,-0.0
 0004617,0.00001753,0.00001863,-0.00005858,-0.00003432,-0.00004174,0.00
 003538,0.00000780,0.00001302,-0.00001765,0.00001734,0.00001814,-0.0000
 3372,0.00000848,-0.00000464,0.00001005,0.00000341,-0.00000341,-0.00000
 591,-0.00000087,0.00000131,-0.00000514,-0.00000274,0.00000078,-0.00000
 384,0.00000385,0.00000075,0.00000070,-0.00000145,0.00000077,-0.0000090
 1,-0.00130435,-0.00094703,-0.00015187,-0.00287776,0.00528721,-0.000497
 13,-0.00483924,0.01030651,-0.06294158,-0.00000877,0.00000770,0.0000328
 9,-0.00001577,0.00000011,0.00000348,-0.00000290,-0.00000266,0.00001432
 ,0.00000162,-0.00000098,0.00000019,0.00000015,0.00000177,0.00000144,-0
 .00000009,0.00000014,0.00000278,-0.00000007,0.00000009,0.00000333,0.00
 000221,-0.00000011,0.00001442,0.00002110,0.00019198,0.00025950,0.00024
 938,-0.00018136,0.00015937,-0.00051323,0.00022580,-0.00047160,0.000943
 92,-0.00023039,0.00009206,-0.01754417,0.02425953,0.00087821,0.02020287
 ,-0.02988011,0.00428634,0.00566327,-0.00941469,0.05811081\\0.00000268,
 -0.00000024,-0.00000165,-0.00000109,0.00000216,0.00000116,-0.00000081,
 0.00000040,0.00000039,0.00000022,-0.00000019,-0.00000062,-0.00000009,0
 .00000017,0.00000040,-0.00000017,0.00000030,0.00000028,0.00000005,0.00
 000051,0.00000035,0.00000006,-0.00000016,0.00000023,-0.00000001,-0.000
 00025,-0.00000001,0.00000002,-0.00000019,0.00000009,0.00000006,-0.0000
 0026,-0.00000006,0.00000005,-0.00000026,-0.00000030,0.00000004,-0.0000
 0021,-0.00000023,-0.00000049,0.00000043,0.00000107,-0.00000170,-0.0000
 0117,-0.00000281,0.00000013,-0.00000059,0.00000132,-0.00000007,0.00000
 046,0.00000065,-0.00000012,0.00000015,-0.00000009,-0.00000004,0.000000
 17,0.00000019,-0.00000004,-0.00000026,0.00000032,-0.00000003,-0.000000
 27,0.00000004,-0.00000004,-0.00000025,0.00000032,0.00000008,-0.0000002
 3,-0.00000047,0.00000005,-0.00000020,-0.00000038,-0.00000012,-0.000000
 67,-0.00000074,-0.00000009,-0.00000013,-0.00000030,-0.00000027,0.00000
 071,0.,0.00000179,-0.00000016,0.00000144,-0.00000041,0.00000025,-0.000
 00028,0.00000016,-0.00000013,0.,0.00000021,0.00000012,-0.00000029\\\@


 LAW OF COMPENSATION:
      NO CALCULATION IS EVER A COMPLETE FAILURE; IT 
      CAN ALWAYS SERVE AS A BAD EXAMPLE.

                                           -- ANON
 Job cpu time:       1 days  1 hours 51 minutes 18.3 seconds.
 File lengths (MBytes):  RWF=   1351 Int=      0 D2E=      0 Chk=     46 Scr=      1
 Normal termination of Gaussian 09 at Sat Jul 31 06:37:16 2021.
