 Entering Gaussian System, Link 0=g09
 Input=opt_freq-conf-885.com
 Output=opt_freq-conf-885.log
 Initial command:
 /aerosol/software/g09/l1.exe "/scratch/nicole/10705/Gau-126109.inp" -scrdir="/scratch/nicole/10705/"
 Entering Link 1 = /aerosol/software/g09/l1.exe PID=    126112.
  
 Copyright (c) 1988,1990,1992,1993,1995,1998,2003,2009,2013,
            Gaussian, Inc.  All Rights Reserved.
  
 This is part of the Gaussian(R) 09 program.  It is based on
 the Gaussian(R) 03 system (copyright 2003, Gaussian, Inc.),
 the Gaussian(R) 98 system (copyright 1998, Gaussian, Inc.),
 the Gaussian(R) 94 system (copyright 1995, Gaussian, Inc.),
 the Gaussian 92(TM) system (copyright 1992, Gaussian, Inc.),
 the Gaussian 90(TM) system (copyright 1990, Gaussian, Inc.),
 the Gaussian 88(TM) system (copyright 1988, Gaussian, Inc.),
 the Gaussian 86(TM) system (copyright 1986, Carnegie Mellon
 University), and the Gaussian 82(TM) system (copyright 1983,
 Carnegie Mellon University). Gaussian is a federally registered
 trademark of Gaussian, Inc.
  
 This software contains proprietary and confidential information,
 including trade secrets, belonging to Gaussian, Inc.
  
 This software is provided under written license and may be
 used, copied, transmitted, or stored only in accord with that
 written license.
  
 The following legend is applicable only to US Government
 contracts under FAR:
  
                    RESTRICTED RIGHTS LEGEND
  
 Use, reproduction and disclosure by the US Government is
 subject to restrictions as set forth in subparagraphs (a)
 and (c) of the Commercial Computer Software - Restricted
 Rights clause in FAR 52.227-19.
  
 Gaussian, Inc.
 340 Quinnipiac St., Bldg. 40, Wallingford CT 06492
  
  
 ---------------------------------------------------------------
 Warning -- This program may not be used in any manner that
 competes with the business of Gaussian, Inc. or will provide
 assistance to any competitor of Gaussian, Inc.  The licensee
 of this program is prohibited from giving any competitor of
 Gaussian, Inc. access to this program.  By using this program,
 the user acknowledges that Gaussian, Inc. is engaged in the
 business of creating and licensing software in the field of
 computational chemistry and represents and warrants to the
 licensee that it is not a competitor of Gaussian, Inc. and that
 it will not use this program in any manner prohibited above.
 ---------------------------------------------------------------
  

 Cite this work as:
 Gaussian 09, Revision D.01,
 M. J. Frisch, G. W. Trucks, H. B. Schlegel, G. E. Scuseria, 
 M. A. Robb, J. R. Cheeseman, G. Scalmani, V. Barone, B. Mennucci, 
 G. A. Petersson, H. Nakatsuji, M. Caricato, X. Li, H. P. Hratchian, 
 A. F. Izmaylov, J. Bloino, G. Zheng, J. L. Sonnenberg, M. Hada, 
 M. Ehara, K. Toyota, R. Fukuda, J. Hasegawa, M. Ishida, T. Nakajima, 
 Y. Honda, O. Kitao, H. Nakai, T. Vreven, J. A. Montgomery, Jr., 
 J. E. Peralta, F. Ogliaro, M. Bearpark, J. J. Heyd, E. Brothers, 
 K. N. Kudin, V. N. Staroverov, T. Keith, R. Kobayashi, J. Normand, 
 K. Raghavachari, A. Rendell, J. C. Burant, S. S. Iyengar, J. Tomasi, 
 M. Cossi, N. Rega, J. M. Millam, M. Klene, J. E. Knox, J. B. Cross, 
 V. Bakken, C. Adamo, J. Jaramillo, R. Gomperts, R. E. Stratmann, 
 O. Yazyev, A. J. Austin, R. Cammi, C. Pomelli, J. W. Ochterski, 
 R. L. Martin, K. Morokuma, V. G. Zakrzewski, G. A. Voth, 
 P. Salvador, J. J. Dannenberg, S. Dapprich, A. D. Daniels, 
 O. Farkas, J. B. Foresman, J. V. Ortiz, J. Cioslowski, 
 and D. J. Fox, Gaussian, Inc., Wallingford CT, 2013.
 
 ******************************************
 Gaussian 09:  ES64L-G09RevD.01 24-Apr-2013
                29-Jul-2021 
 ******************************************
 %mem=2gb
 %nproc=4
 Will use up to    4 processors via shared memory.
 %chk=conf-885.chk
 ----------------------------------------------------------------------
 # B3LYP/6-311++G(2df,2pd) EmpiricalDispersion=GD3BJ guess=read geom=ch
 eckpoint opt=readfc freq=noraman nosymm integral(ultrafinegrid)
 ----------------------------------------------------------------------
 1/10=3,14=-1,18=20,19=15,26=4,29=2,38=1/1,3;
 2/9=110,12=2,15=1,40=1/2;
 3/5=4,6=6,7=1414,11=2,14=-4,16=1,25=1,30=1,71=1,74=-5,75=-5,116=-2,124=41/1,2,3;
 4/5=1/1;
 5/5=2,38=6/2;
 6/7=2,8=2,9=2,10=2,28=1/1;
 7/30=1/1,2,3,16;
 1/14=-1,18=20,19=15,26=4/3(2);
 2/9=110,15=1/2;
 99//99;
 2/9=110,15=1/2;
 3/5=4,6=6,7=1414,11=2,14=-2,16=1,25=1,30=1,71=1,74=-5,75=-5,124=41/1,2,3;
 4/5=5,16=3,69=1/1;
 5/5=2,38=5/2;
 7/30=1/1,2,3,16;
 1/14=-1,18=20,19=15,26=4/3(-5);
 2/9=110,15=1/2;
 6/7=2,8=2,9=2,10=2,19=2,28=1/1;
 99/9=1/99;
 ------------------------------------------------------------
 Candidate Structure: Conf:885 OPT and FREQ calc in gas phase
 ------------------------------------------------------------
 Structure from the checkpoint file:  "conf-885.chk"
 Charge =  1 Multiplicity = 1
 Redundant internal coordinates found in file.
 O,0,-1.4265632369,-0.1565950581,-1.403136929
 C,0,-1.5234311307,-1.0733327049,-0.5861931739
 N,0,-0.5165534962,-1.4817036821,0.2267937117
 C,0,0.6648648177,-0.6690546177,0.4989755593
 C,0,0.2565798872,0.5741082039,1.2955466834
 O,0,1.282589748,1.0813614502,1.9581380337
 O,0,-0.8702412274,1.0539579046,1.3520204472
 C,0,1.4792502172,-0.3214054821,-0.7926601067
 C,0,2.7073229288,0.4787505581,-0.5471649669
 C,0,2.9609197969,1.8180206737,-0.7346883008
 N,0,4.2220155466,2.150057337,-0.2988782868
 C,0,4.7410036604,1.0281795223,0.1506847543
 N,0,3.8646127604,-0.0168518323,0.0335241901
 C,0,-2.9038032912,-1.6645021395,-0.3281675515
 C,0,-3.6873071327,-0.6710514404,0.5555080557
 N,0,-3.3418072727,0.7577053626,0.190294324
 H,0,-0.7190289152,-2.2227173854,0.8825692877
 H,0,1.3129646461,-1.2540183698,1.1565566525
 H,0,1.0100930676,1.907226484,2.3970346227
 H,0,1.7000286083,-1.2829943348,-1.2702515692
 H,0,0.8263588651,0.2266790593,-1.4700853251
 H,0,2.2994454139,2.5564576547,-1.1677991059
 H,0,5.7339839675,0.9066538369,0.560042185
 H,0,4.0637533609,-0.98158267,0.2518692164
 H,0,-3.3975048226,-1.7791975053,-1.2953409645
 H,0,-2.8918787899,-2.637247918,0.1701003221
 H,0,-4.7626722602,-0.8037656123,0.4353376806
 H,0,-3.4313196193,-0.7801693955,1.610445923
 H,0,-4.0536408102,1.4187507422,0.5063906129
 H,0,-2.4125551895,0.9965421684,0.619135157
 H,0,-3.187392078,0.8418183204,-0.8246030591
 Recover connectivity data from disk.

 GradGradGradGradGradGradGradGradGradGradGradGradGradGradGradGradGradGrad
 Berny optimization.
 Initialization pass.
 Force constant matrix read from checkpoint file:
 "conf-885.chk"
                           ----------------------------
                           !    Initial Parameters    !
                           ! (Angstroms and Degrees)  !
 --------------------------                            --------------------------
 ! Name  Definition              Value          Derivative Info.                !
 --------------------------------------------------------------------------------
 ! R1    R(1,2)                  1.2317         D2E/DX2 =    0.7681             !
 ! R2    R(2,3)                  1.357          D2E/DX2 =    0.5011             !
 ! R3    R(2,14)                 1.5236         D2E/DX2 =    0.2859             !
 ! R4    R(3,4)                  1.4595         D2E/DX2 =    0.3563             !
 ! R5    R(3,17)                 1.01           D2E/DX2 =    0.4694             !
 ! R6    R(4,5)                  1.5319         D2E/DX2 =    0.2611             !
 ! R7    R(4,8)                  1.566          D2E/DX2 =    0.2374             !
 ! R8    R(4,18)                 1.093          D2E/DX2 =    0.3405             !
 ! R9    R(5,6)                  1.3225         D2E/DX2 =    0.4814             !
 ! R10   R(5,7)                  1.226          D2E/DX2 =    0.7977             !
 ! R11   R(6,19)                 0.9741         D2E/DX2 =    0.5016             !
 ! R12   R(8,9)                  1.4862         D2E/DX2 =    0.3289             !
 ! R13   R(8,20)                 1.0961         D2E/DX2 =    0.3331             !
 ! R14   R(8,21)                 1.0888         D2E/DX2 =    0.354              !
 ! R15   R(9,10)                 1.3759         D2E/DX2 =    0.4102             !
 ! R16   R(9,13)                 1.3864         D2E/DX2 =    0.3613             !
 ! R17   R(10,11)                1.375          D2E/DX2 =    0.3417             !
 ! R18   R(10,22)                1.0819         D2E/DX2 =    0.3702             !
 ! R19   R(11,12)                1.3153         D2E/DX2 =    0.4636             !
 ! R20   R(12,13)                1.3689         D2E/DX2 =    0.3582             !
 ! R21   R(12,23)                1.0809         D2E/DX2 =    0.3749             !
 ! R22   R(13,24)                1.009          D2E/DX2 =    0.4758             !
 ! R23   R(14,15)                1.5433         D2E/DX2 =    0.2974             !
 ! R24   R(14,25)                1.0919         D2E/DX2 =    0.3458             !
 ! R25   R(14,26)                1.093          D2E/DX2 =    0.343              !
 ! R26   R(15,16)                1.5146         D2E/DX2 =    0.2732             !
 ! R27   R(15,27)                1.0902         D2E/DX2 =    0.3498             !
 ! R28   R(15,28)                1.091          D2E/DX2 =    0.3479             !
 ! R29   R(16,29)                1.0216         D2E/DX2 =    0.4402             !
 ! R30   R(16,30)                1.0509         D2E/DX2 =    0.3212             !
 ! R31   R(16,31)                1.03           D2E/DX2 =    0.4107             !
 ! A1    A(1,2,3)              124.2611         D2E/DX2 =    0.2081             !
 ! A2    A(1,2,14)             118.1862         D2E/DX2 =    0.1873             !
 ! A3    A(3,2,14)             116.9999         D2E/DX2 =    0.1705             !
 ! A4    A(2,3,4)              123.0082         D2E/DX2 =    0.3095             !
 ! A5    A(2,3,17)             117.4526         D2E/DX2 =    0.1351             !
 ! A6    A(4,3,17)             116.7233         D2E/DX2 =    0.1241             !
 ! A7    A(3,4,5)              109.4558         D2E/DX2 =    0.1693             !
 ! A8    A(3,4,8)              113.0003         D2E/DX2 =    0.1215             !
 ! A9    A(3,4,18)             107.1082         D2E/DX2 =    0.0318             !
 ! A10   A(5,4,8)              112.7887         D2E/DX2 =    0.1003             !
 ! A11   A(5,4,18)             106.2313         D2E/DX2 =    0.0355             !
 ! A12   A(8,4,18)             107.8589         D2E/DX2 =    0.0368             !
 ! A13   A(4,5,6)              111.4085         D2E/DX2 =    0.1739             !
 ! A14   A(4,5,7)              125.9107         D2E/DX2 =    0.1934             !
 ! A15   A(6,5,7)              122.672          D2E/DX2 =    0.2068             !
 ! A16   A(5,6,19)             109.5049         D2E/DX2 =    0.1687             !
 ! A17   A(4,8,9)              114.3937         D2E/DX2 =    0.1633             !
 ! A18   A(4,8,20)             105.6265         D2E/DX2 =    0.0637             !
 ! A19   A(4,8,21)             108.2442         D2E/DX2 =    0.0624             !
 ! A20   A(9,8,20)             112.201          D2E/DX2 =    0.0509             !
 ! A21   A(9,8,21)             109.1018         D2E/DX2 =    0.0501             !
 ! A22   A(20,8,21)            106.9346         D2E/DX2 =    0.0204             !
 ! A23   A(8,9,10)             130.8331         D2E/DX2 =    0.0924             !
 ! A24   A(8,9,13)             124.5064         D2E/DX2 =    0.0995             !
 ! A25   A(10,9,13)            104.5476         D2E/DX2 =    0.1038             !
 ! A26   A(9,10,11)            111.1558         D2E/DX2 =    0.1159             !
 ! A27   A(9,10,22)            127.3193         D2E/DX2 =    0.0822             !
 ! A28   A(11,10,22)           121.5234         D2E/DX2 =    0.0902             !
 ! A29   A(10,11,12)           105.3227         D2E/DX2 =    0.1325             !
 ! A30   A(11,12,13)           111.6708         D2E/DX2 =    0.1204             !
 ! A31   A(11,12,23)           126.002          D2E/DX2 =    0.0898             !
 ! A32   A(13,12,23)           122.3252         D2E/DX2 =    0.0908             !
 ! A33   A(9,13,12)            107.2993         D2E/DX2 =    0.1038             !
 ! A34   A(9,13,24)            126.6685         D2E/DX2 =    0.0767             !
 ! A35   A(12,13,24)           125.8067         D2E/DX2 =    0.079              !
 ! A36   A(2,14,15)            107.8877         D2E/DX2 =    0.422              !
 ! A37   A(2,14,25)            107.4802         D2E/DX2 =    0.0579             !
 ! A38   A(2,14,26)            114.3699         D2E/DX2 =    0.0914             !
 ! A39   A(15,14,25)           110.1968         D2E/DX2 =    0.086              !
 ! A40   A(15,14,26)           108.5065         D2E/DX2 =    0.0805             !
 ! A41   A(25,14,26)           108.3751         D2E/DX2 =    0.0267             !
 ! A42   A(14,15,16)           110.6928         D2E/DX2 =    0.3036             !
 ! A43   A(14,15,27)           111.0579         D2E/DX2 =    0.0609             !
 ! A44   A(14,15,28)           111.7253         D2E/DX2 =    0.0534             !
 ! A45   A(16,15,27)           108.2563         D2E/DX2 =    0.0789             !
 ! A46   A(16,15,28)           105.9008         D2E/DX2 =    0.0725             !
 ! A47   A(27,15,28)           109.0174         D2E/DX2 =    0.0228             !
 ! A48   A(15,16,29)           112.1384         D2E/DX2 =    0.1006             !
 ! A49   A(15,16,30)           108.5228         D2E/DX2 =    0.1427             !
 ! A50   A(15,16,31)           110.4148         D2E/DX2 =    0.1191             !
 ! A51   A(29,16,30)           110.0479         D2E/DX2 =    0.0581             !
 ! A52   A(29,16,31)           110.8854         D2E/DX2 =    0.0558             !
 ! A53   A(30,16,31)           104.5338         D2E/DX2 =    0.0558             !
 ! D1    D(1,2,3,4)             17.4873         D2E/DX2 =    0.0182             !
 ! D2    D(1,2,3,17)           177.8376         D2E/DX2 =    0.0224             !
 ! D3    D(14,2,3,4)          -153.8085         D2E/DX2 =    0.0632             !
 ! D4    D(14,2,3,17)            6.5418         D2E/DX2 =    0.0211             !
 ! D5    D(1,2,14,15)          -75.8903         D2E/DX2 =    0.0254             !
 ! D6    D(1,2,14,25)           42.9251         D2E/DX2 =    0.0198             !
 ! D7    D(1,2,14,26)          163.2884         D2E/DX2 =    0.0261             !
 ! D8    D(3,2,14,15)           95.9519         D2E/DX2 =    0.0491             !
 ! D9    D(3,2,14,25)         -145.2327         D2E/DX2 =    0.0424             !
 ! D10   D(3,2,14,26)          -24.8695         D2E/DX2 =    0.0241             !
 ! D11   D(2,3,4,5)             66.7687         D2E/DX2 =    0.0362             !
 ! D12   D(2,3,4,8)            -59.8307         D2E/DX2 =    0.0286             !
 ! D13   D(2,3,4,18)          -178.4663         D2E/DX2 =    0.0307             !
 ! D14   D(17,3,4,5)           -93.7144         D2E/DX2 =    0.0184             !
 ! D15   D(17,3,4,8)           139.6863         D2E/DX2 =    0.0148             !
 ! D16   D(17,3,4,18)           21.0507         D2E/DX2 =    0.0101             !
 ! D17   D(3,4,5,6)            157.9074         D2E/DX2 =    0.0238             !
 ! D18   D(3,4,5,7)            -21.0339         D2E/DX2 =    0.0242             !
 ! D19   D(8,4,5,6)            -75.3731         D2E/DX2 =    0.0257             !
 ! D20   D(8,4,5,7)            105.6856         D2E/DX2 =    0.0224             !
 ! D21   D(18,4,5,6)            42.5804         D2E/DX2 =    0.0165             !
 ! D22   D(18,4,5,7)          -136.3609         D2E/DX2 =    0.0155             !
 ! D23   D(3,4,8,9)           -178.6213         D2E/DX2 =    0.0259             !
 ! D24   D(3,4,8,20)           -54.7272         D2E/DX2 =    0.0268             !
 ! D25   D(3,4,8,21)            59.5197         D2E/DX2 =    0.0277             !
 ! D26   D(5,4,8,9)             56.5713         D2E/DX2 =    0.0283             !
 ! D27   D(5,4,8,20)          -179.5346         D2E/DX2 =    0.0295             !
 ! D28   D(5,4,8,21)           -65.2877         D2E/DX2 =    0.0289             !
 ! D29   D(18,4,8,9)           -60.4226         D2E/DX2 =    0.012              !
 ! D30   D(18,4,8,20)           63.4715         D2E/DX2 =    0.0136             !
 ! D31   D(18,4,8,21)          177.7184         D2E/DX2 =    0.015              !
 ! D32   D(4,5,6,19)           175.5848         D2E/DX2 =    0.0166             !
 ! D33   D(7,5,6,19)            -5.4338         D2E/DX2 =    0.0161             !
 ! D34   D(4,8,9,10)          -102.9395         D2E/DX2 =    0.0126             !
 ! D35   D(4,8,9,13)            72.5794         D2E/DX2 =    0.0124             !
 ! D36   D(20,8,9,10)          136.7607         D2E/DX2 =    0.0138             !
 ! D37   D(20,8,9,13)          -47.7204         D2E/DX2 =    0.0138             !
 ! D38   D(21,8,9,10)           18.4488         D2E/DX2 =    0.0136             !
 ! D39   D(21,8,9,13)         -166.0324         D2E/DX2 =    0.0138             !
 ! D40   D(8,9,10,11)          176.4849         D2E/DX2 =    0.0095             !
 ! D41   D(8,9,10,22)           -3.9501         D2E/DX2 =    0.0072             !
 ! D42   D(13,9,10,11)           0.2989         D2E/DX2 =    0.0142             !
 ! D43   D(13,9,10,22)         179.8639         D2E/DX2 =    0.0096             !
 ! D44   D(8,9,13,12)         -177.0475         D2E/DX2 =    0.0079             !
 ! D45   D(8,9,13,24)            8.1819         D2E/DX2 =    0.0024             !
 ! D46   D(10,9,13,12)          -0.549          D2E/DX2 =    0.0124             !
 ! D47   D(10,9,13,24)        -175.3195         D2E/DX2 =    0.0046             !
 ! D48   D(9,10,11,12)           0.0792         D2E/DX2 =    0.0175             !
 ! D49   D(22,10,11,12)       -179.515          D2E/DX2 =    0.0099             !
 ! D50   D(10,11,12,13)         -0.4456         D2E/DX2 =    0.0184             !
 ! D51   D(10,11,12,23)        179.0447         D2E/DX2 =    0.0103             !
 ! D52   D(11,12,13,9)           0.6449         D2E/DX2 =    0.0171             !
 ! D53   D(11,12,13,24)        175.473          D2E/DX2 =    0.0079             !
 ! D54   D(23,12,13,9)        -178.8671         D2E/DX2 =    0.0103             !
 ! D55   D(23,12,13,24)         -4.039          D2E/DX2 =    0.0062             !
 ! D56   D(2,14,15,16)          35.8039         D2E/DX2 =    0.0348             !
 ! D57   D(2,14,15,27)         156.0866         D2E/DX2 =    0.0234             !
 ! D58   D(2,14,15,28)         -81.9559         D2E/DX2 =    0.0182             !
 ! D59   D(25,14,15,16)        -81.2638         D2E/DX2 =    0.0211             !
 ! D60   D(25,14,15,27)         39.0189         D2E/DX2 =    0.0166             !
 ! D61   D(25,14,15,28)        160.9763         D2E/DX2 =    0.0235             !
 ! D62   D(26,14,15,16)        160.2245         D2E/DX2 =    0.0302             !
 ! D63   D(26,14,15,27)        -79.4928         D2E/DX2 =    0.0208             !
 ! D64   D(26,14,15,28)         42.4646         D2E/DX2 =    0.0171             !
 ! D65   D(14,15,16,29)        160.0111         D2E/DX2 =    0.0153             !
 ! D66   D(14,15,16,30)        -78.2118         D2E/DX2 =    0.0209             !
 ! D67   D(14,15,16,31)         35.8108         D2E/DX2 =    0.0131             !
 ! D68   D(27,15,16,29)         38.07           D2E/DX2 =    0.0147             !
 ! D69   D(27,15,16,30)        159.847          D2E/DX2 =    0.0195             !
 ! D70   D(27,15,16,31)        -86.1304         D2E/DX2 =    0.016              !
 ! D71   D(28,15,16,29)        -78.7218         D2E/DX2 =    0.016              !
 ! D72   D(28,15,16,30)         43.0553         D2E/DX2 =    0.0178             !
 ! D73   D(28,15,16,31)        157.0779         D2E/DX2 =    0.0158             !
 --------------------------------------------------------------------------------
 Trust Radius=3.00D-01 FncErr=1.00D-07 GrdErr=1.00D-06
 Number of steps in this run=    167 maximum allowed number of steps=    186.
 GradGradGradGradGradGradGradGradGradGradGradGradGradGradGradGradGradGrad

                          Input orientation:                          
 ---------------------------------------------------------------------
 Center     Atomic      Atomic             Coordinates (Angstroms)
 Number     Number       Type             X           Y           Z
 ---------------------------------------------------------------------
      1          8           0       -1.426563   -0.156595   -1.403137
      2          6           0       -1.523431   -1.073333   -0.586193
      3          7           0       -0.516553   -1.481704    0.226794
      4          6           0        0.664865   -0.669055    0.498976
      5          6           0        0.256580    0.574108    1.295547
      6          8           0        1.282590    1.081361    1.958138
      7          8           0       -0.870241    1.053958    1.352020
      8          6           0        1.479250   -0.321405   -0.792660
      9          6           0        2.707323    0.478751   -0.547165
     10          6           0        2.960920    1.818021   -0.734688
     11          7           0        4.222016    2.150057   -0.298878
     12          6           0        4.741004    1.028180    0.150685
     13          7           0        3.864613   -0.016852    0.033524
     14          6           0       -2.903803   -1.664502   -0.328168
     15          6           0       -3.687307   -0.671051    0.555508
     16          7           0       -3.341807    0.757705    0.190294
     17          1           0       -0.719029   -2.222717    0.882569
     18          1           0        1.312965   -1.254018    1.156557
     19          1           0        1.010093    1.907226    2.397035
     20          1           0        1.700029   -1.282994   -1.270252
     21          1           0        0.826359    0.226679   -1.470085
     22          1           0        2.299445    2.556458   -1.167799
     23          1           0        5.733984    0.906654    0.560042
     24          1           0        4.063753   -0.981583    0.251869
     25          1           0       -3.397505   -1.779198   -1.295341
     26          1           0       -2.891879   -2.637248    0.170100
     27          1           0       -4.762672   -0.803766    0.435338
     28          1           0       -3.431320   -0.780169    1.610446
     29          1           0       -4.053641    1.418751    0.506391
     30          1           0       -2.412555    0.996542    0.619135
     31          1           0       -3.187392    0.841818   -0.824603
 ---------------------------------------------------------------------
                    Distance matrix (angstroms):
                    1          2          3          4          5
     1  O    0.000000
     2  C    1.231742   0.000000
     3  N    2.289259   1.357025   0.000000
     4  C    2.873103   2.475817   1.459531   0.000000
     5  C    3.263402   3.069763   2.442607   1.531886   0.000000
     6  O    4.491126   4.357761   3.578236   2.361079   1.322509
     7  O    3.060364   2.951050   2.796571   2.460286   1.226039
     8  C    2.973818   3.102276   2.523650   1.566016   2.580208
     9  C    4.269118   4.506636   3.851723   2.565834   3.067706
    10  C    4.857565   5.337732   4.889320   3.602685   3.603141
    11  N    6.200522   6.594160   5.993334   4.608393   4.555270
    12  C    6.469694   6.648495   5.826424   4.429088   4.650478
    13  N    5.484530   5.525506   4.623609   3.298545   3.867795
    14  C    2.368878   1.523642   2.457714   3.796113   4.199505
    15  C    3.035114   2.479450   3.289208   4.352540   4.201467
    16  N    2.653889   2.694833   3.605322   4.264311   3.768777
    17  H    3.161316   2.031111   1.010019   2.115697   2.990752
    18  H    3.906582   3.333911   2.064809   1.092991   2.115966
    19  H    4.963664   4.919566   4.304119   3.218545   1.886336
    20  H    3.325960   3.301907   2.682138   2.139778   3.480761
    21  H    2.286272   2.827156   2.757061   2.169244   2.845009
    22  H    4.615103   5.303586   5.116785   3.981698   3.764450
    23  H    7.500534   7.609486   6.699591   5.308724   5.536561
    24  H    5.793378   5.650433   4.607598   3.422160   4.243113
    25  H    2.555204   2.124450   3.271892   4.577645   5.059949
    26  H    3.282661   2.211438   2.642095   4.078280   4.635971
    27  H    3.863734   3.407180   4.304952   5.429582   5.275546
    28  H    3.672816   2.924245   3.301894   4.245756   3.941298
    29  H    3.609646   3.715667   4.582772   5.159775   4.462532
    30  H    2.528140   2.554944   3.144910   3.501309   2.785725
    31  H    2.105243   2.548217   3.692908   4.344477   4.053103
                    6          7          8          9         10
     6  O    0.000000
     7  O    2.236696   0.000000
     8  C    3.094078   3.465745   0.000000
     9  C    2.944410   4.091055   1.486163   0.000000
    10  C    3.257418   4.428989   2.603046   1.375907   0.000000
    11  N    3.857001   5.464246   3.724877   2.269186   1.374970
    12  C    3.902607   5.738462   3.653808   2.219172   2.139260
    13  N    3.402507   5.030299   2.542693   1.386413   2.184850
    14  C    5.503894   3.787932   4.607691   6.010510   6.832876
    15  C    5.453274   3.397933   5.350993   6.590085   7.215193
    16  N    4.961358   2.747001   5.037189   6.100298   6.457881
    17  H    4.010020   3.313586   3.354670   4.591509   5.699571
    18  H    2.469302   3.182978   2.167225   2.801676   3.966105
    19  H    0.974134   2.314256   3.919319   3.686386   3.690714
    20  H    4.023299   4.352464   1.096125   2.154354   3.390128
    21  H    3.562491   3.395162   1.088838   2.110296   2.762160
    22  H    3.602969   4.319017   3.015882   2.206449   1.081861
    23  H    4.669058   6.653174   4.630410   3.251105   3.193243
    24  H    3.860306   5.449593   2.864705   2.147308   3.166594
    25  H    6.377398   4.628429   5.114742   6.551871   7.326928
    26  H    5.869525   4.371379   5.039524   6.447866   7.411026
    27  H    6.512896   4.409361   6.379831   7.642708   8.239939
    28  H    5.080072   3.160685   5.486263   6.627450   7.287727
    29  H    5.540466   3.313940   5.943783   6.906823   7.134687
    30  H    3.931185   1.708552   4.344687   5.276506   5.601955
    31  H    5.270841   3.186202   4.809538   5.912398   6.225977
                   11         12         13         14         15
    11  N    0.000000
    12  C    1.315320   0.000000
    13  N    2.221199   1.368897   0.000000
    14  C    8.082637   8.119292   6.975459   0.000000
    15  C    8.440736   8.607421   7.598154   1.543277   0.000000
    16  N    7.706449   8.087432   7.249621   2.515500   1.514628
    17  H    6.703051   6.396557   5.157179   2.559439   3.365310
    18  H    4.708354   4.239299   3.050031   4.489325   5.069894
    19  H    4.200400   4.442804   4.175709   5.958402   5.666066
    20  H    4.369191   4.075305   2.826371   4.714694   5.721124
    21  H    4.074505   4.312046   3.398696   4.335280   5.028134
    22  H    2.148595   3.167845   3.242661   6.752428   7.016253
    23  H    2.137720   1.080903   2.150496   9.056000   9.552481
    24  H    3.183636   2.123217   1.008978   7.024932   7.763219
    25  H    8.630705   8.729701   7.590132   1.091934   2.176606
    26  H    8.587533   8.467386   7.248124   1.092999   2.155730
    27  H    9.486240   9.682815   8.672412   2.186138   1.090167
    28  H    8.414588   8.496346   7.503330   2.195117   1.091023
    29  H    8.346841   8.810496   8.061222   3.394858   2.122236
    30  H    6.796387   7.168950   6.385354   2.867031   2.099978
    31  H    7.542360   7.990330   7.155730   2.570703   2.107937
                   16         17         18         19         20
    16  N    0.000000
    17  H    4.030029   0.000000
    18  H    5.162131   2.267696   0.000000
    19  H    5.012997   4.726511   3.409397   0.000000
    20  H    5.631852   3.371877   2.457653   4.909431   0.000000
    21  H    4.518015   3.731320   3.054259   4.220499   1.755661
    22  H    6.074838   6.012962   4.571160   3.846033   3.887311
    23  H    9.084541   7.179022   4.956788   5.166317   4.941389
    24  H    7.607315   4.981285   2.908525   4.719300   2.827525
    25  H    2.940424   3.480551   5.336304   6.830101   5.121689
    26  H    3.424697   2.323946   4.535100   6.390373   4.999423
    27  H    2.125346   4.308653   6.134839   6.672522   6.701134
    28  H    2.095209   3.157098   4.789445   5.250425   5.906097
    29  H    1.021570   4.951912   6.030495   5.427204   6.600045
    30  H    1.050931   3.647062   4.385584   3.962927   5.067486
    31  H    1.030017   4.289363   5.345160   5.397493   5.347926
                   21         22         23         24         25
    21  H    0.000000
    22  H    2.772946   0.000000
    23  H    5.354304   4.183700   0.000000
    24  H    3.860796   4.200711   2.539700   0.000000
    25  H    4.679220   7.160266   9.697439   7.661620   0.000000
    26  H    4.971678   7.464208   9.333638   7.150436   1.771843
    27  H    5.994141   7.983399  10.635830   8.830123   2.410477
    28  H    5.350817   7.189812   9.378247   7.619870   3.072914
    29  H    5.398323   6.667758   9.801159   8.468676   3.728756
    30  H    3.930407   5.275360   8.147249   6.781625   3.512844
    31  H    4.111598   5.758746   9.028422   7.553985   2.671229
                   26         27         28         29         30
    26  H    0.000000
    27  H    2.632846   0.000000
    28  H    2.411293   1.775932   0.000000
    29  H    4.232482   2.333957   2.538005   0.000000
    30  H    3.692670   2.966132   2.275364   1.698274   0.000000
    31  H    3.630519   2.603249   2.935951   1.689610   1.645810
                   31
    31  H    0.000000
 Symmetry turned off by external request.
 Stoichiometry    C9H15N4O3(1+)
 Framework group  C1[X(C9H15N4O3)]
 Deg. of freedom    87
 Full point group                 C1      NOp   1
 Rotational constants (GHZ):      1.3000997      0.2774632      0.2628793
 Standard basis: 6-311++G(2df,2pd) (5D, 7F)
   769 basis functions,  1102 primitive gaussians,   864 cartesian basis functions
    60 alpha electrons       60 beta electrons
       nuclear repulsion energy      1174.3863015021 Hartrees.
 NAtoms=   31 NActive=   31 NUniq=   31 SFac= 1.00D+00 NAtFMM=   60 NAOKFM=F Big=F
 Integral buffers will be    131072 words long.
 Raffenetti 2 integral format.
 Two-electron integral symmetry is turned off.
 Nuclear repulsion after empirical dispersion term =     1174.3270771911 Hartrees.
 One-electron integrals computed using PRISM.
 NBasis=   769 RedAO= T EigKep=  3.61D-06  NBF=   769
 NBsUse=   768 1.00D-06 EigRej=  8.94D-07 NBFU=   768
 Initial guess from the checkpoint file:  "conf-885.chk"
 B after Tr=     0.000000    0.000000    0.000000
         Rot=    1.000000    0.000000    0.000000    0.000000 Ang=   0.00 deg.
 Requested convergence on RMS density matrix=1.00D-08 within 128 cycles.
 Requested convergence on MAX density matrix=1.00D-06.
 Requested convergence on             energy=1.00D-06.
 No special actions if energy rises.
 SCF Done:  E(RB3LYP) =  -796.814122649     A.U. after   12 cycles
            NFock= 12  Conv=0.55D-08     -V/T= 2.0043

 **********************************************************************

            Population analysis using the SCF density.

 **********************************************************************

 Alpha  occ. eigenvalues --  -19.32406 -19.27938 -19.24993 -14.57971 -14.50313
 Alpha  occ. eigenvalues --  -14.46480 -14.38302 -10.46810 -10.43660 -10.40439
 Alpha  occ. eigenvalues --  -10.38233 -10.35159 -10.31597 -10.31293 -10.30379
 Alpha  occ. eigenvalues --  -10.27673  -1.27051  -1.20478  -1.17893  -1.15117
 Alpha  occ. eigenvalues --   -1.10933  -1.09191  -0.96835  -0.95788  -0.92815
 Alpha  occ. eigenvalues --   -0.86548  -0.83110  -0.80310  -0.77928  -0.75140
 Alpha  occ. eigenvalues --   -0.73899  -0.73239  -0.71073  -0.69064  -0.68340
 Alpha  occ. eigenvalues --   -0.66786  -0.66124  -0.64050  -0.63232  -0.61704
 Alpha  occ. eigenvalues --   -0.61263  -0.60563  -0.58323  -0.57065  -0.56340
 Alpha  occ. eigenvalues --   -0.55423  -0.54197  -0.53739  -0.53341  -0.51696
 Alpha  occ. eigenvalues --   -0.51074  -0.50387  -0.49901  -0.48409  -0.45621
 Alpha  occ. eigenvalues --   -0.42950  -0.41629  -0.38003  -0.36242  -0.32651
 Alpha virt. eigenvalues --   -0.17197  -0.15871  -0.14787  -0.13617  -0.11718
 Alpha virt. eigenvalues --   -0.11221  -0.10360  -0.10033  -0.09027  -0.08859
 Alpha virt. eigenvalues --   -0.08212  -0.07087  -0.06720  -0.06278  -0.05704
 Alpha virt. eigenvalues --   -0.05275  -0.04962  -0.04660  -0.04129  -0.03891
 Alpha virt. eigenvalues --   -0.03115  -0.02988  -0.02647  -0.02263  -0.01789
 Alpha virt. eigenvalues --   -0.01087  -0.00740  -0.00377  -0.00139  -0.00027
 Alpha virt. eigenvalues --    0.00149   0.00657   0.01117   0.01378   0.01862
 Alpha virt. eigenvalues --    0.02056   0.02513   0.03031   0.03338   0.03430
 Alpha virt. eigenvalues --    0.03781   0.03928   0.04098   0.04643   0.05059
 Alpha virt. eigenvalues --    0.05091   0.05497   0.05867   0.06277   0.06445
 Alpha virt. eigenvalues --    0.06858   0.06996   0.07539   0.07808   0.07970
 Alpha virt. eigenvalues --    0.08378   0.08905   0.09104   0.09399   0.10082
 Alpha virt. eigenvalues --    0.10415   0.10774   0.10869   0.11290   0.11515
 Alpha virt. eigenvalues --    0.12133   0.12442   0.12854   0.13479   0.13604
 Alpha virt. eigenvalues --    0.14653   0.14846   0.15045   0.15819   0.16192
 Alpha virt. eigenvalues --    0.16760   0.16943   0.17331   0.17610   0.18081
 Alpha virt. eigenvalues --    0.18540   0.18758   0.19174   0.19450   0.19791
 Alpha virt. eigenvalues --    0.20350   0.20945   0.21165   0.21574   0.21995
 Alpha virt. eigenvalues --    0.22306   0.22624   0.23227   0.23838   0.24167
 Alpha virt. eigenvalues --    0.24861   0.25196   0.25682   0.26043   0.26261
 Alpha virt. eigenvalues --    0.27097   0.27902   0.28414   0.28747   0.29821
 Alpha virt. eigenvalues --    0.30726   0.31354   0.32836   0.33033   0.33924
 Alpha virt. eigenvalues --    0.34559   0.35340   0.35685   0.36131   0.36413
 Alpha virt. eigenvalues --    0.36952   0.37825   0.38786   0.39394   0.39971
 Alpha virt. eigenvalues --    0.40771   0.41337   0.41579   0.42314   0.43114
 Alpha virt. eigenvalues --    0.44060   0.44105   0.45239   0.45785   0.46742
 Alpha virt. eigenvalues --    0.47188   0.47666   0.48175   0.48975   0.49321
 Alpha virt. eigenvalues --    0.49693   0.50024   0.51118   0.51391   0.51605
 Alpha virt. eigenvalues --    0.52203   0.52948   0.53536   0.53804   0.54016
 Alpha virt. eigenvalues --    0.54620   0.55194   0.56171   0.56528   0.57070
 Alpha virt. eigenvalues --    0.58008   0.58985   0.59361   0.59460   0.59792
 Alpha virt. eigenvalues --    0.61446   0.61855   0.62580   0.62717   0.63734
 Alpha virt. eigenvalues --    0.64167   0.64848   0.65755   0.67188   0.67672
 Alpha virt. eigenvalues --    0.68713   0.68869   0.70865   0.71169   0.71599
 Alpha virt. eigenvalues --    0.72041   0.72742   0.73082   0.73671   0.74167
 Alpha virt. eigenvalues --    0.75001   0.75284   0.76329   0.77728   0.78242
 Alpha virt. eigenvalues --    0.78705   0.80388   0.81218   0.82083   0.82529
 Alpha virt. eigenvalues --    0.82836   0.84011   0.85505   0.86178   0.86487
 Alpha virt. eigenvalues --    0.87695   0.88681   0.89062   0.90063   0.91327
 Alpha virt. eigenvalues --    0.91990   0.92824   0.94203   0.94539   0.95332
 Alpha virt. eigenvalues --    0.96234   0.97061   0.97576   0.98284   0.98895
 Alpha virt. eigenvalues --    0.99456   0.99977   1.00413   1.00966   1.02463
 Alpha virt. eigenvalues --    1.02761   1.04212   1.04762   1.05469   1.06117
 Alpha virt. eigenvalues --    1.07365   1.07572   1.08518   1.09409   1.09498
 Alpha virt. eigenvalues --    1.11326   1.11712   1.12419   1.13102   1.13826
 Alpha virt. eigenvalues --    1.14275   1.15602   1.16301   1.16764   1.18368
 Alpha virt. eigenvalues --    1.18729   1.19162   1.19631   1.20443   1.21520
 Alpha virt. eigenvalues --    1.21967   1.22897   1.23633   1.24711   1.25011
 Alpha virt. eigenvalues --    1.26093   1.27445   1.27851   1.28023   1.28429
 Alpha virt. eigenvalues --    1.29563   1.30549   1.31558   1.31763   1.32452
 Alpha virt. eigenvalues --    1.32688   1.33290   1.34291   1.35400   1.36217
 Alpha virt. eigenvalues --    1.36507   1.37757   1.38581   1.39227   1.39826
 Alpha virt. eigenvalues --    1.41800   1.42565   1.43008   1.44151   1.44669
 Alpha virt. eigenvalues --    1.45609   1.46044   1.48189   1.48689   1.49158
 Alpha virt. eigenvalues --    1.50133   1.50975   1.52515   1.53994   1.54578
 Alpha virt. eigenvalues --    1.55550   1.55768   1.57328   1.58066   1.59816
 Alpha virt. eigenvalues --    1.60700   1.61049   1.61612   1.62289   1.63591
 Alpha virt. eigenvalues --    1.65720   1.68102   1.69366   1.69414   1.71791
 Alpha virt. eigenvalues --    1.72605   1.74232   1.74904   1.78267   1.79098
 Alpha virt. eigenvalues --    1.81515   1.82671   1.84642   1.85873   1.87844
 Alpha virt. eigenvalues --    1.91057   1.92405   1.94800   1.96872   1.99801
 Alpha virt. eigenvalues --    2.02127   2.04031   2.04688   2.07608   2.07899
 Alpha virt. eigenvalues --    2.11332   2.16343   2.22001   2.22985   2.30944
 Alpha virt. eigenvalues --    2.33506   2.34127   2.35519   2.38751   2.41078
 Alpha virt. eigenvalues --    2.42015   2.43247   2.45146   2.45421   2.47559
 Alpha virt. eigenvalues --    2.47708   2.49485   2.51741   2.53509   2.55014
 Alpha virt. eigenvalues --    2.55564   2.56845   2.58685   2.59719   2.60030
 Alpha virt. eigenvalues --    2.61673   2.62693   2.64022   2.64992   2.65161
 Alpha virt. eigenvalues --    2.66089   2.66767   2.69870   2.70022   2.71257
 Alpha virt. eigenvalues --    2.71563   2.72769   2.73583   2.75172   2.75627
 Alpha virt. eigenvalues --    2.76474   2.78091   2.78684   2.79964   2.81034
 Alpha virt. eigenvalues --    2.81268   2.81926   2.82331   2.84076   2.84557
 Alpha virt. eigenvalues --    2.85466   2.85805   2.86435   2.87317   2.87796
 Alpha virt. eigenvalues --    2.89129   2.89637   2.90590   2.91300   2.92064
 Alpha virt. eigenvalues --    2.92638   2.93111   2.94233   2.95142   2.95933
 Alpha virt. eigenvalues --    2.97480   2.98251   2.98514   2.99460   3.00774
 Alpha virt. eigenvalues --    3.01384   3.02209   3.02338   3.03054   3.03720
 Alpha virt. eigenvalues --    3.04263   3.05414   3.06340   3.06596   3.07493
 Alpha virt. eigenvalues --    3.07674   3.09100   3.10117   3.10569   3.10866
 Alpha virt. eigenvalues --    3.11697   3.12999   3.13550   3.14124   3.15190
 Alpha virt. eigenvalues --    3.16148   3.16838   3.17484   3.18111   3.18640
 Alpha virt. eigenvalues --    3.18975   3.19707   3.20438   3.21547   3.22088
 Alpha virt. eigenvalues --    3.22887   3.23504   3.24462   3.25674   3.26566
 Alpha virt. eigenvalues --    3.27617   3.28525   3.29223   3.29732   3.30690
 Alpha virt. eigenvalues --    3.31211   3.31598   3.32118   3.33233   3.34194
 Alpha virt. eigenvalues --    3.34592   3.34714   3.35525   3.36356   3.37701
 Alpha virt. eigenvalues --    3.38265   3.38906   3.39121   3.39924   3.41398
 Alpha virt. eigenvalues --    3.42352   3.43072   3.44007   3.44544   3.45777
 Alpha virt. eigenvalues --    3.46084   3.47453   3.48101   3.48620   3.49501
 Alpha virt. eigenvalues --    3.50669   3.51056   3.51797   3.52814   3.53617
 Alpha virt. eigenvalues --    3.54503   3.55809   3.56156   3.57586   3.57810
 Alpha virt. eigenvalues --    3.59243   3.59909   3.60513   3.61342   3.61961
 Alpha virt. eigenvalues --    3.62563   3.63565   3.63733   3.65127   3.65412
 Alpha virt. eigenvalues --    3.66070   3.66697   3.68559   3.70627   3.71031
 Alpha virt. eigenvalues --    3.72101   3.73003   3.73772   3.74461   3.76237
 Alpha virt. eigenvalues --    3.76403   3.76970   3.78744   3.79289   3.79718
 Alpha virt. eigenvalues --    3.81125   3.81732   3.82579   3.82942   3.83021
 Alpha virt. eigenvalues --    3.84818   3.85427   3.86030   3.87120   3.87850
 Alpha virt. eigenvalues --    3.88859   3.89052   3.89984   3.90703   3.91493
 Alpha virt. eigenvalues --    3.92448   3.93948   3.94395   3.95416   3.97142
 Alpha virt. eigenvalues --    3.97262   3.97763   3.98032   3.98768   4.00869
 Alpha virt. eigenvalues --    4.01578   4.01879   4.03130   4.04195   4.04422
 Alpha virt. eigenvalues --    4.05376   4.06190   4.07587   4.08256   4.08673
 Alpha virt. eigenvalues --    4.09615   4.11656   4.12066   4.13232   4.13680
 Alpha virt. eigenvalues --    4.15112   4.15988   4.16784   4.17609   4.18218
 Alpha virt. eigenvalues --    4.19835   4.21532   4.21858   4.22654   4.23682
 Alpha virt. eigenvalues --    4.25439   4.27155   4.27935   4.32308   4.33583
 Alpha virt. eigenvalues --    4.34522   4.34998   4.37506   4.38342   4.39750
 Alpha virt. eigenvalues --    4.41935   4.42702   4.45155   4.46450   4.47554
 Alpha virt. eigenvalues --    4.47956   4.49744   4.51844   4.52272   4.53491
 Alpha virt. eigenvalues --    4.54665   4.57310   4.57425   4.58307   4.61714
 Alpha virt. eigenvalues --    4.63915   4.65560   4.66596   4.68551   4.70652
 Alpha virt. eigenvalues --    4.72858   4.73356   4.74315   4.75411   4.76775
 Alpha virt. eigenvalues --    4.77675   4.77811   4.81043   4.82109   4.83195
 Alpha virt. eigenvalues --    4.83473   4.85860   4.86842   4.88258   4.89041
 Alpha virt. eigenvalues --    4.90283   4.90528   4.91670   4.93673   4.94486
 Alpha virt. eigenvalues --    4.94879   4.95397   4.96110   4.97004   4.97371
 Alpha virt. eigenvalues --    5.00204   5.00896   5.01955   5.02639   5.03678
 Alpha virt. eigenvalues --    5.03799   5.04090   5.05742   5.07533   5.08960
 Alpha virt. eigenvalues --    5.09783   5.10479   5.11912   5.12346   5.12827
 Alpha virt. eigenvalues --    5.15232   5.16039   5.16682   5.17818   5.18209
 Alpha virt. eigenvalues --    5.18950   5.19352   5.19963   5.21562   5.23754
 Alpha virt. eigenvalues --    5.25084   5.26825   5.27573   5.28215   5.29846
 Alpha virt. eigenvalues --    5.31705   5.33690   5.34320   5.35005   5.36643
 Alpha virt. eigenvalues --    5.37734   5.40447   5.42991   5.43771   5.44882
 Alpha virt. eigenvalues --    5.45855   5.46456   5.49391   5.53340   5.53682
 Alpha virt. eigenvalues --    5.55577   5.58080   5.59202   5.60224   5.63291
 Alpha virt. eigenvalues --    5.65544   5.67637   5.71211   5.72069   5.75329
 Alpha virt. eigenvalues --    5.79818   5.80829   5.82716   5.83962   5.87081
 Alpha virt. eigenvalues --    5.88417   5.90264   5.93123   5.94886   5.95874
 Alpha virt. eigenvalues --    5.98766   6.02354   6.08993   6.11473   6.14350
 Alpha virt. eigenvalues --    6.17029   6.18411   6.20871   6.23127   6.27128
 Alpha virt. eigenvalues --    6.29877   6.30794   6.33876   6.36043   6.37809
 Alpha virt. eigenvalues --    6.46614   6.57534   6.62759   6.71318   6.72021
 Alpha virt. eigenvalues --    6.83507   6.83952   6.85607   6.87742   6.90529
 Alpha virt. eigenvalues --    6.95243   7.04415   7.05272   7.06547   7.12001
 Alpha virt. eigenvalues --    7.12313   7.15285   7.16832   7.21474   7.25881
 Alpha virt. eigenvalues --    7.43940   7.46027   7.54122   7.57523   7.61038
 Alpha virt. eigenvalues --    7.83857   7.88498  24.44076  24.61731  24.70342
 Alpha virt. eigenvalues --   24.73408  24.84583  24.91511  24.92236  24.97802
 Alpha virt. eigenvalues --   25.04473  35.90209  36.10108  36.17777  36.39713
 Alpha virt. eigenvalues --   50.03497  50.09284  50.16741
          Condensed to atoms (all electrons):
               1          2          3          4          5          6
     1  O    8.119859   0.590474  -0.151714   0.117697  -0.046899  -0.000346
     2  C    0.590474   6.459796   0.317658  -0.692769   0.115677   0.005360
     3  N   -0.151714   0.317658   6.632181  -0.506282   0.289741  -0.012337
     4  C    0.117697  -0.692769  -0.506282  10.609203  -2.083061   0.038034
     5  C   -0.046899   0.115677   0.289741  -2.083061   6.251453   0.355126
     6  O   -0.000346   0.005360  -0.012337   0.038034   0.355126   7.692747
     7  O   -0.004105  -0.005188   0.000935   0.037265   0.322512  -0.071171
     8  C   -0.081835   0.038711   0.299697  -1.761928   0.672446  -0.041521
     9  C   -0.015353  -0.076244   0.096806  -1.202695   0.387540  -0.081245
    10  C    0.009010   0.043027  -0.023638  -0.000996  -0.015236   0.017904
    11  N   -0.000270   0.001353   0.000298  -0.019343   0.011752  -0.003424
    12  C   -0.000354   0.011599  -0.008352   0.128713  -0.046670   0.018527
    13  N   -0.001450   0.012341  -0.002566   0.111513  -0.012364  -0.005464
    14  C   -0.209423  -0.646065  -0.337393   0.486774  -0.242897   0.008384
    15  C    0.081486  -0.036857  -0.018634   0.112907  -0.014012  -0.001325
    16  N   -0.065938  -0.055118   0.036861  -0.008103   0.018738  -0.000745
    17  H   -0.000964   0.004061   0.372953  -0.081516   0.036229  -0.000761
    18  H   -0.001739  -0.006902  -0.083474   0.558468  -0.139551  -0.022095
    19  H    0.000207  -0.002030   0.003562  -0.099211   0.024134   0.249712
    20  H    0.001680  -0.013400  -0.000368   0.026641  -0.013564  -0.004434
    21  H   -0.010902  -0.033199   0.003346   0.028632  -0.030779  -0.002236
    22  H   -0.000583   0.000164  -0.001609   0.014980  -0.010835  -0.004220
    23  H    0.000008   0.000296  -0.000163  -0.000019  -0.001686   0.001862
    24  H   -0.000098  -0.000199   0.000898  -0.006899  -0.000444  -0.000852
    25  H   -0.007931  -0.072216   0.003355  -0.000034  -0.000210  -0.000033
    26  H    0.008706  -0.001042   0.016760  -0.006105   0.005296   0.000157
    27  H   -0.008720  -0.008717   0.000745   0.010868  -0.003698  -0.000023
    28  H    0.000790  -0.017755  -0.003143  -0.008083  -0.002330  -0.000175
    29  H    0.006785   0.027020  -0.001220  -0.003836   0.002731  -0.000109
    30  H    0.004400  -0.033584  -0.018058   0.059384  -0.033914   0.002519
    31  H    0.026298   0.011069  -0.002427  -0.003814   0.003119   0.000047
               7          8          9         10         11         12
     1  O   -0.004105  -0.081835  -0.015353   0.009010  -0.000270  -0.000354
     2  C   -0.005188   0.038711  -0.076244   0.043027   0.001353   0.011599
     3  N    0.000935   0.299697   0.096806  -0.023638   0.000298  -0.008352
     4  C    0.037265  -1.761928  -1.202695  -0.000996  -0.019343   0.128713
     5  C    0.322512   0.672446   0.387540  -0.015236   0.011752  -0.046670
     6  O   -0.071171  -0.041521  -0.081245   0.017904  -0.003424   0.018527
     7  O    8.194620  -0.035739   0.013110  -0.019316   0.000481   0.001169
     8  C   -0.035739   5.915522   0.679691   0.081536  -0.011790  -0.071342
     9  C    0.013110   0.679691   7.792011  -1.125582   0.167612  -0.615934
    10  C   -0.019316   0.081536  -1.125582   7.070261   0.121665  -0.066563
    11  N    0.000481  -0.011790   0.167612   0.121665   6.898288   0.220788
    12  C    0.001169  -0.071342  -0.615934  -0.066563   0.220788   5.457079
    13  N   -0.000758  -0.092260   0.139739  -0.236597   0.044308   0.403234
    14  C   -0.002382  -0.262195   0.000930   0.003209   0.000383   0.002328
    15  C   -0.004334  -0.029304  -0.013656  -0.001579  -0.000055   0.000156
    16  N    0.019781   0.011289   0.001429   0.000195  -0.000023  -0.000064
    17  H   -0.004059   0.000385  -0.001298  -0.000674  -0.000161  -0.000357
    18  H    0.008372  -0.043560  -0.042243   0.012890   0.001527   0.008284
    19  H    0.038983   0.017911   0.029350   0.003554  -0.001377  -0.007931
    20  H   -0.001481   0.403623  -0.048177  -0.040405   0.002106  -0.003332
    21  H   -0.002603   0.395275  -0.007685  -0.034473   0.000404  -0.013910
    22  H   -0.001408  -0.002491  -0.170751   0.528790  -0.103211   0.033560
    23  H    0.000095   0.000789   0.024561   0.011674  -0.076588   0.458728
    24  H   -0.000098   0.005306  -0.058154   0.049143  -0.004469  -0.041190
    25  H    0.001010   0.001182   0.000829   0.000109   0.000004   0.000001
    26  H    0.000512   0.002124  -0.000233   0.000194   0.000005   0.000020
    27  H    0.000221  -0.003428  -0.000695   0.000170   0.000001   0.000006
    28  H    0.000040   0.001909   0.000954   0.000125   0.000002   0.000009
    29  H   -0.001161   0.001491   0.000377  -0.000236  -0.000008   0.000012
    30  H    0.020804  -0.019510   0.001670  -0.004931   0.000284  -0.000400
    31  H   -0.001192  -0.000296   0.000544  -0.000012  -0.000015  -0.000011
              13         14         15         16         17         18
     1  O   -0.001450  -0.209423   0.081486  -0.065938  -0.000964  -0.001739
     2  C    0.012341  -0.646065  -0.036857  -0.055118   0.004061  -0.006902
     3  N   -0.002566  -0.337393  -0.018634   0.036861   0.372953  -0.083474
     4  C    0.111513   0.486774   0.112907  -0.008103  -0.081516   0.558468
     5  C   -0.012364  -0.242897  -0.014012   0.018738   0.036229  -0.139551
     6  O   -0.005464   0.008384  -0.001325  -0.000745  -0.000761  -0.022095
     7  O   -0.000758  -0.002382  -0.004334   0.019781  -0.004059   0.008372
     8  C   -0.092260  -0.262195  -0.029304   0.011289   0.000385  -0.043560
     9  C    0.139739   0.000930  -0.013656   0.001429  -0.001298  -0.042243
    10  C   -0.236597   0.003209  -0.001579   0.000195  -0.000674   0.012890
    11  N    0.044308   0.000383  -0.000055  -0.000023  -0.000161   0.001527
    12  C    0.403234   0.002328   0.000156  -0.000064  -0.000357   0.008284
    13  N    6.289620   0.000363   0.000445  -0.000097   0.001579  -0.004610
    14  C    0.000363   6.758308  -0.066659  -0.021683  -0.026748   0.010602
    15  C    0.000445  -0.066659   5.403193  -0.054572  -0.002869  -0.003414
    16  N   -0.000097  -0.021683  -0.054572   6.086532   0.000463   0.000700
    17  H    0.001579  -0.026748  -0.002869   0.000463   0.569795  -0.016879
    18  H   -0.004610   0.010602  -0.003414   0.000700  -0.016879   0.647150
    19  H   -0.002256  -0.003497  -0.000369   0.000000  -0.000351   0.002255
    20  H    0.002922  -0.009266  -0.000219   0.001097   0.003559  -0.013490
    21  H   -0.000178  -0.014467   0.002888  -0.000767  -0.001646   0.011795
    22  H    0.015878   0.000771   0.000128   0.000288   0.000006  -0.001277
    23  H   -0.079747   0.000044   0.000012  -0.000003   0.000009  -0.000063
    24  H    0.381735   0.000132   0.000054  -0.000041   0.000205  -0.002842
    25  H   -0.000009   0.434598  -0.048406   0.021506  -0.000595   0.000551
    26  H   -0.000054   0.331915   0.005317   0.005719  -0.003245   0.000592
    27  H    0.000013  -0.023163   0.422218  -0.024469   0.000665  -0.000129
    28  H   -0.000012   0.012434   0.395572  -0.014151  -0.000067   0.001578
    29  H    0.000011  -0.027708  -0.028408   0.372656  -0.000126  -0.000165
    30  H   -0.000156   0.043189  -0.000536   0.279163  -0.000929   0.000466
    31  H   -0.000050   0.006424   0.000024   0.311051  -0.000712  -0.000039
              19         20         21         22         23         24
     1  O    0.000207   0.001680  -0.010902  -0.000583   0.000008  -0.000098
     2  C   -0.002030  -0.013400  -0.033199   0.000164   0.000296  -0.000199
     3  N    0.003562  -0.000368   0.003346  -0.001609  -0.000163   0.000898
     4  C   -0.099211   0.026641   0.028632   0.014980  -0.000019  -0.006899
     5  C    0.024134  -0.013564  -0.030779  -0.010835  -0.001686  -0.000444
     6  O    0.249712  -0.004434  -0.002236  -0.004220   0.001862  -0.000852
     7  O    0.038983  -0.001481  -0.002603  -0.001408   0.000095  -0.000098
     8  C    0.017911   0.403623   0.395275  -0.002491   0.000789   0.005306
     9  C    0.029350  -0.048177  -0.007685  -0.170751   0.024561  -0.058154
    10  C    0.003554  -0.040405  -0.034473   0.528790   0.011674   0.049143
    11  N   -0.001377   0.002106   0.000404  -0.103211  -0.076588  -0.004469
    12  C   -0.007931  -0.003332  -0.013910   0.033560   0.458728  -0.041190
    13  N   -0.002256   0.002922  -0.000178   0.015878  -0.079747   0.381735
    14  C   -0.003497  -0.009266  -0.014467   0.000771   0.000044   0.000132
    15  C   -0.000369  -0.000219   0.002888   0.000128   0.000012   0.000054
    16  N    0.000000   0.001097  -0.000767   0.000288  -0.000003  -0.000041
    17  H   -0.000351   0.003559  -0.001646   0.000006   0.000009   0.000205
    18  H    0.002255  -0.013490   0.011795  -0.001277  -0.000063  -0.002842
    19  H    0.494028  -0.000261   0.001638  -0.001499  -0.000015  -0.000306
    20  H   -0.000261   0.640375  -0.017725   0.000421  -0.001109   0.000877
    21  H    0.001638  -0.017725   0.605990  -0.005296   0.000266  -0.000659
    22  H   -0.001499   0.000421  -0.005296   0.618839   0.000342   0.002557
    23  H   -0.000015  -0.001109   0.000266   0.000342   0.551423  -0.005863
    24  H   -0.000306   0.000877  -0.000659   0.002557  -0.005863   0.545840
    25  H    0.000021   0.001139  -0.000216  -0.000069  -0.000001  -0.000022
    26  H   -0.000033  -0.000803   0.000308   0.000021   0.000003  -0.000024
    27  H   -0.000104  -0.000124  -0.000257   0.000028   0.000000   0.000001
    28  H    0.000314  -0.000095   0.000253  -0.000041  -0.000002  -0.000017
    29  H    0.000064   0.000118   0.000614  -0.000028   0.000000  -0.000001
    30  H    0.000136  -0.000249   0.000612  -0.000392  -0.000014   0.000090
    31  H    0.000262  -0.000188   0.001102  -0.000123   0.000002  -0.000004
              25         26         27         28         29         30
     1  O   -0.007931   0.008706  -0.008720   0.000790   0.006785   0.004400
     2  C   -0.072216  -0.001042  -0.008717  -0.017755   0.027020  -0.033584
     3  N    0.003355   0.016760   0.000745  -0.003143  -0.001220  -0.018058
     4  C   -0.000034  -0.006105   0.010868  -0.008083  -0.003836   0.059384
     5  C   -0.000210   0.005296  -0.003698  -0.002330   0.002731  -0.033914
     6  O   -0.000033   0.000157  -0.000023  -0.000175  -0.000109   0.002519
     7  O    0.001010   0.000512   0.000221   0.000040  -0.001161   0.020804
     8  C    0.001182   0.002124  -0.003428   0.001909   0.001491  -0.019510
     9  C    0.000829  -0.000233  -0.000695   0.000954   0.000377   0.001670
    10  C    0.000109   0.000194   0.000170   0.000125  -0.000236  -0.004931
    11  N    0.000004   0.000005   0.000001   0.000002  -0.000008   0.000284
    12  C    0.000001   0.000020   0.000006   0.000009   0.000012  -0.000400
    13  N   -0.000009  -0.000054   0.000013  -0.000012   0.000011  -0.000156
    14  C    0.434598   0.331915  -0.023163   0.012434  -0.027708   0.043189
    15  C   -0.048406   0.005317   0.422218   0.395572  -0.028408  -0.000536
    16  N    0.021506   0.005719  -0.024469  -0.014151   0.372656   0.279163
    17  H   -0.000595  -0.003245   0.000665  -0.000067  -0.000126  -0.000929
    18  H    0.000551   0.000592  -0.000129   0.001578  -0.000165   0.000466
    19  H    0.000021  -0.000033  -0.000104   0.000314   0.000064   0.000136
    20  H    0.001139  -0.000803  -0.000124  -0.000095   0.000118  -0.000249
    21  H   -0.000216   0.000308  -0.000257   0.000253   0.000614   0.000612
    22  H   -0.000069   0.000021   0.000028  -0.000041  -0.000028  -0.000392
    23  H   -0.000001   0.000003   0.000000  -0.000002   0.000000  -0.000014
    24  H   -0.000022  -0.000024   0.000001  -0.000017  -0.000001   0.000090
    25  H    0.590193  -0.034107  -0.008867   0.008038   0.002755  -0.002868
    26  H   -0.034107   0.623543   0.001648  -0.015509  -0.000568   0.000301
    27  H   -0.008867   0.001648   0.589047  -0.041235  -0.004799   0.004005
    28  H    0.008038  -0.015509  -0.041235   0.592508   0.001157  -0.013551
    29  H    0.002755  -0.000568  -0.004799   0.001157   0.551587  -0.032371
    30  H   -0.002868   0.000301   0.004005  -0.013551  -0.032371   0.400460
    31  H   -0.001873   0.000556  -0.005994   0.002740  -0.024773  -0.025735
              31
     1  O    0.026298
     2  C    0.011069
     3  N   -0.002427
     4  C   -0.003814
     5  C    0.003119
     6  O    0.000047
     7  O   -0.001192
     8  C   -0.000296
     9  C    0.000544
    10  C   -0.000012
    11  N   -0.000015
    12  C   -0.000011
    13  N   -0.000050
    14  C    0.006424
    15  C    0.000024
    16  N    0.311051
    17  H   -0.000712
    18  H   -0.000039
    19  H    0.000262
    20  H   -0.000188
    21  H    0.001102
    22  H   -0.000123
    23  H    0.000002
    24  H   -0.000004
    25  H   -0.001873
    26  H    0.000556
    27  H   -0.005994
    28  H    0.002740
    29  H   -0.024773
    30  H   -0.025735
    31  H    0.532897
 Mulliken charges:
               1
     1  O   -0.358776
     2  C    0.062679
     3  N    0.095583
     4  C    0.143613
     5  C    0.201653
     6  O   -0.137862
     7  O   -0.504916
     8  C   -0.071688
     9  C    0.122791
    10  C   -0.383221
    11  N   -0.250529
    12  C    0.132198
    13  N    0.034928
    14  C   -0.207243
    15  C   -0.099193
    16  N    0.078306
    17  H    0.154049
    18  H    0.117243
    19  H    0.253109
    20  H    0.084134
    21  H    0.123874
    22  H    0.087060
    23  H    0.115159
    24  H    0.135347
    25  H    0.112164
    26  H    0.058023
    27  H    0.104787
    28  H    0.097745
    29  H    0.158141
    30  H    0.369719
    31  H    0.171124
 Sum of Mulliken charges =   1.00000
 Mulliken charges with hydrogens summed into heavy atoms:
               1
     1  O   -0.358776
     2  C    0.062679
     3  N    0.249632
     4  C    0.260856
     5  C    0.201653
     6  O    0.115248
     7  O   -0.504916
     8  C    0.136319
     9  C    0.122791
    10  C   -0.296161
    11  N   -0.250529
    12  C    0.247356
    13  N    0.170275
    14  C   -0.037055
    15  C    0.103339
    16  N    0.777290
 Electronic spatial extent (au):  <R**2>=           4289.5094
 Charge=              1.0000 electrons
 Dipole moment (field-independent basis, Debye):
    X=            -10.0348    Y=             -4.0257    Z=              4.5643  Tot=             11.7361
 Quadrupole moment (field-independent basis, Debye-Ang):
   XX=            -37.5427   YY=            -81.5825   ZZ=            -88.6333
   XY=            -14.5413   XZ=              1.7190   YZ=              1.5660
 Traceless Quadrupole moment (field-independent basis, Debye-Ang):
   XX=             31.7101   YY=            -12.3296   ZZ=            -19.3805
   XY=            -14.5413   XZ=              1.7190   YZ=              1.5660
 Octapole moment (field-independent basis, Debye-Ang**2):
  XXX=           -269.0330  YYY=            -69.2049  ZZZ=             -8.0329  XYY=            -92.4851
  XXY=            -69.8776  XXZ=             27.3410  XZZ=            -42.5381  YZZ=             -7.4804
  YYZ=              6.8651  XYZ=              7.2488
 Hexadecapole moment (field-independent basis, Debye-Ang**3):
 XXXX=          -3120.7441 YYYY=           -830.1567 ZZZZ=           -516.1949 XXXY=           -816.8274
 XXXZ=            135.9000 YYYX=           -566.7866 YYYZ=            -36.0233 ZZZX=             50.0488
 ZZZY=            -13.5747 XXYY=           -890.5813 XXZZ=           -790.5360 YYZZ=           -186.0540
 XXYZ=             17.5438 YYXZ=             31.8418 ZZXY=           -145.3695
 N-N= 1.174327077191D+03 E-N=-4.193602226198D+03  KE= 7.933766051104D+02
 Calling FoFJK, ICntrl=      2127 FMM=F ISym2X=0 I1Cent= 0 IOpClX= 0 NMat=1 NMatS=1 NMatT=0.
 -------------------------------------------------------------------
 Center     Atomic                   Forces (Hartrees/Bohr)
 Number     Number              X              Y              Z
 -------------------------------------------------------------------
      1        8          -0.000355615   -0.009712775    0.007338972
      2        6          -0.000151632    0.005677552   -0.003368451
      3        7          -0.001449473    0.000882390   -0.001367657
      4        6          -0.000310073   -0.000572578    0.001242742
      5        6          -0.004845715    0.004210114    0.001617127
      6        8          -0.005487700    0.001612839   -0.000656064
      7        8           0.010778052   -0.004880274   -0.000724581
      8        6          -0.000120943    0.000793771   -0.000476946
      9        6           0.002034302    0.002868647    0.000189914
     10        6          -0.001586978   -0.002064721   -0.000653852
     11        7          -0.001181289   -0.007986308    0.001412205
     12        6          -0.000111065    0.001609999   -0.000253198
     13        7          -0.000423977    0.002374152   -0.001187848
     14        6          -0.000117692   -0.000609651   -0.000890881
     15        6          -0.000335404    0.000437493    0.000211019
     16        7           0.000613194    0.001187367    0.000030696
     17        1           0.000388891    0.002205951   -0.002145452
     18        1          -0.001804734    0.001500395   -0.001512858
     19        1           0.001743917   -0.002450738   -0.000899323
     20        1          -0.000124974    0.002465044    0.001192199
     21        1           0.002240774   -0.001348050    0.001638445
     22        1           0.001778242   -0.002126217    0.001099021
     23        1          -0.002554924    0.000328267   -0.001117716
     24        1          -0.000201659    0.002937868   -0.000521774
     25        1           0.001185875    0.000238684    0.002413112
     26        1           0.000428579    0.002604990   -0.001232710
     27        1           0.002833226    0.000199126    0.000207155
     28        1          -0.000849871   -0.000025499   -0.002741103
     29        1           0.002402666   -0.002240825   -0.001098620
     30        1          -0.003244769   -0.000412238   -0.001067899
     31        1          -0.001169229    0.000295226    0.003324329
 -------------------------------------------------------------------
 Cartesian Forces:  Max     0.010778052 RMS     0.002654852

 GradGradGradGradGradGradGradGradGradGradGradGradGradGradGradGradGradGrad
 Berny optimization.
 FormGI is forming the generalized inverse of G from B-inverse, IUseBI=4.
 GSVD:  received Info=                   1 from GESDD.
 Internal  Forces:  Max     0.012124404 RMS     0.002074108
 Search for a local minimum.
 Step number   1 out of a maximum of  167
 All quantities printed in internal units (Hartrees-Bohrs-Radians)
 Mixed Optimization -- RFO/linear search
 Second derivative matrix not updated -- first step.
 ITU=  0
     Eigenvalues ---    0.00022   0.00192   0.00210   0.00362   0.00413
     Eigenvalues ---    0.00459   0.00507   0.00852   0.01027   0.02006
     Eigenvalues ---    0.02089   0.02529   0.02595   0.03269   0.03887
     Eigenvalues ---    0.04026   0.04054   0.04273   0.04367   0.04469
     Eigenvalues ---    0.04612   0.04956   0.05040   0.05126   0.05530
     Eigenvalues ---    0.05906   0.06085   0.06365   0.06593   0.07081
     Eigenvalues ---    0.07581   0.07975   0.10081   0.10952   0.11045
     Eigenvalues ---    0.11170   0.11818   0.12420   0.12541   0.14426
     Eigenvalues ---    0.14746   0.14942   0.15931   0.17139   0.18792
     Eigenvalues ---    0.20337   0.20830   0.21373   0.22112   0.23071
     Eigenvalues ---    0.23538   0.24241   0.24499   0.25263   0.26181
     Eigenvalues ---    0.27514   0.29608   0.32120   0.32940   0.33617
     Eigenvalues ---    0.33786   0.34194   0.34347   0.34632   0.34659
     Eigenvalues ---    0.34737   0.34918   0.35324   0.36158   0.37270
     Eigenvalues ---    0.37385   0.38488   0.40481   0.41239   0.44080
     Eigenvalues ---    0.45462   0.45893   0.47042   0.47331   0.47504
     Eigenvalues ---    0.48035   0.51178   0.58551   0.63723   0.79137
     Eigenvalues ---    0.82878   1.20883
 RFO step:  Lambda=-1.40616761D-03 EMin= 2.24252036D-04
 Linear search not attempted -- first point.
 Iteration  1 RMS(Cart)=  0.04703596 RMS(Int)=  0.00070858
 Iteration  2 RMS(Cart)=  0.00103186 RMS(Int)=  0.00001803
 Iteration  3 RMS(Cart)=  0.00000047 RMS(Int)=  0.00001803
 Variable       Old X    -DE/DX   Delta X   Delta X   Delta X     New X
                                 (Linear)    (Quad)   (Total)
    R1        2.32766  -0.01212   0.00000  -0.01634  -0.01634   2.31132
    R2        2.56441  -0.00350   0.00000  -0.00494  -0.00494   2.55946
    R3        2.87927  -0.00237   0.00000  -0.00812  -0.00812   2.87115
    R4        2.75811  -0.00048   0.00000  -0.00546  -0.00546   2.75265
    R5        1.90866  -0.00309   0.00000  -0.00675  -0.00675   1.90191
    R6        2.89485  -0.00215   0.00000  -0.00590  -0.00590   2.88895
    R7        2.95934  -0.00125   0.00000  -0.00607  -0.00607   2.95328
    R8        2.06545  -0.00278   0.00000  -0.00744  -0.00744   2.05801
    R9        2.49918  -0.00401   0.00000  -0.00690  -0.00690   2.49228
   R10        2.31688  -0.01185   0.00000  -0.01407  -0.01407   2.30280
   R11        1.84085  -0.00297   0.00000  -0.00675  -0.00675   1.83410
   R12        2.80844  -0.00314   0.00000  -0.00795  -0.00795   2.80049
   R13        2.07138  -0.00271   0.00000  -0.00740  -0.00740   2.06398
   R14        2.05761  -0.00304   0.00000  -0.00780  -0.00780   2.04981
   R15        2.60009  -0.00642   0.00000  -0.01121  -0.01121   2.58888
   R16        2.61994  -0.00301   0.00000  -0.00713  -0.00713   2.61281
   R17        2.59832  -0.00252   0.00000  -0.00436  -0.00437   2.59395
   R18        2.04442  -0.00298   0.00000  -0.00816  -0.00816   2.03626
   R19        2.48559  -0.00604   0.00000  -0.01076  -0.01077   2.47483
   R20        2.58684  -0.00416   0.00000  -0.00601  -0.00602   2.58082
   R21        2.04261  -0.00281   0.00000  -0.00733  -0.00733   2.03528
   R22        1.90669  -0.00296   0.00000  -0.00615  -0.00615   1.90054
   R23        2.91637  -0.00114   0.00000  -0.00832  -0.00832   2.90805
   R24        2.06346  -0.00270   0.00000  -0.00791  -0.00791   2.05555
   R25        2.06547  -0.00288   0.00000  -0.00795  -0.00795   2.05752
   R26        2.86223  -0.00171   0.00000  -0.00615  -0.00615   2.85609
   R27        2.06012  -0.00284   0.00000  -0.00765  -0.00765   2.05247
   R28        2.06173  -0.00285   0.00000  -0.00771  -0.00771   2.05402
   R29        1.93049  -0.00346   0.00000  -0.00711  -0.00711   1.92338
   R30        1.98597  -0.00340   0.00000  -0.00884  -0.00884   1.97713
   R31        1.94645  -0.00343   0.00000  -0.01044  -0.01044   1.93601
    A1        2.16877  -0.00063   0.00000  -0.00142  -0.00143   2.16734
    A2        2.06274   0.00039   0.00000   0.00351   0.00350   2.06624
    A3        2.04203   0.00039   0.00000  -0.00101  -0.00102   2.04102
    A4        2.14690   0.00337   0.00000   0.00680   0.00672   2.15362
    A5        2.04994  -0.00197   0.00000  -0.00084  -0.00092   2.04901
    A6        2.03721  -0.00115   0.00000   0.00043   0.00035   2.03756
    A7        1.91036   0.00124   0.00000   0.00477   0.00478   1.91514
    A8        1.97223  -0.00038   0.00000  -0.00363  -0.00365   1.96858
    A9        1.86939  -0.00038   0.00000  -0.00244  -0.00244   1.86695
   A10        1.96853  -0.00030   0.00000   0.00509   0.00509   1.97363
   A11        1.85409  -0.00037   0.00000  -0.00290  -0.00289   1.85120
   A12        1.88249   0.00016   0.00000  -0.00144  -0.00145   1.88104
   A13        1.94444   0.00075   0.00000   0.00149   0.00149   1.94594
   A14        2.19756  -0.00075   0.00000  -0.00553  -0.00554   2.19202
   A15        2.14103   0.00000   0.00000   0.00398   0.00397   2.14500
   A16        1.91122   0.00186   0.00000   0.01381   0.01381   1.92503
   A17        1.99655   0.00107   0.00000   0.00947   0.00947   2.00602
   A18        1.84353  -0.00026   0.00000  -0.00171  -0.00169   1.84184
   A19        1.88922   0.00023   0.00000   0.00328   0.00328   1.89250
   A20        1.95828  -0.00058   0.00000  -0.00616  -0.00617   1.95211
   A21        1.90419  -0.00063   0.00000  -0.00450  -0.00453   1.89965
   A22        1.86636   0.00016   0.00000  -0.00055  -0.00057   1.86579
   A23        2.28347  -0.00050   0.00000  -0.00304  -0.00306   2.28041
   A24        2.17305   0.00030   0.00000   0.00144   0.00142   2.17447
   A25        1.82470   0.00021   0.00000   0.00225   0.00224   1.82694
   A26        1.94004  -0.00124   0.00000  -0.00491  -0.00491   1.93513
   A27        2.22214   0.00051   0.00000   0.00231   0.00230   2.22445
   A28        2.12098   0.00073   0.00000   0.00261   0.00261   2.12359
   A29        1.83823   0.00194   0.00000   0.00622   0.00622   1.84445
   A30        1.94902  -0.00155   0.00000  -0.00506  -0.00506   1.94396
   A31        2.19915   0.00075   0.00000   0.00272   0.00272   2.20187
   A32        2.13498   0.00080   0.00000   0.00233   0.00233   2.13730
   A33        1.87273   0.00064   0.00000   0.00155   0.00154   1.87427
   A34        2.21078   0.00007   0.00000   0.00235   0.00233   2.21312
   A35        2.19574  -0.00071   0.00000  -0.00320  -0.00321   2.19253
   A36        1.88300   0.00377   0.00000   0.00317   0.00317   1.88616
   A37        1.87588  -0.00087   0.00000  -0.00039  -0.00040   1.87549
   A38        1.99613  -0.00156   0.00000  -0.00450  -0.00450   1.99163
   A39        1.92330  -0.00076   0.00000   0.00260   0.00260   1.92589
   A40        1.89380  -0.00117   0.00000  -0.00139  -0.00139   1.89241
   A41        1.89150   0.00057   0.00000   0.00075   0.00075   1.89225
   A42        1.93195   0.00374   0.00000   0.00786   0.00786   1.93981
   A43        1.93833  -0.00111   0.00000  -0.00043  -0.00043   1.93790
   A44        1.94997  -0.00109   0.00000  -0.00241  -0.00242   1.94756
   A45        1.88943  -0.00123   0.00000  -0.00203  -0.00204   1.88739
   A46        1.84832  -0.00086   0.00000   0.00001   0.00001   1.84833
   A47        1.90271   0.00054   0.00000  -0.00311  -0.00311   1.89960
   A48        1.95718  -0.00033   0.00000  -0.00596  -0.00595   1.95123
   A49        1.89408   0.00034   0.00000   0.00952   0.00948   1.90356
   A50        1.92710   0.00063   0.00000   0.00608   0.00602   1.93313
   A51        1.92070  -0.00022   0.00000  -0.00598  -0.00596   1.91474
   A52        1.93531  -0.00041   0.00000  -0.01092  -0.01093   1.92439
   A53        1.82446   0.00005   0.00000   0.00865   0.00854   1.83300
    D1        0.30521  -0.00020   0.00000  -0.01517  -0.01517   0.29004
    D2        3.10385   0.00035   0.00000   0.00635   0.00635   3.11020
    D3       -2.68447  -0.00143   0.00000  -0.02400  -0.02400  -2.70846
    D4        0.11418  -0.00088   0.00000  -0.00248  -0.00248   0.11170
    D5       -1.32453  -0.00085   0.00000  -0.02331  -0.02332  -1.34785
    D6        0.74918  -0.00019   0.00000  -0.01875  -0.01876   0.73043
    D7        2.84992  -0.00107   0.00000  -0.02091  -0.02092   2.82900
    D8        1.67468   0.00021   0.00000  -0.01544  -0.01544   1.65924
    D9       -2.53479   0.00087   0.00000  -0.01088  -0.01088  -2.54567
   D10       -0.43405  -0.00001   0.00000  -0.01305  -0.01304  -0.44709
   D11        1.16533   0.00014   0.00000  -0.00850  -0.00849   1.15684
   D12       -1.04424  -0.00014   0.00000  -0.01628  -0.01626  -1.06050
   D13       -3.11482   0.00013   0.00000  -0.01080  -0.01079  -3.12562
   D14       -1.63562  -0.00025   0.00000  -0.02963  -0.02964  -1.66526
   D15        2.43799  -0.00053   0.00000  -0.03741  -0.03741   2.40058
   D16        0.36740  -0.00026   0.00000  -0.03193  -0.03194   0.33547
   D17        2.75600  -0.00021   0.00000   0.02920   0.02919   2.78520
   D18       -0.36711  -0.00008   0.00000   0.03306   0.03304  -0.33407
   D19       -1.31551   0.00003   0.00000   0.03201   0.03202  -1.28349
   D20        1.84456   0.00016   0.00000   0.03587   0.03588   1.88044
   D21        0.74317  -0.00017   0.00000   0.03124   0.03124   0.77441
   D22       -2.37995  -0.00005   0.00000   0.03510   0.03510  -2.34485
   D23       -3.11753   0.00066   0.00000   0.00565   0.00565  -3.11188
   D24       -0.95517   0.00042   0.00000   0.00263   0.00263  -0.95254
   D25        1.03882   0.00058   0.00000   0.00266   0.00264   1.04146
   D26        0.98736  -0.00046   0.00000  -0.00201  -0.00200   0.98536
   D27       -3.13347  -0.00070   0.00000  -0.00502  -0.00502  -3.13849
   D28       -1.13949  -0.00054   0.00000  -0.00500  -0.00501  -1.14449
   D29       -1.05457   0.00007   0.00000  -0.00046  -0.00045  -1.05503
   D30        1.10779  -0.00017   0.00000  -0.00348  -0.00348   1.10431
   D31        3.10177  -0.00001   0.00000  -0.00346  -0.00346   3.09831
   D32        3.06453   0.00013   0.00000   0.00706   0.00707   3.07160
   D33       -0.09484   0.00000   0.00000   0.00323   0.00322  -0.09162
   D34       -1.79663  -0.00034   0.00000  -0.02984  -0.02983  -1.82647
   D35        1.26675  -0.00021   0.00000  -0.01682  -0.01683   1.24992
   D36        2.38692  -0.00034   0.00000  -0.02986  -0.02984   2.35709
   D37       -0.83288  -0.00021   0.00000  -0.01684  -0.01683  -0.84971
   D38        0.32199   0.00022   0.00000  -0.02247  -0.02248   0.29951
   D39       -2.89781   0.00034   0.00000  -0.00945  -0.00947  -2.90728
   D40        3.08024  -0.00003   0.00000   0.00750   0.00749   3.08773
   D41       -0.06894   0.00001   0.00000   0.00793   0.00792  -0.06102
   D42        0.00522  -0.00015   0.00000  -0.00360  -0.00360   0.00162
   D43        3.13922  -0.00010   0.00000  -0.00317  -0.00317   3.13605
   D44       -3.09006   0.00006   0.00000  -0.00605  -0.00606  -3.09612
   D45        0.14280   0.00000   0.00000  -0.01394  -0.01397   0.12883
   D46       -0.00958   0.00013   0.00000   0.00392   0.00393  -0.00565
   D47       -3.05990   0.00007   0.00000  -0.00397  -0.00398  -3.06388
   D48        0.00138   0.00010   0.00000   0.00181   0.00181   0.00319
   D49       -3.13313   0.00006   0.00000   0.00141   0.00141  -3.13172
   D50       -0.00778   0.00000   0.00000   0.00085   0.00085  -0.00693
   D51        3.12492  -0.00006   0.00000  -0.00080  -0.00080   3.12412
   D52        0.01126  -0.00009   0.00000  -0.00312  -0.00312   0.00813
   D53        3.06258   0.00002   0.00000   0.00505   0.00503   3.06761
   D54       -3.12182  -0.00004   0.00000  -0.00155  -0.00155  -3.12337
   D55       -0.07049   0.00007   0.00000   0.00662   0.00660  -0.06389
   D56        0.62490   0.00053   0.00000  -0.00792  -0.00792   0.61697
   D57        2.72423   0.00073   0.00000  -0.00552  -0.00552   2.71871
   D58       -1.43040  -0.00013   0.00000  -0.01151  -0.01150  -1.44191
   D59       -1.41832  -0.00019   0.00000  -0.01072  -0.01073  -1.42905
   D60        0.68101   0.00002   0.00000  -0.00832  -0.00832   0.67269
   D61        2.80957  -0.00084   0.00000  -0.01431  -0.01431   2.79526
   D62        2.79644   0.00026   0.00000  -0.01231  -0.01231   2.78413
   D63       -1.38741   0.00046   0.00000  -0.00990  -0.00990  -1.39731
   D64        0.74115  -0.00040   0.00000  -0.01589  -0.01589   0.72526
   D65        2.79272   0.00000   0.00000   0.03797   0.03797   2.83069
   D66       -1.36505  -0.00027   0.00000   0.03313   0.03309  -1.33196
   D67        0.62502   0.00031   0.00000   0.05198   0.05201   0.67702
   D68        0.66445  -0.00016   0.00000   0.03490   0.03491   0.69936
   D69        2.78986  -0.00043   0.00000   0.03007   0.03003   2.81989
   D70       -1.50326   0.00015   0.00000   0.04892   0.04895  -1.45431
   D71       -1.37395   0.00025   0.00000   0.03949   0.03950  -1.33446
   D72        0.75146  -0.00001   0.00000   0.03465   0.03462   0.78608
   D73        2.74153   0.00057   0.00000   0.05351   0.05354   2.79506
         Item               Value     Threshold  Converged?
 Maximum Force            0.012124     0.000450     NO 
 RMS     Force            0.002074     0.000300     NO 
 Maximum Displacement     0.198161     0.001800     NO 
 RMS     Displacement     0.047056     0.001200     NO 
 Predicted change in Energy=-7.286581D-04
 GradGradGradGradGradGradGradGradGradGradGradGradGradGradGradGradGradGrad

                          Input orientation:                          
 ---------------------------------------------------------------------
 Center     Atomic      Atomic             Coordinates (Angstroms)
 Number     Number       Type             X           Y           Z
 ---------------------------------------------------------------------
      1          8           0       -1.430732   -0.121721   -1.395244
      2          6           0       -1.525634   -1.041306   -0.594419
      3          7           0       -0.523259   -1.446236    0.221486
      4          6           0        0.656935   -0.640036    0.502528
      5          6           0        0.254000    0.608913    1.286682
      6          8           0        1.282653    1.130787    1.926143
      7          8           0       -0.870784    1.073201    1.351978
      8          6           0        1.488419   -0.316168   -0.780479
      9          6           0        2.722430    0.469480   -0.543496
     10          6           0        2.998781    1.790345   -0.779677
     11          7           0        4.258976    2.112412   -0.341070
     12          6           0        4.754638    1.006228    0.154701
     13          7           0        3.862275   -0.023658    0.064176
     14          6           0       -2.894626   -1.657642   -0.361171
     15          6           0       -3.697238   -0.708272    0.545825
     16          7           0       -3.373860    0.736959    0.244179
     17          1           0       -0.721807   -2.197041    0.861645
     18          1           0        1.289182   -1.223957    1.169862
     19          1           0        1.022316    1.955934    2.365856
     20          1           0        1.704149   -1.282822   -1.240878
     21          1           0        0.854095    0.227943   -1.471981
     22          1           0        2.358556    2.520353   -1.246902
     23          1           0        5.737502    0.883929    0.577784
     24          1           0        4.041617   -0.978648    0.323617
     25          1           0       -3.378662   -1.753783   -1.330534
     26          1           0       -2.866183   -2.639732    0.108041
     27          1           0       -4.765501   -0.850953    0.411247
     28          1           0       -3.452857   -0.855476    1.594659
     29          1           0       -4.083441    1.367583    0.611253
     30          1           0       -2.443142    0.972863    0.659822
     31          1           0       -3.258712    0.880599   -0.763637
 ---------------------------------------------------------------------
                    Distance matrix (angstroms):
                    1          2          3          4          5
     1  O    0.000000
     2  C    1.223096   0.000000
     3  N    2.278521   1.354409   0.000000
     4  C    2.868543   2.475463   1.456640   0.000000
     5  C    3.250365   3.070645   2.441805   1.528767   0.000000
     6  O    4.467980   4.354044   3.578858   2.356697   1.318859
     7  O    3.047722   2.947615   2.783227   2.447585   1.218592
     8  C    2.989513   3.105633   2.515519   1.562806   2.579286
     9  C    4.280624   4.509003   3.845733   2.567385   3.076059
    10  C    4.863692   5.340684   4.886978   3.610408   3.633103
    11  N    6.202855   6.593317   5.987505   4.611110   4.577108
    12  C    6.475600   6.647962   5.820244   4.429712   4.657787
    13  N    5.491397   5.522582   4.613175   3.293369   3.861905
    14  C    2.360370   1.519347   2.451033   3.794085   4.215037
    15  C    3.041191   2.475265   3.274741   4.354923   4.230382
    16  N    2.683428   2.698409   3.590651   4.267337   3.776847
    17  H    3.146915   2.025335   1.006445   2.110487   3.001039
    18  H    3.897772   3.327047   2.057613   1.089053   2.108237
    19  H    4.947723   4.923284   4.308351   3.216296   1.889283
    20  H    3.346559   3.302686   2.669561   2.132908   3.474212
[...]
 00000621,0.00000787,0.00000200,-0.10977551,-0.01760357,-0.26195335,-0.
 00576745,-0.00188269,-0.01809606,0.00005837,0.00004126,0.00058790,0.00
 025650,0.00000979,0.00013376,0.00006806,0.00002488,0.00003294,0.000003
 01,0.00000271,-0.00000550,0.00000990,0.00000054,0.00000949,-0.00003407
 ,-0.00000741,0.00001790,-0.00000083,-0.00000172,0.00000131,0.00000067,
 0.00000049,-0.00000059,-0.00000397,0.00000120,0.00000036,0.11438205,0.
 02150893,0.28279403,-0.00798970,-0.00508422,0.00388070,0.01109231,-0.0
 2563524,0.01268377,0.00016233,0.00227555,-0.00037181,0.00029050,-0.000
 10223,0.00003461,-0.00004263,0.00000065,0.00009867,0.00006647,0.000037
 68,0.00004234,0.00026063,-0.00004736,-0.00009437,-0.00003403,-0.000035
 55,0.00013920,0.00003817,0.00005435,-0.00006219,0.00000749,-0.00001528
 ,0.00000346,0.00000355,0.00000457,0.00000015,-0.00001467,0.00000840,-0
 .00000517,-0.00002874,-0.00001149,-0.00002961,-0.05152494,0.00739898,-
 0.00774017,0.00014036,0.01482814,-0.00823010,-0.00191296,0.00243093,0.
 00221974,-0.00136591,-0.00054437,-0.00061900,0.00004391,0.00004717,-0.
 00000045,-0.00000928,-0.00001082,0.00000018,-0.00000771,0.00001623,-0.
 00001019,0.00015017,0.00007373,-0.00005737,0.00000119,0.00000768,-0.00
 000013,-0.00000318,-0.00000086,0.00000298,-0.00000689,-0.00000427,0.00
 000703,-0.00026321,0.01391869,-0.00535118,0.05046360,-0.00280638,-0.00
 012144,0.00009469,0.00445112,-0.00911062,0.00508236,0.00059859,0.00120
 322,-0.00013690,-0.00033730,-0.00001143,-0.00025929,0.00028135,-0.0001
 6062,-0.00002456,-0.00009084,0.00005131,0.00001598,-0.00028938,0.00015
 947,-0.00012537,0.00000024,0.00000595,0.00012018,0.00001478,0.00004707
 ,-0.00006468,0.00000912,-0.00001968,0.00000386,0.00000988,0.00000753,0
 .00000750,-0.00000292,0.00001310,-0.00000418,-0.00002842,-0.00000472,-
 0.00002093,0.00612000,-0.26381108,0.10378286,-0.00007260,-0.01795169,0
 .00771315,0.00286640,-0.00142388,-0.00247305,-0.00088687,0.00046289,-0
 .00067451,-0.00001291,0.00000523,0.00000954,0.00001151,-0.00000305,0.0
 0002362,-0.00000519,0.00000519,0.00000902,0.00005680,0.00004295,-0.000
 04940,0.00000165,0.00000456,-0.00000161,-0.00000172,-0.00000047,0.0000
 0109,-0.00000655,-0.00000117,0.00000698,0.00018307,0.00412690,-0.00095
 451,-0.00937837,0.28566740,0.00306827,0.00161201,0.00159638,-0.0018201
 1,0.00302562,-0.00557471,-0.00038120,-0.00072649,-0.00009766,0.0001967
 8,-0.00010149,0.00001777,0.00000215,-0.00012563,-0.00007493,-0.0000389
 3,0.00001169,-0.00000975,-0.00021622,0.00009739,0.00000496,0.00003032,
 0.00006813,0.00000458,-0.00000043,-0.00004390,0.00000727,-0.00000539,-
 0.00000481,-0.00000223,0.00001731,0.00000501,0.00000663,0.00001260,-0.
 00000165,0.00000467,0.00001880,0.00001919,-0.00000393,-0.00614822,0.10
 727772,-0.09790011,-0.00045525,-0.01833383,0.00729764,0.00306287,-0.00
 491994,-0.00210955,-0.00042754,-0.00009325,0.00072298,0.00000821,0.000
 03372,0.00002426,-0.00000028,-0.00000294,0.00000047,0.00001198,-0.0000
 1023,0.00000367,-0.00004617,-0.00003243,0.00004522,-0.00000148,-0.0000
 0550,0.00000081,0.00000041,0.00000213,0.00000107,-0.00000696,0.0000071
 2,0.00000408,0.00000154,0.02550551,-0.01001671,0.00353903,-0.11245653,
 0.10463283,0.00013870,-0.00058012,-0.00002397,0.00049087,0.00288138,0.
 00082847,-0.00036425,-0.00021291,0.00012502,0.00021293,-0.00005430,-0.
 00009488,-0.00005107,0.00016203,0.00011807,0.00000251,-0.00009161,-0.0
 0008146,0.00008821,-0.00014501,-0.00004143,0.00005246,0.00001700,-0.00
 004613,0.00000389,-0.00000344,0.00000996,0.00000158,0.00002026,0.00000
 057,-0.00002582,-0.00001027,-0.00001054,-0.00000916,-0.00000649,-0.000
 00286,0.00000402,-0.00001418,0.00000996,-0.01398342,-0.00021651,-0.000
 48853,-0.31614397,-0.03544978,-0.04068092,-0.00233599,-0.00112951,-0.0
 0015810,-0.00002657,-0.00003973,0.00005910,-0.00001747,-0.00002343,-0.
 00001690,-0.00000464,0.00001019,-0.00000017,0.00000548,-0.00000218,-0.
 00000236,0.00001456,0.00000733,0.00000208,0.00000122,0.00000340,-0.000
 00149,-0.00000009,-0.00000076,0.00000025,0.00001001,-0.00000353,0.0000
 0011,0.00134521,-0.00056123,-0.00006851,-0.00022202,0.00031249,0.00018
 112,0.33485777,0.00015320,0.00199686,-0.00028030,-0.00032088,-0.005341
 47,-0.00143965,0.00103019,0.00071233,0.00002984,-0.00044602,-0.0001169
 4,0.00024203,0.00087048,-0.00056655,-0.00031813,-0.00039608,0.00008659
 ,0.00002595,-0.00151131,0.00076098,-0.00031832,-0.00000728,0.00005041,
 0.00002294,-0.00001319,-0.00001909,-0.00001280,0.00000077,-0.00001867,
 0.00001244,0.00003692,0.00002239,0.00001806,0.00001502,0.00000607,0.00
 000041,-0.00000437,0.00002903,-0.00001160,0.02134884,0.00449638,0.0001
 9211,-0.02323007,-0.05180566,-0.00069276,-0.03914614,-0.01575553,-0.00
 589845,0.00000120,0.00008571,-0.00005503,0.00006401,0.00008712,0.00004
 938,0.00004742,0.00003944,0.00003725,-0.00002653,0.00000669,0.00002721
 ,-0.00003288,-0.00002842,-0.00000412,0.00000131,-0.00000384,-0.0000064
 6,0.00000094,0.00000191,-0.00000094,-0.00001420,0.00000071,-0.00000252
 ,-0.00056006,0.00104120,0.00033691,-0.00049876,-0.00005368,0.00047782,
 0.03597659,0.06561395,-0.00013957,0.00085483,0.00010600,0.00062581,-0.
 00412555,-0.00183787,0.00085817,0.00072057,0.00062650,-0.00014497,0.00
 003074,0.00028854,0.00046196,-0.00015134,-0.00005822,-0.00006363,0.000
 07319,-0.00001866,-0.00004588,-0.00011631,0.00033107,-0.00002859,0.000
 00915,-0.00001610,-0.00000938,-0.00001350,0.00000419,0.00000009,-0.000
 00295,0.00000176,0.00001125,0.00000463,0.00000354,0.00000575,0.0000013
 8,0.00000118,0.00000263,0.00000893,-0.00000252,0.02196966,0.00104342,-
 0.00000767,-0.04373351,-0.00329255,-0.05724627,0.00917931,0.00282441,0
 .00100521,0.00016076,-0.00018288,-0.00019320,0.00005305,0.00004020,0.0
 0001914,0.00001176,0.00001466,0.00000732,-0.00000765,0.00000068,0.0000
 0886,-0.00002133,-0.00001226,0.00000303,-0.00000071,-0.00000161,0.0000
 0040,0.00000048,0.00000066,-0.00000023,-0.00000438,0.00000088,-0.00000
 046,0.00009497,0.00089618,0.00111583,-0.00022783,-0.00010082,0.0002066
 6,0.04112976,0.00543895,0.05755615,-0.00034319,-0.00018518,-0.00007203
 ,0.00201653,-0.00022351,0.00131051,-0.00006261,-0.00000046,-0.00071520
 ,-0.00006879,-0.00002453,-0.00012561,-0.00069901,0.00014402,0.00001025
 ,0.00030173,0.00007379,0.00019711,0.00065092,0.00011495,-0.00026392,-0
 .00004427,-0.00004011,0.00009751,0.00001063,0.00001890,-0.00002913,0.0
 0000147,-0.00003625,-0.00000465,0.00003239,0.00001420,0.00000832,0.000
 00452,0.00000733,0.00000462,-0.00001053,0.00001743,-0.00002369,0.00401
 992,-0.00208478,0.01781744,-0.06860185,0.01026103,-0.06426554,0.001545
 96,-0.00470398,0.01085707,-0.00022844,0.00034616,0.00014876,-0.0000149
 0,-0.00000716,-0.00000078,-0.00003090,-0.00007022,-0.00003395,0.000014
 45,0.00000510,-0.00001344,0.00001611,0.00000882,-0.00000485,-0.0000019
 8,-0.00000317,0.00000616,-0.00000155,0.00000071,0.00000115,-0.00001723
 ,0.00000745,0.00000658,-0.00147385,0.00188873,0.00192845,0.00124976,-0
 .00074169,-0.00082352,-0.00487982,0.00545417,-0.03059297,0.06615744,0.
 00006718,0.00109229,-0.00006600,-0.00163439,-0.00108493,0.00020733,0.0
 0028358,0.00012683,0.00008055,0.00006989,-0.00004427,0.00005195,-0.000
 27635,0.00006932,-0.00009883,0.00005893,0.00000507,0.00009009,-0.00001
 165,0.00014760,-0.00038549,-0.00001158,-0.00002855,0.00000666,-0.00000
 190,-0.00000087,0.00000440,0.00000257,-0.00001323,0.00000375,0.0000074
 0,0.00000506,0.00000128,0.00000207,0.00000288,0.00000130,-0.00000322,0
 .00000887,-0.00000611,-0.00416918,0.00092111,-0.02115707,0.00587598,-0
 .05155024,0.02883957,0.00331864,-0.01634369,0.03893832,0.00013451,-0.0
 0005237,-0.00015244,0.00002472,0.00000819,0.00000292,-0.00001270,-0.00
 001401,-0.00000324,0.00000043,0.00000655,-0.00000976,-0.00000853,-0.00
 001251,-0.00000008,0.00000135,-0.00000117,0.00000009,-0.00000009,0.000
 00073,-0.00000019,-0.00000364,0.00000242,-0.00000164,0.00322452,-0.001
 73592,-0.00233640,-0.00021367,0.00102456,-0.00011435,-0.00005630,0.002
 03398,-0.00431343,-0.00842032,0.06982996,0.00026427,0.00009778,0.00014
 393,-0.00168368,0.00002262,-0.00065328,0.00048408,0.00011181,0.0007277
 3,0.00008399,-0.00003810,0.00004343,0.00056547,-0.00008880,0.00005913,
 -0.00017065,-0.00003021,-0.00013083,-0.00024954,-0.00017205,0.00017182
 ,0.00002819,0.00003384,-0.00004368,-0.00000349,-0.00001108,0.00001211,
 -0.00000198,0.00001341,0.00000380,-0.00000944,-0.00000310,-0.00000105,
 -0.00000093,-0.00000346,-0.00000225,0.00000484,-0.00000305,0.00000968,
 -0.00344865,-0.00021442,-0.01617650,-0.06021639,0.03897724,-0.30265264
 ,-0.00036297,0.00327024,-0.00363885,0.00022150,-0.00018203,-0.00012311
 ,0.00001475,0.00001542,0.00000410,0.00001542,0.00002833,0.00001958,-0.
 00000974,-0.00000038,0.00000840,-0.00001358,-0.00000999,0.00000061,0.0
 0000101,0.00000049,-0.00000411,0.00000073,-0.00000029,-0.00000078,0.00
 000590,-0.00000345,-0.00000346,0.00234345,-0.00185173,-0.00028279,-0.0
 0009276,0.00006153,0.00124630,-0.00096879,-0.00023295,-0.00235327,0.06
 348048,-0.04071913,0.32268002,-0.00006925,0.00118868,0.00001776,-0.000
 88331,-0.00089455,0.00114438,0.00018711,0.00007135,-0.00016406,0.00005
 074,0.00002885,-0.00001936,-0.00039549,-0.00012980,-0.00022844,0.00009
 192,0.00009809,0.00015626,-0.00051941,-0.00062791,-0.00088471,-0.00004
 536,-0.00006239,0.00005402,-0.00000046,0.00001991,-0.00001753,-0.00001
 292,-0.00002069,-0.00001648,0.00003980,0.00000400,0.00000407,0.0000055
 8,0.00000302,0.00000733,0.00000432,0.00000597,-0.00001274,-0.00030833,
 -0.00304091,0.00090034,0.00923731,-0.00595816,-0.00689129,-0.23110594,
 0.15135743,0.09655894,-0.00007554,0.00003361,-0.00003410,0.00000473,-0
 .00000525,0.00000332,-0.00005820,-0.00000406,-0.00003018,0.00001484,0.
 00000284,-0.00001379,-0.00000560,0.00000880,0.00000332,-0.00000829,-0.
 00000698,0.00001788,-0.00000188,-0.00000037,0.00000245,-0.00001789,0.0
 0001000,0.00000518,-0.00000034,0.00009211,-0.00000659,0.00053468,-0.00
 055796,-0.00045266,0.00059791,-0.00088875,-0.00040537,-0.00005928,0.00
 027741,0.00010195,0.24004209,-0.00093788,0.00125085,0.00026292,-0.0006
 3621,-0.00071832,0.00122632,-0.00019456,0.00016396,-0.00022260,0.00011
 624,0.00005514,-0.00000251,0.00077177,-0.00025937,-0.00000378,-0.00051
 159,-0.00017376,-0.00020222,-0.00160493,-0.00006867,-0.00062936,0.0000
 6376,0.00002308,-0.00004623,0.00000315,0.00001627,-0.00000343,-0.00000
 412,0.00004978,-0.00000507,-0.00004174,-0.00003661,-0.00001430,-0.0000
 1268,0.00000459,-0.00000988,0.00000816,-0.00005259,0.00003344,-0.00181
 173,-0.00461327,0.00330228,0.02159018,-0.01860383,-0.01315106,0.152669
 31,-0.18746391,-0.08423222,-0.00005529,-0.00008116,-0.00006602,-0.0000
 0989,0.00001045,-0.00000036,0.00000887,0.00012607,0.00004600,-0.000008
 37,-0.00001105,0.00000901,0.00002694,0.00002068,-0.00001259,0.00000032
 ,0.00001174,0.00000217,0.00000080,-0.00000157,0.00000086,0.00002064,-0
 .00000466,-0.00000336,-0.00009205,0.00001286,-0.00002894,0.00078615,-0
 .00072665,-0.00119128,-0.00059808,0.00183200,-0.00088880,0.00031787,0.
 00025270,0.00050563,-0.16086951,0.19726004,0.00153834,-0.00188661,-0.0
 0012642,0.00063623,0.00118540,-0.00167080,0.00017143,-0.00026960,0.000
 50748,-0.00006851,-0.00001599,0.00000408,0.00045209,-0.00030268,-0.000
 13466,-0.00034963,-0.00003450,-0.00010206,-0.00152828,-0.00018045,-0.0
 0095446,0.00001108,0.00002740,-0.00001528,0.00000283,-0.00001604,0.000
 00960,0.00001398,-0.00000929,0.00000509,-0.00000431,0.00000428,-0.0000
 0810,-0.00000135,-0.00000050,-0.00000262,-0.00000172,0.00001091,-0.000
 00538,0.00025515,0.00106775,-0.00039228,-0.00683829,0.00303052,0.00349
 964,0.09205554,-0.07983730,-0.11422263,0.00004427,0.00000780,0.0000986
 0,-0.00001426,0.00000639,0.00000450,-0.00001821,0.00004633,0.00007292,
 -0.00000440,0.00000125,0.00000328,0.00000297,-0.00001858,0.00000788,0.
 00000163,0.00000340,0.00000188,-0.00000121,0.00000162,0.00000175,-0.00
 000027,-0.00000065,0.00000590,-0.00000693,0.00013826,0.00006971,-0.000
 08040,0.00034229,0.00035862,-0.00017323,-0.00020945,0.00062488,-0.0004
 1276,0.00064557,-0.00038357,-0.10479352,0.08822570,0.11148375,-0.00460
 691,0.00107184,-0.00086630,0.00672954,0.00164630,0.00492548,-0.0032148
 1,-0.00062636,-0.00287760,0.00323679,0.00110914,0.00012415,-0.02136491
 ,0.01177273,0.00500032,0.01162799,0.00142298,0.00286735,0.01624287,-0.
 01374640,-0.00176225,-0.00133684,-0.00148328,0.00078774,0.00011034,0.0
 0027796,-0.00008401,-0.00000905,-0.00044901,-0.00018516,0.00024368,0.0
 0004767,-0.00003356,-0.00001381,0.00003383,0.00010703,-0.00008498,0.00
 010996,-0.00027229,0.00008354,0.00103850,-0.00050339,-0.00265454,-0.01
 250417,0.00137723,-0.26344755,-0.04492494,-0.08977868,0.00015792,0.000
 14391,-0.00005856,-0.00013171,-0.00077548,-0.00036922,-0.00093466,-0.0
 0166471,-0.00116426,0.00045822,0.00006360,-0.00051017,0.00018081,0.000
 22226,0.00005755,-0.00004052,-0.00005673,0.00016839,-0.00002733,0.0000
 0140,0.00002064,-0.00016890,0.00014113,0.00009855,-0.00029775,-0.00019
 571,0.00000699,-0.00053915,0.00041462,0.00048185,0.00071793,0.00213953
 ,0.00002980,0.00076899,0.00167634,-0.00024188,-0.01625562,-0.00306874,
 -0.00698686,0.26601558,-0.00016054,0.00022890,-0.00015876,0.00171278,-
 0.00295976,-0.00184966,-0.00044428,0.00029644,0.00028593,0.00106762,0.
 00018686,0.00004636,-0.00028640,-0.00053836,0.00119531,0.00027948,0.00
 053562,-0.00062626,-0.00178743,-0.00653851,-0.00084054,-0.00015283,-0.
 00015415,-0.00002877,0.00003009,0.00009682,0.00000006,-0.00002429,0.00
 002937,-0.00006968,-0.00004445,-0.00007033,-0.00003463,-0.00001763,0.0
 0000102,0.00000825,0.00001810,-0.00008817,0.00003839,-0.00048512,0.000
 21944,0.00003934,-0.03114332,-0.01020570,-0.01216640,-0.05036520,-0.07
 451178,-0.02684725,0.00001978,-0.00024895,-0.00001761,-0.00007321,-0.0
 0009503,-0.00003829,-0.00012281,-0.00000338,0.00000631,0.00006131,-0.0
 0001655,-0.00005352,0.00007125,0.00007596,0.00000157,-0.00001535,0.000
 00214,0.00004452,-0.00000229,-0.00000519,0.00000467,0.00002061,0.00001
 254,0.00000523,-0.00002861,0.00017290,0.00009067,0.00011503,0.00014617
 ,0.00019105,-0.00001788,-0.00552421,0.00135900,0.00006942,0.00178586,0
 .00020074,0.02098522,0.00684130,0.01246295,0.05459375,0.08860566,-0.00
 174552,0.00418697,-0.00112659,0.00359293,-0.00537135,0.00521464,-0.002
 45305,0.00043132,-0.00267231,0.00216789,0.00073461,0.00002103,-0.00657
 233,0.00558089,0.00161161,0.00446743,-0.00047659,0.00207214,0.00701264
 ,-0.00521045,-0.00788106,-0.00050085,-0.00081025,0.00030545,0.00006555
 ,0.00012554,-0.00000174,0.00002918,-0.00015930,-0.00004635,0.00001252,
 0.00000098,-0.00005783,-0.00005265,0.00000425,0.00002139,-0.00005373,0
 .00001220,-0.00012237,-0.00067456,-0.00033233,-0.00071941,0.00996424,-
 0.00031884,0.00426905,-0.09007049,-0.02495052,-0.10390147,-0.00018224,
 0.00008058,0.00004965,-0.00010966,-0.00031839,-0.00015537,-0.00049107,
 -0.00062146,-0.00050093,0.00021366,0.00004913,-0.00027940,0.00021978,0
 .00011091,-0.00005566,-0.00000203,0.00000512,0.00005672,-0.00001593,0.
 00000075,0.00001240,-0.00004951,0.00004995,0.00006088,-0.00004658,-0.0
 0004175,-0.00007171,0.00002277,0.00025028,0.00013337,0.00026106,0.0033
 4078,-0.00035525,0.00076960,0.00119502,0.00011899,0.01583078,0.0063140
 3,0.00849012,0.09117683,0.02459351,0.11153844,0.00093079,-0.00750253,0
 .00287354,0.00019977,0.00860630,-0.00773842,0.00167189,-0.00174974,0.0
 0283620,-0.00090506,-0.00023629,-0.00017999,0.00018643,-0.00086925,-0.
 00072693,-0.00026870,0.00039405,0.00005790,-0.00252889,0.00034028,0.00
 087442,-0.00000420,0.00015819,-0.00000545,-0.00004263,-0.00005963,-0.0
 0000912,-0.00003554,-0.00005441,-0.00001295,0.00013833,0.00004633,0.00
 005242,0.00006145,0.00001085,0.00002465,0.00002639,0.00008199,-0.00001
 507,-0.00012062,0.00110357,0.00018803,-0.00078720,-0.00395476,0.007460
 48,-0.05740323,-0.00224020,0.02339067,0.00034717,0.00016733,0.00022618
 ,0.00003677,0.00004843,0.00005081,0.00004445,0.00000326,-0.00001969,-0
 .00002512,0.00000024,0.00005074,-0.00017722,-0.00008171,0.00007110,-0.
 00001539,-0.00003436,0.00001153,0.00000293,0.00000338,-0.00000213,-0.0
 0004573,0.00001726,-0.00001062,0.00010677,-0.00024703,-0.00018599,-0.0
 0054011,-0.00011250,0.00019112,-0.00048099,-0.00004407,0.00083058,-0.0
 0025259,-0.00020201,-0.00014154,-0.00098792,-0.00592679,0.02609860,0.0
 0855486,0.00612719,-0.03278665,0.05231316,-0.00317624,0.00191773,-0.00
 126016,0.00257911,-0.00469501,0.00345363,-0.00125110,0.00060807,-0.001
 19798,0.00057848,0.00029573,0.00011956,-0.00042143,0.00048680,0.000363
 39,-0.00002680,-0.00022682,-0.00016741,0.00001319,-0.00051172,-0.00001
 681,-0.00005834,-0.00009277,-0.00004794,0.00000643,0.00008407,-0.00001
 453,-0.00002599,0.00009263,-0.00003991,-0.00007719,-0.00007401,-0.0000
 2760,-0.00002773,-0.00000545,-0.00000778,0.00001587,-0.00011217,0.0000
 5179,0.00098039,0.00113249,0.00033681,-0.00052756,-0.00520670,0.035911
 87,-0.00238558,-0.06562774,0.05160150,-0.00011384,-0.00002973,-0.00002
 775,-0.00005403,-0.00005334,-0.00003367,-0.00001907,0.00004832,-0.0000
 1833,0.00003027,-0.00002537,-0.00001728,0.00009407,0.00012623,-0.00004
 625,-0.00001021,0.00000822,0.00001266,-0.00000076,-0.00000672,0.000003
 12,0.00003554,-0.00000046,0.00000172,-0.00000858,-0.00054668,-0.000747
 06,-0.00042143,0.00042668,-0.00016986,-0.00017341,0.00033031,-0.000120
 45,-0.00220873,-0.00644221,0.00022514,-0.00112001,0.00488388,-0.024426
 16,0.00156808,0.00172309,-0.00845558,0.00620662,0.07149264,0.00020427,
 0.00295125,-0.00475794,-0.00192229,-0.00420944,0.00400801,-0.00059069,
 0.00133222,-0.00151627,0.00050375,0.00013506,0.00010580,-0.00176473,0.
 00092123,0.00045465,0.00078232,0.00001752,0.00014490,0.00224137,-0.000
 86907,0.00023446,-0.00015044,-0.00020326,0.00013065,0.00003863,0.00006
 714,-0.00002845,0.00002509,-0.00003506,-0.00001416,-0.00002557,-0.0000
 0900,-0.00003363,-0.00002793,0.00000181,0.00000016,-0.00002787,-0.0000
 1709,-0.00003149,0.00103730,-0.00041623,0.00145938,0.00041423,0.007470
 70,-0.00206223,0.02461043,0.04685390,-0.38272095,-0.00031024,0.0000333
 9,-0.00013175,-0.00001084,-0.00006174,-0.00004204,-0.00010790,-0.00010
 850,-0.00003783,0.00004336,0.00000427,-0.00005688,0.00009354,0.0000641
 0,-0.00002168,-0.00000152,0.00001429,0.00002659,-0.00000577,-0.0000003
 3,0.00000563,-0.00000336,0.00000474,0.00002375,-0.00038872,0.00000539,
 -0.00015857,0.00029811,-0.00017858,-0.00053067,0.00013474,-0.00076856,
 0.00017945,0.00073804,-0.00070463,0.00120052,-0.00083716,0.00078567,-0
 .00723145,-0.00153574,0.00215751,-0.01602841,-0.02345442,-0.05523869,0
 .40743048\\-0.00000137,0.00000148,0.00000006,-0.00000021,-0.00000031,-
 0.00000045,0.00000013,-0.00000059,0.00000118,0.00000023,-0.00000025,-0
 .00000044,-0.00000006,-0.00000018,-0.00000064,0.00000135,0.00000033,-0
 .00000024,-0.00000030,0.00000094,-0.00000002,-0.00000044,-0.00000068,-
 0.00000010,-0.00000046,0.00000014,-0.00000052,-0.00000035,0.00000020,-
 0.00000024,0.00000040,0.00000085,-0.00000069,0.00000011,0.00000004,-0.
 00000036,0.00000025,-0.00000035,0.00000024,0.00000023,-0.00000037,0.00
 000085,-0.00000036,-0.00000033,-0.00000003,0.00000094,-0.00000070,-0.0
 0000041,0.00000008,-0.00000036,0.00000050,0.00000008,-0.00000012,0.000
 00035,-0.00000021,0.00000044,-0.00000013,-0.00000002,-0.00000033,-0.00
 000027,-0.00000027,0.00000016,-0.00000020,-0.00000031,0.,-0.00000061,0
 .00000031,0.00000003,-0.00000043,0.00000005,-0.00000040,-0.00000016,-0
 .00000021,-0.00000016,0.00000011,0.00000007,-0.00000034,0.00000060,-0.
 00000029,-0.00000004,0.00000046,0.00000027,0.00000006,0.00000073,-0.00
 000025,0.00000044,0.00000020,0.00000047,0.00000027,0.00000041,0.000000
 15,0.00000014,0.00000026\\\@


 KNOWING HOW CONTENTED, FREE, AND JOYFUL IS LIFE IN
 THE REALMS OF SCIENCE, ONE FERVENTLY WISHES THAT
 MANY WOULD ENTER HER PORTALS.
   --  DMITRI IVANOVICH MENDELEEV
 "FIRST PRINCIPLES OF CHEMISTRY", LONGMANS, GREEN,
 AND CO.  LONDON, 1891
 Job cpu time:       1 days  5 hours 29 minutes 51.9 seconds.
 File lengths (MBytes):  RWF=   1350 Int=      0 D2E=      0 Chk=     46 Scr=      1
 Normal termination of Gaussian 09 at Thu Jul 29 12:11:30 2021.
