 Entering Gaussian System, Link 0=g09
 Input=opt_freq-conf-719.com
 Output=opt_freq-conf-719.log
 Initial command:
 /aerosol/software/g09/l1.exe "/scratch/nicole/10688/Gau-83078.inp" -scrdir="/scratch/nicole/10688/"
 Entering Link 1 = /aerosol/software/g09/l1.exe PID=     83081.
  
 Copyright (c) 1988,1990,1992,1993,1995,1998,2003,2009,2013,
            Gaussian, Inc.  All Rights Reserved.
  
 This is part of the Gaussian(R) 09 program.  It is based on
 the Gaussian(R) 03 system (copyright 2003, Gaussian, Inc.),
 the Gaussian(R) 98 system (copyright 1998, Gaussian, Inc.),
 the Gaussian(R) 94 system (copyright 1995, Gaussian, Inc.),
 the Gaussian 92(TM) system (copyright 1992, Gaussian, Inc.),
 the Gaussian 90(TM) system (copyright 1990, Gaussian, Inc.),
 the Gaussian 88(TM) system (copyright 1988, Gaussian, Inc.),
 the Gaussian 86(TM) system (copyright 1986, Carnegie Mellon
 University), and the Gaussian 82(TM) system (copyright 1983,
 Carnegie Mellon University). Gaussian is a federally registered
 trademark of Gaussian, Inc.
  
 This software contains proprietary and confidential information,
 including trade secrets, belonging to Gaussian, Inc.
  
 This software is provided under written license and may be
 used, copied, transmitted, or stored only in accord with that
 written license.
  
 The following legend is applicable only to US Government
 contracts under FAR:
  
                    RESTRICTED RIGHTS LEGEND
  
 Use, reproduction and disclosure by the US Government is
 subject to restrictions as set forth in subparagraphs (a)
 and (c) of the Commercial Computer Software - Restricted
 Rights clause in FAR 52.227-19.
  
 Gaussian, Inc.
 340 Quinnipiac St., Bldg. 40, Wallingford CT 06492
  
  
 ---------------------------------------------------------------
 Warning -- This program may not be used in any manner that
 competes with the business of Gaussian, Inc. or will provide
 assistance to any competitor of Gaussian, Inc.  The licensee
 of this program is prohibited from giving any competitor of
 Gaussian, Inc. access to this program.  By using this program,
 the user acknowledges that Gaussian, Inc. is engaged in the
 business of creating and licensing software in the field of
 computational chemistry and represents and warrants to the
 licensee that it is not a competitor of Gaussian, Inc. and that
 it will not use this program in any manner prohibited above.
 ---------------------------------------------------------------
  

 Cite this work as:
 Gaussian 09, Revision D.01,
 M. J. Frisch, G. W. Trucks, H. B. Schlegel, G. E. Scuseria, 
 M. A. Robb, J. R. Cheeseman, G. Scalmani, V. Barone, B. Mennucci, 
 G. A. Petersson, H. Nakatsuji, M. Caricato, X. Li, H. P. Hratchian, 
 A. F. Izmaylov, J. Bloino, G. Zheng, J. L. Sonnenberg, M. Hada, 
 M. Ehara, K. Toyota, R. Fukuda, J. Hasegawa, M. Ishida, T. Nakajima, 
 Y. Honda, O. Kitao, H. Nakai, T. Vreven, J. A. Montgomery, Jr., 
 J. E. Peralta, F. Ogliaro, M. Bearpark, J. J. Heyd, E. Brothers, 
 K. N. Kudin, V. N. Staroverov, T. Keith, R. Kobayashi, J. Normand, 
 K. Raghavachari, A. Rendell, J. C. Burant, S. S. Iyengar, J. Tomasi, 
 M. Cossi, N. Rega, J. M. Millam, M. Klene, J. E. Knox, J. B. Cross, 
 V. Bakken, C. Adamo, J. Jaramillo, R. Gomperts, R. E. Stratmann, 
 O. Yazyev, A. J. Austin, R. Cammi, C. Pomelli, J. W. Ochterski, 
 R. L. Martin, K. Morokuma, V. G. Zakrzewski, G. A. Voth, 
 P. Salvador, J. J. Dannenberg, S. Dapprich, A. D. Daniels, 
 O. Farkas, J. B. Foresman, J. V. Ortiz, J. Cioslowski, 
 and D. J. Fox, Gaussian, Inc., Wallingford CT, 2013.
 
 ******************************************
 Gaussian 09:  ES64L-G09RevD.01 24-Apr-2013
                28-Jul-2021 
 ******************************************
 %mem=2gb
 %nproc=4
 Will use up to    4 processors via shared memory.
 %chk=conf-719.chk
 ----------------------------------------------------------------------
 # B3LYP/6-311G(d,p) opt=calcfc freq=noraman nosymm integral(ultrafineg
 rid)
 ----------------------------------------------------------------------
 1/10=4,14=-1,18=20,19=15,26=4,38=1/1,3;
 2/9=110,12=2,15=1,17=6,18=5,40=1/2;
 3/5=4,6=6,7=101,11=2,16=1,25=1,30=1,71=2,74=-5,75=-5,140=1/1,2,3;
 4//1;
 5/5=2,38=5/2;
 8/6=4,10=90,11=11/1;
 11/6=1,8=1,9=11,15=111,16=1,31=1/1,2,10;
 10/6=1,13=1,31=1/2;
 6/7=2,8=2,9=2,10=2,28=1/1;
 7/10=1,18=20,25=1,30=1/1,2,3,16;
 1/10=4,14=-1,18=20,19=15,26=4/3(2);
 2/9=110,15=1/2;
 99//99;
 2/9=110,15=1/2;
 3/5=4,6=6,7=101,11=2,16=1,25=1,30=1,71=1,74=-5,75=-5/1,2,3;
 4/5=5,16=3,69=1/1;
 5/5=2,38=5/2;
 7/30=1/1,2,3,16;
 1/14=-1,18=20,19=15,26=4/3(-5);
 2/9=110,15=1/2;
 6/7=2,8=2,9=2,10=2,19=2,28=1/1;
 99/9=1/99;
 ------------------------------------------------------------
 Candidate Structure: Conf:719 OPT and FREQ calc in gas phase
 ------------------------------------------------------------
 Symbolic Z-matrix:
 Charge =  1 Multiplicity = 1
 O                    -0.72005  -0.63766   1.42408 
 C                    -1.30854  -0.35072   0.39193 
 N                    -0.64886   0.02779  -0.73425 
 C                     0.78942   0.22717  -0.70361 
 C                     1.13934   1.06531  -1.91425 
 O                     2.46404   1.31793  -2.00859 
 O                     0.34195   1.46947  -2.71894 
 C                     1.53736  -1.12922  -0.66353 
 C                     2.755    -1.09635   0.19636 
 C                     3.09564  -1.82049   1.30301 
 N                     4.33164  -1.42286   1.78318 
 C                     4.71835  -0.46405   0.97732 
 N                     3.79481  -0.22334   0.00813 
 C                    -2.81985  -0.36212   0.28429 
 C                    -3.40988   0.91549   0.86784 
 N                    -4.89591   0.90764   0.82254 
 H                    -1.13699   0.44142  -1.51384 
 H                     1.02385   0.8044    0.19829 
 H                     2.57954   1.86672  -2.79947 
 H                     0.86206  -1.86744  -0.23474 
 H                     1.76766  -1.4608   -1.67591 
 H                     2.52688  -2.60269   1.78513 
 H                     5.63852   0.08929   1.03276 
 H                     3.82338   0.4747   -0.71798 
 H                    -3.18715  -1.21463   0.85492 
 H                    -3.13759  -0.46911  -0.75496 
 H                    -3.04499   1.77791   0.30734 
 H                    -3.07045   1.02624   1.89791 
 H                    -5.2757    0.11714   1.34345 
 H                    -5.29549   1.75648   1.22538 
 H                    -5.23775   0.83645  -0.1361 
 

 GradGradGradGradGradGradGradGradGradGradGradGradGradGradGradGradGradGrad
 Berny optimization.
 Initialization pass.
                           ----------------------------
                           !    Initial Parameters    !
                           ! (Angstroms and Degrees)  !
 --------------------------                            --------------------------
 ! Name  Definition              Value          Derivative Info.                !
 --------------------------------------------------------------------------------
 ! R1    R(1,2)                  1.2223         calculate D2E/DX2 analytically  !
 ! R2    R(2,3)                  1.3589         calculate D2E/DX2 analytically  !
 ! R3    R(2,14)                 1.5152         calculate D2E/DX2 analytically  !
 ! R4    R(3,4)                  1.4524         calculate D2E/DX2 analytically  !
 ! R5    R(3,17)                 1.0085         calculate D2E/DX2 analytically  !
 ! R6    R(4,5)                  1.5135         calculate D2E/DX2 analytically  !
 ! R7    R(4,8)                  1.5495         calculate D2E/DX2 analytically  !
 ! R8    R(4,18)                 1.0962         calculate D2E/DX2 analytically  !
 ! R9    R(5,6)                  1.3519         calculate D2E/DX2 analytically  !
 ! R10   R(5,7)                  1.2028         calculate D2E/DX2 analytically  !
 ! R11   R(6,19)                 0.9695         calculate D2E/DX2 analytically  !
 ! R12   R(8,9)                  1.491          calculate D2E/DX2 analytically  !
 ! R13   R(8,20)                 1.0885         calculate D2E/DX2 analytically  !
 ! R14   R(8,21)                 1.0899         calculate D2E/DX2 analytically  !
 ! R15   R(9,10)                 1.3657         calculate D2E/DX2 analytically  !
 ! R16   R(9,13)                 1.3707         calculate D2E/DX2 analytically  !
 ! R17   R(10,11)                1.3843         calculate D2E/DX2 analytically  !
 ! R18   R(10,22)                1.0806         calculate D2E/DX2 analytically  !
 ! R19   R(11,12)                1.3108         calculate D2E/DX2 analytically  !
 ! R20   R(12,13)                1.3602         calculate D2E/DX2 analytically  !
 ! R21   R(12,23)                1.0752         calculate D2E/DX2 analytically  !
 ! R22   R(13,24)                1.0076         calculate D2E/DX2 analytically  !
 ! R23   R(14,15)                1.5235         calculate D2E/DX2 analytically  !
 ! R24   R(14,25)                1.0896         calculate D2E/DX2 analytically  !
 ! R25   R(14,26)                1.092          calculate D2E/DX2 analytically  !
 ! R26   R(15,16)                1.4867         calculate D2E/DX2 analytically  !
 ! R27   R(15,27)                1.0914         calculate D2E/DX2 analytically  !
 ! R28   R(15,28)                1.0902         calculate D2E/DX2 analytically  !
 ! R29   R(16,29)                1.02           calculate D2E/DX2 analytically  !
 ! R30   R(16,30)                1.021          calculate D2E/DX2 analytically  !
 ! R31   R(16,31)                1.0202         calculate D2E/DX2 analytically  !
 ! A1    A(1,2,3)              122.1047         calculate D2E/DX2 analytically  !
 ! A2    A(1,2,14)             122.5785         calculate D2E/DX2 analytically  !
 ! A3    A(3,2,14)             115.3041         calculate D2E/DX2 analytically  !
 ! A4    A(2,3,4)              120.0984         calculate D2E/DX2 analytically  !
 ! A5    A(2,3,17)             121.3245         calculate D2E/DX2 analytically  !
 ! A6    A(4,3,17)             116.06           calculate D2E/DX2 analytically  !
 ! A7    A(3,4,5)              106.7453         calculate D2E/DX2 analytically  !
 ! A8    A(3,4,8)              111.0018         calculate D2E/DX2 analytically  !
 ! A9    A(3,4,18)             107.5444         calculate D2E/DX2 analytically  !
 ! A10   A(5,4,8)              113.1954         calculate D2E/DX2 analytically  !
 ! A11   A(5,4,18)             108.4867         calculate D2E/DX2 analytically  !
 ! A12   A(8,4,18)             109.6613         calculate D2E/DX2 analytically  !
 ! A13   A(4,5,6)              112.698          calculate D2E/DX2 analytically  !
 ! A14   A(4,5,7)              124.6084         calculate D2E/DX2 analytically  !
 ! A15   A(6,5,7)              122.6933         calculate D2E/DX2 analytically  !
 ! A16   A(5,6,19)             106.227          calculate D2E/DX2 analytically  !
 ! A17   A(4,8,9)              112.9434         calculate D2E/DX2 analytically  !
 ! A18   A(4,8,20)             107.7227         calculate D2E/DX2 analytically  !
 ! A19   A(4,8,21)             110.1385         calculate D2E/DX2 analytically  !
 ! A20   A(9,8,20)             107.1225         calculate D2E/DX2 analytically  !
 ! A21   A(9,8,21)             111.7052         calculate D2E/DX2 analytically  !
 ! A22   A(20,8,21)            106.8981         calculate D2E/DX2 analytically  !
 ! A23   A(8,9,10)             131.2491         calculate D2E/DX2 analytically  !
 ! A24   A(8,9,13)             123.6667         calculate D2E/DX2 analytically  !
 ! A25   A(10,9,13)            105.0567         calculate D2E/DX2 analytically  !
 ! A26   A(9,10,11)            110.5779         calculate D2E/DX2 analytically  !
 ! A27   A(9,10,22)            127.8827         calculate D2E/DX2 analytically  !
 ! A28   A(11,10,22)           121.5393         calculate D2E/DX2 analytically  !
 ! A29   A(10,11,12)           105.0849         calculate D2E/DX2 analytically  !
 ! A30   A(11,12,13)           111.5417         calculate D2E/DX2 analytically  !
 ! A31   A(11,12,23)           126.6715         calculate D2E/DX2 analytically  !
 ! A32   A(13,12,23)           121.7867         calculate D2E/DX2 analytically  !
 ! A33   A(9,13,12)            107.7286         calculate D2E/DX2 analytically  !
 ! A34   A(9,13,24)            124.1734         calculate D2E/DX2 analytically  !
 ! A35   A(12,13,24)           128.0822         calculate D2E/DX2 analytically  !
 ! A36   A(2,14,15)            110.6579         calculate D2E/DX2 analytically  !
 ! A37   A(2,14,25)            107.7526         calculate D2E/DX2 analytically  !
 ! A38   A(2,14,26)            111.0128         calculate D2E/DX2 analytically  !
 ! A39   A(15,14,25)           108.964          calculate D2E/DX2 analytically  !
 ! A40   A(15,14,26)           109.5123         calculate D2E/DX2 analytically  !
 ! A41   A(25,14,26)           108.8845         calculate D2E/DX2 analytically  !
 ! A42   A(14,15,16)           111.7778         calculate D2E/DX2 analytically  !
 ! A43   A(14,15,27)           109.6626         calculate D2E/DX2 analytically  !
 ! A44   A(14,15,28)           109.0578         calculate D2E/DX2 analytically  !
 ! A45   A(16,15,27)           108.8269         calculate D2E/DX2 analytically  !
 ! A46   A(16,15,28)           109.9093         calculate D2E/DX2 analytically  !
 ! A47   A(27,15,28)           107.5104         calculate D2E/DX2 analytically  !
 ! A48   A(15,16,29)           111.1423         calculate D2E/DX2 analytically  !
 ! A49   A(15,16,30)           112.0089         calculate D2E/DX2 analytically  !
 ! A50   A(15,16,31)           111.3396         calculate D2E/DX2 analytically  !
 ! A51   A(29,16,30)           107.2825         calculate D2E/DX2 analytically  !
 ! A52   A(29,16,31)           107.5184         calculate D2E/DX2 analytically  !
 ! A53   A(30,16,31)           107.3143         calculate D2E/DX2 analytically  !
 ! D1    D(1,2,3,4)             -5.9537         calculate D2E/DX2 analytically  !
 ! D2    D(1,2,3,17)          -167.2503         calculate D2E/DX2 analytically  !
 ! D3    D(14,2,3,4)           172.7854         calculate D2E/DX2 analytically  !
 ! D4    D(14,2,3,17)           11.4887         calculate D2E/DX2 analytically  !
 ! D5    D(1,2,14,15)           80.5041         calculate D2E/DX2 analytically  !
 ! D6    D(1,2,14,25)          -38.5329         calculate D2E/DX2 analytically  !
 ! D7    D(1,2,14,26)         -157.6785         calculate D2E/DX2 analytically  !
 ! D8    D(3,2,14,15)          -98.2283         calculate D2E/DX2 analytically  !
 ! D9    D(3,2,14,25)          142.7347         calculate D2E/DX2 analytically  !
 ! D10   D(3,2,14,26)           23.5891         calculate D2E/DX2 analytically  !
 ! D11   D(2,3,4,5)           -161.334          calculate D2E/DX2 analytically  !
 ! D12   D(2,3,4,8)             74.8806         calculate D2E/DX2 analytically  !
 ! D13   D(2,3,4,18)           -45.0767         calculate D2E/DX2 analytically  !
 ! D14   D(17,3,4,5)             0.9122         calculate D2E/DX2 analytically  !
 ! D15   D(17,3,4,8)          -122.8732         calculate D2E/DX2 analytically  !
 ! D16   D(17,3,4,18)          117.1695         calculate D2E/DX2 analytically  !
 ! D17   D(3,4,5,6)           -179.5997         calculate D2E/DX2 analytically  !
 ! D18   D(3,4,5,7)              0.1965         calculate D2E/DX2 analytically  !
 ! D19   D(8,4,5,6)            -57.1805         calculate D2E/DX2 analytically  !
 ! D20   D(8,4,5,7)            122.6157         calculate D2E/DX2 analytically  !
 ! D21   D(18,4,5,6)            64.7729         calculate D2E/DX2 analytically  !
 ! D22   D(18,4,5,7)          -115.4308         calculate D2E/DX2 analytically  !
 ! D23   D(3,4,8,9)           -142.7371         calculate D2E/DX2 analytically  !
 ! D24   D(3,4,8,20)           -24.6433         calculate D2E/DX2 analytically  !
 ! D25   D(3,4,8,21)            91.6021         calculate D2E/DX2 analytically  !
 ! D26   D(5,4,8,9)             97.2454         calculate D2E/DX2 analytically  !
 ! D27   D(5,4,8,20)          -144.6608         calculate D2E/DX2 analytically  !
 ! D28   D(5,4,8,21)           -28.4154         calculate D2E/DX2 analytically  !
 ! D29   D(18,4,8,9)           -24.0484         calculate D2E/DX2 analytically  !
 ! D30   D(18,4,8,20)           94.0454         calculate D2E/DX2 analytically  !
 ! D31   D(18,4,8,21)         -149.7092         calculate D2E/DX2 analytically  !
 ! D32   D(4,5,6,19)          -179.099          calculate D2E/DX2 analytically  !
 ! D33   D(7,5,6,19)             1.1003         calculate D2E/DX2 analytically  !
 ! D34   D(4,8,9,10)           120.2227         calculate D2E/DX2 analytically  !
 ! D35   D(4,8,9,13)           -57.5692         calculate D2E/DX2 analytically  !
 ! D36   D(20,8,9,10)            1.7786         calculate D2E/DX2 analytically  !
 ! D37   D(20,8,9,13)         -176.0133         calculate D2E/DX2 analytically  !
 ! D38   D(21,8,9,10)         -114.9644         calculate D2E/DX2 analytically  !
 ! D39   D(21,8,9,13)           67.2437         calculate D2E/DX2 analytically  !
 ! D40   D(8,9,10,11)         -179.0325         calculate D2E/DX2 analytically  !
 ! D41   D(8,9,10,22)            0.8577         calculate D2E/DX2 analytically  !
 ! D42   D(13,9,10,11)          -0.9355         calculate D2E/DX2 analytically  !
 ! D43   D(13,9,10,22)         178.9547         calculate D2E/DX2 analytically  !
 ! D44   D(8,9,13,12)          179.2791         calculate D2E/DX2 analytically  !
 ! D45   D(8,9,13,24)            0.6241         calculate D2E/DX2 analytically  !
 ! D46   D(10,9,13,12)           0.9981         calculate D2E/DX2 analytically  !
 ! D47   D(10,9,13,24)        -177.6569         calculate D2E/DX2 analytically  !
 ! D48   D(9,10,11,12)           0.5011         calculate D2E/DX2 analytically  !
 ! D49   D(22,10,11,12)       -179.3972         calculate D2E/DX2 analytically  !
 ! D50   D(10,11,12,13)          0.156          calculate D2E/DX2 analytically  !
 ! D51   D(10,11,12,23)       -179.7186         calculate D2E/DX2 analytically  !
 ! D52   D(11,12,13,9)          -0.7455         calculate D2E/DX2 analytically  !
 ! D53   D(11,12,13,24)        177.8408         calculate D2E/DX2 analytically  !
 ! D54   D(23,12,13,9)         179.1361         calculate D2E/DX2 analytically  !
 ! D55   D(23,12,13,24)         -2.2776         calculate D2E/DX2 analytically  !
 ! D56   D(2,14,15,16)        -177.8071         calculate D2E/DX2 analytically  !
 ! D57   D(2,14,15,27)          61.41           calculate D2E/DX2 analytically  !
 ! D58   D(2,14,15,28)         -56.0723         calculate D2E/DX2 analytically  !
 ! D59   D(25,14,15,16)        -59.5052         calculate D2E/DX2 analytically  !
 ! D60   D(25,14,15,27)        179.7119         calculate D2E/DX2 analytically  !
 ! D61   D(25,14,15,28)         62.2295         calculate D2E/DX2 analytically  !
 ! D62   D(26,14,15,16)         59.4978         calculate D2E/DX2 analytically  !
 ! D63   D(26,14,15,27)        -61.2851         calculate D2E/DX2 analytically  !
 ! D64   D(26,14,15,28)       -178.7675         calculate D2E/DX2 analytically  !
 ! D65   D(14,15,16,29)         59.1679         calculate D2E/DX2 analytically  !
 ! D66   D(14,15,16,30)        179.1595         calculate D2E/DX2 analytically  !
 ! D67   D(14,15,16,31)        -60.6717         calculate D2E/DX2 analytically  !
 ! D68   D(27,15,16,29)       -179.5642         calculate D2E/DX2 analytically  !
 ! D69   D(27,15,16,30)        -59.5726         calculate D2E/DX2 analytically  !
 ! D70   D(27,15,16,31)         60.5963         calculate D2E/DX2 analytically  !
 ! D71   D(28,15,16,29)        -62.0751         calculate D2E/DX2 analytically  !
 ! D72   D(28,15,16,30)         57.9166         calculate D2E/DX2 analytically  !
 ! D73   D(28,15,16,31)        178.0854         calculate D2E/DX2 analytically  !
 --------------------------------------------------------------------------------
 Trust Radius=3.00D-01 FncErr=1.00D-07 GrdErr=1.00D-06
 Number of steps in this run=    167 maximum allowed number of steps=    186.
 GradGradGradGradGradGradGradGradGradGradGradGradGradGradGradGradGradGrad

                          Input orientation:                          
 ---------------------------------------------------------------------
 Center     Atomic      Atomic             Coordinates (Angstroms)
 Number     Number       Type             X           Y           Z
 ---------------------------------------------------------------------
      1          8           0       -0.720054   -0.637656    1.424079
      2          6           0       -1.308542   -0.350722    0.391926
      3          7           0       -0.648861    0.027789   -0.734248
      4          6           0        0.789418    0.227174   -0.703607
      5          6           0        1.139344    1.065305   -1.914246
      6          8           0        2.464037    1.317927   -2.008589
      7          8           0        0.341951    1.469473   -2.718944
      8          6           0        1.537357   -1.129224   -0.663526
      9          6           0        2.754998   -1.096350    0.196361
     10          6           0        3.095644   -1.820487    1.303006
     11          7           0        4.331642   -1.422865    1.783184
     12          6           0        4.718350   -0.464049    0.977320
     13          7           0        3.794806   -0.223340    0.008132
     14          6           0       -2.819851   -0.362120    0.284292
     15          6           0       -3.409884    0.915491    0.867843
     16          7           0       -4.895913    0.907638    0.822538
     17          1           0       -1.136988    0.441420   -1.513845
     18          1           0        1.023851    0.804405    0.198290
     19          1           0        2.579543    1.866720   -2.799467
     20          1           0        0.862055   -1.867444   -0.234739
     21          1           0        1.767665   -1.460804   -1.675913
     22          1           0        2.526878   -2.602694    1.785128
     23          1           0        5.638517    0.089285    1.032764
     24          1           0        3.823382    0.474704   -0.717982
     25          1           0       -3.187149   -1.214629    0.854924
     26          1           0       -3.137595   -0.469107   -0.754956
     27          1           0       -3.044991    1.777907    0.307343
     28          1           0       -3.070450    1.026240    1.897911
     29          1           0       -5.275703    0.117144    1.343445
     30          1           0       -5.295491    1.756479    1.225383
     31          1           0       -5.237750    0.836447   -0.136097
 ---------------------------------------------------------------------
                    Distance matrix (angstroms):
                    1          2          3          4          5
     1  O    0.000000
     2  C    1.222289   0.000000
     3  N    2.259704   1.358940   0.000000
     4  C    2.748360   2.436307   1.452357   0.000000
     5  C    4.183521   3.649069   2.380444   1.513459   0.000000
     6  O    5.074047   4.772757   3.602573   2.386853   1.351861
     7  O    4.767860   3.964183   2.645596   2.409381   1.202800
     8  C    3.113782   3.133558   2.474516   1.549463   2.557082
     9  C    3.713984   4.136009   3.703510   2.534791   3.426040
    10  C    3.996661   4.731504   4.646272   3.679414   4.744008
    11  N    5.124953   5.907348   5.766045   4.631858   5.482038
    12  C    5.459484   6.056315   5.654938   4.328951   4.848645
    13  N    4.749792   5.119345   4.512247   3.121201   3.522445
    14  C    2.405033   1.515180   2.429537   3.788144   4.748299
    15  C    3.155448   2.499086   3.313301   4.536229   5.334599
    16  N    4.493060   3.825980   4.608163   5.925802   6.628663
    17  H    3.157473   2.070962   1.008528   2.100815   2.394001
    18  H    2.573578   2.609956   2.066574   1.096163   2.131717
    19  H    5.915876   5.497203   4.250811   3.207068   1.870844
    20  H    2.601369   2.721148   2.474729   2.147682   3.390966
    21  H    4.059097   3.869275   2.990358   2.179820   2.613965
    22  H    3.812387   4.660776   4.832393   4.149786   5.391181
    23  H    6.411942   6.990416   6.531251   5.152452   5.466263
    24  H    5.144763   5.315061   4.494548   3.044079   2.997318
    25  H    2.596804   2.118930   3.242217   4.507870   5.620048
    26  H    3.259004   2.162126   2.537938   3.988593   4.689412
    27  H    3.533748   2.748357   3.144719   4.257873   4.790816
    28  H    2.918463   2.695984   3.713389   4.722815   5.679475
    29  H    4.618459   4.106416   5.072717   6.402204   7.257024
    30  H    5.167784   4.585925   5.331012   6.563984   7.193198
    31  H    5.001671   4.138460   4.697831   6.084409   6.624313
                    6          7          8          9         10
     6  O    0.000000
     7  O    2.242949   0.000000
     8  C    2.942189   3.522352   0.000000
     9  C    3.282560   4.572226   1.491019   0.000000
    10  C    4.605999   5.880709   2.602567   1.365678   0.000000
    11  N    5.037602   6.674759   3.725674   2.260625   1.384329
    12  C    4.144034   6.045969   3.640543   2.205550   2.139900
    13  N    2.865940   4.714316   2.523456   1.370685   2.171729
    14  C    5.999944   4.729815   4.524607   5.623680   6.177191
    15  C    6.552768   5.219981   5.567867   6.519522   7.070844
    16  N    7.896359   6.347674   6.909714   7.933758   8.458043
    17  H    3.739039   2.167122   3.215911   4.520741   5.564714
    18  H    2.684801   3.068804   2.178379   2.570942   3.521758
    19  H    0.969538   2.274008   3.824144   4.217292   5.540048
    20  H    3.982396   4.192469   1.088512   2.088939   2.712155
    21  H    2.883912   3.421563   1.089915   2.147805   3.281289
    22  H    5.455961   6.453148   3.024264   2.201202   1.080641
    23  H    4.564725   6.635800   4.602356   3.228000   3.191624
    24  H    2.055362   4.136880   2.793110   2.108478   3.143549
    25  H    6.822715   5.694864   4.963259   5.979700   6.327822
    26  H    6.011935   4.441011   4.722212   6.001757   6.701843
    27  H    5.993706   4.552462   5.512885   6.474067   7.186597
    28  H    6.780588   5.758149   5.695513   6.429347   6.817513
    29  H    8.519483   7.063273   7.211044   8.202471   8.592759
    30  H    8.417908   6.886278   7.653957   8.602784   9.122053
    31  H    7.940754   6.181010   7.074186   8.229840   8.864298
                   11         12         13         14         15
    11  N    0.000000
    12  C    1.310835   0.000000
    13  N    2.208588   1.360220   0.000000
    14  C    7.383476   7.570677   6.621874   0.000000
    15  C    8.138611   8.245199   7.344631   1.523470   0.000000
    16  N    9.565660   9.712854   8.801760   2.492394   1.486740
    17  H    6.652208   6.427345   5.203933   2.590560   3.326145
    18  H    4.291165   3.983112   2.961522   4.017739   4.485382
    19  H    5.906937   4.926570   3.705108   6.605358   7.087119
    20  H    4.038279   4.278973   3.370919   4.011462   5.216309
    21  H    4.305900   4.091419   2.911465   5.108308   6.238949
    22  H    2.156194   3.166845   3.229038   5.988338   6.961622
    23  H    2.134866   1.075156   2.132340   8.503410   9.087540
    24  H    3.180398   2.134543   1.007633   6.770331   7.418173
    25  H    7.578736   7.941993   7.102634   1.089632   2.141772
    26  H    7.946150   8.044667   6.978602   1.091990   2.150519
    27  H    8.175436   8.108310   7.132836   2.151961   1.091361
    28  H    7.797579   7.983349   7.229416   2.143387   1.090193
    29  H    9.739922  10.017631   9.174592   2.717114   2.084427
    30  H   10.153869  10.260082   9.382691   3.391594   2.095378
    31  H   10.018053  10.102223   9.095660   2.731213   2.086921
                   16         17         18         19         20
    16  N    0.000000
    17  H    4.450344   0.000000
    18  H    5.953482   2.780718   0.000000
    19  H    8.361890   4.182931   3.540514   0.000000
    20  H    6.478666   3.311063   2.711543   4.844747   0.000000
    21  H    7.500336   3.475878   3.032667   3.604710   1.749991
    22  H    8.267214   5.794287   4.047897   6.402886   2.718840
    23  H   10.568260   7.246840   4.743721   5.215610   5.315067
    24  H    8.864917   5.023921   2.964057   2.795965   3.806395
    25  H    2.724874   3.543546   4.715950   7.490262   4.243770
    26  H    2.734154   2.325382   4.455126   6.505519   4.268860
    27  H    2.109196   2.956923   4.185102   6.426161   5.370981
    28  H    2.121982   3.964892   4.438606   7.395552   5.327870
    29  H    1.020032   5.039665   6.439572   9.051499   6.640883
    30  H    1.021018   5.150329   6.472669   8.844644   7.292472
    31  H    1.020246   4.344017   6.270605   8.322565   6.672959
                   21         22         23         24         25
    21  H    0.000000
    22  H    3.722785   0.000000
    23  H    4.972244   4.182715   0.000000
    24  H    2.981577   4.173352   2.551151   0.000000
    25  H    5.569193   5.953327   8.923239   7.380747   0.000000
    26  H    5.088536   6.564333   8.973733   7.024767   1.774815
    27  H    6.130596   7.240113   8.875866   7.065705   3.045541
    28  H    6.508837   6.671728   8.801845   7.394053   2.474456
    29  H    7.824032   8.274834  10.918677   9.336525   2.524744
    30  H    8.285927   8.972467  11.062060   9.411347   3.661943
    31  H    7.531549   8.706793  10.964382   9.087000   3.064963
                   26         27         28         29         30
    26  H    0.000000
    27  H    2.487192   0.000000
    28  H    3.046026   1.759420   0.000000
    29  H    3.052619   2.967780   2.448883   0.000000
    30  H    3.678518   2.430639   2.436463   1.643701   0.000000
    31  H    2.549139   2.427175   2.978322   1.645565   1.644208
                   31
    31  H    0.000000
 Symmetry turned off by external request.
 Stoichiometry    C9H15N4O3(1+)
 Framework group  C1[X(C9H15N4O3)]
 Deg. of freedom    87
 Full point group                 C1      NOp   1
 Rotational constants (GHZ):      0.8514921      0.2642997      0.2133469
 Standard basis: 6-311G(d,p) (5D, 7F)
   378 basis functions,   632 primitive gaussians,   394 cartesian basis functions
    60 alpha electrons       60 beta electrons
       nuclear repulsion energy      1124.7477579563 Hartrees.
 NAtoms=   31 NActive=   31 NUniq=   31 SFac= 1.00D+00 NAtFMM=   60 NAOKFM=F Big=F
 Integral buffers will be    131072 words long.
 Raffenetti 2 integral format.
 Two-electron integral symmetry is turned off.
 One-electron integrals computed using PRISM.
 NBasis=   378 RedAO= T EigKep=  5.56D-04  NBF=   378
 NBsUse=   378 1.00D-06 EigRej= -1.00D+00 NBFU=   378
 ExpMin= 1.03D-01 ExpMax= 8.59D+03 ExpMxC= 1.30D+03 IAcc=3 IRadAn=         5 AccDes= 0.00D+00
 Harris functional with IExCor=  402 and IRadAn=       5 diagonalized for initial guess.
 HarFok:  IExCor=  402 AccDes= 0.00D+00 IRadAn=         5 IDoV= 1 UseB2=F ITyADJ=14
 ICtDFT=  3500011 ScaDFX=  1.000000  1.000000  1.000000  1.000000
 FoFCou: FMM=F IPFlag=           0 FMFlag=      100000 FMFlg1=           0
         NFxFlg=           0 DoJE=T BraDBF=F KetDBF=T FulRan=T
         wScrn=  0.000000 ICntrl=     500 IOpCl=  0 I1Cent=   200000004 NGrid=           0
         NMat0=    1 NMatS0=      1 NMatT0=    0 NMatD0=    1 NMtDS0=    0 NMtDT0=    0
 Symmetry not used in FoFCou.
 Requested convergence on RMS density matrix=1.00D-08 within 128 cycles.
 Requested convergence on MAX density matrix=1.00D-06.
 Requested convergence on             energy=1.00D-06.
 No special actions if energy rises.
 Integral accuracy reduced to 1.0D-05 until final iterations.
 EnCoef did     2 forward-backward iterations
 EnCoef did     2 forward-backward iterations
 Initial convergence to 1.0D-05 achieved.  Increase integral accuracy.
 SCF Done:  E(RB3LYP) =  -796.663443812     A.U. after   17 cycles
            NFock= 17  Conv=0.68D-08     -V/T= 2.0033
 DoSCS=F DFT=T ScalE2(SS,OS)=  1.000000  1.000000
 Range of M.O.s used for correlation:     1   378
 NBasis=   378 NAE=    60 NBE=    60 NFC=     0 NFV=     0
 NROrb=    378 NOA=    60 NOB=    60 NVA=   318 NVB=   318

 **** Warning!!: The smallest alpha delta epsilon is  0.99829606D-01

 Symmetrizing basis deriv contribution to polar:
 IMax=3 JMax=2 DiffMx= 0.00D+00
 G2DrvN: will do    32 centers at a time, making    1 passes.
 Calling FoFCou, ICntrl=  3107 FMM=F I1Cent=   0 AccDes= 0.00D+00.
 End of G2Drv F.D. properties file   721 does not exist.
 End of G2Drv F.D. properties file   722 does not exist.
 End of G2Drv F.D. properties file   788 does not exist.
          IDoAtm=1111111111111111111111111111111
          Differentiating once with respect to nuclear coordinates.
          There are    96 degrees of freedom in the 1st order CPHF.  IDoFFX=6 NUNeed=     0.
     90 vectors produced by pass  0 Test12= 1.99D-14 1.04D-09 XBig12= 1.80D-01 1.02D-01.
 AX will form    90 AO Fock derivatives at one time.
     90 vectors produced by pass  1 Test12= 1.99D-14 1.04D-09 XBig12= 3.28D-02 4.31D-02.
     90 vectors produced by pass  2 Test12= 1.99D-14 1.04D-09 XBig12= 2.78D-04 3.22D-03.
     90 vectors produced by pass  3 Test12= 1.99D-14 1.04D-09 XBig12= 9.89D-07 1.31D-04.
     90 vectors produced by pass  4 Test12= 1.99D-14 1.04D-09 XBig12= 1.66D-09 5.08D-06.
     82 vectors produced by pass  5 Test12= 1.99D-14 1.04D-09 XBig12= 2.17D-12 1.56D-07.
     25 vectors produced by pass  6 Test12= 1.99D-14 1.04D-09 XBig12= 2.06D-15 5.93D-09.
 InvSVY:  IOpt=1 It=  1 EMax= 3.89D-16
 Solved reduced A of dimension   557 with    96 vectors.
 End of Minotr F.D. properties file   721 does not exist.
 End of Minotr F.D. properties file   722 does not exist.
 End of Minotr F.D. properties file   788 does not exist.

 **********************************************************************

            Population analysis using the SCF density.

 **********************************************************************

 Alpha  occ. eigenvalues --  -19.29587 -19.24147 -19.21942 -14.65378 -14.46952
 Alpha  occ. eigenvalues --  -14.42637 -14.34664 -10.43367 -10.42762 -10.41388
 Alpha  occ. eigenvalues --  -10.35955 -10.34723 -10.28519 -10.28121 -10.26999
 Alpha  occ. eigenvalues --  -10.24186  -1.24296  -1.22673  -1.17828  -1.15529
 Alpha  occ. eigenvalues --   -1.08280  -1.06362  -0.98108  -0.93669  -0.90897
 Alpha  occ. eigenvalues --   -0.86075  -0.83367  -0.80839  -0.80140  -0.77206
 Alpha  occ. eigenvalues --   -0.74766  -0.71475  -0.71287  -0.68384  -0.66158
 Alpha  occ. eigenvalues --   -0.65688  -0.65193  -0.63231  -0.61382  -0.60110
 Alpha  occ. eigenvalues --   -0.59458  -0.59230  -0.57809  -0.55204  -0.54700
 Alpha  occ. eigenvalues --   -0.54049  -0.53624  -0.51470  -0.50004  -0.49073
 Alpha  occ. eigenvalues --   -0.48093  -0.47887  -0.47013  -0.45554  -0.41434
 Alpha  occ. eigenvalues --   -0.39718  -0.39259  -0.34501  -0.32818  -0.29521
 Alpha virt. eigenvalues --   -0.19538  -0.14281  -0.13380  -0.12675  -0.12069
 Alpha virt. eigenvalues --   -0.10527  -0.07176  -0.06953  -0.06158  -0.04558
 Alpha virt. eigenvalues --   -0.03746  -0.02985  -0.02044  -0.01089  -0.00863
 Alpha virt. eigenvalues --   -0.00210   0.00473   0.00842   0.02536   0.03165
 Alpha virt. eigenvalues --    0.04772   0.05087   0.07133   0.07591   0.09056
 Alpha virt. eigenvalues --    0.11200   0.12100   0.13547   0.13824   0.14185
 Alpha virt. eigenvalues --    0.14668   0.15579   0.16874   0.18226   0.18955
 Alpha virt. eigenvalues --    0.20345   0.22808   0.23205   0.24015   0.25449
 Alpha virt. eigenvalues --    0.27182   0.27691   0.28780   0.30117   0.30728
 Alpha virt. eigenvalues --    0.31490   0.31795   0.32976   0.33882   0.34268
 Alpha virt. eigenvalues --    0.35052   0.36483   0.37328   0.37688   0.38725
 Alpha virt. eigenvalues --    0.40003   0.40540   0.40980   0.41998   0.42277
 Alpha virt. eigenvalues --    0.42482   0.43129   0.44377   0.45320   0.45912
 Alpha virt. eigenvalues --    0.46708   0.47669   0.48108   0.48522   0.49394
 Alpha virt. eigenvalues --    0.50157   0.50465   0.51151   0.52512   0.53513
 Alpha virt. eigenvalues --    0.54533   0.55534   0.56349   0.57170   0.58396
 Alpha virt. eigenvalues --    0.59562   0.60737   0.62462   0.64948   0.65222
 Alpha virt. eigenvalues --    0.65958   0.67164   0.68064   0.68642   0.69797
 Alpha virt. eigenvalues --    0.71692   0.72852   0.74101   0.76386   0.77454
 Alpha virt. eigenvalues --    0.79670   0.80507   0.83165   0.84141   0.86117
 Alpha virt. eigenvalues --    0.88047   0.88570   0.90540   0.92837   0.93200
 Alpha virt. eigenvalues --    0.94647   0.96740   0.98965   0.99507   1.00325
 Alpha virt. eigenvalues --    1.02099   1.03358   1.04988   1.05945   1.08952
 Alpha virt. eigenvalues --    1.10870   1.11629   1.13181   1.14145   1.18466
 Alpha virt. eigenvalues --    1.18634   1.20957   1.21419   1.22457   1.23382
 Alpha virt. eigenvalues --    1.24452   1.26866   1.27197   1.28556   1.30226
 Alpha virt. eigenvalues --    1.30818   1.32851   1.33832   1.34870   1.36906
 Alpha virt. eigenvalues --    1.37551   1.38821   1.40300   1.40767   1.43443
 Alpha virt. eigenvalues --    1.44898   1.45583   1.46658   1.47258   1.47701
 Alpha virt. eigenvalues --    1.48107   1.49133   1.49934   1.51942   1.53277
 Alpha virt. eigenvalues --    1.54039   1.55626   1.55900   1.57428   1.57884
 Alpha virt. eigenvalues --    1.58726   1.59846   1.61890   1.62210   1.62738
 Alpha virt. eigenvalues --    1.64419   1.65452   1.66810   1.67847   1.68852
 Alpha virt. eigenvalues --    1.70128   1.71152   1.74909   1.76244   1.77652
 Alpha virt. eigenvalues --    1.78580   1.80363   1.81565   1.82630   1.83836
 Alpha virt. eigenvalues --    1.86280   1.88568   1.90293   1.90627   1.92497
 Alpha virt. eigenvalues --    1.94583   1.96462   1.99746   1.99990   2.01280
 Alpha virt. eigenvalues --    2.01578   2.04393   2.05844   2.09083   2.10376
 Alpha virt. eigenvalues --    2.12252   2.14944   2.16919   2.17397   2.18143
 Alpha virt. eigenvalues --    2.19230   2.20907   2.21848   2.26307   2.28297
 Alpha virt. eigenvalues --    2.29395   2.31077   2.33747   2.34335   2.35483
 Alpha virt. eigenvalues --    2.36852   2.37681   2.38288   2.39513   2.41614
 Alpha virt. eigenvalues --    2.42281   2.42879   2.43902   2.46732   2.48305
 Alpha virt. eigenvalues --    2.48792   2.49202   2.51030   2.51929   2.53958
 Alpha virt. eigenvalues --    2.54257   2.56705   2.57740   2.58679   2.59118
 Alpha virt. eigenvalues --    2.59770   2.61226   2.62526   2.64486   2.65795
 Alpha virt. eigenvalues --    2.68347   2.70282   2.73274   2.74301   2.75551
 Alpha virt. eigenvalues --    2.75844   2.77158   2.78507   2.78988   2.79556
 Alpha virt. eigenvalues --    2.80409   2.82276   2.84888   2.86617   2.88546
 Alpha virt. eigenvalues --    2.89842   2.92468   2.93114   2.95613   2.99863
 Alpha virt. eigenvalues --    3.00888   3.02538   3.07047   3.11456   3.12402
 Alpha virt. eigenvalues --    3.19367   3.21519   3.22527   3.24438   3.27543
 Alpha virt. eigenvalues --    3.31144   3.39417   3.41768   3.44625   3.48272
 Alpha virt. eigenvalues --    3.51677   3.55451   3.58657   3.59331   3.60758
 Alpha virt. eigenvalues --    3.63929   3.66898   3.68418   3.71749   3.73058
 Alpha virt. eigenvalues --    3.74034   3.77458   3.79296   3.81357   3.90691
 Alpha virt. eigenvalues --    3.94327   4.01254   4.12577   4.25484   4.35609
 Alpha virt. eigenvalues --    4.41943   4.42142   4.56578   4.69427   4.70498
 Alpha virt. eigenvalues --    4.71544   4.79328   4.81359   4.81752   4.87285
 Alpha virt. eigenvalues --    4.95681   4.96701   5.19324   5.22190   5.45229
 Alpha virt. eigenvalues --    5.52835   5.63155  23.58265  23.63354  23.64632
 Alpha virt. eigenvalues --   23.67807  23.70234  23.72920  23.82636  23.86375
 Alpha virt. eigenvalues --   24.08801  35.27986  35.46046  35.46916  35.62964
 Alpha virt. eigenvalues --   49.71760  49.87161  49.88481
          Condensed to atoms (all electrons):
               1          2          3          4          5          6
     1  O    7.832236   0.649809  -0.106482   0.006078   0.000830   0.000000
     2  C    0.649809   4.554242   0.324077  -0.065942   0.009992  -0.000117
     3  N   -0.106482   0.324077   6.804264   0.232848  -0.029101   0.001675
     4  C    0.006078  -0.065942   0.232848   5.324153   0.270076  -0.097421
     5  C    0.000830   0.009992  -0.029101   0.270076   4.484218   0.339469
     6  O    0.000000  -0.000117   0.001675  -0.097421   0.339469   7.835087
     7  O   -0.000007  -0.000303  -0.009925  -0.091170   0.644566  -0.074945
     8  C   -0.003904  -0.011065  -0.041540   0.297791  -0.051957   0.010629
     9  C   -0.002018   0.000887   0.006372  -0.084711   0.002292  -0.002683
    10  C    0.000435   0.000087  -0.000162  -0.001591   0.000152   0.000113
    11  N    0.000000   0.000002   0.000000  -0.000152  -0.000004  -0.000008
    12  C    0.000002  -0.000001   0.000002   0.000290  -0.000026  -0.000153
    13  N   -0.000003  -0.000002   0.000144   0.002290  -0.001811  -0.009730
    14  C   -0.073454   0.312576  -0.094664   0.008792  -0.000111   0.000000
    15  C   -0.003001  -0.049391  -0.004912  -0.000329   0.000016   0.000000
    16  N   -0.000039   0.002428  -0.000014   0.000003   0.000000   0.000000
    17  H    0.002717  -0.019943   0.344500  -0.048414  -0.014050   0.001832
    18  H    0.011363  -0.004172  -0.039606   0.405225  -0.026226   0.002507
    19  H    0.000001   0.000040  -0.000324   0.015249  -0.026759   0.306924
    20  H    0.005089   0.001442  -0.009926  -0.028306   0.003117   0.000133
    21  H    0.000192   0.000319   0.003814  -0.063026  -0.000639   0.001347
    22  H    0.000558  -0.000017  -0.000023   0.000023   0.000005   0.000003
    23  H    0.000000   0.000000   0.000000  -0.000004   0.000007  -0.000050
    24  H   -0.000008  -0.000001  -0.000001  -0.000262  -0.001347   0.022668
    25  H    0.006822  -0.021978   0.004860  -0.000172  -0.000012   0.000000
    26  H    0.003083  -0.022175   0.008876   0.000373  -0.000141  -0.000002
    27  H   -0.000780  -0.000790   0.006472  -0.000276   0.000019  -0.000001
    28  H    0.010393   0.002656   0.001202   0.000064  -0.000011   0.000000
    29  H   -0.000011  -0.000098  -0.000004   0.000000   0.000000   0.000000
    30  H    0.000016  -0.000242   0.000015  -0.000001   0.000000   0.000000
    31  H    0.000020   0.000090   0.000056  -0.000001   0.000000   0.000000
               7          8          9         10         11         12
     1  O   -0.000007  -0.003904  -0.002018   0.000435   0.000000   0.000002
     2  C   -0.000303  -0.011065   0.000887   0.000087   0.000002  -0.000001
     3  N   -0.009925  -0.041540   0.006372  -0.000162   0.000000   0.000002
     4  C   -0.091170   0.297791  -0.084711  -0.001591  -0.000152   0.000290
     5  C    0.644566  -0.051957   0.002292   0.000152  -0.000004  -0.000026
     6  O   -0.074945   0.010629  -0.002683   0.000113  -0.000008  -0.000153
     7  O    7.807735  -0.000459   0.000346   0.000003   0.000000   0.000000
     8  C   -0.000459   5.014719   0.260224  -0.031128   0.007623   0.005656
     9  C    0.000346   0.260224   5.158500   0.555276  -0.091407  -0.126274
    10  C    0.000003  -0.031128   0.555276   4.829983   0.506201  -0.175602
    11  N    0.000000   0.007623  -0.091407   0.506201   6.418504   0.580836
    12  C    0.000000   0.005656  -0.126274  -0.175602   0.580836   4.733074
    13  N   -0.000029  -0.052899   0.380429  -0.070851  -0.088767   0.423455
    14  C   -0.000172  -0.001268  -0.000004   0.000003   0.000000   0.000000
    15  C    0.000006  -0.000016   0.000002   0.000000   0.000000   0.000000
    16  N    0.000000   0.000000   0.000000   0.000000   0.000000   0.000000
    17  H    0.041862   0.005690  -0.000669  -0.000003   0.000000   0.000000
    18  H    0.001015  -0.050008   0.008456   0.001742  -0.000425  -0.000320
    19  H    0.008201  -0.000764  -0.000097  -0.000016   0.000003   0.000011
    20  H   -0.000307   0.419788  -0.037690  -0.000459   0.000236  -0.000227
    21  H    0.000486   0.396886  -0.026935  -0.001775  -0.000270   0.000492
    22  H    0.000000  -0.000673  -0.052683   0.424249  -0.024357   0.008247
    23  H    0.000000  -0.000394   0.004271   0.006436  -0.022127   0.415766
    24  H    0.000324   0.000408  -0.034881   0.008020   0.005607  -0.021503
    25  H   -0.000001   0.000161  -0.000018   0.000000   0.000000   0.000000
    26  H   -0.000246   0.000034   0.000016   0.000000   0.000000   0.000000
    27  H    0.000000   0.000052  -0.000006   0.000000   0.000000   0.000000
    28  H    0.000002  -0.000004   0.000004   0.000000   0.000000   0.000000
    29  H    0.000000   0.000000   0.000000   0.000000   0.000000   0.000000
    30  H    0.000000   0.000000   0.000000   0.000000   0.000000   0.000000
    31  H    0.000001   0.000000   0.000000   0.000000   0.000000   0.000000
              13         14         15         16         17         18
     1  O   -0.000003  -0.073454  -0.003001  -0.000039   0.002717   0.011363
     2  C   -0.000002   0.312576  -0.049391   0.002428  -0.019943  -0.004172
     3  N    0.000144  -0.094664  -0.004912  -0.000014   0.344500  -0.039606
     4  C    0.002290   0.008792  -0.000329   0.000003  -0.048414   0.405225
     5  C   -0.001811  -0.000111   0.000016   0.000000  -0.014050  -0.026226
     6  O   -0.009730   0.000000   0.000000   0.000000   0.001832   0.002507
     7  O   -0.000029  -0.000172   0.000006   0.000000   0.041862   0.001015
     8  C   -0.052899  -0.001268  -0.000016   0.000000   0.005690  -0.050008
     9  C    0.380429  -0.000004   0.000002   0.000000  -0.000669   0.008456
    10  C   -0.070851   0.000003   0.000000   0.000000  -0.000003   0.001742
    11  N   -0.088767   0.000000   0.000000   0.000000   0.000000  -0.000425
    12  C    0.423455   0.000000   0.000000   0.000000   0.000000  -0.000320
    13  N    6.466049   0.000000   0.000000   0.000000   0.000010   0.003343
    14  C    0.000000   5.120088   0.325156  -0.040629  -0.003006   0.001561
    15  C    0.000000   0.325156   5.013281   0.224539   0.000225   0.000129
    16  N    0.000000  -0.040629   0.224539   6.101838  -0.000082   0.000001
    17  H    0.000010  -0.003006   0.000225  -0.000082   0.450145   0.004987
    18  H    0.003343   0.001561   0.000129   0.000001   0.004987   0.481669
    19  H    0.000283   0.000000   0.000000   0.000000  -0.000432  -0.000671
    20  H    0.003813   0.000159   0.000008   0.000000  -0.000255  -0.001737
    21  H   -0.000751   0.000098   0.000004   0.000000   0.000200   0.007106
    22  H    0.004191   0.000005   0.000000   0.000000  -0.000001   0.000110
    23  H   -0.037727   0.000000   0.000000   0.000000   0.000000   0.000021
    24  H    0.349056   0.000000   0.000000   0.000000  -0.000033   0.000470
    25  H    0.000000   0.396639  -0.037259  -0.003436   0.000122  -0.000126
    26  H    0.000000   0.375456  -0.038612  -0.003426  -0.001307  -0.000042
    27  H    0.000000  -0.033334   0.395895  -0.021768   0.001006  -0.000278
    28  H    0.000000  -0.042423   0.397554  -0.022918  -0.000255   0.000004
    29  H    0.000000  -0.000833  -0.029374   0.358359   0.000003   0.000000
    30  H    0.000000   0.005144  -0.022131   0.357559   0.000002   0.000000
    31  H    0.000000  -0.000832  -0.028289   0.357320   0.000003  -0.000001
              19         20         21         22         23         24
     1  O    0.000001   0.005089   0.000192   0.000558   0.000000  -0.000008
     2  C    0.000040   0.001442   0.000319  -0.000017   0.000000  -0.000001
     3  N   -0.000324  -0.009926   0.003814  -0.000023   0.000000  -0.000001
     4  C    0.015249  -0.028306  -0.063026   0.000023  -0.000004  -0.000262
     5  C   -0.026759   0.003117  -0.000639   0.000005   0.000007  -0.001347
     6  O    0.306924   0.000133   0.001347   0.000003  -0.000050   0.022668
     7  O    0.008201  -0.000307   0.000486   0.000000   0.000000   0.000324
     8  C   -0.000764   0.419788   0.396886  -0.000673  -0.000394   0.000408
     9  C   -0.000097  -0.037690  -0.026935  -0.052683   0.004271  -0.034881
    10  C   -0.000016  -0.000459  -0.001775   0.424249   0.006436   0.008020
    11  N    0.000003   0.000236  -0.000270  -0.024357  -0.022127   0.005607
    12  C    0.000011  -0.000227   0.000492   0.008247   0.415766  -0.021503
    13  N    0.000283   0.003813  -0.000751   0.004191  -0.037727   0.349056
    14  C    0.000000   0.000159   0.000098   0.000005   0.000000   0.000000
    15  C    0.000000   0.000008   0.000004   0.000000   0.000000   0.000000
    16  N    0.000000   0.000000   0.000000   0.000000   0.000000   0.000000
    17  H   -0.000432  -0.000255   0.000200  -0.000001   0.000000  -0.000033
    18  H   -0.000671  -0.001737   0.007106   0.000110   0.000021   0.000470
    19  H    0.413002   0.000061  -0.000394   0.000000   0.000004  -0.001018
    20  H    0.000061   0.507762  -0.021072   0.002369   0.000016  -0.000107
    21  H   -0.000394  -0.021072   0.556582  -0.000033   0.000002   0.000692
    22  H    0.000000   0.002369  -0.000033   0.538441  -0.000347  -0.000316
    23  H    0.000004   0.000016   0.000002  -0.000347   0.520233  -0.002439
    24  H   -0.001018  -0.000107   0.000692  -0.000316  -0.002439   0.441073
    25  H    0.000000   0.000137  -0.000022   0.000001   0.000000   0.000000
    26  H    0.000001  -0.000127  -0.000011  -0.000001   0.000000   0.000000
    27  H    0.000000   0.000014  -0.000004   0.000000   0.000000   0.000000
    28  H    0.000000  -0.000011   0.000000   0.000000   0.000000   0.000000
    29  H    0.000000   0.000000   0.000000   0.000000   0.000000   0.000000
    30  H    0.000000   0.000000   0.000000   0.000000   0.000000   0.000000
    31  H    0.000000   0.000000   0.000000   0.000000   0.000000   0.000000
              25         26         27         28         29         30
     1  O    0.006822   0.003083  -0.000780   0.010393  -0.000011   0.000016
     2  C   -0.021978  -0.022175  -0.000790   0.002656  -0.000098  -0.000242
     3  N    0.004860   0.008876   0.006472   0.001202  -0.000004   0.000015
     4  C   -0.000172   0.000373  -0.000276   0.000064   0.000000  -0.000001
     5  C   -0.000012  -0.000141   0.000019  -0.000011   0.000000   0.000000
     6  O    0.000000  -0.000002  -0.000001   0.000000   0.000000   0.000000
     7  O   -0.000001  -0.000246   0.000000   0.000002   0.000000   0.000000
     8  C    0.000161   0.000034   0.000052  -0.000004   0.000000   0.000000
     9  C   -0.000018   0.000016  -0.000006   0.000004   0.000000   0.000000
    10  C    0.000000   0.000000   0.000000   0.000000   0.000000   0.000000
    11  N    0.000000   0.000000   0.000000   0.000000   0.000000   0.000000
    12  C    0.000000   0.000000   0.000000   0.000000   0.000000   0.000000
    13  N    0.000000   0.000000   0.000000   0.000000   0.000000   0.000000
    14  C    0.396639   0.375456  -0.033334  -0.042423  -0.000833   0.005144
    15  C   -0.037259  -0.038612   0.395895   0.397554  -0.029374  -0.022131
    16  N   -0.003436  -0.003426  -0.021768  -0.022918   0.358359   0.357559
    17  H    0.000122  -0.001307   0.001006  -0.000255   0.000003   0.000002
    18  H   -0.000126  -0.000042  -0.000278   0.000004   0.000000   0.000000
    19  H    0.000000   0.000001   0.000000   0.000000   0.000000   0.000000
    20  H    0.000137  -0.000127   0.000014  -0.000011   0.000000   0.000000
    21  H   -0.000022  -0.000011  -0.000004   0.000000   0.000000   0.000000
    22  H    0.000001  -0.000001   0.000000   0.000000   0.000000   0.000000
    23  H    0.000000   0.000000   0.000000   0.000000   0.000000   0.000000
    24  H    0.000000   0.000000   0.000000   0.000000   0.000000   0.000000
    25  H    0.499456  -0.021964   0.007028  -0.003675   0.004936  -0.000118
    26  H   -0.021964   0.546814  -0.006098   0.007863  -0.000540  -0.000112
    27  H    0.007028  -0.006098   0.484955  -0.018264   0.005197  -0.003703
    28  H   -0.003675   0.007863  -0.018264   0.459485  -0.003628  -0.002373
    29  H    0.004936  -0.000540   0.005197  -0.003628   0.388588  -0.015340
    30  H   -0.000118  -0.000112  -0.003703  -0.002373  -0.015340   0.383749
    31  H   -0.000212   0.005268  -0.003806   0.004778  -0.016431  -0.015066
              31
     1  O    0.000020
     2  C    0.000090
     3  N    0.000056
     4  C   -0.000001
     5  C    0.000000
     6  O    0.000000
     7  O    0.000001
     8  C    0.000000
     9  C    0.000000
    10  C    0.000000
    11  N    0.000000
    12  C    0.000000
    13  N    0.000000
    14  C   -0.000832
    15  C   -0.028289
    16  N    0.357320
    17  H    0.000003
    18  H   -0.000001
    19  H    0.000000
    20  H    0.000000
    21  H    0.000000
    22  H    0.000000
    23  H    0.000000
    24  H    0.000000
    25  H   -0.000212
    26  H    0.005268
    27  H   -0.003806
    28  H    0.004778
    29  H   -0.016431
    30  H   -0.015066
    31  H    0.392745
 Mulliken charges:
               1
     1  O   -0.339935
     2  C    0.337591
     3  N   -0.402492
     4  C   -0.081477
     5  C    0.397436
     6  O   -0.337281
     7  O   -0.326982
     8  C   -0.173581
     9  C    0.083003
    10  C   -0.051113
    11  N   -0.291496
    12  C    0.156276
    13  N   -0.370496
    14  C   -0.254945
    15  C   -0.143499
    16  N   -0.309734
    17  H    0.235145
    18  H    0.193901
    19  H    0.286694
    20  H    0.156080
    21  H    0.146712
    22  H    0.100250
    23  H    0.116330
    24  H    0.233597
    25  H    0.168831
    26  H    0.147021
    27  H    0.188470
    28  H    0.209557
    29  H    0.309176
    30  H    0.312603
    31  H    0.304357
 Sum of Mulliken charges =   1.00000
 Mulliken charges with hydrogens summed into heavy atoms:
               1
     1  O   -0.339935
     2  C    0.337591
     3  N   -0.167347
     4  C    0.112424
     5  C    0.397436
     6  O   -0.050587
     7  O   -0.326982
     8  C    0.129211
     9  C    0.083003
    10  C    0.049137
    11  N   -0.291496
    12  C    0.272606
    13  N   -0.136899
    14  C    0.060907
    15  C    0.254529
    16  N    0.616402
 APT charges:
               1
     1  O   -0.220512
     2  C    0.058700
     3  N   -0.560440
     4  C   -0.243337
     5  C   -0.397892
     6  O   -0.690892
     7  O    0.195828
     8  C   -0.773328
     9  C   -0.377397
    10  C   -0.454825
    11  N    0.498870
    12  C   -0.791529
    13  N   -0.571424
    14  C   -0.799332
    15  C   -0.107579
    16  N   -1.629885
    17  H    0.531687
    18  H    0.275535
    19  H    0.998269
    20  H    0.236222
    21  H    0.502396
    22  H    0.334037
    23  H    1.013194
    24  H    0.388640
    25  H    0.517836
    26  H    0.342435
    27  H    0.122818
    28  H    0.247291
    29  H    0.733695
    30  H    1.033735
    31  H    0.587181
 Sum of APT charges =   1.00000
 APT charges with hydrogens summed into heavy atoms:
               1
     1  O   -0.220512
     2  C    0.058700
     3  N   -0.028753
     4  C    0.032199
     5  C   -0.397892
     6  O    0.307377
     7  O    0.195828
     8  C   -0.034709
     9  C   -0.377397
    10  C   -0.120788
    11  N    0.498870
    12  C    0.221665
    13  N   -0.182784
    14  C    0.060939
    15  C    0.262531
    16  N    0.724725
 Electronic spatial extent (au):  <R**2>=           5045.6265
 Charge=              1.0000 electrons
 Dipole moment (field-independent basis, Debye):
    X=            -20.5679    Y=              6.8621    Z=             -1.8963  Tot=             21.7652
 Quadrupole moment (field-independent basis, Debye-Ang):
   XX=             17.4712   YY=            -84.7891   ZZ=            -92.8403
   XY=             -4.0830   XZ=            -34.3694   YZ=              5.9283
 Traceless Quadrupole moment (field-independent basis, Debye-Ang):
   XX=             70.8573   YY=            -31.4030   ZZ=            -39.4542
   XY=             -4.0830   XZ=            -34.3694   YZ=              5.9283
 Octapole moment (field-independent basis, Debye-Ang**2):
  XXX=           -711.1822  YYY=             42.7085  ZZZ=             -9.7464  XYY=            -91.8978
  XXY=            170.9947  XXZ=             23.7314  XZZ=            -85.9875  YZZ=             28.6669
  YYZ=              0.8953  XYZ=            -15.3479
 Hexadecapole moment (field-independent basis, Debye-Ang**3):
 XXXX=          -1873.8413 YYYY=           -639.3918 ZZZZ=          -1027.7369 XXXY=            175.0036
 XXXZ=           -652.9895 YYYX=            346.7686 YYYZ=            212.8204 ZZZX=           -143.5605
 ZZZY=            237.8682 XXYY=           -798.6668 XXZZ=           -866.0843 YYZZ=           -263.4979
 XXYZ=            193.6125 YYXZ=            -79.0953 ZZXY=            181.8472
 N-N= 1.124747757956D+03 E-N=-4.096648063870D+03  KE= 7.940483683040D+02
  Exact polarizability:   0.000   0.000   0.000   0.000   0.000   0.000
 Approx polarizability: 206.926   7.435 159.653  21.824 -34.594 198.139
 Calling FoFJK, ICntrl=    100147 FMM=F ISym2X=0 I1Cent= 0 IOpClX= 0 NMat=1 NMatS=1 NMatT=0.
 -------------------------------------------------------------------
 Center     Atomic                   Forces (Hartrees/Bohr)
 Number     Number              X              Y              Z
 -------------------------------------------------------------------
      1        8          -0.013017951    0.001277266   -0.002684718
      2        6           0.023546703    0.001860946    0.003938495
      3        7          -0.009888266    0.002546537    0.002142582
      4        6          -0.004749785   -0.000166000    0.001659822
      5        6           0.005515460    0.001172849    0.000080244
      6        8          -0.007205615    0.001073574   -0.001098763
      7        8          -0.003548239    0.001559961   -0.001796612
      8        6           0.006503966   -0.001706308    0.005965582
      9        6          -0.006645266   -0.002466689   -0.001138807
     10        6           0.007702409   -0.002566112    0.007696711
     11        7          -0.004655974   -0.003139405   -0.000750471
     12        6          -0.000909154   -0.001747822    0.002928644
     13        7           0.004462513    0.005574495   -0.007182883
     14        6          -0.015544266   -0.001959850   -0.002443459
     15        6           0.029253709    0.001808862    0.000087954
     16        7          -0.008149667    0.002536230    0.001963755
     17        1          -0.000789129   -0.001011936   -0.005052304
     18        1           0.003880351   -0.002093347   -0.000218236
     19        1           0.002789088    0.000384369   -0.001419653
     20        1          -0.000228533    0.000257163    0.000035093
     21        1           0.000110213   -0.000298918   -0.004133748
     22        1           0.000843300    0.000604253   -0.000436517
     23        1           0.002901854    0.001041430    0.001652251
     24        1           0.002883910   -0.000133742   -0.000132562
     25        1           0.001400099   -0.004035568   -0.000067024
     26        1           0.000157933   -0.002138237   -0.002240309
     27        1          -0.005556908    0.002541991    0.000184640
     28        1          -0.005824946    0.000922533    0.002463552
     29        1          -0.002075703   -0.004179385    0.002197295
     30        1          -0.001408913    0.003473092    0.001783571
     31        1          -0.001753193   -0.000992230   -0.003984126
 -------------------------------------------------------------------
 Cartesian Forces:  Max     0.029253709 RMS     0.005533585
 FormGI is forming the generalized inverse of G from B-inverse, IUseBI=4.

 GradGradGradGradGradGradGradGradGradGradGradGradGradGradGradGradGradGrad
 Berny optimization.
 Internal  Forces:  Max     0.013495334 RMS     0.003784156
 Search for a local minimum.
 Step number   1 out of a maximum of  167
 All quantities printed in internal units (Hartrees-Bohrs-Radians)
 Mixed Optimization -- RFO/linear search
 Second derivative matrix not updated -- analytic derivatives used.
 ITU=  0
     Eigenvalues ---   -0.00097   0.00140   0.00194   0.00229   0.00272
     Eigenvalues ---    0.00341   0.00585   0.00703   0.00805   0.01016
     Eigenvalues ---    0.02014   0.02045   0.02118   0.02590   0.03525
     Eigenvalues ---    0.03798   0.03950   0.04072   0.04214   0.04292
     Eigenvalues ---    0.04440   0.04624   0.04917   0.05005   0.05079
     Eigenvalues ---    0.05326   0.05729   0.06179   0.06329   0.07492
     Eigenvalues ---    0.07797   0.07930   0.10378   0.10440   0.10907
     Eigenvalues ---    0.11557   0.11648   0.12311   0.12878   0.13050
     Eigenvalues ---    0.13532   0.15131   0.15654   0.15975   0.16585
     Eigenvalues ---    0.18608   0.18916   0.20197   0.21142   0.21608
     Eigenvalues ---    0.22811   0.22869   0.23475   0.24649   0.24885
     Eigenvalues ---    0.26813   0.28825   0.30768   0.31027   0.32352
     Eigenvalues ---    0.33366   0.33580   0.33867   0.33962   0.34157
     Eigenvalues ---    0.34487   0.34818   0.34889   0.36227   0.36792
     Eigenvalues ---    0.37622   0.37731   0.40454   0.41389   0.43302
     Eigenvalues ---    0.43469   0.44314   0.44364   0.46314   0.46753
     Eigenvalues ---    0.46796   0.47975   0.51046   0.57445   0.59310
     Eigenvalues ---    0.80492   0.89295
 RFO step:  Lambda=-1.05084122D-02 EMin=-9.72861141D-04
 Linear search not attempted -- first point.
 Iteration  1 RMS(Cart)=  0.14569335 RMS(Int)=  0.04144591
 Iteration  2 RMS(Cart)=  0.12027088 RMS(Int)=  0.00632661
 Iteration  3 RMS(Cart)=  0.01213001 RMS(Int)=  0.00044025
 Iteration  4 RMS(Cart)=  0.00012277 RMS(Int)=  0.00043777
 Iteration  5 RMS(Cart)=  0.00000012 RMS(Int)=  0.00043777
 Variable       Old X    -DE/DX   Delta X   Delta X   Delta X     New X
                                 (Linear)    (Quad)   (Total)
    R1        2.30979  -0.00883   0.00000  -0.00739  -0.00739   2.30240
    R2        2.56802   0.00018   0.00000  -0.02348  -0.02348   2.54455
    R3        2.86328   0.00950   0.00000   0.04475   0.04475   2.90803
    R4        2.74456   0.00923   0.00000   0.01765   0.01765   2.76221
    R5        1.90584   0.00387   0.00000   0.00783   0.00783   1.91367
    R6        2.86002   0.00514   0.00000   0.01783   0.01783   2.87786
    R7        2.92806   0.01039   0.00000   0.02702   0.02702   2.95508
    R8        2.07145  -0.00045   0.00000  -0.00217  -0.00217   2.06928
    R9        2.55465  -0.00388   0.00000  -0.01507  -0.01507   2.53958
   R10        2.27296   0.00408   0.00000   0.00497   0.00497   2.27793
   R11        1.83216   0.00171   0.00000   0.00260   0.00260   1.83476
   R12        2.81762   0.00684   0.00000   0.00414   0.00414   2.82176
   R13        2.05699  -0.00002   0.00000   0.00177   0.00177   2.05876
   R14        2.05964   0.00395   0.00000   0.01107   0.01107   2.07071
   R15        2.58076   0.00787   0.00000   0.01523   0.01525   2.59601
   R16        2.59022   0.01053   0.00000   0.02280   0.02283   2.61305
   R17        2.61600  -0.00603   0.00000  -0.02126  -0.02128   2.59472
   R18        2.04211  -0.00108   0.00000  -0.00193  -0.00193   2.04019
   R19        2.47712   0.00067   0.00000   0.00141   0.00137   2.47849
   R20        2.57044   0.00585   0.00000   0.01079   0.01079   2.58123
   R21        2.03175   0.00310   0.00000   0.00785   0.00785   2.03960
   R22        1.90415   0.00008   0.00000   0.00058   0.00058   1.90473
   R23        2.87894   0.00519   0.00000  -0.00113  -0.00113   2.87782
   R24        2.05911   0.00265   0.00000   0.00914   0.00914   2.06825
   R25        2.06356   0.00230   0.00000   0.00200   0.00200   2.06557
   R26        2.80953   0.01332   0.00000   0.06286   0.06286   2.87239
   R27        2.06237   0.00006   0.00000  -0.00110  -0.00110   2.06127
   R28        2.06017   0.00061   0.00000   0.00022   0.00022   2.06039
   R29        1.92758   0.00513   0.00000   0.00964   0.00964   1.93722
   R30        1.92945   0.00414   0.00000   0.00736   0.00736   1.93680
   R31        1.92799   0.00440   0.00000   0.00786   0.00786   1.93584
    A1        2.13113   0.01130   0.00000   0.05314   0.05314   2.18427
    A2        2.13940  -0.01177   0.00000  -0.07100  -0.07100   2.06840
    A3        2.01244   0.00049   0.00000   0.01791   0.01791   2.03034
    A4        2.09611   0.00572   0.00000   0.02977   0.02873   2.12484
    A5        2.11751  -0.00161   0.00000   0.00441   0.00342   2.12093
    A6        2.02563  -0.00357   0.00000  -0.01131  -0.01240   2.01323
    A7        1.86306  -0.00872   0.00000  -0.02424  -0.02422   1.83884
    A8        1.93735   0.00497   0.00000   0.02544   0.02546   1.96281
    A9        1.87700   0.00254   0.00000   0.02430   0.02445   1.90145
   A10        1.97563   0.00431   0.00000   0.00383   0.00390   1.97953
   A11        1.89345   0.00122   0.00000  -0.00074  -0.00072   1.89273
   A12        1.91395  -0.00443   0.00000  -0.02740  -0.02764   1.88631
   A13        1.96695   0.00377   0.00000   0.00078   0.00078   1.96773
   A14        2.17483  -0.00304   0.00000  -0.00869  -0.00869   2.16614
   A15        2.14140  -0.00073   0.00000   0.00791   0.00791   2.14931
   A16        1.85401   0.00463   0.00000   0.02399   0.02399   1.87800
   A17        1.97123   0.01350   0.00000   0.03433   0.03435   2.00559
   A18        1.88012  -0.00457   0.00000  -0.01925  -0.01928   1.86083
   A19        1.92228  -0.00422   0.00000  -0.01275  -0.01299   1.90929
   A20        1.86964  -0.00429   0.00000  -0.00582  -0.00561   1.86403
   A21        1.94962  -0.00307   0.00000   0.00057   0.00056   1.95018
   A22        1.86572   0.00198   0.00000   0.00050   0.00029   1.86601
   A23        2.29073  -0.00498   0.00000  -0.01252  -0.01269   2.27804
   A24        2.15839   0.00813   0.00000   0.02088   0.02071   2.17910
   A25        1.83359  -0.00311   0.00000  -0.00746  -0.00754   1.82605
   A26        1.92995   0.00283   0.00000   0.00817   0.00818   1.93813
   A27        2.23197  -0.00116   0.00000  -0.00775  -0.00776   2.22421
   A28        2.12126  -0.00167   0.00000  -0.00041  -0.00041   2.12085
   A29        1.83408   0.00187   0.00000   0.00426   0.00420   1.83828
   A30        1.94677   0.00171   0.00000   0.00371   0.00368   1.95045
   A31        2.21083  -0.00244   0.00000  -0.01250  -0.01249   2.19835
   A32        2.12558   0.00073   0.00000   0.00879   0.00880   2.13438
   A33        1.88022  -0.00328   0.00000  -0.00840  -0.00836   1.87186
   A34        2.16723   0.00400   0.00000   0.01841   0.01839   2.18562
   A35        2.23546  -0.00073   0.00000  -0.01004  -0.01005   2.22540
   A36        1.93134  -0.00622   0.00000  -0.07622  -0.07673   1.85462
   A37        1.88064  -0.00070   0.00000  -0.03204  -0.03349   1.84715
   A38        1.93754   0.00167   0.00000   0.05093   0.05226   1.98980
   A39        1.90178   0.00284   0.00000   0.00615   0.00324   1.90502
   A40        1.91135   0.00414   0.00000   0.05358   0.05421   1.96556
   A41        1.90039  -0.00174   0.00000  -0.00357  -0.00363   1.89677
   A42        1.95089  -0.00086   0.00000   0.00230   0.00250   1.95340
   A43        1.91397   0.00373   0.00000   0.04458   0.04440   1.95837
   A44        1.90342   0.00324   0.00000   0.01159   0.01096   1.91438
   A45        1.89939  -0.00279   0.00000  -0.03638  -0.03658   1.86281
   A46        1.91828  -0.00412   0.00000  -0.04945  -0.04965   1.86863
   A47        1.87641   0.00088   0.00000   0.02863   0.02674   1.90315
   A48        1.93980   0.00014   0.00000  -0.00430  -0.00432   1.93548
   A49        1.95492  -0.00030   0.00000  -0.00826  -0.00827   1.94666
   A50        1.94324   0.00038   0.00000   0.00428   0.00429   1.94753
   A51        1.87243   0.00012   0.00000   0.00462   0.00459   1.87702
   A52        1.87655  -0.00054   0.00000  -0.00117  -0.00116   1.87539
   A53        1.87299   0.00017   0.00000   0.00540   0.00541   1.87840
    D1       -0.10391   0.00033   0.00000   0.03999   0.04017  -0.06374
    D2       -2.91907  -0.00099   0.00000  -0.04052  -0.04081  -2.95988
    D3        3.01567   0.00063   0.00000   0.04119   0.04148   3.05716
    D4        0.20052  -0.00070   0.00000  -0.03932  -0.03949   0.16102
    D5        1.40506  -0.00172   0.00000  -0.43593  -0.43479   0.97028
    D6       -0.67253  -0.00117   0.00000  -0.38002  -0.38126  -1.05379
    D7       -2.75201   0.00041   0.00000  -0.38543  -0.38546  -3.13747
    D8       -1.71441  -0.00234   0.00000  -0.43888  -0.43765  -2.15206
    D9        2.49119  -0.00179   0.00000  -0.38296  -0.38413   2.10706
   D10        0.41171  -0.00021   0.00000  -0.38838  -0.38833   0.02338
   D11       -2.81581   0.00148   0.00000  -0.02242  -0.02231  -2.83812
   D12        1.30691  -0.00114   0.00000  -0.02682  -0.02647   1.28044
   D13       -0.78674  -0.00023   0.00000  -0.02348  -0.02366  -0.81040
   D14        0.01592   0.00297   0.00000   0.05635   0.05628   0.07220
   D15       -2.14454   0.00035   0.00000   0.05195   0.05211  -2.09243
   D16        2.04499   0.00127   0.00000   0.05529   0.05492   2.09992
   D17       -3.13461  -0.00133   0.00000  -0.00747  -0.00741   3.14117
   D18        0.00343  -0.00106   0.00000  -0.00886  -0.00879  -0.00536
   D19       -0.99799   0.00153   0.00000   0.00996   0.00999  -0.98800
   D20        2.14005   0.00180   0.00000   0.00858   0.00861   2.14866
   D21        1.13050  -0.00039   0.00000  -0.02292  -0.02301   1.10749
   D22       -2.01465  -0.00012   0.00000  -0.02430  -0.02439  -2.03904
   D23       -2.49123  -0.00117   0.00000  -0.03123  -0.03105  -2.52228
   D24       -0.43011  -0.00150   0.00000  -0.03074  -0.03073  -0.46083
   D25        1.59876  -0.00399   0.00000  -0.04791  -0.04767   1.55109
   D26        1.69725   0.00353   0.00000  -0.02086  -0.02081   1.67644
   D27       -2.52481   0.00320   0.00000  -0.02038  -0.02048  -2.54529
   D28       -0.49594   0.00071   0.00000  -0.03754  -0.03742  -0.53337
   D29       -0.41972   0.00223   0.00000  -0.00282  -0.00296  -0.42268
   D30        1.64140   0.00190   0.00000  -0.00234  -0.00263   1.63877
   D31       -2.61292  -0.00059   0.00000  -0.01950  -0.01957  -2.63249
   D32       -3.12587  -0.00057   0.00000  -0.01957  -0.01958   3.13774
   D33        0.01920  -0.00083   0.00000  -0.01818  -0.01817   0.00103
   D34        2.09828  -0.00144   0.00000  -0.03802  -0.03804   2.06024
   D35       -1.00477  -0.00258   0.00000  -0.07423  -0.07432  -1.07909
   D36        0.03104  -0.00085   0.00000  -0.03046  -0.03046   0.00059
   D37       -3.07201  -0.00200   0.00000  -0.06666  -0.06673  -3.13874
   D38       -2.00651   0.00101   0.00000  -0.02787  -0.02774  -2.03425
   D39        1.17362  -0.00014   0.00000  -0.06407  -0.06402   1.10961
   D40       -3.12471  -0.00032   0.00000  -0.01964  -0.01918   3.13930
   D41        0.01497  -0.00049   0.00000  -0.01769  -0.01740  -0.00244
   D42       -0.01633   0.00088   0.00000   0.01209   0.01211  -0.00421
   D43        3.12335   0.00070   0.00000   0.01404   0.01389   3.13723
   D44        3.12901  -0.00035   0.00000   0.01312   0.01350  -3.14067
   D45        0.01089  -0.00014   0.00000   0.01448   0.01477   0.02566
   D46        0.01742  -0.00114   0.00000  -0.01479  -0.01472   0.00270
   D47       -3.10070  -0.00093   0.00000  -0.01343  -0.01346  -3.11415
   D48        0.00875  -0.00031   0.00000  -0.00466  -0.00467   0.00407
   D49       -3.13107  -0.00015   0.00000  -0.00646  -0.00631  -3.13739
   D50        0.00272  -0.00036   0.00000  -0.00489  -0.00498  -0.00226
   D51       -3.13668   0.00012   0.00000  -0.00434  -0.00433  -3.14101
   D52       -0.01301   0.00094   0.00000   0.01267   0.01272  -0.00029
   D53        3.10391   0.00081   0.00000   0.01174   0.01192   3.11583
   D54        3.12652   0.00048   0.00000   0.01212   0.01206   3.13858
   D55       -0.03975   0.00034   0.00000   0.01120   0.01127  -0.02848
   D56       -3.10332   0.00221   0.00000   0.11855   0.11818  -2.98514
   D57        1.07181   0.00375   0.00000   0.13266   0.13247   1.20428
   D58       -0.97865  -0.00134   0.00000   0.06569   0.06489  -0.91376
   D59       -1.03856  -0.00059   0.00000   0.03793   0.03809  -1.00047
   D60        3.13656   0.00096   0.00000   0.05204   0.05238  -3.09424
   D61        1.08611  -0.00414   0.00000  -0.01493  -0.01520   1.07091
   D62        1.03843   0.00143   0.00000   0.06884   0.06929   1.10773
   D63       -1.06963   0.00298   0.00000   0.08295   0.08358  -0.98604
   D64       -3.12008  -0.00211   0.00000   0.01598   0.01600  -3.10408
   D65        1.03267  -0.00062   0.00000  -0.01513  -0.01498   1.01769
   D66        3.12692  -0.00057   0.00000  -0.01783  -0.01766   3.10926
   D67       -1.05892  -0.00029   0.00000  -0.01363  -0.01347  -1.07239
   D68       -3.13399   0.00163   0.00000   0.01768   0.01732  -3.11666
   D69       -1.03974   0.00167   0.00000   0.01498   0.01465  -1.02509
   D70        1.05760   0.00196   0.00000   0.01919   0.01884   1.07644
   D71       -1.08341  -0.00131   0.00000   0.00263   0.00281  -1.08060
   D72        1.01083  -0.00126   0.00000  -0.00007   0.00013   1.01097
   D73        3.10818  -0.00098   0.00000   0.00413   0.00432   3.11250
         Item               Value     Threshold  Converged?
 Maximum Force            0.013495     0.000450     NO 
 RMS     Force            0.003784     0.000300     NO 
 Maximum Displacement     1.064149     0.001800     NO 
 RMS     Displacement     0.256988     0.001200     NO 
 Predicted change in Energy=-8.905822D-03
 GradGradGradGradGradGradGradGradGradGradGradGradGradGradGradGradGradGrad

                          Input orientation:                          
 ---------------------------------------------------------------------
 Center     Atomic      Atomic             Coordinates (Angstroms)
 Number     Number       Type             X           Y           Z
 ---------------------------------------------------------------------
      1          8           0       -0.927888   -0.371187    1.331896
      2          6           0       -1.367165   -0.158620    0.215522
      3          7           0       -0.621687    0.117559   -0.871258
      4          6           0        0.830087    0.267054   -0.790268
      5          6           0        1.233424    0.987139   -2.070116
      6          8           0        2.557379    1.203758   -2.149195
      7          8           0        0.457720    1.325817   -2.928391
      8          6           0        1.561256   -1.100631   -0.589809
      9          6           0        2.774989   -1.043701    0.278112
     10          6           0        3.046697   -1.662092    1.474337
     11          7           0        4.298992   -1.329024    1.928356
     12          6           0        4.789020   -0.512748    1.026272
     13          7           0        3.909426   -0.302634    0.002589
     14          6           0       -2.892246   -0.175663    0.010736
     15          6           0       -3.466428    0.831214    0.998491
     16          7           0       -4.983623    0.763099    1.060874
     17          1           0       -1.042921    0.437008   -1.734979
     18          1           0        1.074234    0.910876    0.061169
     19          1           0        2.730631    1.659893   -2.988601
     20          1           0        0.851817   -1.763756   -0.095982
     21          1           0        1.782288   -1.541891   -1.568151
     22          1           0        2.403982   -2.328720    2.029409
     23          1           0        5.762739   -0.047996    1.054359
     24          1           0        4.033171    0.294350   -0.800056
     25          1           0       -3.220069   -1.181346    0.291801
     26          1           0       -3.204987    0.019630   -1.018251
     27          1           0       -3.208701    1.858320    0.736909
     28          1           0       -3.094991    0.615445    2.000616
     29          1           0       -5.296815   -0.176047    1.326986
     30          1           0       -5.361793    1.421537    1.749272
     31          1           0       -5.408321    0.983413    0.155063
 ---------------------------------------------------------------------
                    Distance matrix (angstroms):
                    1          2          3          4          5
     1  O    0.000000
     2  C    1.218376   0.000000
     3  N    2.277393   1.346515   0.000000
     4  C    2.828676   2.453718   1.461697   0.000000
     5  C    4.253234   3.646912   2.373787   1.522896   0.000000
     6  O    5.171608   4.780168   3.594358   2.389066   1.343888
     7  O    4.790592   3.926570   2.618550   2.414789   1.205427
     8  C    3.228138   3.179873   2.515639   1.563763   2.580226
     9  C    3.908201   4.236122   3.769215   2.577238   3.466253
    10  C    4.181393   4.829826   4.703830   3.709906   4.782210
    11  N    5.347287   6.033985   5.843245   4.687395   5.545276
    12  C    5.726821   6.219432   5.768332   4.425048   4.947680
    13  N    5.017107   5.282849   4.633698   3.230401   3.622238
    14  C    2.375373   1.538863   2.453432   3.833193   4.764788
    15  C    2.828623   2.449431   3.478191   4.688067   5.615093
    16  N    4.220077   3.826612   4.814182   6.121439   6.964551
    17  H    3.173662   2.065033   1.012670   2.104643   2.365736
    18  H    2.695723   2.669846   2.091630   1.095015   2.138582
    19  H    6.014710   5.510474   4.254406   3.222535   1.880915
    20  H    2.673094   2.756334   2.512292   2.146321   3.407382
    21  H    4.138342   3.874788   3.003087   2.187252   2.636136
    22  H    3.926807   4.713923   4.853125   4.143159   5.401040
    23  H    6.704176   7.179932   6.670555   5.275695   5.598977
    24  H    5.440612   5.513639   4.658758   3.203215   3.151443
    25  H    2.644287   2.117792   3.129130   4.435370   5.487675
    26  H    3.295620   2.220711   2.589331   4.049076   4.662830
    27  H    3.244506   2.780494   3.508431   4.601761   5.326426
    28  H    2.473250   2.602137   3.822667   4.828732   5.953502
    29  H    4.373286   4.083847   5.174486   6.497541   7.452337
    30  H    4.800789   4.561397   5.571009   6.791280   7.633696
    31  H    4.826403   4.199862   4.971409   6.350162   7.004585
                    6          7          8          9         10
     6  O    0.000000
     7  O    2.242902   0.000000
     8  C    2.955360   3.546041   0.000000
     9  C    3.315154   4.611509   1.493210   0.000000
    10  C    4.645699   5.917298   2.604318   1.373750   0.000000
    11  N    5.106332   6.737324   3.726729   2.264353   1.373066
    12  C    4.243843   6.146530   3.657292   2.213137   2.134818
    13  N    2.954221   4.812148   2.549831   1.382766   2.181393
    14  C    6.022169   4.702678   4.588017   5.739559   6.294652
    15  C    6.806832   5.573506   5.615365   6.556641   6.990264
    16  N    8.207645   6.770458   7.002406   8.004581   8.398723
    17  H    3.704273   2.113324   3.233803   4.563055   5.606327
    18  H    2.677911   3.080541   2.169590   2.600001   3.536640
    19  H    0.970915   2.298120   3.839548   4.240614   5.572549
    20  H    3.991336   4.209906   1.089451   2.087347   2.700692
    21  H    2.911523   3.439256   1.095773   2.154608   3.296956
    22  H    5.473816   6.459362   3.013087   2.203624   1.079620
    23  H    4.701487   6.774429   4.632903   3.243553   3.187252
    24  H    2.196626   4.286909   2.846144   2.129753   3.158110
    25  H    6.710149   5.493782   4.862595   5.996654   6.395457
    26  H    5.990497   4.332456   4.914836   6.210583   6.937199
    27  H    6.481182   5.211585   5.767847   6.666091   7.215754
    28  H    7.036784   6.117311   5.597844   6.338490   6.571490
    29  H    8.699199   7.312900   7.180676   8.185780   8.476098
[...]
 ,-0.00964298,-0.04309584,-0.05696201,-0.00709551,-0.02833216,-0.005957
 08,-0.00122883,0.00033986,0.00193584,0.00010344,0.00053309,0.00024571,
 0.00006488,0.00002369,-0.00004699,-0.00000624,-0.00000112,0.00001354,-
 0.00001804,0.00000788,0.00000650,0.00002162,-0.00002757,-0.00000711,-0
 .00000137,-0.00000482,-0.00000336,0.00000129,0.00000067,0.00000075,-0.
 00001315,0.00000557,0.00000350,0.00967792,0.05043664,0.05998656,-0.008
 08607,-0.00216612,-0.00254510,0.00142322,0.01910573,-0.02700119,0.0007
 9561,-0.00124319,0.00164000,-0.00000779,-0.00025021,0.00001093,-0.0003
 0160,0.00007641,-0.00032791,0.00017603,-0.00000024,0.00005653,0.000220
 75,-0.00012353,0.00021289,0.00015075,0.00000934,0.00004806,0.00002877,
 -0.00002854,-0.00002678,0.00001998,0.00001889,-0.00000948,-0.00000279,
 0.00000793,0.00002283,-0.00002024,-0.00000731,-0.00000093,-0.00002167,
 -0.00001107,0.00002421,-0.06162940,0.03510380,-0.04479585,0.00353377,-
 0.01039116,0.01632291,0.00112320,-0.00021425,0.00021091,-0.00167241,0.
 00050167,0.00074022,0.00009748,0.00004850,0.00000857,-0.00002654,0.000
 00791,0.00000760,0.00002984,-0.00009235,-0.00002871,-0.00001894,0.0000
 0395,0.00001637,0.00000769,-0.00003191,0.00001503,-0.00000141,-0.00000
 131,0.00000124,-0.00001229,0.00001344,-0.00001547,0.00183942,-0.004913
 07,0.00782892,0.06476652,-0.00051054,0.00093469,-0.00086465,-0.0022056
 4,-0.00016641,-0.00085913,0.00026035,-0.00006273,-0.00048416,0.0000545
 5,0.00008760,-0.00022338,0.00008193,-0.00004435,0.00019746,-0.00002745
 ,0.00002197,-0.00005208,-0.00004691,-0.00003369,-0.00015011,-0.0000377
 8,-0.00003017,-0.00000054,-0.00001393,0.00000274,-0.00000507,-0.000010
 75,-0.00000836,0.00000496,0.00001250,-0.00000047,-0.00000279,0.0000072
 7,0.00000337,-0.00000132,0.00001296,0.00000407,-0.00000347,0.03506636,
 -0.13135386,0.11857925,-0.00354410,0.00733575,-0.01248576,-0.00063062,
 0.00005614,0.00024117,0.00056226,0.00049658,-0.00018030,-0.00006890,0.
 00000181,-0.00000942,0.00000470,0.00000826,0.00000949,-0.00001143,0.00
 002344,-0.00000326,0.00001744,-0.00001334,-0.00000738,-0.00000274,0.00
 000801,-0.00000878,0.00000109,0.00000075,-0.00000025,-0.00000265,0.000
 00156,0.00000827,0.00717800,-0.01598654,0.02431449,-0.03706929,0.13769
 421,-0.00149998,0.00027456,0.00127254,-0.00111015,0.00166881,-0.005907
 34,0.00155314,-0.00043653,0.00029054,-0.00047233,-0.00061597,0.0000470
 6,-0.00005909,0.00002630,0.00007126,0.00001368,0.00000269,-0.00002533,
 0.00002172,-0.00001105,-0.00005602,0.00015010,0.00008020,-0.00000268,0
 .00002746,-0.00004987,-0.00000309,0.00000658,0.00000558,-0.00003381,0.
 00002477,0.00001131,0.00001238,0.00000930,-0.00000302,0.00001845,-0.00
 002245,-0.00001238,0.00001804,-0.04397794,0.11621418,-0.21475580,-0.00
 703972,0.01361008,-0.02149693,0.00017423,-0.00006269,0.00046623,0.0004
 7513,0.00029088,0.00089872,-0.00002226,0.00005369,0.00002114,-0.000000
 92,0.00000495,0.00000465,-0.00000432,-0.00000071,-0.00000946,0.0000053
 1,-0.00001698,0.00000643,0.00000226,-0.00000925,0.00000240,-0.00000030
 ,0.00000057,0.00000128,-0.00000556,0.00000207,-0.00000073,0.00161241,-
 0.00334044,0.00607796,0.04677011,-0.12608066,0.23507815,-0.00074310,-0
 .00066868,-0.00063853,0.00199898,0.00063555,0.00078072,-0.00064543,-0.
 00032193,0.00017891,0.00011444,0.00004623,0.00006685,0.00002699,0.0000
 3899,-0.00003408,-0.00005549,-0.00002621,0.00002470,-0.00003804,-0.000
 03873,0.00001435,-0.00001273,-0.00000405,-0.00000952,0.00000984,-0.000
 00164,0.00000944,0.00001014,-0.00000347,0.00000227,-0.00002241,-0.0000
 1029,-0.00000955,-0.00001101,0.00000018,-0.00000170,-0.00000038,-0.000
 00291,-0.00001269,0.00226954,0.01578517,0.00061658,-0.04972032,0.00713
 885,-0.00139810,-0.01225179,-0.04164036,-0.00146923,0.00007730,0.00011
 694,-0.00005379,-0.00005514,0.00002090,-0.00001766,0.00000168,0.000012
 73,0.00000241,0.00001354,-0.00000858,0.00001522,0.00000435,-0.00000058
 ,-0.00000570,0.00000242,0.00000440,0.00000649,-0.00000197,0.00000215,0
 .00000028,0.00000536,0.00000601,0.00000159,-0.00144192,0.00058254,0.00
 266357,0.00032131,-0.00067464,-0.00029086,0.06145816,0.00044154,0.0005
 0160,0.00047207,-0.00031790,-0.00011823,-0.00093864,0.00024279,-0.0000
 7311,0.00012280,-0.00001243,-0.00000810,-0.00003404,-0.00000588,-0.000
 00133,0.00000079,0.00001568,0.00000315,-0.00000619,0.00000980,0.000000
 88,0.00000376,0.00000548,0.00001162,-0.00000077,0.00000102,-0.00000003
 ,-0.00000525,-0.00000107,0.00000304,-0.00000253,0.00000573,0.00000289,
 0.00000524,0.00000197,-0.00000009,-0.00000047,-0.00000170,-0.00000193,
 0.00000711,0.00101582,-0.00676608,-0.00106733,-0.00620271,-0.32347935,
 -0.01805489,-0.00192808,-0.00492914,0.00022913,-0.00002845,-0.00004747
 ,0.00002393,0.00001016,0.00000193,0.00000769,-0.00000103,-0.00000032,0
 .00000022,-0.00000318,-0.00000115,-0.00000544,-0.00000141,-0.00000167,
 0.00000219,-0.00000058,-0.00000383,-0.00000186,0.00000019,-0.00000031,
 0.00000004,-0.00000225,0.00000013,-0.00000125,0.00079612,0.00105718,-0
 .00083387,-0.00009254,0.00109393,0.00003345,0.00740992,0.34228627,-0.0
 0020302,-0.00056520,0.00028964,-0.00089626,-0.00017360,-0.00008885,0.0
 0019237,0.00041002,-0.00006940,-0.00000716,0.00002495,-0.00002915,0.00
 007041,-0.00003753,0.00006457,-0.00003117,0.00000782,-0.00001583,-0.00
 003633,0.00004664,-0.00004272,0.00000663,-0.00001882,0.00000463,-0.000
 00436,0.00000371,0.00000049,0.00000212,-0.00000101,-0.00000001,-0.0000
 0182,-0.00000280,-0.00000750,0.00000104,-0.00000089,0.00000577,0.00000
 293,0.00000501,-0.00000692,-0.00054430,-0.02785356,-0.00263329,-0.0004
 4056,-0.01694429,-0.05164860,-0.00049711,0.00034910,-0.00045154,0.0000
 2370,-0.00014766,-0.00000745,0.00002205,-0.00000403,0.00001208,0.00000
 823,-0.00000591,-0.00000170,-0.00000180,0.00000244,-0.00001267,-0.0000
 0701,0.00000086,0.00000278,0.00000175,0.00000338,0.00000149,0.00000020
 ,0.00000013,0.00000057,0.00000305,-0.00000406,0.00000398,0.00342326,-0
 .00168446,-0.00366848,-0.00111733,0.00019830,0.00120170,-0.00268048,0.
 02150205,0.05263913,-0.00317775,0.00081927,-0.00326074,0.00136704,-0.0
 0067829,0.00695607,0.00031706,0.00033165,-0.00331546,-0.00046618,0.000
 00586,0.00001451,-0.00015765,-0.00015384,0.00029846,0.00012489,0.00005
 419,-0.00010987,0.00007415,0.00012400,-0.00024329,-0.00003041,0.000032
 80,0.00001281,-0.00002432,-0.00004956,0.00000967,-0.00003254,-0.000025
 33,-0.00001921,0.00006912,0.00000166,0.00000762,0.00002821,0.00000956,
 0.00001203,0.00000806,-0.00000312,0.00000240,0.00793305,-0.00775774,0.
 01099300,-0.08546794,0.04123113,-0.08413090,-0.02418277,0.01187954,-0.
 02689148,0.00065008,-0.00001262,-0.00001046,-0.00001843,-0.00002313,0.
 00005831,-0.00001599,-0.00001623,0.00002062,-0.00001177,0.00009025,0.0
 0000957,0.00002592,-0.00000391,-0.00002382,-0.00001540,0.00003766,-0.0
 0001967,0.00000354,0.00000243,-0.00000104,-0.00002037,0.00000332,0.000
 01273,0.00034327,0.00024706,-0.00013509,-0.00251122,0.00165177,0.00274
 822,0.00285812,-0.00023686,0.00243493,0.10586124,0.00043783,-0.0020474
 5,-0.00009922,0.00053331,0.00103118,0.00007093,-0.00033397,0.00018853,
 0.00036404,0.00014224,0.00000177,0.00009257,0.00004053,0.00004178,-0.0
 0007899,-0.00005167,-0.00002402,0.00003558,-0.00002179,-0.00002806,0.0
 0005028,0.00001569,-0.00000502,-0.00001379,0.00001039,0.00000290,0.000
 00938,0.00002184,0.00000128,-0.00000575,-0.00002800,-0.00001179,-0.000
 00838,-0.00001257,-0.00000247,0.00000267,-0.00000739,-0.00000208,-0.00
 000797,-0.00532099,0.00578632,-0.00966341,0.04868347,-0.10296132,0.096
 65152,-0.00992811,0.00464689,-0.01224628,-0.00015754,0.00012502,-0.000
 02184,0.00001101,0.00000304,-0.00002930,0.00000541,0.00000675,-0.00000
 463,0.00001307,-0.00001403,0.00000069,-0.00000520,0.00000054,0.0000009
 5,0.00000681,0.00000407,0.00001199,-0.00000221,0.00000124,0.00000115,0
 .00000746,0.00000300,-0.00000126,-0.00067144,0.00044200,0.00012015,0.0
 0159611,0.00001553,-0.00178657,0.01320978,-0.01076717,0.02537107,-0.04
 638564,0.10307499,-0.00238065,-0.00027525,0.00292123,-0.00211226,0.001
 02398,-0.00416532,-0.00013963,-0.00006302,0.00061190,0.00012750,-0.000
 00198,0.00005213,0.00003143,0.00007031,-0.00010562,-0.00003961,-0.0000
 2073,0.00003826,-0.00000406,-0.00004511,0.00008120,0.00002622,-0.00001
 143,0.00000871,0.00001258,0.00000420,0.00001842,-0.00000312,-0.0000085
 5,0.00002172,-0.00002235,-0.00000415,-0.00002136,-0.00001308,-0.000003
 18,0.00000056,0.00000798,0.00000786,-0.00002882,-0.00564294,0.01115531
 ,-0.02405625,-0.09307804,0.09373155,-0.23325328,0.00373316,-0.00270223
 ,0.00533966,-0.00014337,0.00003315,0.00010235,0.00003372,0.00001062,-0
 .00001478,0.00000265,0.00000325,-0.00000345,0.00001596,-0.00004612,0.0
 0000515,-0.00001403,0.00000198,0.00000333,0.00000210,0.00000195,0.0000
 1206,-0.00000091,0.00000102,-0.00000073,0.00000862,0.00000021,0.000000
 86,-0.00037269,-0.00024629,0.00058868,0.00205946,-0.00281710,-0.002743
 68,0.00237868,-0.00153204,0.00395444,0.09467422,-0.09818900,0.24955298
 ,0.00044251,0.00019330,0.00016266,-0.00094174,0.00029892,-0.00040731,0
 .00063437,-0.00003184,-0.00020188,-0.00020897,-0.00005478,-0.00009361,
 -0.00014589,-0.00008859,0.00017092,0.00015386,0.00004635,-0.00008288,0
 .00009218,0.00005467,-0.00009902,-0.00000027,0.00004127,0.00000593,-0.
 00000961,-0.00002908,-0.00000911,-0.00002404,-0.00000675,-0.00001830,0
 .00006071,0.00000910,0.00001617,0.00001875,0.00000371,0.00000846,0.000
 00231,-0.00000655,0.00001662,0.00186728,-0.00089543,-0.00052544,-0.001
 56673,-0.03604698,-0.00108985,-0.05943342,-0.03604056,-0.00117876,-0.0
 0001862,-0.00004880,0.00013767,0.00002787,-0.00000269,0.00001239,-0.00
 001859,-0.00001270,0.00001668,-0.00001403,0.00003295,-0.00001392,0.000
 00948,-0.00000954,-0.00000001,-0.00000754,0.00000902,-0.00001397,0.000
 00282,0.00000089,-0.00000035,-0.00002184,0.00000366,0.00000445,-0.0001
 4982,0.00131888,0.00107875,0.00013625,0.00034771,-0.00002085,-0.007067
 61,-0.00014647,0.00016533,0.00097731,0.00035019,-0.00068752,0.06121368
 ,0.00035187,-0.00022515,-0.00010043,-0.00046978,-0.00001125,-0.0003448
 6,0.00053508,-0.00005013,-0.00010008,-0.00015593,0.00004783,-0.0000694
 9,-0.00008940,-0.00002977,0.00006424,0.00010294,0.00001220,-0.00004675
 ,0.00007363,-0.00000007,-0.00003042,-0.00000354,0.00004620,-0.00001364
 ,0.00000629,-0.00003310,-0.00000570,0.00000740,-0.00000569,-0.00002762
 ,0.00002177,-0.00000926,0.00001456,0.00000339,0.00000356,0.00000434,-0
 .00001305,-0.00001615,0.00001785,0.00135849,0.00201918,0.00145432,-0.0
 0612993,-0.00577779,-0.00057237,-0.02603381,-0.39802642,-0.00934909,-0
 .00003196,0.00003453,0.00008836,0.00001034,-0.00000204,-0.00000170,-0.
 00000950,0.00000559,0.00001001,-0.00000467,0.00002912,0.00000896,0.000
 01468,-0.00000632,-0.00000870,-0.00000315,0.00001617,0.00000091,-0.000
 00059,0.00000314,0.00000130,-0.00001443,0.00001489,-0.00000134,-0.0003
 8453,-0.00019644,0.00022160,-0.00004920,-0.00028129,-0.00011512,-0.000
 54979,0.00160949,-0.00030011,0.00052900,0.00095776,-0.00042008,0.03313
 382,0.42154281,-0.00037227,0.00017921,-0.00074730,0.00112447,-0.000470
 92,0.00064647,-0.00032194,0.00000352,-0.00007459,0.00011719,0.00004266
 ,0.00002735,0.00013314,0.00002893,-0.00001280,-0.00011498,-0.00001996,
 0.00002821,-0.00008842,-0.00001936,-0.00000978,0.00000068,-0.00003221,
 0.00001939,-0.00000209,0.00001352,0.00001694,-0.00000785,-0.00000823,0
 .00003473,-0.00003059,-0.00000036,-0.00003066,-0.00000820,-0.00000305,
 0.00000107,0.00001682,0.00001454,-0.00004003,-0.00060437,0.00187990,0.
 00034561,-0.00053176,-0.00020617,0.00035747,-0.00048448,-0.00873044,-0
 .06333503,0.00005205,0.00005040,-0.00006571,-0.00001781,-0.00000118,-0
 .00000374,0.00001411,0.00000758,-0.00000490,0.00000385,-0.00001722,0.0
 0001856,-0.00000201,0.00000623,-0.00000970,0.00000196,-0.00000277,0.00
 000669,-0.00000027,0.00000030,-0.00000070,0.00001627,-0.00000513,0.000
 00645,0.00022909,-0.00091097,-0.00005336,0.00009615,-0.00005561,-0.000
 15753,-0.00000526,0.00014420,0.00036012,-0.00061387,-0.00068610,-0.000
 26114,0.00146527,0.01042876,0.05783201,0.00035422,-0.00016266,-0.00114
 034,0.00078513,0.00018456,0.00346848,-0.00083941,0.00005287,-0.0005201
 2,0.00004893,-0.00003122,0.00017885,-0.00009091,0.00000861,-0.00004376
 ,0.00001124,-0.00000882,0.00002053,0.00002669,-0.00000355,0.00000147,-
 0.00000959,-0.00001421,0.00000094,-0.00000525,0.00000121,0.00000826,-0
 .00001341,-0.00000970,0.00000936,0.00001001,-0.00000320,-0.00000808,0.
 00000050,0.00000177,-0.00000060,0.00001282,0.00000353,-0.00001213,-0.0
 0655657,-0.00229900,-0.00245562,-0.01257820,0.01138315,0.02674829,-0.1
 2327241,0.05410642,0.12971842,0.00002180,0.00002327,-0.00005579,-0.000
 01595,-0.00000031,0.00000497,-0.00001365,-0.00000065,0.00000687,0.0000
 0089,0.00001033,0.00000181,0.00000073,0.00000168,-0.00000344,-0.000002
 68,0.00000913,-0.00000265,0.00000052,0.00000162,-0.00000078,-0.0000028
 1,0.00000100,0.00000489,0.00042458,-0.00012616,-0.00057040,-0.00001259
 ,-0.00019342,0.00006484,0.00131860,-0.00062002,0.00019327,0.00043610,0
 .00116336,-0.00059029,0.00183569,-0.00088041,-0.00486682,0.12772965,-0
 .00012006,-0.00011910,-0.00005829,0.00025948,0.00055373,0.00062193,-0.
 00038900,-0.00003572,0.00003446,0.00008184,-0.00005379,0.00006339,0.00
 003726,0.00004408,-0.00008457,-0.00005985,-0.00002758,0.00003848,-0.00
 003052,-0.00003411,0.00004353,0.00000874,-0.00000964,-0.00000210,0.000
 00616,0.00000703,0.00000160,0.00001322,0.00000109,0.00000072,-0.000021
 33,-0.00000895,-0.00000454,-0.00000734,-0.00000082,-0.00000246,-0.0000
 0270,-0.00000289,-0.00000248,-0.00221925,-0.00080223,-0.00113665,-0.00
 258098,0.00450065,0.00987132,0.04959654,-0.09981735,-0.09222180,0.0000
 1290,0.00004743,-0.00005230,-0.00002286,0.00000480,0.00000053,0.000003
 98,0.00001185,-0.00000306,0.00000535,-0.00000746,0.00000284,-0.0000019
 7,0.00000239,-0.00000182,0.00000211,0.00000095,0.00000537,-0.00000180,
 0.00000154,0.00000080,0.00000675,0.00000353,-0.00000104,0.00011041,0.0
 0031353,-0.00000595,0.00021984,0.00005332,-0.00009018,-0.00056259,-0.0
 0032368,0.00066337,0.00064014,0.00002945,-0.00012030,0.01797236,-0.009
 60479,-0.03397040,-0.05381072,0.09894319,-0.00035965,0.00004232,0.0002
 2444,-0.00011939,0.00011812,-0.00013839,-0.00030594,0.00001244,0.00009
 612,0.00010201,-0.00001764,0.00000854,0.00015075,0.00002619,-0.0000207
 5,-0.00012608,-0.00002048,0.00003230,-0.00009690,-0.00001019,0.0000031
 3,0.00001922,-0.00003301,0.00001263,0.00000002,0.00001506,0.00001435,0
 .00000152,-0.00000514,0.00002757,-0.00003465,-0.00000305,-0.00002971,-
 0.00000972,-0.00000416,0.00000453,0.00001165,0.00001280,-0.00003628,-0
 .00022453,-0.00046061,0.00012926,0.00198467,0.00311829,0.00461447,0.12
 146406,-0.09486210,-0.29880056,0.00005288,0.00002357,-0.00008495,-0.00
 001856,-0.00000203,0.00000331,0.00001688,0.00000559,-0.00000671,0.0000
 0870,-0.00001602,0.00000930,-0.00000518,0.00000527,-0.00000636,0.00000
 401,-0.00000196,0.00000970,-0.00000074,0.00000032,0.00000008,0.0000175
 8,-0.00000596,0.00000513,-0.00005143,0.00004344,-0.00007065,-0.0002011
 0,-0.00001576,0.00011486,-0.00024053,0.00020824,0.00025551,-0.00073669
 ,0.00006401,0.00074396,-0.00151970,0.00026652,0.00177716,-0.13382617,0
 .10272548,0.31406523,0.00013543,0.00012317,0.00154715,-0.00230880,-0.0
 0009433,-0.00170197,0.00079106,-0.00005991,0.00007558,-0.00022441,0.00
 001484,-0.00009701,-0.00017407,-0.00006700,0.00014107,0.00017941,0.000
 04127,-0.00008236,0.00011965,0.00003128,-0.00007016,-0.00000278,0.0000
 5082,-0.00000441,-0.00000261,-0.00003413,-0.00000969,-0.00001272,-0.00
 000378,-0.00002921,0.00005596,0.00000473,0.00002129,0.00001338,0.00000
 348,0.00000845,-0.00000672,-0.00001289,0.00002300,0.00275429,0.0005639
 9,-0.00034700,-0.01558843,0.01334468,-0.02669762,-0.13613729,0.0680041
 1,-0.13360854,-0.00007448,-0.00001334,0.00017410,0.00003048,0.00000074
 ,0.00000483,-0.00002166,-0.00000979,0.00001888,-0.00000780,0.00002544,
 -0.00001125,0.00000985,-0.00001222,0.00000188,-0.00000523,0.00000982,-
 0.00000974,0.00000181,0.00000144,0.00000029,-0.00002486,0.00000898,0.0
 0000163,-0.00017451,0.00025398,0.00021245,-0.00034565,-0.00020809,0.00
 086748,0.00157659,-0.00035365,-0.00008257,-0.00494442,-0.00332199,0.00
 213026,0.00215367,-0.00132502,0.00480193,0.01039534,-0.00914610,0.0140
 4299,0.14183952,-0.00049663,0.00010891,0.00024093,0.00040983,-0.000216
 37,-0.00036525,-0.00027931,-0.00006732,0.00022471,0.00011905,0.0000298
 7,0.00004123,0.00005155,0.00006924,-0.00011219,-0.00006112,-0.00003234
 ,0.00004404,-0.00002955,-0.00006056,0.00006985,-0.00000705,-0.00000931
 ,0.00000099,0.00000902,0.00001219,0.00000256,0.00001144,0.00000183,0.0
 0000793,-0.00002780,-0.00000694,-0.00000583,-0.00001033,-0.00000143,-0
 .00000621,-0.00000096,-0.00000154,-0.00000575,0.00011957,0.00010372,-0
 .00043503,-0.00292255,0.00640370,-0.00996909,0.06277220,-0.11341265,0.
 10171555,-0.00000015,0.00005981,-0.00005331,-0.00001393,0.00000712,-0.
 00001095,0.00000489,0.00001517,-0.00000529,0.00000452,-0.00002274,0.00
 000857,-0.00000292,0.00000375,-0.00000171,0.00000263,-0.00000410,0.000
 00695,-0.00000188,0.00000106,0.00000036,0.00000805,0.00000439,-0.00000
 259,0.00021558,-0.00042343,0.00008731,-0.00002821,0.00013748,0.0003520
 6,-0.00049590,-0.00004912,-0.00084491,-0.00234502,-0.00050066,0.000461
 16,0.01960394,-0.01206681,0.03234031,-0.00878846,0.00632955,-0.0112295
 6,-0.06782051,0.11358753,0.00017611,-0.00006064,-0.00071508,0.00031858
 ,-0.00003616,0.00019730,0.00023296,0.00001551,-0.00027784,-0.00004273,
 0.00003043,-0.00003899,0.00007427,-0.00004492,0.00014853,-0.00003400,0
 .00001058,-0.00003811,-0.00005355,0.00003478,-0.00010961,0.00000244,-0
 .00000104,0.00000974,-0.00000801,-0.00000795,0.00000608,-0.00000980,-0
 .00000765,0.00000770,0.00000497,0.00000075,-0.00001398,0.00000440,-0.0
 0000010,0.00000844,0.00000851,0.00000506,-0.00001781,0.00025340,-0.000
 61697,0.00241901,-0.00242324,-0.00352979,0.00471180,-0.12502781,0.1038
 6792,-0.27348636,0.00009311,-0.00001651,0.00003980,-0.00000207,-0.0000
 0131,0.00000424,0.00000803,-0.00000040,0.00000591,-0.00000455,0.000014
 44,0.00000340,0.00000629,-0.00000397,-0.00000792,-0.00000117,0.0000059
 5,-0.00000150,0.00000078,0.00000095,0.00000017,0.00000245,-0.00000214,
 0.00000870,0.00004655,-0.00018461,0.00012298,-0.00002309,0.00075759,-0
 .00041140,0.00010561,-0.00027835,-0.00011278,0.00124642,-0.00000449,0.
 00059684,0.00270117,-0.00107424,0.00332875,-0.01633428,0.01368412,-0.0
 2295721,0.13867826,-0.11255685,0.28656918\\0.00000028,-0.00000097,0.00
 000073,-0.00000095,0.00000256,0.00000079,-0.00000088,-0.00000115,-0.00
 000030,-0.00000052,0.00000007,0.00000013,0.00000119,0.00000002,-0.0000
 0128,-0.00000096,-0.00000029,0.00000267,-0.00000071,0.00000045,-0.0000
 0021,-0.00000029,-0.00000005,0.00000027,0.00000029,0.00000028,-0.00000
 020,0.00000021,-0.00000052,-0.00000030,-0.00000024,-0.00000045,-0.0000
 0037,0.00000055,0.00000018,-0.00000058,-0.00000154,0.00000064,-0.00000
 105,0.00000059,0.00000213,-0.00000071,0.00000328,-0.00000066,0.0000008
 8,0.00000021,-0.00000009,-0.00000031,0.00000017,0.00000096,0.00000015,
 -0.00000013,-0.00000016,0.00000010,0.00000026,0.00000026,0.00000041,-0
 .00000069,0.00000011,-0.00000037,0.00000006,0.00000005,-0.00000012,0.0
 0000005,-0.00000051,-0.00000021,0.00000010,-0.00000039,-0.00000028,0.0
 0000104,-0.00000078,-0.00000088,0.00000064,-0.00000093,0.00000061,-0.0
 0000181,-0.00000028,-0.00000033,0.00000091,-0.00000039,0.00000047,-0.0
 0000111,-0.00000026,-0.00000019,-0.00000012,-0.00000013,0.00000005,0.0
 0000018,0.00000011,0.00000029,-0.00000007,0.00000021,0.00000012\\\@


 IT IS THE BEHAVIOR AND DISTRIBUTION OF THE ELECTRONS 
 AROUND THE NUCLEUS THAT GIVES THE FUNDAMENTAL 
 CHARACTER OF AN ATOM:  IT MUST BE THE SAME FOR MOLECULES.

                               -- C. A. COULSON, 1951
 Job cpu time:       0 days  2 hours  6 minutes 36.1 seconds.
 File lengths (MBytes):  RWF=    458 Int=      0 D2E=      0 Chk=     13 Scr=      1
 Normal termination of Gaussian 09 at Wed Jul 28 23:28:16 2021.
