 Entering Gaussian System, Link 0=g09
 Input=opt_freq-conf-661.com
 Output=opt_freq-conf-661.log
 Initial command:
 /aerosol/software/g09/l1.exe "/scratch/nicole/10692/Gau-84122.inp" -scrdir="/scratch/nicole/10692/"
 Entering Link 1 = /aerosol/software/g09/l1.exe PID=     84127.
  
 Copyright (c) 1988,1990,1992,1993,1995,1998,2003,2009,2013,
            Gaussian, Inc.  All Rights Reserved.
  
 This is part of the Gaussian(R) 09 program.  It is based on
 the Gaussian(R) 03 system (copyright 2003, Gaussian, Inc.),
 the Gaussian(R) 98 system (copyright 1998, Gaussian, Inc.),
 the Gaussian(R) 94 system (copyright 1995, Gaussian, Inc.),
 the Gaussian 92(TM) system (copyright 1992, Gaussian, Inc.),
 the Gaussian 90(TM) system (copyright 1990, Gaussian, Inc.),
 the Gaussian 88(TM) system (copyright 1988, Gaussian, Inc.),
 the Gaussian 86(TM) system (copyright 1986, Carnegie Mellon
 University), and the Gaussian 82(TM) system (copyright 1983,
 Carnegie Mellon University). Gaussian is a federally registered
 trademark of Gaussian, Inc.
  
 This software contains proprietary and confidential information,
 including trade secrets, belonging to Gaussian, Inc.
  
 This software is provided under written license and may be
 used, copied, transmitted, or stored only in accord with that
 written license.
  
 The following legend is applicable only to US Government
 contracts under FAR:
  
                    RESTRICTED RIGHTS LEGEND
  
 Use, reproduction and disclosure by the US Government is
 subject to restrictions as set forth in subparagraphs (a)
 and (c) of the Commercial Computer Software - Restricted
 Rights clause in FAR 52.227-19.
  
 Gaussian, Inc.
 340 Quinnipiac St., Bldg. 40, Wallingford CT 06492
  
  
 ---------------------------------------------------------------
 Warning -- This program may not be used in any manner that
 competes with the business of Gaussian, Inc. or will provide
 assistance to any competitor of Gaussian, Inc.  The licensee
 of this program is prohibited from giving any competitor of
 Gaussian, Inc. access to this program.  By using this program,
 the user acknowledges that Gaussian, Inc. is engaged in the
 business of creating and licensing software in the field of
 computational chemistry and represents and warrants to the
 licensee that it is not a competitor of Gaussian, Inc. and that
 it will not use this program in any manner prohibited above.
 ---------------------------------------------------------------
  

 Cite this work as:
 Gaussian 09, Revision D.01,
 M. J. Frisch, G. W. Trucks, H. B. Schlegel, G. E. Scuseria, 
 M. A. Robb, J. R. Cheeseman, G. Scalmani, V. Barone, B. Mennucci, 
 G. A. Petersson, H. Nakatsuji, M. Caricato, X. Li, H. P. Hratchian, 
 A. F. Izmaylov, J. Bloino, G. Zheng, J. L. Sonnenberg, M. Hada, 
 M. Ehara, K. Toyota, R. Fukuda, J. Hasegawa, M. Ishida, T. Nakajima, 
 Y. Honda, O. Kitao, H. Nakai, T. Vreven, J. A. Montgomery, Jr., 
 J. E. Peralta, F. Ogliaro, M. Bearpark, J. J. Heyd, E. Brothers, 
 K. N. Kudin, V. N. Staroverov, T. Keith, R. Kobayashi, J. Normand, 
 K. Raghavachari, A. Rendell, J. C. Burant, S. S. Iyengar, J. Tomasi, 
 M. Cossi, N. Rega, J. M. Millam, M. Klene, J. E. Knox, J. B. Cross, 
 V. Bakken, C. Adamo, J. Jaramillo, R. Gomperts, R. E. Stratmann, 
 O. Yazyev, A. J. Austin, R. Cammi, C. Pomelli, J. W. Ochterski, 
 R. L. Martin, K. Morokuma, V. G. Zakrzewski, G. A. Voth, 
 P. Salvador, J. J. Dannenberg, S. Dapprich, A. D. Daniels, 
 O. Farkas, J. B. Foresman, J. V. Ortiz, J. Cioslowski, 
 and D. J. Fox, Gaussian, Inc., Wallingford CT, 2013.
 
 ******************************************
 Gaussian 09:  ES64L-G09RevD.01 24-Apr-2013
                28-Jul-2021 
 ******************************************
 %mem=2gb
 %nproc=4
 Will use up to    4 processors via shared memory.
 %chk=conf-661.chk
 ----------------------------------------------------------------------
 # B3LYP/6-311G(d,p) opt=calcfc freq=noraman nosymm integral(ultrafineg
 rid)
 ----------------------------------------------------------------------
 1/10=4,14=-1,18=20,19=15,26=4,38=1/1,3;
 2/9=110,12=2,15=1,17=6,18=5,40=1/2;
 3/5=4,6=6,7=101,11=2,16=1,25=1,30=1,71=2,74=-5,75=-5,140=1/1,2,3;
 4//1;
 5/5=2,38=5/2;
 8/6=4,10=90,11=11/1;
 11/6=1,8=1,9=11,15=111,16=1,31=1/1,2,10;
 10/6=1,13=1,31=1/2;
 6/7=2,8=2,9=2,10=2,28=1/1;
 7/10=1,18=20,25=1,30=1/1,2,3,16;
 1/10=4,14=-1,18=20,19=15,26=4/3(2);
 2/9=110,15=1/2;
 99//99;
 2/9=110,15=1/2;
 3/5=4,6=6,7=101,11=2,16=1,25=1,30=1,71=1,74=-5,75=-5/1,2,3;
 4/5=5,16=3,69=1/1;
 5/5=2,38=5/2;
 7/30=1/1,2,3,16;
 1/14=-1,18=20,19=15,26=4/3(-5);
 2/9=110,15=1/2;
 6/7=2,8=2,9=2,10=2,19=2,28=1/1;
 99/9=1/99;
 ------------------------------------------------------------
 Candidate Structure: Conf:661 OPT and FREQ calc in gas phase
 ------------------------------------------------------------
 Symbolic Z-matrix:
 Charge =  1 Multiplicity = 1
 O                     1.32423   1.81349   0.5401 
 C                     1.12207   1.00651  -0.35344 
 N                     0.17682   0.02404  -0.25786 
 C                    -0.31161  -0.34442   1.05573 
 C                     0.59774  -1.40463   1.66885 
 O                     0.55837  -1.51997   3.00838 
 O                     1.29808  -2.13154   1.01585 
 C                    -1.74475  -0.88705   0.99962 
 C                    -2.7214    0.07774   0.39446 
 C                    -3.37941   0.07444  -0.80347 
 N                    -4.15506   1.20955  -0.94796 
 C                    -3.97043   1.8909    0.15893 
 N                    -3.11353   1.25308   1.00056 
 C                     1.92472   0.99132  -1.63242 
 C                     3.26497   0.28644  -1.39996 
 N                     3.12214  -1.17546  -1.18576 
 H                     0.26239  -0.73584  -0.91142 
 H                    -0.2515    0.56273   1.65523 
 H                    -0.03134  -0.85479   3.38157 
 H                    -2.05656  -1.16569   2.00948 
 H                    -1.75475  -1.79756   0.3993 
 H                    -3.32711  -0.68071  -1.57624 
 H                    -4.42189   2.83492   0.40909 
 H                    -2.82052   1.58386   1.90623 
 H                     2.11161   2.02859  -1.9138 
 H                     1.37537   0.49569  -2.4359 
 H                     3.74155   0.73644  -0.52457 
 H                     3.92106   0.46505  -2.25448 
 H                     4.03225  -1.62419  -1.05353 
 H                     2.55445  -1.40133  -0.36187 
 H                     2.67164  -1.61148  -1.9907 
 

 GradGradGradGradGradGradGradGradGradGradGradGradGradGradGradGradGradGrad
 Berny optimization.
 Initialization pass.
                           ----------------------------
                           !    Initial Parameters    !
                           ! (Angstroms and Degrees)  !
 --------------------------                            --------------------------
 ! Name  Definition              Value          Derivative Info.                !
 --------------------------------------------------------------------------------
 ! R1    R(1,2)                  1.2209         calculate D2E/DX2 analytically  !
 ! R2    R(2,3)                  1.3667         calculate D2E/DX2 analytically  !
 ! R3    R(2,14)                 1.5101         calculate D2E/DX2 analytically  !
 ! R4    R(3,4)                  1.4491         calculate D2E/DX2 analytically  !
 ! R5    R(3,17)                 1.0059         calculate D2E/DX2 analytically  !
 ! R6    R(4,5)                  1.5254         calculate D2E/DX2 analytically  !
 ! R7    R(4,8)                  1.5335         calculate D2E/DX2 analytically  !
 ! R8    R(4,18)                 1.089          calculate D2E/DX2 analytically  !
 ! R9    R(5,6)                  1.3451         calculate D2E/DX2 analytically  !
 ! R10   R(5,7)                  1.2022         calculate D2E/DX2 analytically  !
 ! R11   R(6,19)                 0.9641         calculate D2E/DX2 analytically  !
 ! R12   R(8,9)                  1.5003         calculate D2E/DX2 analytically  !
 ! R13   R(8,20)                 1.093          calculate D2E/DX2 analytically  !
 ! R14   R(8,21)                 1.0907         calculate D2E/DX2 analytically  !
 ! R15   R(9,10)                 1.3668         calculate D2E/DX2 analytically  !
 ! R16   R(9,13)                 1.3793         calculate D2E/DX2 analytically  !
 ! R17   R(10,11)                1.3824         calculate D2E/DX2 analytically  !
 ! R18   R(10,22)                1.0817         calculate D2E/DX2 analytically  !
 ! R19   R(11,12)                1.3128         calculate D2E/DX2 analytically  !
 ! R20   R(12,13)                1.3599         calculate D2E/DX2 analytically  !
 ! R21   R(12,23)                1.0759         calculate D2E/DX2 analytically  !
 ! R22   R(13,24)                1.0077         calculate D2E/DX2 analytically  !
 ! R23   R(14,15)                1.532          calculate D2E/DX2 analytically  !
 ! R24   R(14,25)                1.0909         calculate D2E/DX2 analytically  !
 ! R25   R(14,26)                1.0923         calculate D2E/DX2 analytically  !
 ! R26   R(15,16)                1.4844         calculate D2E/DX2 analytically  !
 ! R27   R(15,27)                1.0936         calculate D2E/DX2 analytically  !
 ! R28   R(15,28)                1.092          calculate D2E/DX2 analytically  !
 ! R29   R(16,29)                1.0233         calculate D2E/DX2 analytically  !
 ! R30   R(16,30)                1.0257         calculate D2E/DX2 analytically  !
 ! R31   R(16,31)                1.0203         calculate D2E/DX2 analytically  !
 ! A1    A(1,2,3)              122.5816         calculate D2E/DX2 analytically  !
 ! A2    A(1,2,14)             122.584          calculate D2E/DX2 analytically  !
 ! A3    A(3,2,14)             114.8107         calculate D2E/DX2 analytically  !
 ! A4    A(2,3,4)              118.6396         calculate D2E/DX2 analytically  !
 ! A5    A(2,3,17)             116.0248         calculate D2E/DX2 analytically  !
 ! A6    A(4,3,17)             115.1862         calculate D2E/DX2 analytically  !
 ! A7    A(3,4,5)              109.886          calculate D2E/DX2 analytically  !
 ! A8    A(3,4,8)              111.8279         calculate D2E/DX2 analytically  !
 ! A9    A(3,4,18)             105.582          calculate D2E/DX2 analytically  !
 ! A10   A(5,4,8)              109.0202         calculate D2E/DX2 analytically  !
 ! A11   A(5,4,18)             108.9531         calculate D2E/DX2 analytically  !
 ! A12   A(8,4,18)             111.4993         calculate D2E/DX2 analytically  !
 ! A13   A(4,5,6)              116.2593         calculate D2E/DX2 analytically  !
 ! A14   A(4,5,7)              123.3129         calculate D2E/DX2 analytically  !
 ! A15   A(6,5,7)              120.4069         calculate D2E/DX2 analytically  !
 ! A16   A(5,6,19)             110.1352         calculate D2E/DX2 analytically  !
 ! A17   A(4,8,9)              113.3029         calculate D2E/DX2 analytically  !
 ! A18   A(4,8,20)             108.8461         calculate D2E/DX2 analytically  !
 ! A19   A(4,8,21)             108.9124         calculate D2E/DX2 analytically  !
 ! A20   A(9,8,20)             110.5424         calculate D2E/DX2 analytically  !
 ! A21   A(9,8,21)             107.9907         calculate D2E/DX2 analytically  !
 ! A22   A(20,8,21)            107.044          calculate D2E/DX2 analytically  !
 ! A23   A(8,9,10)             131.712          calculate D2E/DX2 analytically  !
 ! A24   A(8,9,13)             123.7646         calculate D2E/DX2 analytically  !
 ! A25   A(10,9,13)            104.4972         calculate D2E/DX2 analytically  !
 ! A26   A(9,10,11)            111.0856         calculate D2E/DX2 analytically  !
 ! A27   A(9,10,22)            127.1963         calculate D2E/DX2 analytically  !
 ! A28   A(11,10,22)           121.7136         calculate D2E/DX2 analytically  !
 ! A29   A(10,11,12)           105.0176         calculate D2E/DX2 analytically  !
 ! A30   A(11,12,13)           111.5303         calculate D2E/DX2 analytically  !
 ! A31   A(11,12,23)           126.3273         calculate D2E/DX2 analytically  !
 ! A32   A(13,12,23)           122.1422         calculate D2E/DX2 analytically  !
 ! A33   A(9,13,12)            107.8687         calculate D2E/DX2 analytically  !
 ! A34   A(9,13,24)            126.2962         calculate D2E/DX2 analytically  !
 ! A35   A(12,13,24)           125.8351         calculate D2E/DX2 analytically  !
 ! A36   A(2,14,15)            109.9447         calculate D2E/DX2 analytically  !
 ! A37   A(2,14,25)            107.4551         calculate D2E/DX2 analytically  !
 ! A38   A(2,14,26)            111.1172         calculate D2E/DX2 analytically  !
 ! A39   A(15,14,25)           109.0712         calculate D2E/DX2 analytically  !
 ! A40   A(15,14,26)           110.0499         calculate D2E/DX2 analytically  !
 ! A41   A(25,14,26)           109.1402         calculate D2E/DX2 analytically  !
 ! A42   A(14,15,16)           113.0066         calculate D2E/DX2 analytically  !
 ! A43   A(14,15,27)           108.2627         calculate D2E/DX2 analytically  !
 ! A44   A(14,15,28)           109.3657         calculate D2E/DX2 analytically  !
 ! A45   A(16,15,27)           109.3707         calculate D2E/DX2 analytically  !
 ! A46   A(16,15,28)           109.3779         calculate D2E/DX2 analytically  !
 ! A47   A(27,15,28)           107.2924         calculate D2E/DX2 analytically  !
 ! A48   A(15,16,29)           111.4043         calculate D2E/DX2 analytically  !
 ! A49   A(15,16,30)           112.7081         calculate D2E/DX2 analytically  !
 ! A50   A(15,16,31)           110.4579         calculate D2E/DX2 analytically  !
 ! A51   A(29,16,30)           106.9705         calculate D2E/DX2 analytically  !
 ! A52   A(29,16,31)           107.8933         calculate D2E/DX2 analytically  !
 ! A53   A(30,16,31)           107.1698         calculate D2E/DX2 analytically  !
 ! D1    D(1,2,3,4)            -19.3676         calculate D2E/DX2 analytically  !
 ! D2    D(1,2,3,17)          -163.0987         calculate D2E/DX2 analytically  !
 ! D3    D(14,2,3,4)           158.905          calculate D2E/DX2 analytically  !
 ! D4    D(14,2,3,17)           15.1739         calculate D2E/DX2 analytically  !
 ! D5    D(1,2,14,15)           80.1502         calculate D2E/DX2 analytically  !
 ! D6    D(1,2,14,25)          -38.4355         calculate D2E/DX2 analytically  !
 ! D7    D(1,2,14,26)         -157.7689         calculate D2E/DX2 analytically  !
 ! D8    D(3,2,14,15)          -98.1224         calculate D2E/DX2 analytically  !
 ! D9    D(3,2,14,25)          143.292          calculate D2E/DX2 analytically  !
 ! D10   D(3,2,14,26)           23.9586         calculate D2E/DX2 analytically  !
 ! D11   D(2,3,4,5)            -86.6939         calculate D2E/DX2 analytically  !
 ! D12   D(2,3,4,8)            152.0936         calculate D2E/DX2 analytically  !
 ! D13   D(2,3,4,18)            30.657          calculate D2E/DX2 analytically  !
 ! D14   D(17,3,4,5)            57.3305         calculate D2E/DX2 analytically  !
 ! D15   D(17,3,4,8)           -63.882          calculate D2E/DX2 analytically  !
 ! D16   D(17,3,4,18)          174.6814         calculate D2E/DX2 analytically  !
 ! D17   D(3,4,5,6)            158.3706         calculate D2E/DX2 analytically  !
 ! D18   D(3,4,5,7)            -23.2929         calculate D2E/DX2 analytically  !
 ! D19   D(8,4,5,6)            -78.7465         calculate D2E/DX2 analytically  !
 ! D20   D(8,4,5,7)             99.59           calculate D2E/DX2 analytically  !
 ! D21   D(18,4,5,6)            43.1413         calculate D2E/DX2 analytically  !
 ! D22   D(18,4,5,7)          -138.5222         calculate D2E/DX2 analytically  !
 ! D23   D(3,4,8,9)            -57.6001         calculate D2E/DX2 analytically  !
 ! D24   D(3,4,8,20)           178.9828         calculate D2E/DX2 analytically  !
 ! D25   D(3,4,8,21)            62.6025         calculate D2E/DX2 analytically  !
 ! D26   D(5,4,8,9)           -179.3124         calculate D2E/DX2 analytically  !
 ! D27   D(5,4,8,20)            57.2706         calculate D2E/DX2 analytically  !
 ! D28   D(5,4,8,21)           -59.1097         calculate D2E/DX2 analytically  !
 ! D29   D(18,4,8,9)            60.3545         calculate D2E/DX2 analytically  !
 ! D30   D(18,4,8,20)          -63.0626         calculate D2E/DX2 analytically  !
 ! D31   D(18,4,8,21)         -179.4429         calculate D2E/DX2 analytically  !
 ! D32   D(4,5,6,19)            -2.9337         calculate D2E/DX2 analytically  !
 ! D33   D(7,5,6,19)           178.6781         calculate D2E/DX2 analytically  !
 ! D34   D(4,8,9,10)           108.6852         calculate D2E/DX2 analytically  !
 ! D35   D(4,8,9,13)           -69.1483         calculate D2E/DX2 analytically  !
 ! D36   D(20,8,9,10)         -128.8347         calculate D2E/DX2 analytically  !
 ! D37   D(20,8,9,13)           53.3319         calculate D2E/DX2 analytically  !
 ! D38   D(21,8,9,10)          -12.0404         calculate D2E/DX2 analytically  !
 ! D39   D(21,8,9,13)          170.1262         calculate D2E/DX2 analytically  !
 ! D40   D(8,9,10,11)         -177.9618         calculate D2E/DX2 analytically  !
 ! D41   D(8,9,10,22)            1.267          calculate D2E/DX2 analytically  !
 ! D42   D(13,9,10,11)           0.1779         calculate D2E/DX2 analytically  !
 ! D43   D(13,9,10,22)         179.4068         calculate D2E/DX2 analytically  !
 ! D44   D(8,9,13,12)          178.3006         calculate D2E/DX2 analytically  !
 ! D45   D(8,9,13,24)           -1.761          calculate D2E/DX2 analytically  !
 ! D46   D(10,9,13,12)          -0.0291         calculate D2E/DX2 analytically  !
 ! D47   D(10,9,13,24)         179.9094         calculate D2E/DX2 analytically  !
 ! D48   D(9,10,11,12)          -0.2599         calculate D2E/DX2 analytically  !
 ! D49   D(22,10,11,12)       -179.5378         calculate D2E/DX2 analytically  !
 ! D50   D(10,11,12,13)          0.239          calculate D2E/DX2 analytically  !
 ! D51   D(10,11,12,23)       -179.5856         calculate D2E/DX2 analytically  !
 ! D52   D(11,12,13,9)          -0.1372         calculate D2E/DX2 analytically  !
 ! D53   D(11,12,13,24)        179.9239         calculate D2E/DX2 analytically  !
 ! D54   D(23,12,13,9)         179.6958         calculate D2E/DX2 analytically  !
 ! D55   D(23,12,13,24)         -0.243          calculate D2E/DX2 analytically  !
 ! D56   D(2,14,15,16)          69.9412         calculate D2E/DX2 analytically  !
 ! D57   D(2,14,15,27)         -51.3624         calculate D2E/DX2 analytically  !
 ! D58   D(2,14,15,28)        -167.9634         calculate D2E/DX2 analytically  !
 ! D59   D(25,14,15,16)       -172.4727         calculate D2E/DX2 analytically  !
 ! D60   D(25,14,15,27)         66.2237         calculate D2E/DX2 analytically  !
 ! D61   D(25,14,15,28)        -50.3773         calculate D2E/DX2 analytically  !
 ! D62   D(26,14,15,16)        -52.7714         calculate D2E/DX2 analytically  !
 ! D63   D(26,14,15,27)       -174.075          calculate D2E/DX2 analytically  !
 ! D64   D(26,14,15,28)         69.324          calculate D2E/DX2 analytically  !
 ! D65   D(14,15,16,29)        178.7588         calculate D2E/DX2 analytically  !
 ! D66   D(14,15,16,30)        -60.9842         calculate D2E/DX2 analytically  !
 ! D67   D(14,15,16,31)         58.8614         calculate D2E/DX2 analytically  !
 ! D68   D(27,15,16,29)        -60.5662         calculate D2E/DX2 analytically  !
 ! D69   D(27,15,16,30)         59.6908         calculate D2E/DX2 analytically  !
 ! D70   D(27,15,16,31)        179.5363         calculate D2E/DX2 analytically  !
 ! D71   D(28,15,16,29)         56.6703         calculate D2E/DX2 analytically  !
 ! D72   D(28,15,16,30)        176.9273         calculate D2E/DX2 analytically  !
 ! D73   D(28,15,16,31)        -63.2272         calculate D2E/DX2 analytically  !
 --------------------------------------------------------------------------------
 Trust Radius=3.00D-01 FncErr=1.00D-07 GrdErr=1.00D-06
 Number of steps in this run=    167 maximum allowed number of steps=    186.
 GradGradGradGradGradGradGradGradGradGradGradGradGradGradGradGradGradGrad

                          Input orientation:                          
 ---------------------------------------------------------------------
 Center     Atomic      Atomic             Coordinates (Angstroms)
 Number     Number       Type             X           Y           Z
 ---------------------------------------------------------------------
      1          8           0        1.324230    1.813489    0.540098
      2          6           0        1.122074    1.006515   -0.353441
      3          7           0        0.176817    0.024036   -0.257862
      4          6           0       -0.311607   -0.344423    1.055726
      5          6           0        0.597744   -1.404631    1.668846
      6          8           0        0.558372   -1.519972    3.008380
      7          8           0        1.298083   -2.131538    1.015852
      8          6           0       -1.744746   -0.887049    0.999625
      9          6           0       -2.721402    0.077743    0.394459
     10          6           0       -3.379410    0.074437   -0.803466
     11          7           0       -4.155064    1.209552   -0.947962
     12          6           0       -3.970433    1.890901    0.158934
     13          7           0       -3.113529    1.253076    1.000558
     14          6           0        1.924723    0.991316   -1.632417
     15          6           0        3.264969    0.286443   -1.399957
     16          7           0        3.122144   -1.175457   -1.185759
     17          1           0        0.262385   -0.735838   -0.911425
     18          1           0       -0.251500    0.562729    1.655229
     19          1           0       -0.031336   -0.854794    3.381571
     20          1           0       -2.056564   -1.165693    2.009484
     21          1           0       -1.754749   -1.797564    0.399302
     22          1           0       -3.327112   -0.680712   -1.576235
     23          1           0       -4.421885    2.834916    0.409089
     24          1           0       -2.820524    1.583857    1.906229
     25          1           0        2.111610    2.028590   -1.913800
     26          1           0        1.375365    0.495690   -2.435900
     27          1           0        3.741549    0.736445   -0.524567
     28          1           0        3.921059    0.465053   -2.254483
     29          1           0        4.032249   -1.624195   -1.053526
     30          1           0        2.554447   -1.401334   -0.361874
     31          1           0        2.671637   -1.611483   -1.990702
 ---------------------------------------------------------------------
                    Distance matrix (angstroms):
                    1          2          3          4          5
     1  O    0.000000
     2  C    1.220855   0.000000
     3  N    2.270560   1.366716   0.000000
     4  C    2.756524   2.422030   1.449081   0.000000
     5  C    3.486854   3.190327   2.435256   1.525410   0.000000
     6  O    4.217928   4.242963   3.632888   2.439597   1.345067
     7  O    3.973697   3.428311   2.743371   2.405509   1.202193
     8  C    4.113719   3.692564   2.470577   1.533453   2.490584
     9  C    4.404675   4.024212   2.971209   2.534287   3.852042
    10  C    5.191695   4.618945   3.598190   3.611572   4.910980
    11  N    5.709792   5.314402   4.543884   4.604538   6.022527
    12  C    5.308930   5.194064   4.567120   4.380401   5.831690
    13  N    4.496642   4.453587   3.731024   3.225804   4.613412
    14  C    2.399246   1.510051   2.424914   3.743192   4.289495
    15  C    3.140406   2.491124   3.303017   4.384093   4.403563
    16  N    3.891642   3.074741   3.312812   4.183960   3.817575
    17  H    3.119856   2.021436   1.005919   2.086230   2.686549
    18  H    2.300184   2.473542   2.033117   1.089010   2.142874
    19  H    4.126895   4.329566   3.749819   2.397620   1.905647
    20  H    4.739662   4.517261   3.397691   2.151514   2.686723
    21  H    4.747593   4.087247   2.735148   2.150621   2.701918
    22  H    5.686377   4.912964   3.809500   4.016663   5.143841
    23  H    5.837663   5.887274   5.430832   5.236480   6.690099
    24  H    4.370129   4.580776   4.012528   3.276626   4.546643
    25  H    2.586087   2.111525   3.240955   4.507911   5.187884
    26  H    3.255115   2.159105   2.530381   3.967760   4.589646
    27  H    2.852537   2.638915   3.644993   4.482598   4.390760
    28  H    4.046169   3.426581   4.266186   5.433986   5.471073
    29  H    4.657325   3.984955   4.267798   4.995583   4.388090
    30  H    3.558381   2.801695   2.774099   3.367628   2.820021
    31  H    4.466642   3.454806   3.449896   4.448136   4.211426
                    6          7          8          9         10
     6  O    0.000000
     7  O    2.211640   0.000000
     8  C    3.120904   3.287526   0.000000
     9  C    4.488005   4.628533   1.500302   0.000000
    10  C    5.707752   5.482261   2.616814   1.366751   0.000000
    11  N    6.731970   6.690013   3.741452   2.266820   1.382391
    12  C    6.345350   6.683681   3.657519   2.214292   2.138940
    13  N    5.020358   5.560411   2.540414   1.379322   2.171264
    14  C    5.450731   4.142248   4.890900   5.150662   5.446251
    15  C    5.479255   3.943527   5.677352   6.253010   6.674468
    16  N    4.927719   3.014694   5.342817   6.181798   6.631635
    17  H    4.008408   2.595197   2.775527   3.357117   3.732408
    18  H    2.612384   3.173183   2.182076   2.815168   4.008420
    19  H    0.964100   2.999009   2.934362   4.126611   5.439449
    20  H    2.821559   3.629576   1.093019   2.143933   3.346720
    21  H    3.497838   3.132324   1.090654   2.109791   2.755098
    22  H    6.067951   5.496930   3.030101   2.196764   1.081738
    23  H    7.108046   7.599465   4.622643   3.239423   3.190186
    24  H    4.718625   5.617816   2.843343   2.136271   3.151690
    25  H    6.263600   5.152800   5.644508   5.700164   5.933199
    26  H    5.862640   4.338536   4.842509   4.996911   5.044817
    27  H    5.263625   4.070472   5.921008   6.561116   7.157101
    28  H    6.553298   4.931266   6.672237   7.161647   7.453514
    29  H    5.345817   3.466322   6.175151   7.113723   7.607928
    30  H    3.918801   2.002443   4.538858   5.531211   6.130544
    31  H    5.428175   3.346113   5.382500   6.134114   6.392732
                   11         12         13         14         15
    11  N    0.000000
    12  C    1.312839   0.000000
    13  N    2.209847   1.359939   0.000000
    14  C    6.122084   6.226641   5.690787   0.000000
    15  C    7.490883   7.573340   6.883465   1.532039   0.000000
    16  N    7.661760   7.843175   7.039984   2.515596   1.484396
    17  H    4.826980   5.095309   4.359846   2.503249   3.209242
    18  H    4.736328   4.222961   3.016021   3.965886   4.666482
    19  H    6.325466   5.782794   4.428572   5.689847   5.918704
    20  H    4.334972   4.053418   2.825872   5.810919   6.484729
    21  H    4.076688   4.309502   3.393258   5.044229   5.725206
    22  H    2.157158   3.168259   3.228780   5.511860   6.664983
    23  H    2.134149   1.075896   2.136317   6.917083   8.297897
    24  H    3.172934   2.114144   1.007724   5.948990   7.046089
    25  H    6.393346   6.427008   6.032991   1.090890   2.151592
    26  H    5.771413   6.103879   5.703775   1.092256   2.165079
    27  H    7.922096   7.827810   7.041663   2.143163   1.093589
    28  H    8.214928   8.374561   7.791130   2.156218   1.092048
    29  H    8.664489   8.824334   7.972459   3.408471   2.087886
    30  H    7.223418   7.326944   6.405316   2.781295   2.105005
    31  H    7.459853   7.810552   7.114878   2.731449   2.074403
                   16         17         18         19         20
    16  N    0.000000
    17  H    2.906328   0.000000
    18  H    4.740673   2.921997   0.000000
    19  H    5.559475   4.304675   2.244571   0.000000
    20  H    6.085121   3.754199   2.524123   2.465934   0.000000
    21  H    5.165609   2.629467   3.067262   3.571119   1.755859
    22  H    6.479980   3.650959   4.631187   5.955861   3.834955
    23  H    8.691318   6.036259   4.909970   6.459607   4.915372
    24  H    7.244963   4.777497   2.775893   3.987884   2.855577
    25  H    3.437606   3.473679   4.524490   6.398990   6.555096
    26  H    2.721547   2.253755   4.403241   6.135600   5.856601
    27  H    2.115705   3.797612   4.552597   5.659030   6.607395
    28  H    2.114642   4.078215   5.718885   7.009174   7.521485
    29  H    1.023300   3.875725   5.520009   6.064222   6.831245
    30  H    1.025712   2.449171   3.974870   4.582397   5.190404
    31  H    1.020298   2.781383   5.154100   6.061349   6.209356
                   21         22         23         24         25
    21  H    0.000000
    22  H    2.760875   0.000000
    23  H    5.345427   4.183262   0.000000
    24  H    3.852365   4.184789   2.524071   0.000000
    25  H    5.910890   6.085554   6.980869   6.254306   0.000000
    26  H    4.805726   4.923031   6.868337   6.135444   1.778884
    27  H    6.122420   7.285623   8.480387   7.048949   2.501261
    28  H    6.661592   7.369449   9.072794   8.000761   2.415537
    29  H    5.969096   7.437982   9.669297   8.124791   4.215657
    30  H    4.393809   6.048695   8.198135   6.553317   3.790640
    31  H    5.033849   6.084662   8.709049   7.453865   3.683705
                   26         27         28         29         30
    26  H    0.000000
    27  H    3.051226   0.000000
    28  H    2.552333   1.760251   0.000000
    29  H    3.669319   2.436580   2.412388   0.000000
    30  H    3.048035   2.450669   2.988812   1.646799   0.000000
    31  H    2.513703   2.967664   2.437753   1.652188   1.646504
                   31
    31  H    0.000000
 Symmetry turned off by external request.
 Stoichiometry    C9H15N4O3(1+)
 Framework group  C1[X(C9H15N4O3)]
 Deg. of freedom    87
 Full point group                 C1      NOp   1
 Rotational constants (GHZ):      0.7596368      0.3268271      0.2692534
 Standard basis: 6-311G(d,p) (5D, 7F)
   378 basis functions,   632 primitive gaussians,   394 cartesian basis functions
    60 alpha electrons       60 beta electrons
       nuclear repulsion energy      1156.3936016042 Hartrees.
 NAtoms=   31 NActive=   31 NUniq=   31 SFac= 1.00D+00 NAtFMM=   60 NAOKFM=F Big=F
 Integral buffers will be    131072 words long.
 Raffenetti 2 integral format.
 Two-electron integral symmetry is turned off.
 One-electron integrals computed using PRISM.
 NBasis=   378 RedAO= T EigKep=  5.17D-04  NBF=   378
 NBsUse=   378 1.00D-06 EigRej= -1.00D+00 NBFU=   378
 ExpMin= 1.03D-01 ExpMax= 8.59D+03 ExpMxC= 1.30D+03 IAcc=3 IRadAn=         5 AccDes= 0.00D+00
 Harris functional with IExCor=  402 and IRadAn=       5 diagonalized for initial guess.
 HarFok:  IExCor=  402 AccDes= 0.00D+00 IRadAn=         5 IDoV= 1 UseB2=F ITyADJ=14
 ICtDFT=  3500011 ScaDFX=  1.000000  1.000000  1.000000  1.000000
 FoFCou: FMM=F IPFlag=           0 FMFlag=      100000 FMFlg1=           0
         NFxFlg=           0 DoJE=T BraDBF=F KetDBF=T FulRan=T
         wScrn=  0.000000 ICntrl=     500 IOpCl=  0 I1Cent=   200000004 NGrid=           0
         NMat0=    1 NMatS0=      1 NMatT0=    0 NMatD0=    1 NMtDS0=    0 NMtDT0=    0
 Symmetry not used in FoFCou.
 Requested convergence on RMS density matrix=1.00D-08 within 128 cycles.
 Requested convergence on MAX density matrix=1.00D-06.
 Requested convergence on             energy=1.00D-06.
 No special actions if energy rises.
 Integral accuracy reduced to 1.0D-05 until final iterations.
 Initial convergence to 1.0D-05 achieved.  Increase integral accuracy.
 SCF Done:  E(RB3LYP) =  -796.670982189     A.U. after   14 cycles
            NFock= 14  Conv=0.87D-08     -V/T= 2.0033
 DoSCS=F DFT=T ScalE2(SS,OS)=  1.000000  1.000000
 Range of M.O.s used for correlation:     1   378
 NBasis=   378 NAE=    60 NBE=    60 NFC=     0 NFV=     0
 NROrb=    378 NOA=    60 NOB=    60 NVA=   318 NVB=   318
 Symmetrizing basis deriv contribution to polar:
 IMax=3 JMax=2 DiffMx= 0.00D+00
 G2DrvN: will do    32 centers at a time, making    1 passes.
 Calling FoFCou, ICntrl=  3107 FMM=F I1Cent=   0 AccDes= 0.00D+00.
 End of G2Drv F.D. properties file   721 does not exist.
 End of G2Drv F.D. properties file   722 does not exist.
 End of G2Drv F.D. properties file   788 does not exist.
          IDoAtm=1111111111111111111111111111111
          Differentiating once with respect to nuclear coordinates.
          There are    96 degrees of freedom in the 1st order CPHF.  IDoFFX=6 NUNeed=     0.
     90 vectors produced by pass  0 Test12= 1.99D-14 1.04D-09 XBig12= 1.56D-01 7.74D-02.
 AX will form    90 AO Fock derivatives at one time.
     90 vectors produced by pass  1 Test12= 1.99D-14 1.04D-09 XBig12= 1.44D-02 2.31D-02.
     90 vectors produced by pass  2 Test12= 1.99D-14 1.04D-09 XBig12= 1.34D-04 3.18D-03.
     90 vectors produced by pass  3 Test12= 1.99D-14 1.04D-09 XBig12= 4.71D-07 8.38D-05.
     90 vectors produced by pass  4 Test12= 1.99D-14 1.04D-09 XBig12= 8.83D-10 3.48D-06.
     79 vectors produced by pass  5 Test12= 1.99D-14 1.04D-09 XBig12= 1.22D-12 1.33D-07.
     24 vectors produced by pass  6 Test12= 1.99D-14 1.04D-09 XBig12= 1.36D-15 4.40D-09.
      2 vectors produced by pass  7 Test12= 1.99D-14 1.04D-09 XBig12= 2.45D-16 1.13D-09.
 InvSVY:  IOpt=1 It=  1 EMax= 5.00D-16
 Solved reduced A of dimension   555 with    96 vectors.
 End of Minotr F.D. properties file   721 does not exist.
 End of Minotr F.D. properties file   722 does not exist.
 End of Minotr F.D. properties file   788 does not exist.

 **********************************************************************

            Population analysis using the SCF density.

 **********************************************************************

 Alpha  occ. eigenvalues --  -19.31533 -19.26941 -19.23726 -14.62669 -14.49262
 Alpha  occ. eigenvalues --  -14.46498 -14.37914 -10.45997 -10.42567 -10.41704
 Alpha  occ. eigenvalues --  -10.37371 -10.35582 -10.32524 -10.31474 -10.30714
 Alpha  occ. eigenvalues --  -10.27749  -1.26291  -1.20540  -1.19434  -1.18511
 Alpha  occ. eigenvalues --   -1.11574  -1.08933  -0.97531  -0.96752  -0.93559
 Alpha  occ. eigenvalues --   -0.86894  -0.84369  -0.79459  -0.78566  -0.78166
 Alpha  occ. eigenvalues --   -0.76842  -0.74676  -0.71611  -0.71308  -0.69208
 Alpha  occ. eigenvalues --   -0.68808  -0.66121  -0.64683  -0.63893  -0.61345
 Alpha  occ. eigenvalues --   -0.60702  -0.60151  -0.58550  -0.57550  -0.56147
 Alpha  occ. eigenvalues --   -0.55265  -0.54414  -0.54172  -0.53273  -0.52015
 Alpha  occ. eigenvalues --   -0.51438  -0.50979  -0.50243  -0.47893  -0.44591
 Alpha  occ. eigenvalues --   -0.42346  -0.40677  -0.37794  -0.35982  -0.32973
 Alpha virt. eigenvalues --   -0.17612  -0.15454  -0.14309  -0.12313  -0.11329
 Alpha virt. eigenvalues --   -0.09282  -0.08594  -0.07285  -0.07091  -0.05731
 Alpha virt. eigenvalues --   -0.04821  -0.04655  -0.03609  -0.03406  -0.02364
 Alpha virt. eigenvalues --   -0.01129  -0.00616  -0.00169   0.01375   0.02090
 Alpha virt. eigenvalues --    0.03340   0.04597   0.05613   0.07418   0.08358
 Alpha virt. eigenvalues --    0.09057   0.10068   0.11170   0.11984   0.12607
 Alpha virt. eigenvalues --    0.13944   0.14346   0.15969   0.17011   0.18227
 Alpha virt. eigenvalues --    0.20393   0.21584   0.21854   0.22916   0.23817
 Alpha virt. eigenvalues --    0.23981   0.25597   0.26407   0.27396   0.28117
 Alpha virt. eigenvalues --    0.28366   0.29022   0.29179   0.31345   0.32573
 Alpha virt. eigenvalues --    0.33894   0.35028   0.35545   0.37087   0.37870
 Alpha virt. eigenvalues --    0.38720   0.39029   0.39698   0.40073   0.40558
 Alpha virt. eigenvalues --    0.41224   0.42079   0.42927   0.43959   0.44870
 Alpha virt. eigenvalues --    0.45355   0.45860   0.47075   0.47357   0.47666
 Alpha virt. eigenvalues --    0.48757   0.49466   0.50422   0.51178   0.52412
 Alpha virt. eigenvalues --    0.52979   0.53703   0.55278   0.55470   0.56960
 Alpha virt. eigenvalues --    0.57878   0.59794   0.60530   0.61905   0.63430
 Alpha virt. eigenvalues --    0.65192   0.65632   0.66230   0.68106   0.70099
 Alpha virt. eigenvalues --    0.71850   0.72819   0.73798   0.74140   0.76704
 Alpha virt. eigenvalues --    0.77826   0.79301   0.80428   0.81337   0.83372
 Alpha virt. eigenvalues --    0.85154   0.85562   0.87016   0.89976   0.90887
 Alpha virt. eigenvalues --    0.92038   0.93547   0.97065   0.97595   0.99821
 Alpha virt. eigenvalues --    1.01151   1.03446   1.04052   1.06226   1.06799
 Alpha virt. eigenvalues --    1.07843   1.09130   1.10225   1.11284   1.14080
 Alpha virt. eigenvalues --    1.15236   1.18194   1.19945   1.20757   1.22235
 Alpha virt. eigenvalues --    1.23834   1.26059   1.27479   1.27965   1.27994
 Alpha virt. eigenvalues --    1.30200   1.31641   1.32727   1.34012   1.35502
 Alpha virt. eigenvalues --    1.36736   1.38664   1.39660   1.40129   1.41806
 Alpha virt. eigenvalues --    1.42623   1.44283   1.44606   1.45798   1.46195
 Alpha virt. eigenvalues --    1.47613   1.49496   1.49733   1.50453   1.51469
 Alpha virt. eigenvalues --    1.51828   1.53330   1.54143   1.55357   1.56138
 Alpha virt. eigenvalues --    1.58401   1.59492   1.59769   1.62201   1.62490
 Alpha virt. eigenvalues --    1.62985   1.64416   1.65417   1.66233   1.67260
 Alpha virt. eigenvalues --    1.68002   1.69657   1.70617   1.73739   1.74745
 Alpha virt. eigenvalues --    1.75505   1.76738   1.79133   1.81364   1.83389
 Alpha virt. eigenvalues --    1.84866   1.86928   1.87354   1.90286   1.90976
 Alpha virt. eigenvalues --    1.92324   1.95435   1.97101   1.99008   2.00453
 Alpha virt. eigenvalues --    2.01508   2.04186   2.05260   2.07956   2.08930
 Alpha virt. eigenvalues --    2.10245   2.12627   2.14083   2.14916   2.15801
 Alpha virt. eigenvalues --    2.18889   2.19861   2.23275   2.24928   2.25741
 Alpha virt. eigenvalues --    2.26736   2.28254   2.32170   2.33039   2.33604
 Alpha virt. eigenvalues --    2.35695   2.37888   2.38097   2.39178   2.39827
 Alpha virt. eigenvalues --    2.41492   2.42863   2.43729   2.44831   2.46665
 Alpha virt. eigenvalues --    2.47895   2.48527   2.49838   2.50352   2.53041
 Alpha virt. eigenvalues --    2.53729   2.54761   2.57080   2.58059   2.60159
 Alpha virt. eigenvalues --    2.60427   2.61893   2.63031   2.63867   2.66040
 Alpha virt. eigenvalues --    2.68717   2.70514   2.71263   2.72753   2.73348
 Alpha virt. eigenvalues --    2.74311   2.75652   2.76310   2.77952   2.78308
 Alpha virt. eigenvalues --    2.78655   2.80103   2.82095   2.84694   2.85421
 Alpha virt. eigenvalues --    2.88414   2.88697   2.91096   2.91698   2.94769
 Alpha virt. eigenvalues --    2.99514   3.03643   3.04059   3.09606   3.13172
 Alpha virt. eigenvalues --    3.15439   3.19241   3.20232   3.25194   3.25849
 Alpha virt. eigenvalues --    3.28326   3.36226   3.37836   3.39250   3.43518
 Alpha virt. eigenvalues --    3.47855   3.52945   3.55686   3.56515   3.59760
 Alpha virt. eigenvalues --    3.62024   3.67934   3.69030   3.69138   3.69860
 Alpha virt. eigenvalues --    3.73219   3.74911   3.77797   3.83699   3.92785
 Alpha virt. eigenvalues --    3.94339   4.01177   4.07887   4.17781   4.32577
 Alpha virt. eigenvalues --    4.44432   4.45687   4.59081   4.66025   4.66727
 Alpha virt. eigenvalues --    4.69900   4.77590   4.79994   4.81816   4.82407
 Alpha virt. eigenvalues --    4.94193   4.95654   5.13919   5.15686   5.39503
 Alpha virt. eigenvalues --    5.52428   5.66347  23.58345  23.59230  23.63462
 Alpha virt. eigenvalues --   23.65875  23.69840  23.71899  23.76438  23.82358
 Alpha virt. eigenvalues --   24.04584  35.30842  35.41848  35.44970  35.59247
 Alpha virt. eigenvalues --   49.70413  49.84930  49.87126
          Condensed to atoms (all electrons):
               1          2          3          4          5          6
     1  O    7.830463   0.637629  -0.103295  -0.007596  -0.000194  -0.000046
     2  C    0.637629   4.652006   0.295109  -0.069560   0.001387  -0.000341
     3  N   -0.103295   0.295109   6.761820   0.204124  -0.031259   0.003860
     4  C   -0.007596  -0.069560   0.204124   5.590717   0.268395  -0.091142
     5  C   -0.000194   0.001387  -0.031259   0.268395   4.503512   0.365937
     6  O   -0.000046  -0.000341   0.003860  -0.091142   0.365937   7.713508
     7  O   -0.000071   0.003818  -0.002876  -0.096560   0.584540  -0.065978
     8  C    0.000552   0.006340  -0.033887   0.245733  -0.057504   0.003231
     9  C   -0.000225   0.000614  -0.010579  -0.088236   0.004015   0.000002
    10  C   -0.000002   0.000066   0.004284  -0.007759  -0.000177  -0.000005
    11  N    0.000000  -0.000007  -0.000034  -0.000278   0.000001   0.000000
    12  C   -0.000002   0.000022   0.000169   0.000244   0.000005   0.000000
    13  N   -0.000017   0.000259  -0.001239   0.005429   0.000092   0.000002
    14  C   -0.073172   0.301273  -0.090287   0.011047  -0.001737  -0.000011
    15  C   -0.000413  -0.069556  -0.005895  -0.000225   0.000903   0.000001
    16  N   -0.000183  -0.001603   0.002223   0.000076   0.000196  -0.000005
    17  H    0.003725  -0.022360   0.355975  -0.061804  -0.000857   0.000519
    18  H    0.035374  -0.013896  -0.034952   0.376479  -0.034945   0.003707
    19  H   -0.000283  -0.000069   0.000355   0.006440  -0.036422   0.316200
    20  H   -0.000012   0.000093   0.005837  -0.060893   0.001161   0.005154
    21  H   -0.000014  -0.000557  -0.004462  -0.035818  -0.004120  -0.000019
    22  H   -0.000001   0.000007   0.000390  -0.000135   0.000001   0.000000
    23  H    0.000000   0.000001   0.000004  -0.000009   0.000000   0.000000
    24  H   -0.000050   0.000012  -0.000004   0.000282  -0.000037  -0.000007
    25  H    0.005857  -0.023441   0.005405  -0.000454  -0.000006   0.000000
    26  H    0.003247  -0.041576   0.008619  -0.000101   0.000163  -0.000003
    27  H    0.011507  -0.004712   0.001725   0.000013   0.000350  -0.000008
    28  H   -0.000376   0.006513  -0.000509   0.000048  -0.000017   0.000000
    29  H   -0.000029  -0.000581  -0.000044   0.000009   0.000116  -0.000004
    30  H   -0.000424   0.006073   0.004274  -0.001385  -0.007152   0.000174
    31  H   -0.000018  -0.000697   0.001231  -0.000280   0.000062   0.000011
               7          8          9         10         11         12
     1  O   -0.000071   0.000552  -0.000225  -0.000002   0.000000  -0.000002
     2  C    0.003818   0.006340   0.000614   0.000066  -0.000007   0.000022
     3  N   -0.002876  -0.033887  -0.010579   0.004284  -0.000034   0.000169
     4  C   -0.096560   0.245733  -0.088236  -0.007759  -0.000278   0.000244
     5  C    0.584540  -0.057504   0.004015  -0.000177   0.000001   0.000005
     6  O   -0.065978   0.003231   0.000002  -0.000005   0.000000   0.000000
     7  O    7.886418  -0.000315  -0.000231  -0.000006   0.000000   0.000000
     8  C   -0.000315   4.985050   0.304133  -0.016201   0.008013   0.005612
     9  C   -0.000231   0.304133   5.151112   0.538631  -0.095058  -0.119085
    10  C   -0.000006  -0.016201   0.538631   4.840599   0.507976  -0.175272
    11  N    0.000000   0.008013  -0.095058   0.507976   6.405139   0.579115
    12  C    0.000000   0.005612  -0.119085  -0.175272   0.579115   4.718412
    13  N    0.000000  -0.057766   0.371834  -0.071474  -0.083910   0.417986
    14  C   -0.001007  -0.000426  -0.000135  -0.000029   0.000000   0.000004
    15  C    0.000635  -0.000010   0.000003   0.000001   0.000000   0.000000
    16  N   -0.015980  -0.000012   0.000000   0.000000   0.000000   0.000000
    17  H    0.013263  -0.000244   0.001066   0.001894  -0.000014  -0.000095
    18  H    0.002617  -0.024239  -0.012043  -0.000364   0.000044   0.000046
    19  H    0.003658  -0.000526   0.000132   0.000008   0.000000  -0.000002
    20  H   -0.000418   0.400493  -0.024654  -0.000929  -0.000272   0.000393
    21  H    0.003667   0.413383  -0.042545   0.001645   0.000217  -0.000242
    22  H   -0.000007   0.000241  -0.055752   0.424592  -0.023397   0.008369
    23  H    0.000000  -0.000369   0.003777   0.006212  -0.021298   0.415133
    24  H    0.000000   0.003634  -0.039901   0.007654   0.006700  -0.021265
    25  H   -0.000012   0.000024   0.000004  -0.000003   0.000000   0.000000
    26  H   -0.000189   0.000010   0.000052   0.000068   0.000000  -0.000001
    27  H    0.000072  -0.000001   0.000000   0.000000   0.000000   0.000000
    28  H   -0.000016   0.000000   0.000000   0.000000   0.000000   0.000000
    29  H   -0.000395   0.000000   0.000000   0.000000   0.000000   0.000000
    30  H    0.061818   0.000190   0.000011  -0.000007   0.000000   0.000000
    31  H    0.000530   0.000007  -0.000001  -0.000002   0.000000   0.000000
              13         14         15         16         17         18
     1  O   -0.000017  -0.073172  -0.000413  -0.000183   0.003725   0.035374
     2  C    0.000259   0.301273  -0.069556  -0.001603  -0.022360  -0.013896
     3  N   -0.001239  -0.090287  -0.005895   0.002223   0.355975  -0.034952
     4  C    0.005429   0.011047  -0.000225   0.000076  -0.061804   0.376479
     5  C    0.000092  -0.001737   0.000903   0.000196  -0.000857  -0.034945
     6  O    0.000002  -0.000011   0.000001  -0.000005   0.000519   0.003707
     7  O    0.000000  -0.001007   0.000635  -0.015980   0.013263   0.002617
     8  C   -0.057766  -0.000426  -0.000010  -0.000012  -0.000244  -0.024239
     9  C    0.371834  -0.000135   0.000003   0.000000   0.001066  -0.012043
    10  C   -0.071474  -0.000029   0.000001   0.000000   0.001894  -0.000364
    11  N   -0.083910   0.000000   0.000000   0.000000  -0.000014   0.000044
    12  C    0.417986   0.000004   0.000000   0.000000  -0.000095   0.000046
    13  N    6.461594   0.000002   0.000000   0.000000  -0.000135   0.004508
    14  C    0.000002   5.127893   0.342201  -0.047840  -0.002770   0.003794
    15  C    0.000000   0.342201   4.994533   0.228294  -0.002790  -0.000232
    16  N    0.000000  -0.047840   0.228294   6.159579   0.001195   0.000035
    17  H   -0.000135  -0.002770  -0.002790   0.001195   0.493840   0.008629
    18  H    0.004508   0.003794  -0.000232   0.000035   0.008629   0.501732
    19  H   -0.000021  -0.000013  -0.000001   0.000010  -0.000070   0.000703
    20  H   -0.000619   0.000017   0.000002  -0.000002   0.000329  -0.004625
    21  H    0.003582  -0.000031  -0.000003   0.000004   0.005102   0.006470
    22  H    0.004088   0.000003   0.000001   0.000000   0.000063  -0.000037
    23  H   -0.035615   0.000000   0.000000   0.000000   0.000000   0.000018
    24  H    0.351252  -0.000006   0.000000   0.000000   0.000009   0.000953
    25  H    0.000000   0.394890  -0.022152   0.003465   0.000179  -0.000041
    26  H   -0.000002   0.380622  -0.035022  -0.004412  -0.000256  -0.000608
    27  H    0.000000  -0.042305   0.396105  -0.021368  -0.000361  -0.000324
    28  H    0.000000  -0.028902   0.408691  -0.022653  -0.000031   0.000018
    29  H    0.000000   0.005932  -0.021505   0.357236  -0.000015  -0.000003
    30  H    0.000000  -0.005258  -0.027674   0.322305   0.000722  -0.000245
    31  H    0.000000  -0.000736  -0.031628   0.356707   0.001499   0.000019
              19         20         21         22         23         24
     1  O   -0.000283  -0.000012  -0.000014  -0.000001   0.000000  -0.000050
     2  C   -0.000069   0.000093  -0.000557   0.000007   0.000001   0.000012
     3  N    0.000355   0.005837  -0.004462   0.000390   0.000004  -0.000004
     4  C    0.006440  -0.060893  -0.035818  -0.000135  -0.000009   0.000282
     5  C   -0.036422   0.001161  -0.004120   0.000001   0.000000  -0.000037
     6  O    0.316200   0.005154  -0.000019   0.000000   0.000000  -0.000007
     7  O    0.003658  -0.000418   0.003667  -0.000007   0.000000   0.000000
     8  C   -0.000526   0.400493   0.413383   0.000241  -0.000369   0.003634
     9  C    0.000132  -0.024654  -0.042545  -0.055752   0.003777  -0.039901
    10  C    0.000008  -0.000929   0.001645   0.424592   0.006212   0.007654
    11  N    0.000000  -0.000272   0.000217  -0.023397  -0.021298   0.006700
    12  C   -0.000002   0.000393  -0.000242   0.008369   0.415133  -0.021265
    13  N   -0.000021  -0.000619   0.003582   0.004088  -0.035615   0.351252
    14  C   -0.000013   0.000017  -0.000031   0.000003   0.000000  -0.000006
    15  C   -0.000001   0.000002  -0.000003   0.000001   0.000000   0.000000
    16  N    0.000010  -0.000002   0.000004   0.000000   0.000000   0.000000
    17  H   -0.000070   0.000329   0.005102   0.000063   0.000000   0.000009
    18  H    0.000703  -0.004625   0.006470  -0.000037   0.000018   0.000953
    19  H    0.436388   0.003320  -0.000173   0.000000   0.000000  -0.000006
    20  H    0.003320   0.543330  -0.016608   0.000043   0.000000   0.001361
    21  H   -0.000173  -0.016608   0.515052   0.001808   0.000014  -0.000056
    22  H    0.000000   0.000043   0.001808   0.539270  -0.000316  -0.000302
    23  H    0.000000   0.000000   0.000014  -0.000316   0.503382  -0.002140
    24  H   -0.000006   0.001361  -0.000056  -0.000302  -0.002140   0.462698
    25  H    0.000001  -0.000002   0.000001  -0.000001   0.000000   0.000000
    26  H    0.000003   0.000007  -0.000028   0.000015   0.000000   0.000001
    27  H    0.000005   0.000000   0.000000   0.000000   0.000000   0.000000
    28  H    0.000000   0.000000   0.000000   0.000000   0.000000   0.000000
    29  H    0.000001   0.000000   0.000000   0.000000   0.000000   0.000000
    30  H   -0.000156   0.000006  -0.000082   0.000000   0.000000   0.000000
    31  H   -0.000001  -0.000002   0.000016  -0.000001   0.000000   0.000000
              25         26         27         28         29         30
     1  O    0.005857   0.003247   0.011507  -0.000376  -0.000029  -0.000424
     2  C   -0.023441  -0.041576  -0.004712   0.006513  -0.000581   0.006073
     3  N    0.005405   0.008619   0.001725  -0.000509  -0.000044   0.004274
     4  C   -0.000454  -0.000101   0.000013   0.000048   0.000009  -0.001385
     5  C   -0.000006   0.000163   0.000350  -0.000017   0.000116  -0.007152
     6  O    0.000000  -0.000003  -0.000008   0.000000  -0.000004   0.000174
     7  O   -0.000012  -0.000189   0.000072  -0.000016  -0.000395   0.061818
     8  C    0.000024   0.000010  -0.000001   0.000000   0.000000   0.000190
     9  C    0.000004   0.000052   0.000000   0.000000   0.000000   0.000011
    10  C   -0.000003   0.000068   0.000000   0.000000   0.000000  -0.000007
    11  N    0.000000   0.000000   0.000000   0.000000   0.000000   0.000000
    12  C    0.000000  -0.000001   0.000000   0.000000   0.000000   0.000000
    13  N    0.000000  -0.000002   0.000000   0.000000   0.000000   0.000000
    14  C    0.394890   0.380622  -0.042305  -0.028902   0.005932  -0.005258
    15  C   -0.022152  -0.035022   0.396105   0.408691  -0.021505  -0.027674
    16  N    0.003465  -0.004412  -0.021368  -0.022653   0.357236   0.322305
    17  H    0.000179  -0.000256  -0.000361  -0.000031  -0.000015   0.000722
    18  H   -0.000041  -0.000608  -0.000324   0.000018  -0.000003  -0.000245
    19  H    0.000001   0.000003   0.000005   0.000000   0.000001  -0.000156
    20  H   -0.000002   0.000007   0.000000   0.000000   0.000000   0.000006
    21  H    0.000001  -0.000028   0.000000   0.000000   0.000000  -0.000082
    22  H   -0.000001   0.000015   0.000000   0.000000   0.000000   0.000000
    23  H    0.000000   0.000000   0.000000   0.000000   0.000000   0.000000
    24  H    0.000000   0.000001   0.000000   0.000000   0.000000   0.000000
    25  H    0.447488  -0.009711   0.000333  -0.005567  -0.000159   0.000092
    26  H   -0.009711   0.535181   0.007824  -0.005018  -0.000246  -0.000730
    27  H    0.000333   0.007824   0.472062  -0.020176  -0.003846  -0.004268
    28  H   -0.005567  -0.005018  -0.020176   0.476514  -0.003659   0.004157
    29  H   -0.000159  -0.000246  -0.003846  -0.003659   0.384804  -0.012598
    30  H    0.000092  -0.000730  -0.004268   0.004157  -0.012598   0.373890
    31  H    0.000093   0.005327   0.005178  -0.004204  -0.014577  -0.014839
              31
     1  O   -0.000018
     2  C   -0.000697
     3  N    0.001231
     4  C   -0.000280
     5  C    0.000062
     6  O    0.000011
     7  O    0.000530
     8  C    0.000007
     9  C   -0.000001
    10  C   -0.000002
    11  N    0.000000
    12  C    0.000000
    13  N    0.000000
    14  C   -0.000736
    15  C   -0.031628
    16  N    0.356707
    17  H    0.001499
    18  H    0.000019
    19  H   -0.000001
    20  H   -0.000002
    21  H    0.000016
    22  H   -0.000001
    23  H    0.000000
    24  H    0.000000
    25  H    0.000093
    26  H    0.005327
    27  H    0.005178
    28  H   -0.004204
    29  H   -0.014577
    30  H   -0.014839
    31  H    0.407789
 Mulliken charges:
               1
     1  O   -0.341932
     2  C    0.337736
     3  N   -0.336083
     4  C   -0.186802
     5  C    0.443591
     6  O   -0.254737
     7  O   -0.376978
     8  C   -0.185146
     9  C    0.113059
    10  C   -0.061402
    11  N   -0.282937
    12  C    0.170453
    13  N   -0.369829
    14  C   -0.273013
    15  C   -0.154264
    16  N   -0.317265
    17  H    0.203794
    18  H    0.181408
    19  H    0.270519
    20  H    0.147490
    21  H    0.153800
    22  H    0.101060
    23  H    0.131205
    24  H    0.229219
    25  H    0.203716
    26  H    0.156763
    27  H    0.202195
    28  H    0.195188
    29  H    0.309565
    30  H    0.301109
    31  H    0.288517
 Sum of Mulliken charges =   1.00000
 Mulliken charges with hydrogens summed into heavy atoms:
               1
     1  O   -0.341932
     2  C    0.337736
     3  N   -0.132289
     4  C   -0.005394
     5  C    0.443591
     6  O    0.015782
     7  O   -0.376978
     8  C    0.116145
     9  C    0.113059
    10  C    0.039657
    11  N   -0.282937
    12  C    0.301658
    13  N   -0.140610
    14  C    0.087466
    15  C    0.243120
    16  N    0.581926
 APT charges:
               1
     1  O    0.027202
     2  C   -0.113965
     3  N   -0.402586
     4  C   -0.334416
     5  C   -0.314228
     6  O    0.030432
     7  O   -0.076596
     8  C   -0.946134
     9  C   -0.301241
    10  C   -0.429560
    11  N    0.330391
    12  C   -0.664701
    13  N   -0.622273
    14  C   -0.714238
    15  C   -1.107577
    16  N   -0.899501
    17  H    0.387663
    18  H    0.347387
    19  H    0.470156
    20  H    0.546162
    21  H    0.326705
    22  H    0.347417
    23  H    0.942022
    24  H    0.483200
    25  H    0.630620
    26  H    0.235842
    27  H    0.391294
    28  H    0.853189
    29  H    1.103550
    30  H    0.007439
    31  H    0.466342
 Sum of APT charges =   1.00000
 APT charges with hydrogens summed into heavy atoms:
               1
     1  O    0.027202
     2  C   -0.113965
     3  N   -0.014923
     4  C    0.012972
     5  C   -0.314228
     6  O    0.500588
     7  O   -0.076596
     8  C   -0.073266
     9  C   -0.301241
    10  C   -0.082143
    11  N    0.330391
    12  C    0.277321
    13  N   -0.139073
    14  C    0.152224
    15  C    0.136906
    16  N    0.677830
 Electronic spatial extent (au):  <R**2>=           4191.3164
 Charge=              1.0000 electrons
 Dipole moment (field-independent basis, Debye):
    X=             10.3646    Y=             -3.2305    Z=             -1.9856  Tot=             11.0364
 Quadrupole moment (field-independent basis, Debye-Ang):
   XX=            -56.3128   YY=            -88.3203   ZZ=            -69.9236
   XY=            -11.2816   XZ=            -36.5079   YZ=             11.3255
 Traceless Quadrupole moment (field-independent basis, Debye-Ang):
   XX=             15.2061   YY=            -16.8014   ZZ=              1.5953
   XY=            -11.2816   XZ=            -36.5079   YZ=             11.3255
 Octapole moment (field-independent basis, Debye-Ang**2):
  XXX=            302.6802  YYY=             -5.6268  ZZZ=            -27.7232  XYY=             21.6114
  XXY=            -37.2627  XXZ=            -35.8690  XZZ=             47.8759  YZZ=             -6.6064
  YYZ=            -35.1760  XYZ=             -6.5766
 Hexadecapole moment (field-independent basis, Debye-Ang**3):
 XXXX=          -3118.4622 YYYY=           -908.3531 ZZZZ=           -836.2307 XXXY=            108.3677
 XXXZ=           -225.6276 YYYX=            208.6463 YYYZ=            206.8799 ZZZX=             33.1331
 ZZZY=            206.8496 XXYY=           -570.4118 XXZZ=           -665.2472 YYZZ=           -313.5256
 XXYZ=            191.3013 YYXZ=            -50.2335 ZZXY=            100.8577
 N-N= 1.156393601604D+03 E-N=-4.157607281532D+03  KE= 7.940112798861D+02
  Exact polarizability:   0.000   0.000   0.000   0.000   0.000   0.000
 Approx polarizability: 177.990 -18.537 190.237  11.199  18.408 202.105
 Calling FoFJK, ICntrl=    100147 FMM=F ISym2X=0 I1Cent= 0 IOpClX= 0 NMat=1 NMatS=1 NMatT=0.
 -------------------------------------------------------------------
 Center     Atomic                   Forces (Hartrees/Bohr)
 Number     Number              X              Y              Z
 -------------------------------------------------------------------
      1        8           0.003483996   -0.005720694   -0.008235314
      2        6          -0.005263557    0.012415075    0.013561604
      3        7           0.004996728   -0.005818069    0.004360580
      4        6           0.001571211    0.002385502   -0.001081410
      5        6          -0.005598398    0.008050998    0.020532843
      6        8           0.000127848   -0.002317613   -0.011900038
      7        8           0.016200801   -0.005130692   -0.013055125
      8        6          -0.013387023    0.005307732   -0.003486559
      9        6           0.004572622   -0.004245423    0.003144094
     10        6          -0.003711851    0.003464558   -0.007199428
     11        7           0.003155827   -0.004770775    0.001929421
     12        6          -0.001922774   -0.002115393   -0.006376778
     13        7           0.004651432    0.001477958    0.008580302
     14        6           0.000600196   -0.005274379   -0.002365659
     15        6           0.005887254    0.030919863   -0.003441894
     16        7           0.005282847   -0.006645311   -0.001961096
     17        1          -0.007530972   -0.002313785   -0.004251602
     18        1          -0.001029136    0.001639401    0.001397072
     19        1          -0.000647994    0.000665308    0.003652604
     20        1          -0.000578186   -0.002193549    0.001332493
     21        1          -0.000820254   -0.002517942    0.000194673
     22        1          -0.001629114    0.001032627    0.000647743
     23        1          -0.001461525    0.002126408   -0.000070841
     24        1          -0.001207393    0.000720845    0.000834907
     25        1           0.002068667   -0.001625839   -0.001653150
     26        1          -0.001077466    0.002356829   -0.003748933
     27        1           0.000795877   -0.005660184    0.000679996
     28        1           0.000375509   -0.005945940    0.000437656
     29        1           0.000708848   -0.001049373   -0.000525531
     30        1          -0.008734053   -0.005447126    0.010179548
     31        1           0.000120033   -0.003771016   -0.002112180
 -------------------------------------------------------------------
 Cartesian Forces:  Max     0.030919863 RMS     0.006381599
 FormGI is forming the generalized inverse of G from B-inverse, IUseBI=4.

 GradGradGradGradGradGradGradGradGradGradGradGradGradGradGradGradGradGrad
 Berny optimization.
 Internal  Forces:  Max     0.019631071 RMS     0.004525586
 Search for a local minimum.
 Step number   1 out of a maximum of  167
 All quantities printed in internal units (Hartrees-Bohrs-Radians)
 Mixed Optimization -- RFO/linear search
 Second derivative matrix not updated -- analytic derivatives used.
 ITU=  0
     Eigenvalues ---   -0.00041   0.00164   0.00282   0.00295   0.00357
     Eigenvalues ---    0.00430   0.00609   0.00705   0.00900   0.01082
     Eigenvalues ---    0.01186   0.02070   0.02579   0.03150   0.03770
     Eigenvalues ---    0.03970   0.04040   0.04097   0.04147   0.04323
     Eigenvalues ---    0.04583   0.04914   0.05009   0.05182   0.05323
     Eigenvalues ---    0.05684   0.05788   0.06118   0.06406   0.07557
     Eigenvalues ---    0.07859   0.08178   0.10306   0.10860   0.10882
     Eigenvalues ---    0.11151   0.11641   0.12020   0.12969   0.13514
     Eigenvalues ---    0.14516   0.14927   0.16582   0.16707   0.17151
     Eigenvalues ---    0.18740   0.19964   0.20606   0.21220   0.22612
     Eigenvalues ---    0.23102   0.23656   0.23886   0.24420   0.25459
     Eigenvalues ---    0.26560   0.28321   0.30613   0.31713   0.32628
     Eigenvalues ---    0.33275   0.33297   0.33434   0.33712   0.33766
     Eigenvalues ---    0.34299   0.34378   0.34424   0.34645   0.36487
     Eigenvalues ---    0.37560   0.37615   0.39126   0.40835   0.42905
     Eigenvalues ---    0.43196   0.43839   0.44210   0.45119   0.47081
     Eigenvalues ---    0.47551   0.47759   0.52757   0.54653   0.57658
     Eigenvalues ---    0.81069   0.89635
 RFO step:  Lambda=-1.86879733D-02 EMin=-4.10197055D-04
 Linear search not attempted -- first point.
 Iteration  1 RMS(Cart)=  0.16687593 RMS(Int)=  0.04055900
 Iteration  2 RMS(Cart)=  0.15049770 RMS(Int)=  0.00653987
 Iteration  3 RMS(Cart)=  0.02589140 RMS(Int)=  0.00048587
 Iteration  4 RMS(Cart)=  0.00035754 RMS(Int)=  0.00047308
 Iteration  5 RMS(Cart)=  0.00000020 RMS(Int)=  0.00047308
 Variable       Old X    -DE/DX   Delta X   Delta X   Delta X     New X
                                 (Linear)    (Quad)   (Total)
    R1        2.30708  -0.00923   0.00000  -0.01187  -0.01187   2.29521
    R2        2.58272   0.00615   0.00000   0.01833   0.01833   2.60104
    R3        2.85358   0.00705   0.00000   0.02572   0.02572   2.87930
    R4        2.73837  -0.00117   0.00000   0.00438   0.00438   2.74275
    R5        1.90091   0.00387   0.00000   0.00805   0.00805   1.90896
    R6        2.88261   0.00482   0.00000   0.02574   0.02574   2.90835
    R7        2.89781   0.01215   0.00000   0.03494   0.03494   2.93275
    R8        2.05793   0.00208   0.00000   0.00375   0.00375   2.06168
    R9        2.54181  -0.00806   0.00000  -0.05077  -0.05077   2.49104
   R10        2.27182   0.01963   0.00000   0.03994   0.03994   2.31176
   R11        1.82188   0.00227   0.00000   0.00610   0.00610   1.82798
   R12        2.83516  -0.00368   0.00000  -0.01769  -0.01769   2.81747
   R13        2.06551   0.00196   0.00000   0.00601   0.00601   2.07151
   R14        2.06104   0.00200   0.00000   0.00697   0.00697   2.06801
   R15        2.58279   0.00579   0.00000   0.01210   0.01208   2.59487
   R16        2.60654   0.00425   0.00000   0.00940   0.00944   2.61598
   R17        2.61234  -0.00652   0.00000  -0.02062  -0.02066   2.59168
   R18        2.04419  -0.00126   0.00000  -0.00268  -0.00268   2.04151
   R19        2.48091  -0.00111   0.00000  -0.00491  -0.00492   2.47598
   R20        2.56991   0.00605   0.00000   0.01512   0.01515   2.58507
   R21        2.03315   0.00246   0.00000   0.00626   0.00626   2.03941
   R22        1.90432   0.00064   0.00000   0.00091   0.00091   1.90524
   R23        2.89513   0.00327   0.00000   0.00435   0.00435   2.89949
   R24        2.06148  -0.00077   0.00000  -0.00020  -0.00020   2.06129
   R25        2.06407   0.00223   0.00000   0.00431   0.00431   2.06838
   R26        2.80510   0.01771   0.00000   0.05322   0.05322   2.85833
   R27        2.06658  -0.00144   0.00000  -0.00621  -0.00621   2.06038
   R28        2.06367  -0.00109   0.00000  -0.00389  -0.00389   2.05978
   R29        1.93376   0.00102   0.00000  -0.00149  -0.00149   1.93226
   R30        1.93832   0.01421   0.00000   0.06814   0.06814   2.00645
   R31        1.92808   0.00323   0.00000   0.00309   0.00309   1.93118
    A1        2.13945   0.00787   0.00000   0.00277   0.00161   2.14106
    A2        2.13949  -0.00298   0.00000  -0.03356  -0.03456   2.10493
    A3        2.00383  -0.00506   0.00000   0.02845   0.02738   2.03120
    A4        2.07065   0.00232   0.00000  -0.06671  -0.06902   2.00163
    A5        2.02501   0.00114   0.00000  -0.00788  -0.01042   2.01460
    A6        2.01038  -0.00472   0.00000   0.00712   0.00423   2.01461
    A7        1.91787  -0.01522   0.00000  -0.03015  -0.03017   1.88770
    A8        1.95177   0.00149   0.00000  -0.00666  -0.00641   1.94536
    A9        1.84275   0.00570   0.00000   0.03273   0.03238   1.87513
   A10        1.90276   0.01227   0.00000   0.04342   0.04355   1.94631
   A11        1.90159  -0.00067   0.00000  -0.03392  -0.03373   1.86786
   A12        1.94603  -0.00435   0.00000  -0.00823  -0.00801   1.93802
   A13        2.02911   0.00826   0.00000   0.04008   0.04003   2.06913
   A14        2.15222  -0.00794   0.00000  -0.01391  -0.01396   2.13825
   A15        2.10150  -0.00026   0.00000  -0.02570  -0.02575   2.07575
   A16        1.92222   0.00547   0.00000   0.03451   0.03451   1.95673
   A17        1.97751   0.00075   0.00000   0.00577   0.00572   1.98323
   A18        1.89972   0.00012   0.00000  -0.00247  -0.00258   1.89714
   A19        1.90088   0.00019   0.00000   0.00064   0.00063   1.90151
   A20        1.92933   0.00048   0.00000   0.01497   0.01494   1.94427
   A21        1.88479  -0.00067   0.00000  -0.00320  -0.00318   1.88161
   A22        1.86827  -0.00097   0.00000  -0.01727  -0.01726   1.85101
   A23        2.29881  -0.00237   0.00000  -0.01688  -0.01692   2.28189
   A24        2.16010   0.00207   0.00000   0.01521   0.01518   2.17528
   A25        1.82382   0.00031   0.00000   0.00179   0.00185   1.82567
   A26        1.93881   0.00035   0.00000   0.00051   0.00045   1.93926
   A27        2.21999   0.00108   0.00000   0.00586   0.00581   2.22580
   A28        2.12430  -0.00142   0.00000  -0.00615  -0.00620   2.11811
   A29        1.83290   0.00224   0.00000   0.00701   0.00700   1.83990
   A30        1.94657   0.00156   0.00000   0.00335   0.00340   1.94997
   A31        2.20483  -0.00156   0.00000  -0.00512  -0.00515   2.19968
   A32        2.13178   0.00000   0.00000   0.00175   0.00172   2.13350
   A33        1.88266  -0.00446   0.00000  -0.01265  -0.01270   1.86996
   A34        2.20428   0.00335   0.00000   0.01508   0.01486   2.21914
   A35        2.19624   0.00111   0.00000  -0.00247  -0.00267   2.19356
   A36        1.91890  -0.01136   0.00000  -0.04582  -0.04588   1.87301
   A37        1.87545   0.00580   0.00000   0.01830   0.01713   1.89258
   A38        1.93936   0.00323   0.00000   0.03660   0.03677   1.97613
   A39        1.90365   0.00028   0.00000  -0.02466  -0.02472   1.87894
   A40        1.92073   0.00482   0.00000   0.02914   0.02966   1.95039
   A41        1.90486  -0.00278   0.00000  -0.01494  -0.01507   1.88978
   A42        1.97234  -0.00298   0.00000  -0.00839  -0.00828   1.96406
   A43        1.88954   0.00351   0.00000   0.01318   0.01250   1.90204
   A44        1.90879   0.00426   0.00000   0.03875   0.03848   1.94727
   A45        1.90888  -0.00329   0.00000  -0.03764  -0.03772   1.87116
   A46        1.90900  -0.00190   0.00000  -0.02817  -0.02809   1.88092
   A47        1.87261   0.00061   0.00000   0.02446   0.02319   1.89580
   A48        1.94437  -0.00043   0.00000  -0.01463  -0.01462   1.92975
   A49        1.96713   0.00289   0.00000   0.02828   0.02819   1.99532
   A50        1.92785   0.00235   0.00000   0.00679   0.00663   1.93449
   A51        1.86699  -0.00087   0.00000   0.00076   0.00082   1.86781
   A52        1.88309  -0.00196   0.00000  -0.01483  -0.01488   1.86821
   A53        1.87047  -0.00235   0.00000  -0.00803  -0.00826   1.86220
    D1       -0.33803  -0.00349   0.00000  -0.07235  -0.07113  -0.40916
    D2       -2.84661   0.00020   0.00000   0.03107   0.03092  -2.81569
    D3        2.77341  -0.00972   0.00000  -0.15804  -0.15790   2.61552
    D4        0.26483  -0.00603   0.00000  -0.05462  -0.05584   0.20899
    D5        1.39888  -0.00377   0.00000  -0.25043  -0.25003   1.14885
    D6       -0.67083  -0.00119   0.00000  -0.20607  -0.20539  -0.87621
    D7       -2.75359  -0.00327   0.00000  -0.22036  -0.22022  -2.97381
    D8       -1.71256   0.00226   0.00000  -0.16544  -0.16586  -1.87841
    D9        2.50092   0.00484   0.00000  -0.12108  -0.12121   2.37971
   D10        0.41816   0.00276   0.00000  -0.13537  -0.13604   0.28212
   D11       -1.51309   0.00821   0.00000   0.46631   0.46636  -1.04674
   D12        2.65453   0.00213   0.00000   0.43649   0.43633   3.09087
   D13        0.53507   0.00294   0.00000   0.42939   0.42896   0.96402
   D14        1.00061   0.00657   0.00000   0.35877   0.35917   1.35978
   D15       -1.11495   0.00050   0.00000   0.32894   0.32915  -0.78580
   D16        3.04877   0.00130   0.00000   0.32185   0.32177  -2.91265
   D17        2.76409   0.00139   0.00000   0.05267   0.05306   2.81715
   D18       -0.40654   0.00392   0.00000   0.07087   0.07128  -0.33525
   D19       -1.37439   0.00146   0.00000   0.05334   0.05335  -1.32103
   D20        1.73817   0.00399   0.00000   0.07154   0.07158   1.80975
   D21        0.75296   0.00331   0.00000   0.04912   0.04868   0.80163
   D22       -2.41767   0.00583   0.00000   0.06731   0.06690  -2.35077
   D23       -1.00531  -0.00423   0.00000  -0.00247  -0.00241  -1.00772
   D24        3.12384  -0.00545   0.00000  -0.02394  -0.02387   3.09997
   D25        1.09262  -0.00447   0.00000  -0.00234  -0.00229   1.09033
   D26       -3.12959   0.00557   0.00000   0.01016   0.01018  -3.11941
   D27        0.99956   0.00434   0.00000  -0.01132  -0.01128   0.98828
   D28       -1.03166   0.00533   0.00000   0.01028   0.01030  -1.02136
   D29        1.05338   0.00107   0.00000   0.02902   0.02892   1.08230
   D30       -1.10065  -0.00016   0.00000   0.00754   0.00746  -1.09319
   D31       -3.13187   0.00083   0.00000   0.02914   0.02904  -3.10283
   D32       -0.05120   0.00097   0.00000  -0.00822  -0.00826  -0.05947
   D33        3.11852  -0.00133   0.00000  -0.02602  -0.02598   3.09254
   D34        1.89691  -0.00030   0.00000  -0.02021  -0.02023   1.87668
   D35       -1.20687  -0.00055   0.00000  -0.02510  -0.02516  -1.23203
   D36       -2.24859   0.00075   0.00000  -0.00808  -0.00801  -2.25660
   D37        0.93082   0.00050   0.00000  -0.01297  -0.01294   0.91788
   D38       -0.21014  -0.00054   0.00000  -0.02245  -0.02244  -0.23259
   D39        2.96926  -0.00080   0.00000  -0.02734  -0.02737   2.94189
   D40       -3.10602  -0.00042   0.00000  -0.00832  -0.00834  -3.11436
   D41        0.02211   0.00043   0.00000   0.01054   0.01059   0.03270
   D42        0.00311  -0.00016   0.00000  -0.00380  -0.00383  -0.00073
   D43        3.13124   0.00070   0.00000   0.01505   0.01510  -3.13685
   D44        3.11193   0.00016   0.00000   0.00629   0.00638   3.11831
   D45       -0.03073  -0.00027   0.00000  -0.02578  -0.02591  -0.05664
   D46       -0.00051   0.00002   0.00000   0.00297   0.00297   0.00246
   D47        3.14001  -0.00040   0.00000  -0.02910  -0.02931   3.11070
   D48       -0.00454   0.00023   0.00000   0.00315   0.00318  -0.00136
   D49       -3.13352  -0.00059   0.00000  -0.01461  -0.01451   3.13515
   D50        0.00417  -0.00021   0.00000  -0.00116  -0.00117   0.00300
   D51       -3.13436   0.00014   0.00000   0.00413   0.00403  -3.13033
   D52       -0.00240   0.00013   0.00000  -0.00114  -0.00115  -0.00354
   D53        3.14027   0.00056   0.00000   0.03073   0.03052  -3.11240
   D54        3.13628  -0.00020   0.00000  -0.00618  -0.00613   3.13015
   D55       -0.00424   0.00022   0.00000   0.02568   0.02553   0.02129
   D56        1.22070  -0.00177   0.00000  -0.02386  -0.02424   1.19646
   D57       -0.89644   0.00185   0.00000   0.01990   0.01985  -0.87660
   D58       -2.93151  -0.00316   0.00000  -0.03773  -0.03839  -2.96990
   D59       -3.01022  -0.00116   0.00000  -0.04280  -0.04244  -3.05266
   D60        1.15582   0.00247   0.00000   0.00096   0.00164   1.15747
   D61       -0.87925  -0.00255   0.00000  -0.05667  -0.05659  -0.93584
   D62       -0.92104  -0.00146   0.00000  -0.05866  -0.05869  -0.97972
   D63       -3.03818   0.00216   0.00000  -0.01490  -0.01460  -3.05278
   D64        1.20993  -0.00285   0.00000  -0.07253  -0.07283   1.13710
   D65        3.11993   0.00048   0.00000   0.02931   0.02923  -3.13402
   D66       -1.06437   0.00108   0.00000   0.03959   0.03940  -1.02497
   D67        1.02732   0.00166   0.00000   0.05304   0.05298   1.08031
   D68       -1.05708   0.00067   0.00000   0.01409   0.01411  -1.04297
   D69        1.04180   0.00127   0.00000   0.02437   0.02428   1.06608
   D70        3.13350   0.00185   0.00000   0.03783   0.03786  -3.11182
   D71        0.98908  -0.00158   0.00000   0.00567   0.00582   0.99490
   D72        3.08796  -0.00098   0.00000   0.01594   0.01599   3.10395
   D73       -1.10352  -0.00040   0.00000   0.02940   0.02957  -1.07396
         Item               Value     Threshold  Converged?
 Maximum Force            0.019631     0.000450     NO 
 RMS     Force            0.004526     0.000300     NO 
 Maximum Displacement     1.043948     0.001800     NO 
 RMS     Displacement     0.275890     0.001200     NO 
 Predicted change in Energy=-1.633245D-02
 GradGradGradGradGradGradGradGradGradGradGradGradGradGradGradGradGradGrad

                          Input orientation:                          
 ---------------------------------------------------------------------
 Center     Atomic      Atomic             Coordinates (Angstroms)
 Number     Number       Type             X           Y           Z
 ---------------------------------------------------------------------
      1          8           0        1.740961    1.616883    0.653379
      2          6           0        1.290750    1.068768   -0.332557
      3          7           0        0.100618    0.377435   -0.320145
      4          6           0       -0.304981   -0.107673    0.986270
      5          6           0        0.789165   -1.056885    1.506331
      6          8           0        0.830220   -1.324264    2.796476
      7          8           0        1.612301   -1.579105    0.767233
      8          6           0       -1.687275   -0.810712    0.926874
      9          6           0       -2.777874    0.058843    0.400215
     10          6           0       -3.440297    0.036291   -0.802374
     11          7           0       -4.358132    1.052395   -0.879893
     12          6           0       -4.265665    1.693006    0.259307
     13          7           0       -3.320324    1.137559    1.077304
     14          6           0        2.108802    0.985291   -1.615273
     15          6           0        3.323659    0.094193   -1.324968
     16          7           0        2.941318   -1.351900   -1.100314
     17          1           0       -0.032840   -0.270095   -1.083921
     18          1           0       -0.330381    0.750008    1.660072
     19          1           0        0.165112   -0.827164    3.292705
     20          1           0       -1.929014   -1.195447    1.924467
     21          1           0       -1.612890   -1.686303    0.274653
     22          1           0       -3.305998   -0.663169   -1.614661
     23          1           0       -4.850542    2.550531    0.554709
     24          1           0       -3.093756    1.447676    2.009494
     25          1           0        2.479739    1.983044   -1.853409
     26          1           0        1.533029    0.619767   -2.471364
     27          1           0        3.810714    0.444272   -0.414481
     28          1           0        4.046661    0.124327   -2.140095
     29          1           0        3.770791   -1.916236   -0.902763
     30          1           0        2.262829   -1.505321   -0.298148
     31          1           0        2.502897   -1.745909   -1.935117
 ---------------------------------------------------------------------
                    Distance matrix (angstroms):
                    1          2          3          4          5
     1  O    0.000000
     2  C    1.214574   0.000000
     3  N    2.274799   1.376413   0.000000
     4  C    2.696440   2.381109   1.451399   0.000000
     5  C    2.963524   2.855083   2.422268   1.539033   0.000000
     6  O    3.751354   3.966049   3.625110   2.458785   1.318200
     7  O    3.200602   2.885163   2.701041   2.426739   1.223329
     8  C    4.209611   3.739953   2.482601   1.551944   2.555216
     9  C    4.786591   4.255656   2.984315   2.546839   3.897705
    10  C    5.609182   4.865136   3.589846   3.612502   4.941001
    11  N    6.314152   5.675361   4.544154   4.610461   6.052916
    12  C    6.020021   5.622609   4.596838   4.411115   5.887977
    13  N    5.101575   4.822287   3.772730   3.263615   4.678412
    14  C    2.383485   1.523660   2.465695   3.713347   3.956809
    15  C    2.955905   2.463208   3.387904   4.306925   3.970503
    16  N    3.651023   3.028772   3.415969   4.054676   3.393140
    17  H    3.118536   2.027065   1.010178   2.094309   2.829158
    18  H    2.460764   2.588483   2.060541   1.090995   2.131168
    19  H    3.927175   4.243129   3.808924   2.461361   1.906134
    20  H    4.795163   4.537369   3.410520   2.168168   2.753640
    21  H    4.722582   4.048487   2.747527   2.170045   2.771834
    22  H    5.984517   5.076760   3.789942   4.009927   5.163909
    23  H    6.658029   6.379524   5.477380   5.283409   6.762050
    24  H    5.024159   4.985246   4.095932   3.353113   4.647911
    25  H    2.638911   2.136021   3.254090   4.493277   4.836017
    26  H    3.286563   2.198817   2.595818   3.982798   4.380245
    27  H    2.607531   2.597484   3.711897   4.382430   3.882364
    28  H    3.917586   3.428441   4.352878   5.363280   5.030206
    29  H    4.361733   3.922497   4.366983   4.842651   3.928398
    30  H    3.305436   2.751737   2.867126   3.193243   2.372536
    31  H    4.311523   3.458310   3.589940   4.370641   3.905790
                    6          7          8          9         10
     6  O    0.000000
     7  O    2.189617   0.000000
     8  C    3.177567   3.391625   0.000000
     9  C    4.546801   4.700129   1.490940   0.000000
    10  C    5.748055   5.531899   2.603996   1.373146   0.000000
    11  N    6.788460   6.729330   3.724117   2.263412   1.371459
    12  C    6.442763   6.746494   3.655454   2.214467   2.133801
    13  N    5.122806   5.639787   2.546613   1.384316   2.181828
    14  C    5.141240   3.535389   4.909007   5.366573   5.688049
    15  C    5.021510   3.178990   5.567685   6.340837   6.784361
    16  N    4.431983   2.303397   5.081954   6.078729   6.537649
    17  H    4.112618   2.801208   2.659459   3.137845   3.432769
    18  H    2.634580   3.161636   2.194217   2.838163   4.030459
    19  H    0.967327   3.006291   3.004791   4.220506   5.523965
    20  H    2.896613   3.745304   1.096198   2.148756   3.352136
    21  H    3.529794   3.264350   1.094342   2.102020   2.732532
    22  H    6.083048   5.540940   3.016858   2.204527   1.080320
    23  H    7.232607   7.672509   4.630628   3.244738   3.186200
    24  H    4.868325   5.731631   2.872381   2.149050   3.165233
    25  H    5.939750   4.506563   5.735770   6.035219   6.319917
    26  H    5.658916   3.915332   4.895370   5.210037   5.278251
    27  H    4.724543   3.213024   5.796732   6.649946   7.272830
    28  H    6.067425   4.156964   6.569523   7.282290   7.606036
    29  H    4.762536   2.749840   5.861761   6.963024   7.471427
    30  H    3.414945   1.250467   4.193624   5.323815   5.929287
[...]
 .00028343,-0.00004063,0.00002476,-0.00003565,-0.00001147,-0.00002297,-
 0.00002697,0.00001893,-0.00002767,0.00000491,0.00001908,-0.00000608,0.
 00003206,-0.00001942,0.00002378,0.00001287,0.00936625,0.03525046,-0.05
 258607,-0.00180464,-0.00182586,-0.00087315,0.00083756,-0.00059604,0.00
 080365,0.00001006,0.00016319,-0.00017196,0.00012869,0.00012843,-0.0001
 4535,0.00002185,-0.00000835,0.00004361,0.00008778,0.00006366,0.0000310
 7,0.00000357,0.00000844,0.00000621,0.00001262,0.00000918,-0.00000200,0
 .00000385,0.00000081,0.00000347,0.00000089,0.00001763,0.00000014,-0.01
 337093,-0.03811545,0.05415123,0.00034142,-0.00042581,0.00517326,0.0106
 7534,0.00392672,0.00704257,-0.00068659,-0.00010132,0.00013919,0.000342
 80,0.00041106,-0.00033652,0.00005643,0.00011402,-0.00004213,-0.0000038
 8,-0.00002101,-0.00001286,0.00008293,-0.00007842,-0.00002911,-0.000012
 49,-0.00001656,-0.00006198,0.00003620,0.00002830,0.00006363,0.00005311
 ,0.00000500,-0.00005810,-0.00001349,0.00003924,-0.00000520,-0.00001434
 ,-0.00000269,-0.00001790,0.00000826,-0.00004208,-0.00001263,-0.1635904
 9,-0.04022819,-0.12131461,-0.01962238,-0.00774530,-0.01942125,0.001663
 28,-0.00042611,0.00043005,-0.00007088,-0.00041853,0.00115114,0.0000641
 1,0.00002760,0.00003836,0.00000650,0.00001347,-0.00000786,0.00001005,0
 .00001643,0.00000331,-0.00000092,0.00000335,-0.00000138,-0.00002219,-0
 .00002592,0.00000664,-0.00000171,0.00000013,-0.00000158,0.00000596,0.0
 0000058,0.00000469,-0.00588042,-0.00161341,-0.00618558,0.17903175,0.00
 022148,0.00234036,0.00037825,0.00148069,-0.00298978,0.00236986,0.00030
 999,-0.00007873,-0.00005726,0.00021169,0.00004332,0.00002105,-0.000100
 05,0.00001635,0.00021724,0.00001087,0.00000620,-0.00011538,0.00009385,
 -0.00000568,-0.00015109,-0.00007753,0.00004413,-0.00004357,0.00000100,
 -0.00000346,0.00000583,-0.00003957,0.00004973,-0.00001399,0.00001179,-
 0.00007110,0.00004152,0.00001995,-0.00004167,-0.00003500,0.00000866,0.
 00000820,0.00003530,-0.04084230,-0.06324067,-0.04349634,0.01474874,0.0
 0337890,0.01558196,-0.00047136,0.00216026,0.00050551,-0.00024616,0.000
 60509,0.00029112,0.00000653,0.00003193,-0.00003740,-0.00000760,-0.0000
 0465,0.00002260,0.00002778,-0.00000252,0.00000524,0.00000489,-0.000012
 97,0.00000525,-0.00001800,-0.00000688,-0.00001226,0.00000745,0.0000018
 7,-0.00000558,-0.00000323,0.00001062,-0.00000609,-0.01946577,-0.004661
 86,-0.02199429,0.04195664,0.06403384,0.00331766,0.00168067,-0.00886772
 ,-0.02616195,-0.00996722,-0.01331423,0.00101988,0.00083375,0.00230472,
 0.00016566,0.00021354,0.00018958,-0.00023279,-0.00030573,-0.00001421,0
 .00004901,-0.00001620,0.00011157,0.00004671,0.00021985,0.00019389,-0.0
 0008978,0.00000557,0.00004835,0.00001120,-0.00005195,-0.00008344,-0.00
 006447,-0.00002928,0.00002969,0.00000380,-0.00005765,0.00003276,0.0000
 2370,0.00000598,0.00001332,-0.00001538,0.00007492,0.00004631,-0.119369
 20,-0.04203688,-0.18221304,0.00380073,0.00195902,0.00387254,-0.0000308
 2,0.00019839,0.00006085,0.00178478,0.00018438,-0.00100258,-0.00016573,
 -0.00004359,0.00021306,-0.00004572,-0.00003034,-0.00001302,-0.00001030
 ,-0.00001024,0.00000741,0.00002950,0.00002815,-0.00000874,0.00004545,0
 .00004920,0.00000585,0.00000362,0.00000129,0.00000247,-0.00001367,-0.0
 0000396,-0.00001676,0.00356576,0.00037811,0.00366086,0.13195974,0.0468
 9749,0.19414847,0.00308626,-0.00014553,0.00103480,-0.00280036,-0.00188
 167,-0.00454302,0.00075200,0.00070532,0.00050119,0.00000718,-0.0000849
 3,0.00023662,-0.00014513,-0.00014392,0.00030715,-0.00000155,0.00005923
 ,-0.00015851,0.00011468,0.00014004,-0.00000824,-0.00009534,-0.00000425
 ,-0.00001578,0.00002475,0.00000732,-0.00000716,-0.00001392,0.00000275,
 -0.00004952,0.00002708,-0.00004097,0.00002671,0.00000602,-0.00001315,0
 .00000304,0.00000592,0.00004450,0.00003320,-0.01986991,-0.00393433,-0.
 01764981,-0.16437253,-0.04843727,-0.12446469,-0.00454717,-0.00378082,-
 0.00404050,0.00015820,0.00011882,-0.00014641,-0.00005588,-0.00001002,-
 0.00000074,-0.00001871,-0.00002156,0.00004718,0.00002261,-0.00000030,0
 .00000174,0.00001321,0.00000349,0.00000487,0.00000161,0.00000549,-0.00
 000642,-0.00000092,0.00000079,0.00000056,-0.00002242,0.00000587,0.0000
 0599,0.00114815,-0.00023620,0.00009093,-0.00293572,0.00322664,0.001114
 09,0.17712039,-0.00094398,-0.00083439,-0.00058691,0.00048765,0.0006933
 8,0.00167339,-0.00032862,0.00008195,-0.00033014,-0.00008008,0.00001761
 ,-0.00000167,0.00010593,-0.00008334,-0.00014463,-0.00003950,0.00003586
 ,0.00007191,-0.00010846,0.00007684,0.00037879,0.00000986,-0.00001959,-
 0.00001524,0.00000343,0.00001351,0.00002370,0.00002442,-0.00000264,-0.
 00001463,-0.00000002,0.00002419,-0.00001601,-0.00000986,0.00000809,0.0
 0000633,0.00000049,-0.00001656,-0.00001931,0.01503319,0.00542951,0.014
 68282,-0.04294582,-0.06561454,-0.04371676,-0.02548592,-0.02034503,-0.0
 2454998,-0.00021815,-0.00016002,0.00016072,0.00001807,0.00000564,-0.00
 002893,0.00000566,0.00000270,0.00001627,0.00000357,0.00000643,-0.00000
 236,0.00000127,0.00000094,0.00000117,-0.00000785,-0.00001509,0.0000060
 6,-0.00000181,-0.00000050,0.00000070,0.00000085,0.00000023,0.00000565,
 -0.00037634,0.00077586,0.00044776,0.00392493,-0.00189140,-0.00140245,0
 .05014181,0.08429340,0.00025007,-0.00017502,-0.00082958,0.00206368,0.0
 0087242,0.00089024,-0.00073513,-0.00066843,-0.00039001,0.00007056,0.00
 008074,-0.00021409,-0.00005938,0.00023915,0.00002743,0.00003373,-0.000
 07107,-0.00002295,0.00011071,-0.00020046,-0.00025774,0.00005844,0.0000
 1063,0.00003100,-0.00002040,-0.00001020,-0.00000402,-0.00000234,0.0000
 0058,0.00004175,-0.00001978,0.00001395,-0.00001291,0.00000274,0.000005
 12,-0.00000240,-0.00000620,-0.00002780,-0.00001516,0.00058458,0.001642
 66,0.00202602,-0.13133562,-0.05392464,-0.19507656,0.00822501,0.0055223
 9,0.00789712,-0.00002822,-0.00005331,0.00014917,0.00004106,-0.00000448
 ,0.00003146,0.00001648,0.00002573,-0.00003796,-0.00002065,-0.00000321,
 0.00000129,-0.00000992,-0.00000175,-0.00000813,0.00000313,0.00000366,0
 .00000120,0.00000239,-0.00000019,-0.00000047,0.00001728,-0.00000193,-0
 .00000619,-0.00059628,0.00035871,0.00036725,0.00122402,-0.00008886,0.0
 0052368,0.13721588,0.05204968,0.20025267,0.00143837,-0.00070279,0.0007
 1428,-0.00373001,0.00373592,-0.00316033,-0.00007700,-0.00043558,0.0010
 0098,-0.00002860,-0.00027441,-0.00023061,-0.00014418,0.00006639,-0.000
 06147,0.00003386,-0.00005574,0.00007180,0.00002184,-0.00006457,0.00018
 376,0.00006794,-0.00001537,0.00010841,-0.00001405,-0.00000865,0.000004
 68,0.00001234,0.00000861,0.00004501,-0.00001896,0.00002459,-0.00002689
 ,-0.00000234,0.00001053,0.00000053,-0.00000335,-0.00003676,-0.00003389
 ,-0.01193924,0.00101085,0.02364293,-0.10050237,-0.00399903,0.10379510,
 -0.00385179,-0.00330607,0.00719951,0.00006162,0.00011425,0.00013553,0.
 00002635,0.00000960,0.00000614,-0.00000624,0.00001184,-0.00003161,-0.0
 0004363,-0.00001138,-0.00000390,-0.00000672,-0.00000224,-0.00000352,-0
 .00000362,-0.00000619,0.00000799,0.00000032,-0.00000113,-0.00000029,0.
 00001319,-0.00000429,-0.00000348,0.00100760,-0.00020364,-0.00028619,0.
 00072330,-0.00101118,-0.00025355,0.01155639,0.00215513,-0.01813543,0.1
 0509262,0.00031004,0.00052098,-0.00055203,0.00271120,-0.00293433,0.001
 78462,0.00072955,0.00089418,-0.00126337,-0.00000421,0.00006417,0.00049
 908,0.00090711,-0.00110262,-0.00062872,-0.00029104,0.00022836,0.000457
 75,-0.00165282,0.00068030,0.00177481,-0.00004769,0.00007583,-0.0001474
 7,0.00001559,0.00000749,0.00001537,0.00001324,0.00000568,-0.00005141,0
 .00001573,0.00000038,0.00001033,-0.00001105,-0.00000743,-0.00000606,0.
 00000647,0.00002660,0.00000986,0.00758252,0.00136942,-0.01857319,-0.00
 005391,-0.04926045,-0.00307229,-0.01974544,-0.01233081,0.03712450,-0.0
 0010049,-0.00010304,-0.00010977,-0.00005483,0.00003846,-0.00006555,0.0
 0002578,-0.00003705,0.00009246,0.00006638,0.00002463,0.00000136,0.0000
 3254,0.00000639,0.00001583,-0.00000803,-0.00000920,-0.00000014,-0.0000
 0301,0.00000061,-0.00000060,-0.00001801,-0.00000131,0.00001101,-0.0005
 5412,0.00049176,-0.00008160,-0.00034744,0.00054641,0.00060996,0.005079
 02,0.00162229,-0.00703892,0.00405515,0.06203158,0.00145831,-0.00011399
 ,0.00077014,-0.00156588,0.00011036,-0.00104001,0.00029440,-0.00009547,
 0.00022351,-0.00001107,-0.00012046,0.00006188,-0.00009393,-0.00005194,
 0.00010340,0.00000754,0.00002071,-0.00005547,0.00000967,0.00000623,0.0
 0004842,-0.00002749,-0.00000599,0.00001119,0.00001258,0.00000482,0.000
 00736,0.00000253,0.00000512,-0.00001705,0.00000961,-0.00000784,0.00000
 103,-0.00000043,-0.00000205,0.00000290,0.00000272,0.00000564,0.0000020
 6,-0.00205635,-0.00040443,0.00259569,0.10576403,0.00754862,-0.27466059
 ,0.00005672,0.00050670,-0.00098338,-0.00000508,0.00003139,-0.00000763,
 -0.00000733,0.00000484,-0.00000704,-0.00000881,-0.00000274,0.00001702,
 -0.00000099,0.00000060,0.00000081,0.00000237,0.00000065,0.00000151,-0.
 00000371,-0.00000347,-0.00000045,-0.00000103,-0.00000006,0.00000009,-0
 .00000647,0.00000122,0.00000347,0.00048520,-0.00043596,0.00003753,0.00
 025931,-0.00016321,0.00058897,0.01021410,0.00076295,-0.01693715,-0.114
 78708,-0.00845416,0.28828967,0.00007736,-0.00006161,-0.00030002,-0.000
 57324,-0.00014872,0.00061128,0.00018330,0.00024602,-0.00011066,0.00009
 305,-0.00001341,0.00002474,-0.00040287,0.00034383,0.00081493,0.0000923
 9,0.00001424,-0.00051988,0.00085336,-0.00062037,-0.00042373,-0.0000748
 0,-0.00003491,-0.00000920,0.00002496,0.00002618,0.00001443,-0.00000146
 ,0.00002007,-0.00004549,0.00004043,-0.00003949,0.00000471,0.00000250,-
 0.00000789,0.00001238,0.00001470,0.00001088,0.00000975,-0.00070088,-0.
 00249963,0.00038955,0.01264084,-0.00422239,0.00016211,-0.30223277,0.15
 712814,-0.02188977,-0.00007881,-0.00001818,-0.00001735,0.00000889,-0.0
 0002387,-0.00000217,-0.00001875,0.00000495,0.00005112,0.00001223,0.000
 00105,-0.00000132,-0.00001773,-0.00000694,0.00000210,-0.00001455,-0.00
 000904,-0.00000659,-0.00000362,-0.00000085,0.00000090,-0.00002122,0.00
 000934,0.00001494,0.00065768,-0.00059502,-0.00002367,0.00002537,0.0000
 2602,0.00008171,0.00064536,-0.00051509,-0.00009276,0.00030191,-0.00025
 622,0.00022649,0.31948402,-0.00035000,0.00019809,-0.00021648,-0.000454
 18,0.00007543,0.00092407,-0.00023475,0.00024104,0.00014876,0.00007799,
 0.00001780,-0.00012096,0.00036405,-0.00021561,-0.00062341,-0.00008384,
 -0.00003203,0.00041153,-0.00067433,-0.00037664,0.00117358,0.00006865,0
 .00002717,0.00001662,-0.00002903,-0.00002794,-0.00002016,-0.00001111,-
 0.00001775,0.00004303,-0.00002855,0.00001676,-0.00000477,0.00000158,0.
 00001102,-0.00000299,-0.00001145,-0.00001173,-0.00000524,-0.00393201,-
 0.00586007,0.00111842,0.02736784,-0.01693193,0.00105489,0.16230224,-0.
 16110097,0.01210693,0.00013970,-0.00010080,-0.00000004,-0.00001682,0.0
 0000426,0.00004017,0.00002909,0.00001549,-0.00001078,-0.00001528,0.000
 00480,0.00000781,0.00000542,0.00001701,-0.00001285,0.00002084,0.000016
 46,0.00000241,0.00000336,0.00000133,-0.00000035,0.00001736,-0.00000215
 ,-0.00001025,0.00170163,-0.00076943,-0.00016378,-0.00021051,0.00027617
 ,0.00018036,0.00005524,0.00092631,-0.00116269,0.00006289,0.00108796,0.
 00062089,-0.16940884,0.16927046,-0.00026627,0.00017723,-0.00026333,0.0
 0047631,0.00031350,0.00057551,-0.00014209,-0.00035356,-0.00020952,-0.0
 0007098,0.00010126,0.00017918,0.00024861,-0.00018157,-0.00005381,-0.00
 011880,-0.00004377,-0.00008968,-0.00032881,0.00114764,-0.00152407,0.00
 004925,0.00002627,-0.00001046,-0.00000739,0.00000265,0.00000504,0.0000
 1134,0.00000445,0.00001325,-0.00001300,0.00001887,-0.00001778,-0.00000
 240,0.00000235,0.00000288,-0.00000461,-0.00001331,-0.00002223,0.000782
 78,0.00092468,-0.00027197,-0.00503632,0.00344398,-0.00086259,-0.017426
 84,0.00892393,-0.06034981,-0.00002553,0.00000814,-0.00001597,0.0000022
 6,0.00002542,-0.00004166,0.00003563,-0.00001625,-0.00004183,0.00001242
 ,0.00000186,-0.00000905,0.00000882,-0.00000526,0.00000746,-0.00000046,
 -0.00000275,0.00000527,0.00000011,-0.00000052,0.00000034,0.00000657,-0
 .00000395,0.00000375,-0.00020577,0.00013273,0.00033080,0.00023437,-0.0
 0020878,0.00004447,0.00013503,-0.00106833,0.00043715,-0.00035888,0.000
 38946,-0.00059277,0.02234168,-0.01249006,0.05523480,-0.00291332,-0.000
 56775,0.00034794,0.00657714,0.00453975,-0.00133401,-0.00232686,-0.0037
 4669,0.00093546,0.00094504,0.00103137,-0.00099286,-0.01075413,0.010105
 24,0.00983118,0.00264804,-0.00144919,-0.00713610,0.00756179,-0.0062632
 4,-0.01016513,-0.00058254,-0.00064854,0.00015330,0.00016691,0.00018610
 ,-0.00003246,-0.00012664,-0.00000265,-0.00030284,0.00026065,-0.0003845
 5,0.00016567,0.00009430,-0.00007392,0.00010485,0.00004121,0.00016766,0
 .00023235,0.00088706,0.00117240,-0.00043843,-0.00173290,-0.00721903,0.
 00205992,-0.12320558,-0.00874897,0.09742456,-0.00035445,0.00042503,-0.
 00014165,0.00042275,-0.00041303,0.00025896,-0.00013106,0.00028075,-0.0
 0038070,-0.00004613,-0.00004674,0.00003818,-0.00022684,-0.00007832,-0.
 00003734,-0.00001612,0.00001293,-0.00006607,0.00000365,0.00000283,0.00
 000848,-0.00010304,0.00009479,0.00002938,-0.00065196,0.00018920,0.0002
 1794,-0.00019084,0.00000121,0.00002228,-0.00049102,0.00015857,-0.00007
 293,0.00030434,0.00138810,-0.00044832,-0.01460472,-0.00276853,0.025178
 26,0.12317883,-0.00172255,0.00053971,-0.00064483,0.00406508,-0.0027964
 2,0.00079418,-0.00102326,-0.00056392,0.00005139,0.00081372,-0.00019039
 ,-0.00155110,-0.00272687,0.00399400,-0.00021929,0.00181136,-0.00054140
 ,-0.00199239,0.00261007,-0.01024396,-0.00025431,-0.00006039,-0.0000514
 8,0.00013855,-0.00006707,-0.00002231,-0.00005870,-0.00007673,-0.000011
 89,0.00007933,0.00002209,-0.00010037,0.00002109,0.00004658,0.00000744,
 0.00002514,-0.00000496,-0.00003344,0.00003910,0.00035788,0.00133050,0.
 00067256,-0.01569937,-0.00135973,0.02771987,-0.01430999,-0.06716056,0.
 02368553,0.00023978,0.00003043,0.00038026,0.00013148,-0.00024132,0.000
 34703,0.00008350,0.00032474,-0.00023328,-0.00011275,-0.00003251,0.0000
 2918,-0.00012305,0.00000490,-0.00006150,0.00002375,0.00003640,-0.00002
 024,0.00001126,0.00000158,0.00000120,0.00001750,0.00003037,-0.00002271
 ,-0.00030314,0.00032018,-0.00021382,0.00014621,-0.00015045,-0.00006840
 ,-0.00027054,0.00085868,-0.00024772,-0.00117391,-0.00567216,-0.0001400
 8,0.00933728,0.00312492,-0.01967478,0.00871041,0.07690222,0.00057800,0
 .00202135,-0.00347503,-0.00234732,-0.00190329,0.00699102,0.00182479,0.
 00126900,-0.00275824,-0.00225202,-0.00158689,0.00259743,0.01529858,-0.
 01655972,-0.01609591,-0.00364819,0.00226952,0.01075919,-0.02039053,0.0
 0947596,0.00826082,0.00095945,0.00140777,-0.00026146,-0.00030268,-0.00
 021630,0.00008482,0.00023562,0.00010935,0.00043135,-0.00034194,0.00058
 361,-0.00027257,-0.00016125,0.00005927,-0.00020201,-0.00002189,-0.0003
 3678,-0.00037549,-0.00046675,-0.00135424,-0.00072626,-0.00062305,0.011
 92708,0.00220043,0.09729654,0.01449547,-0.23086836,-0.00049109,0.00051
 409,0.00010593,-0.00043806,0.00062279,-0.00061462,0.00105525,-0.000063
 50,0.00043940,0.00014950,0.00002670,-0.00010996,0.00024558,-0.00000341
 ,0.00014367,-0.00006772,-0.00008081,0.00006384,-0.00000629,-0.00000555
 ,-0.00001680,0.00013772,-0.00012885,-0.00000222,0.00064921,-0.00037581
 ,-0.00021932,0.00008909,0.00021147,-0.00044389,-0.00052619,-0.00105400
 ,0.00101135,-0.00024555,-0.00322885,0.00094210,-0.00227992,-0.00319181
 ,0.00841171,-0.09502753,-0.01650243,0.23423744,-0.00070493,0.00018179,
 -0.00045706,0.00126203,0.00048865,0.00041999,-0.00042765,-0.00085721,-
 0.00022330,-0.00019406,-0.00010093,0.00019536,0.00045720,-0.00047762,-
 0.00017989,-0.00007382,0.00014863,0.00019096,-0.00197845,-0.00049759,0
 .00080181,0.00005285,0.00015294,0.00003434,-0.00002226,0.00003058,0.00
 006036,0.00002364,0.00011339,0.00004311,0.00002118,-0.00001222,-0.0000
 4778,-0.00000440,-0.00002234,-0.00001922,0.00002266,-0.00009215,-0.000
 06619,0.00175907,0.00057496,0.00130560,-0.00442085,-0.00504073,-0.0040
 6219,-0.16573371,-0.06570653,-0.14144057,-0.00026996,0.00045332,0.0002
 0221,0.00000261,0.00001723,-0.00007003,0.00007532,0.00002873,0.0000568
 3,0.00000633,-0.00002760,-0.00003316,-0.00003631,-0.00006191,0.0000378
 8,-0.00007240,-0.00004129,-0.00001333,-0.00000063,-0.00000275,-0.00000
 597,0.00000425,0.00000690,0.00001842,-0.00037220,0.00007491,-0.0001203
 7,-0.00008047,-0.00009313,-0.00059193,0.00068074,-0.00101330,0.0012152
 6,-0.00028987,0.00020990,0.00021837,-0.01641295,-0.01398865,-0.0255152
 9,0.01536643,0.00924664,0.01111865,0.17136059,0.00028877,-0.00000005,0
 .00067743,0.00002133,-0.00022917,-0.00113339,-0.00024393,0.00015794,0.
 00033142,0.00010271,0.00014347,-0.00022182,-0.00001743,0.00006985,-0.0
 0033186,0.00001519,-0.00007761,0.00025794,-0.00066765,-0.00054736,0.00
 053842,0.00009528,0.00006667,0.00006845,-0.00005227,-0.00003567,-0.000
 03557,-0.00003912,0.00000814,0.00009368,-0.00003198,-0.00001421,-0.000
 00911,0.00001448,0.00000463,-0.00000556,-0.00001248,-0.00003459,-0.000
 01176,-0.00036029,0.00121085,-0.00078142,-0.01986594,-0.01200631,-0.02
 621625,-0.07166909,-0.10604620,-0.09945340,0.00029633,-0.00009217,-0.0
 0004086,-0.00001800,-0.00001633,0.00008397,0.00003103,0.00004046,-0.00
 003968,-0.00003168,-0.00001437,0.00000196,-0.00001538,0.00000705,-0.00
 001112,0.00002194,0.00003344,-0.00000751,0.00000802,0.00000174,-0.0000
 0251,0.00002739,0.00000305,-0.00001483,-0.00000981,0.00032834,0.000520
 55,0.00108959,-0.00039157,0.00050324,-0.00059087,-0.00589029,0.0028552
 7,0.00004720,0.00173492,0.00037109,0.01131445,0.01011457,0.01841847,0.
 00394482,0.00166624,0.00159882,0.07630740,0.10980454,0.00021980,0.0000
 3794,0.00017421,-0.00075610,-0.00065611,-0.00040227,0.00001355,0.00073
 643,0.00027615,0.00003132,0.00003609,-0.00016168,0.00067391,-0.0003121
 9,-0.00080739,-0.00021307,-0.00007868,0.00049508,0.00074482,0.00105642
 ,0.00065250,0.00010818,-0.00001618,0.00001886,-0.00001159,-0.00002158,
 0.00001015,0.00001293,0.00000436,0.00008304,-0.00005164,0.00005417,-0.
 00005006,-0.00000803,0.00002648,0.00000718,-0.00002147,-0.00004712,-0.
 00006979,0.00088513,-0.00024300,0.00021722,0.00625645,0.00135897,0.009
 47470,-0.14652443,-0.09483841,-0.25285780,0.00024911,-0.00023112,0.000
 06419,-0.00003925,0.00001456,0.00004963,-0.00001864,-0.00004370,-0.000
 04100,-0.00002212,0.00001247,-0.00000030,0.00004701,0.00003095,0.00000
 051,0.00000961,-0.00000168,0.00003145,0.00000209,-0.00000082,-0.000001
 24,0.00002704,-0.00001249,-0.00000924,-0.00010839,0.00004929,-0.000071
 23,-0.00031066,-0.00016058,-0.00012120,0.00064393,0.00266348,0.0001265
 3,0.00070602,0.00047774,0.00059281,0.00095970,0.00018716,-0.00087508,-
 0.02043234,-0.01207879,-0.02023833,0.15692712,0.10199594,0.26343240\\0
 .00000518,0.00000296,0.00000005,-0.00001111,-0.00000955,0.00000202,0.0
 0000090,0.00001611,-0.00000323,0.00001085,-0.00000090,-0.00000164,-0.0
 0000405,0.00000018,-0.00000239,0.00000163,-0.00000255,0.00000151,0.000
 00582,-0.00000055,-0.00000017,-0.00000508,-0.00000574,-0.00000274,-0.0
 0000069,-0.00000088,0.00000273,-0.00000009,0.00000049,-0.00000183,0.00
 000020,0.00000103,0.00000077,-0.00000025,-0.00000079,0.00000038,0.0000
 0098,-0.00000043,0.00000021,0.00000545,-0.00000087,0.00000374,-0.00000
 297,-0.00001133,-0.00000194,0.00000177,0.00000857,-0.00000609,-0.00000
 600,-0.00000201,0.00000111,0.00000414,-0.00000230,-0.00000369,0.000000
 39,-0.00000131,-0.00000084,0.00000012,0.00000080,-0.00000055,-0.000001
 32,-0.00000091,0.00000060,-0.00000052,0.,-0.00000010,-0.00000005,-0.00
 000014,0.00000114,0.00000010,-0.00000061,0.00000087,0.00000120,-0.0000
 0006,0.00000159,0.00000027,0.00000309,-0.00000040,-0.00000103,0.000002
 83,-0.00000077,-0.00000015,0.00000362,-0.00000030,-0.00000060,0.000000
 53,0.00000024,-0.00000674,-0.00000013,0.00001059,0.00000164,0.00000083
 ,-0.00000086\\\@


 IF IT HAPPENS, IT MUST BE POSSIBLE.

 -- THE UNNAMED LAW FROM PAUL DICKSON'S 
    "THE OFFICIAL RULES"
 Job cpu time:       0 days  2 hours 25 minutes 38.8 seconds.
 File lengths (MBytes):  RWF=    458 Int=      0 D2E=      0 Chk=     13 Scr=      1
 Normal termination of Gaussian 09 at Thu Jul 29 00:01:17 2021.
