 Entering Gaussian System, Link 0=g09
 Input=opt_freq-conf-301.com
 Output=opt_freq-conf-301.log
 Initial command:
 /aerosol/software/g09/l1.exe "/scratch/nicole/10682/Gau-82797.inp" -scrdir="/scratch/nicole/10682/"
 Entering Link 1 = /aerosol/software/g09/l1.exe PID=     82800.
  
 Copyright (c) 1988,1990,1992,1993,1995,1998,2003,2009,2013,
            Gaussian, Inc.  All Rights Reserved.
  
 This is part of the Gaussian(R) 09 program.  It is based on
 the Gaussian(R) 03 system (copyright 2003, Gaussian, Inc.),
 the Gaussian(R) 98 system (copyright 1998, Gaussian, Inc.),
 the Gaussian(R) 94 system (copyright 1995, Gaussian, Inc.),
 the Gaussian 92(TM) system (copyright 1992, Gaussian, Inc.),
 the Gaussian 90(TM) system (copyright 1990, Gaussian, Inc.),
 the Gaussian 88(TM) system (copyright 1988, Gaussian, Inc.),
 the Gaussian 86(TM) system (copyright 1986, Carnegie Mellon
 University), and the Gaussian 82(TM) system (copyright 1983,
 Carnegie Mellon University). Gaussian is a federally registered
 trademark of Gaussian, Inc.
  
 This software contains proprietary and confidential information,
 including trade secrets, belonging to Gaussian, Inc.
  
 This software is provided under written license and may be
 used, copied, transmitted, or stored only in accord with that
 written license.
  
 The following legend is applicable only to US Government
 contracts under FAR:
  
                    RESTRICTED RIGHTS LEGEND
  
 Use, reproduction and disclosure by the US Government is
 subject to restrictions as set forth in subparagraphs (a)
 and (c) of the Commercial Computer Software - Restricted
 Rights clause in FAR 52.227-19.
  
 Gaussian, Inc.
 340 Quinnipiac St., Bldg. 40, Wallingford CT 06492
  
  
 ---------------------------------------------------------------
 Warning -- This program may not be used in any manner that
 competes with the business of Gaussian, Inc. or will provide
 assistance to any competitor of Gaussian, Inc.  The licensee
 of this program is prohibited from giving any competitor of
 Gaussian, Inc. access to this program.  By using this program,
 the user acknowledges that Gaussian, Inc. is engaged in the
 business of creating and licensing software in the field of
 computational chemistry and represents and warrants to the
 licensee that it is not a competitor of Gaussian, Inc. and that
 it will not use this program in any manner prohibited above.
 ---------------------------------------------------------------
  

 Cite this work as:
 Gaussian 09, Revision D.01,
 M. J. Frisch, G. W. Trucks, H. B. Schlegel, G. E. Scuseria, 
 M. A. Robb, J. R. Cheeseman, G. Scalmani, V. Barone, B. Mennucci, 
 G. A. Petersson, H. Nakatsuji, M. Caricato, X. Li, H. P. Hratchian, 
 A. F. Izmaylov, J. Bloino, G. Zheng, J. L. Sonnenberg, M. Hada, 
 M. Ehara, K. Toyota, R. Fukuda, J. Hasegawa, M. Ishida, T. Nakajima, 
 Y. Honda, O. Kitao, H. Nakai, T. Vreven, J. A. Montgomery, Jr., 
 J. E. Peralta, F. Ogliaro, M. Bearpark, J. J. Heyd, E. Brothers, 
 K. N. Kudin, V. N. Staroverov, T. Keith, R. Kobayashi, J. Normand, 
 K. Raghavachari, A. Rendell, J. C. Burant, S. S. Iyengar, J. Tomasi, 
 M. Cossi, N. Rega, J. M. Millam, M. Klene, J. E. Knox, J. B. Cross, 
 V. Bakken, C. Adamo, J. Jaramillo, R. Gomperts, R. E. Stratmann, 
 O. Yazyev, A. J. Austin, R. Cammi, C. Pomelli, J. W. Ochterski, 
 R. L. Martin, K. Morokuma, V. G. Zakrzewski, G. A. Voth, 
 P. Salvador, J. J. Dannenberg, S. Dapprich, A. D. Daniels, 
 O. Farkas, J. B. Foresman, J. V. Ortiz, J. Cioslowski, 
 and D. J. Fox, Gaussian, Inc., Wallingford CT, 2013.
 
 ******************************************
 Gaussian 09:  ES64L-G09RevD.01 24-Apr-2013
                28-Jul-2021 
 ******************************************
 %mem=2gb
 %nproc=4
 Will use up to    4 processors via shared memory.
 %chk=conf-301.chk
 ----------------------------------------------------------------------
 # B3LYP/6-311G(d,p) opt=calcfc freq=noraman nosymm integral(ultrafineg
 rid)
 ----------------------------------------------------------------------
 1/10=4,14=-1,18=20,19=15,26=4,38=1/1,3;
 2/9=110,12=2,15=1,17=6,18=5,40=1/2;
 3/5=4,6=6,7=101,11=2,16=1,25=1,30=1,71=2,74=-5,75=-5,140=1/1,2,3;
 4//1;
 5/5=2,38=5/2;
 8/6=4,10=90,11=11/1;
 11/6=1,8=1,9=11,15=111,16=1,31=1/1,2,10;
 10/6=1,13=1,31=1/2;
 6/7=2,8=2,9=2,10=2,28=1/1;
 7/10=1,18=20,25=1,30=1/1,2,3,16;
 1/10=4,14=-1,18=20,19=15,26=4/3(2);
 2/9=110,15=1/2;
 99//99;
 2/9=110,15=1/2;
 3/5=4,6=6,7=101,11=2,16=1,25=1,30=1,71=1,74=-5,75=-5/1,2,3;
 4/5=5,16=3,69=1/1;
 5/5=2,38=5/2;
 7/30=1/1,2,3,16;
 1/14=-1,18=20,19=15,26=4/3(-5);
 2/9=110,15=1/2;
 6/7=2,8=2,9=2,10=2,19=2,28=1/1;
 99/9=1/99;
 ------------------------------------------------------------
 Candidate Structure: Conf:301 OPT and FREQ calc in gas phase
 ------------------------------------------------------------
 Symbolic Z-matrix:
 Charge =  1 Multiplicity = 1
 O                    -0.13881  -0.14864  -1.76768 
 C                     0.37704   0.73199  -1.08592 
 N                    -0.36807   1.54339  -0.28954 
 C                    -1.69978   1.15699   0.11336 
 C                    -2.48703   2.41612   0.39823 
 O                    -3.81375   2.17874   0.4095 
 O                    -2.00478   3.49354   0.62806 
 C                    -1.71407   0.28347   1.39749 
 C                    -0.86229  -0.9459    1.29263 
 C                     0.37799  -1.24597   1.78407 
 N                     0.81292  -2.47088   1.32067 
 C                    -0.17136  -2.92931   0.59162 
 N                    -1.20497  -2.04884   0.5375 
 C                     1.87632   0.99424  -1.03538 
 C                     2.70492   0.02335  -1.85939 
 N                     2.44095  -1.38529  -1.47797 
 H                     0.06396   2.28836   0.23028 
 H                    -2.15378   0.60536  -0.70847 
 H                    -4.23228   3.02183   0.6253 
 H                    -1.3464    0.87479   2.23745 
 H                    -2.74758   0.01572   1.61236 
 H                     0.99944  -0.61957   2.41458 
 H                    -0.1819   -3.87674   0.07388 
 H                    -2.04603  -2.15826  -0.00986 
 H                     2.19196   0.9501    0.01525 
 H                     2.05996   2.0183   -1.37188 
 H                     2.46431   0.1559   -2.91485 
 H                     3.76406   0.2522   -1.73145 
 H                     3.06624  -2.03948  -1.94956 
 H                     1.47923  -1.59914  -1.75807 
 H                     2.49377  -1.5368   -0.46652 
 

 GradGradGradGradGradGradGradGradGradGradGradGradGradGradGradGradGradGrad
 Berny optimization.
 Initialization pass.
                           ----------------------------
                           !    Initial Parameters    !
                           ! (Angstroms and Degrees)  !
 --------------------------                            --------------------------
 ! Name  Definition              Value          Derivative Info.                !
 --------------------------------------------------------------------------------
 ! R1    R(1,2)                  1.2274         calculate D2E/DX2 analytically  !
 ! R2    R(2,3)                  1.3593         calculate D2E/DX2 analytically  !
 ! R3    R(2,14)                 1.5229         calculate D2E/DX2 analytically  !
 ! R4    R(3,4)                  1.444          calculate D2E/DX2 analytically  !
 ! R5    R(3,17)                 1.0059         calculate D2E/DX2 analytically  !
 ! R6    R(4,5)                  1.5121         calculate D2E/DX2 analytically  !
 ! R7    R(4,8)                  1.5531         calculate D2E/DX2 analytically  !
 ! R8    R(4,18)                 1.089          calculate D2E/DX2 analytically  !
 ! R9    R(5,6)                  1.3478         calculate D2E/DX2 analytically  !
 ! R10   R(5,7)                  1.2026         calculate D2E/DX2 analytically  !
 ! R11   R(6,19)                 0.9657         calculate D2E/DX2 analytically  !
 ! R12   R(8,9)                  1.4993         calculate D2E/DX2 analytically  !
 ! R13   R(8,20)                 1.091          calculate D2E/DX2 analytically  !
 ! R14   R(8,21)                 1.089          calculate D2E/DX2 analytically  !
 ! R15   R(9,10)                 1.3674         calculate D2E/DX2 analytically  !
 ! R16   R(9,13)                 1.3799         calculate D2E/DX2 analytically  !
 ! R17   R(10,11)                1.38           calculate D2E/DX2 analytically  !
 ! R18   R(10,22)                1.0845         calculate D2E/DX2 analytically  !
 ! R19   R(11,12)                1.3079         calculate D2E/DX2 analytically  !
 ! R20   R(12,13)                1.3589         calculate D2E/DX2 analytically  !
 ! R21   R(12,23)                1.0797         calculate D2E/DX2 analytically  !
 ! R22   R(13,24)                1.0094         calculate D2E/DX2 analytically  !
 ! R23   R(14,15)                1.5193         calculate D2E/DX2 analytically  !
 ! R24   R(14,25)                1.0979         calculate D2E/DX2 analytically  !
 ! R25   R(14,26)                1.0935         calculate D2E/DX2 analytically  !
 ! R26   R(15,16)                1.483          calculate D2E/DX2 analytically  !
 ! R27   R(15,27)                1.0906         calculate D2E/DX2 analytically  !
 ! R28   R(15,28)                1.0911         calculate D2E/DX2 analytically  !
 ! R29   R(16,29)                1.0205         calculate D2E/DX2 analytically  !
 ! R30   R(16,30)                1.0243         calculate D2E/DX2 analytically  !
 ! R31   R(16,31)                1.0241         calculate D2E/DX2 analytically  !
 ! A1    A(1,2,3)              121.5556         calculate D2E/DX2 analytically  !
 ! A2    A(1,2,14)             123.764          calculate D2E/DX2 analytically  !
 ! A3    A(3,2,14)             114.6718         calculate D2E/DX2 analytically  !
 ! A4    A(2,3,4)              120.6148         calculate D2E/DX2 analytically  !
 ! A5    A(2,3,17)             120.6239         calculate D2E/DX2 analytically  !
 ! A6    A(4,3,17)             116.7494         calculate D2E/DX2 analytically  !
 ! A7    A(3,4,5)              108.0534         calculate D2E/DX2 analytically  !
 ! A8    A(3,4,8)              112.9349         calculate D2E/DX2 analytically  !
 ! A9    A(3,4,18)             108.0278         calculate D2E/DX2 analytically  !
 ! A10   A(5,4,8)              107.9259         calculate D2E/DX2 analytically  !
 ! A11   A(5,4,18)             110.3004         calculate D2E/DX2 analytically  !
 ! A12   A(8,4,18)             109.5873         calculate D2E/DX2 analytically  !
 ! A13   A(4,5,6)              111.5559         calculate D2E/DX2 analytically  !
 ! A14   A(4,5,7)              124.9785         calculate D2E/DX2 analytically  !
 ! A15   A(6,5,7)              123.4302         calculate D2E/DX2 analytically  !
 ! A16   A(5,6,19)             105.9456         calculate D2E/DX2 analytically  !
 ! A17   A(4,8,9)              113.4602         calculate D2E/DX2 analytically  !
 ! A18   A(4,8,20)             109.1842         calculate D2E/DX2 analytically  !
 ! A19   A(4,8,21)             108.0677         calculate D2E/DX2 analytically  !
 ! A20   A(9,8,20)             107.8662         calculate D2E/DX2 analytically  !
 ! A21   A(9,8,21)             110.5699         calculate D2E/DX2 analytically  !
 ! A22   A(20,8,21)            107.5279         calculate D2E/DX2 analytically  !
 ! A23   A(8,9,10)             132.0744         calculate D2E/DX2 analytically  !
 ! A24   A(8,9,13)             123.5444         calculate D2E/DX2 analytically  !
 ! A25   A(10,9,13)            104.2715         calculate D2E/DX2 analytically  !
 ! A26   A(9,10,11)            111.0983         calculate D2E/DX2 analytically  !
 ! A27   A(9,10,22)            127.0102         calculate D2E/DX2 analytically  !
 ! A28   A(11,10,22)           121.8242         calculate D2E/DX2 analytically  !
 ! A29   A(10,11,12)           105.1373         calculate D2E/DX2 analytically  !
 ! A30   A(11,12,13)           111.5634         calculate D2E/DX2 analytically  !
 ! A31   A(11,12,23)           125.6073         calculate D2E/DX2 analytically  !
 ! A32   A(13,12,23)           122.8225         calculate D2E/DX2 analytically  !
 ! A33   A(9,13,12)            107.8912         calculate D2E/DX2 analytically  !
 ! A34   A(9,13,24)            126.1768         calculate D2E/DX2 analytically  !
 ! A35   A(12,13,24)           125.8125         calculate D2E/DX2 analytically  !
 ! A36   A(2,14,15)            114.1355         calculate D2E/DX2 analytically  !
 ! A37   A(2,14,25)            107.9306         calculate D2E/DX2 analytically  !
 ! A38   A(2,14,26)            108.4455         calculate D2E/DX2 analytically  !
 ! A39   A(15,14,25)           109.6656         calculate D2E/DX2 analytically  !
 ! A40   A(15,14,26)           109.8762         calculate D2E/DX2 analytically  !
 ! A41   A(25,14,26)           106.4904         calculate D2E/DX2 analytically  !
 ! A42   A(14,15,16)           111.7413         calculate D2E/DX2 analytically  !
 ! A43   A(14,15,27)           109.08           calculate D2E/DX2 analytically  !
 ! A44   A(14,15,28)           109.3767         calculate D2E/DX2 analytically  !
 ! A45   A(16,15,27)           108.97           calculate D2E/DX2 analytically  !
 ! A46   A(16,15,28)           109.9886         calculate D2E/DX2 analytically  !
 ! A47   A(27,15,28)           107.5867         calculate D2E/DX2 analytically  !
 ! A48   A(15,16,29)           112.3948         calculate D2E/DX2 analytically  !
 ! A49   A(15,16,30)           107.1637         calculate D2E/DX2 analytically  !
 ! A50   A(15,16,31)           112.6662         calculate D2E/DX2 analytically  !
 ! A51   A(29,16,30)           108.3673         calculate D2E/DX2 analytically  !
 ! A52   A(29,16,31)           109.2679         calculate D2E/DX2 analytically  !
 ! A53   A(30,16,31)           106.7156         calculate D2E/DX2 analytically  !
 ! D1    D(1,2,3,4)             19.5353         calculate D2E/DX2 analytically  !
 ! D2    D(1,2,3,17)          -177.1208         calculate D2E/DX2 analytically  !
 ! D3    D(14,2,3,4)          -159.4324         calculate D2E/DX2 analytically  !
 ! D4    D(14,2,3,17)            3.9116         calculate D2E/DX2 analytically  !
 ! D5    D(1,2,14,15)           -2.7105         calculate D2E/DX2 analytically  !
 ! D6    D(1,2,14,25)         -124.8903         calculate D2E/DX2 analytically  !
 ! D7    D(1,2,14,26)          120.1217         calculate D2E/DX2 analytically  !
 ! D8    D(3,2,14,15)          176.2313         calculate D2E/DX2 analytically  !
 ! D9    D(3,2,14,25)           54.0516         calculate D2E/DX2 analytically  !
 ! D10   D(3,2,14,26)          -60.9365         calculate D2E/DX2 analytically  !
 ! D11   D(2,3,4,5)           -153.9324         calculate D2E/DX2 analytically  !
 ! D12   D(2,3,4,8)             86.7643         calculate D2E/DX2 analytically  !
 ! D13   D(2,3,4,18)           -34.6031         calculate D2E/DX2 analytically  !
 ! D14   D(17,3,4,5)            42.1016         calculate D2E/DX2 analytically  !
 ! D15   D(17,3,4,8)           -77.2016         calculate D2E/DX2 analytically  !
 ! D16   D(17,3,4,18)          161.431          calculate D2E/DX2 analytically  !
 ! D17   D(3,4,5,6)            162.512          calculate D2E/DX2 analytically  !
 ! D18   D(3,4,5,7)            -19.5962         calculate D2E/DX2 analytically  !
 ! D19   D(8,4,5,6)            -75.0616         calculate D2E/DX2 analytically  !
 ! D20   D(8,4,5,7)            102.8302         calculate D2E/DX2 analytically  !
 ! D21   D(18,4,5,6)            44.631          calculate D2E/DX2 analytically  !
 ! D22   D(18,4,5,7)          -137.4772         calculate D2E/DX2 analytically  !
 ! D23   D(3,4,8,9)            -55.4448         calculate D2E/DX2 analytically  !
 ! D24   D(3,4,8,20)            64.8933         calculate D2E/DX2 analytically  !
 ! D25   D(3,4,8,21)          -178.4322         calculate D2E/DX2 analytically  !
 ! D26   D(5,4,8,9)           -174.8217         calculate D2E/DX2 analytically  !
 ! D27   D(5,4,8,20)           -54.4836         calculate D2E/DX2 analytically  !
 ! D28   D(5,4,8,21)            62.1909         calculate D2E/DX2 analytically  !
 ! D29   D(18,4,8,9)            65.036          calculate D2E/DX2 analytically  !
 ! D30   D(18,4,8,20)         -174.6259         calculate D2E/DX2 analytically  !
 ! D31   D(18,4,8,21)          -57.9514         calculate D2E/DX2 analytically  !
 ! D32   D(4,5,6,19)           178.1955         calculate D2E/DX2 analytically  !
 ! D33   D(7,5,6,19)             0.2653         calculate D2E/DX2 analytically  !
 ! D34   D(4,8,9,10)           102.3333         calculate D2E/DX2 analytically  !
 ! D35   D(4,8,9,13)           -73.2285         calculate D2E/DX2 analytically  !
 ! D36   D(20,8,9,10)          -18.7483         calculate D2E/DX2 analytically  !
 ! D37   D(20,8,9,13)          165.6898         calculate D2E/DX2 analytically  !
 ! D38   D(21,8,9,10)         -136.0673         calculate D2E/DX2 analytically  !
 ! D39   D(21,8,9,13)           48.3708         calculate D2E/DX2 analytically  !
 ! D40   D(8,9,10,11)         -174.3606         calculate D2E/DX2 analytically  !
 ! D41   D(8,9,10,22)            2.6761         calculate D2E/DX2 analytically  !
 ! D42   D(13,9,10,11)           1.8236         calculate D2E/DX2 analytically  !
 ! D43   D(13,9,10,22)         178.8603         calculate D2E/DX2 analytically  !
 ! D44   D(8,9,13,12)          175.669          calculate D2E/DX2 analytically  !
 ! D45   D(8,9,13,24)           -0.5304         calculate D2E/DX2 analytically  !
 ! D46   D(10,9,13,12)          -0.9332         calculate D2E/DX2 analytically  !
 ! D47   D(10,9,13,24)        -177.1326         calculate D2E/DX2 analytically  !
 ! D48   D(9,10,11,12)          -2.0211         calculate D2E/DX2 analytically  !
 ! D49   D(22,10,11,12)       -179.2363         calculate D2E/DX2 analytically  !
 ! D50   D(10,11,12,13)          1.3885         calculate D2E/DX2 analytically  !
 ! D51   D(10,11,12,23)       -179.5397         calculate D2E/DX2 analytically  !
 ! D52   D(11,12,13,9)          -0.3003         calculate D2E/DX2 analytically  !
 ! D53   D(11,12,13,24)        175.9167         calculate D2E/DX2 analytically  !
 ! D54   D(23,12,13,9)        -179.4022         calculate D2E/DX2 analytically  !
 ! D55   D(23,12,13,24)         -3.1853         calculate D2E/DX2 analytically  !
 ! D56   D(2,14,15,16)         -55.3687         calculate D2E/DX2 analytically  !
 ! D57   D(2,14,15,27)          65.1784         calculate D2E/DX2 analytically  !
 ! D58   D(2,14,15,28)        -177.3984         calculate D2E/DX2 analytically  !
 ! D59   D(25,14,15,16)         65.8549         calculate D2E/DX2 analytically  !
 ! D60   D(25,14,15,27)       -173.598          calculate D2E/DX2 analytically  !
 ! D61   D(25,14,15,28)        -56.1748         calculate D2E/DX2 analytically  !
 ! D62   D(26,14,15,16)       -177.4187         calculate D2E/DX2 analytically  !
 ! D63   D(26,14,15,27)        -56.8716         calculate D2E/DX2 analytically  !
 ! D64   D(26,14,15,28)         60.5516         calculate D2E/DX2 analytically  !
 ! D65   D(14,15,16,29)       -173.5573         calculate D2E/DX2 analytically  !
 ! D66   D(14,15,16,30)         67.498          calculate D2E/DX2 analytically  !
 ! D67   D(14,15,16,31)        -49.5803         calculate D2E/DX2 analytically  !
 ! D68   D(27,15,16,29)         65.8315         calculate D2E/DX2 analytically  !
 ! D69   D(27,15,16,30)        -53.1132         calculate D2E/DX2 analytically  !
 ! D70   D(27,15,16,31)       -170.1915         calculate D2E/DX2 analytically  !
 ! D71   D(28,15,16,29)        -51.8798         calculate D2E/DX2 analytically  !
 ! D72   D(28,15,16,30)       -170.8245         calculate D2E/DX2 analytically  !
 ! D73   D(28,15,16,31)         72.0972         calculate D2E/DX2 analytically  !
 --------------------------------------------------------------------------------
 Trust Radius=3.00D-01 FncErr=1.00D-07 GrdErr=1.00D-06
 Number of steps in this run=    167 maximum allowed number of steps=    186.
 GradGradGradGradGradGradGradGradGradGradGradGradGradGradGradGradGradGrad

                          Input orientation:                          
 ---------------------------------------------------------------------
 Center     Atomic      Atomic             Coordinates (Angstroms)
 Number     Number       Type             X           Y           Z
 ---------------------------------------------------------------------
      1          8           0       -0.138812   -0.148640   -1.767677
      2          6           0        0.377043    0.731988   -1.085918
      3          7           0       -0.368072    1.543392   -0.289539
      4          6           0       -1.699776    1.156991    0.113364
      5          6           0       -2.487034    2.416121    0.398227
      6          8           0       -3.813746    2.178739    0.409500
      7          8           0       -2.004782    3.493543    0.628056
      8          6           0       -1.714069    0.283474    1.397493
      9          6           0       -0.862288   -0.945898    1.292630
     10          6           0        0.377987   -1.245966    1.784068
     11          7           0        0.812918   -2.470876    1.320671
     12          6           0       -0.171359   -2.929311    0.591616
     13          7           0       -1.204965   -2.048844    0.537500
     14          6           0        1.876321    0.994236   -1.035383
     15          6           0        2.704922    0.023349   -1.859393
     16          7           0        2.440955   -1.385286   -1.477965
     17          1           0        0.063956    2.288359    0.230280
     18          1           0       -2.153784    0.605359   -0.708473
     19          1           0       -4.232284    3.021834    0.625295
     20          1           0       -1.346396    0.874791    2.237450
     21          1           0       -2.747575    0.015717    1.612359
     22          1           0        0.999445   -0.619573    2.414576
     23          1           0       -0.181899   -3.876737    0.073880
     24          1           0       -2.046031   -2.158257   -0.009859
     25          1           0        2.191957    0.950096    0.015249
     26          1           0        2.059958    2.018302   -1.371880
     27          1           0        2.464305    0.155904   -2.914855
     28          1           0        3.764060    0.252198   -1.731446
     29          1           0        3.066242   -2.039480   -1.949563
     30          1           0        1.479227   -1.599140   -1.758067
     31          1           0        2.493767   -1.536799   -0.466521
 ---------------------------------------------------------------------
                    Distance matrix (angstroms):
                    1          2          3          4          5
     1  O    0.000000
     2  C    1.227358   0.000000
     3  N    2.258412   1.359335   0.000000
     4  C    2.771208   2.435586   1.443978   0.000000
     5  C    4.096741   3.638946   2.392630   1.512062   0.000000
     6  O    4.864353   4.678897   3.572813   2.366545   1.347828
     7  O    4.742033   4.029514   2.706268   2.411931   1.202591
     8  C    3.561805   3.277384   2.499035   1.553133   2.478748
     9  C    3.244152   3.163659   2.990665   2.552292   3.839652
    10  C    3.753145   3.485559   3.554851   3.589227   4.851781
    11  N    3.979506   4.029888   4.483510   4.575220   5.968528
    12  C    3.646841   4.064477   4.562916   4.388923   5.828670
    13  N    3.171955   3.587654   3.780019   3.271407   4.647474
    14  C    2.429646   1.522879   2.427994   3.759598   4.807896
    15  C    2.850406   2.553322   3.770711   4.957648   6.146431
    16  N    2.875487   2.982664   4.228492   5.112841   6.500451
    17  H    3.157833   2.062205   1.005900   2.098669   2.559703
    18  H    2.398028   2.561949   2.060141   1.088961   2.148186
    19  H    5.703922   5.423794   4.237316   3.186426   1.861275
    20  H    4.306589   3.746386   2.791024   2.171694   2.656971
    21  H    4.272856   4.190105   3.407791   2.155777   2.702580
    22  H    4.359891   3.803625   3.723004   3.967058   5.043475
    23  H    4.158353   4.785175   5.435489   5.257749   6.709614
    24  H    3.281153   3.922079   4.073815   3.335557   4.613670
    25  H    3.133454   2.134023   2.645495   3.898464   4.918217
    26  H    3.112376   2.137424   2.700432   4.133208   4.895577
    27  H    2.860941   2.834351   4.103628   5.245174   6.371880
    28  H    3.923569   3.481205   4.562980   5.837420   6.949406
    29  H    3.725685   3.957109   5.233274   6.098197   7.496891
    30  H    2.173038   2.664723   3.929961   4.604841   6.041784
    31  H    3.248148   3.164106   4.208209   5.017825   6.417301
                    6          7          8          9         10
     6  O    0.000000
     7  O    2.246959   0.000000
     8  C    2.996131   3.313772   0.000000
     9  C    4.387981   4.632017   1.499294   0.000000
    10  C    5.584681   5.429263   2.620177   1.367419   0.000000
    11  N    6.622324   6.632755   3.738718   2.265538   1.379967
    12  C    6.276330   6.679507   3.653954   2.214212   2.134801
    13  N    4.969364   5.600532   2.537417   1.379906   2.168936
    14  C    5.988956   4.906783   4.394880   4.084574   3.900361
    15  C    7.230948   6.356962   5.495676   4.857950   4.505618
    16  N    7.442182   6.928410   5.321395   4.333668   3.862138
    17  H    3.883389   2.427009   2.922896   3.528021   3.873542
    18  H    2.545754   3.185925   2.175328   2.842318   4.006248
    19  H    0.965687   2.276902   3.799514   5.248343   6.388385
    20  H    3.336090   3.143482   1.091039   2.107594   2.770678
    21  H    2.694857   3.689968   1.089034   2.140382   3.374976
    22  H    5.917574   5.397662   3.035311   2.198022   1.084490
    23  H    7.069069   7.612558   4.626755   3.246244   3.187346
    24  H    4.702149   5.687836   2.837761   2.137180   3.150605
    25  H    6.142757   4.945430   4.196668   3.815090   3.352894
    26  H    6.139988   4.764262   4.992228   4.942229   4.841951
    27  H    7.386279   6.607934   6.005949   5.475685   5.328962
    28  H    8.106685   7.025176   6.308814   5.655402   5.105764
    29  H    8.407900   7.935600   6.280945   5.209711   4.668659
    30  H    6.854653   6.615687   4.868155   3.900791   3.726149
    31  H    7.372744   6.836620   4.949124   3.834956   3.102622
                   11         12         13         14         15
    11  N    0.000000
    12  C    1.307856   0.000000
    13  N    2.205294   1.358857   0.000000
    14  C    4.323056   4.715330   4.607453   0.000000
    15  C    4.462470   4.795689   5.032524   1.519274   0.000000
    16  N    3.414876   3.673059   4.218429   2.485320   1.483043
    17  H    4.939657   5.235457   4.529445   2.561507   4.058534
    18  H    4.730958   4.256070   3.081801   4.061999   5.026965
    19  H    7.490492   7.204746   5.906280   6.647109   7.955464
    20  H    4.086148   4.308210   3.384889   4.594737   5.824281
    21  H    4.352624   4.043760   2.792379   5.417421   6.463965
    22  H    2.158412   3.166837   3.228878   3.908390   4.646377
    23  H    2.126169   1.079712   2.145414   5.403065   5.223213
    24  H    3.168854   2.114401   1.009438   5.135635   5.545424
    25  H    3.912662   4.579002   4.561301   1.097909   2.153202
    26  H    5.381232   5.771739   5.554020   1.093464   2.152553
    27  H    5.250403   5.362892   5.499383   2.140313   1.090626
    28  H    5.043787   5.568316   5.927404   2.144454   1.091108
    29  H    3.994746   4.210872   4.942548   3.384534   2.096174
    30  H    3.268412   3.164617   3.560442   2.721314   2.035943
    31  H    2.625226   3.187733   3.866636   2.666642   2.102080
                   16         17         18         19         20
    16  N    0.000000
    17  H    4.697221   0.000000
    18  H    5.066202   2.938046   0.000000
    19  H    8.269131   4.376266   3.455206   0.000000
    20  H    5.766826   2.831254   3.066419   3.941723   0.000000
    21  H    6.199496   3.870368   2.467088   3.495052   1.758422
    22  H    4.220918   3.755311   4.603992   6.620601   2.787017
    23  H    3.936359   6.171978   4.958789   8.018725   5.349215
    24  H    4.783917   4.927687   2.852585   5.658309   3.839175
    25  H    2.783109   2.523009   4.419059   6.777546   4.178970
    26  H    3.426488   2.573688   4.493566   6.677432   5.092949
    27  H    2.107240   4.494542   5.137789   8.098798   6.448603
    28  H    2.120427   4.656725   6.015985   8.784454   6.500501
    29  H    1.020469   5.700493   5.981985   9.247447   6.745029
    30  H    1.024261   4.590115   4.377240   7.723676   5.483487
    31  H    1.024093   4.584903   5.123193   8.198351   5.279590
                   21         22         23         24         25
    21  H    0.000000
    22  H    3.884238   0.000000
    23  H    4.909258   4.181334   0.000000
    24  H    2.801770   4.185732   2.536765   0.000000
    25  H    5.274732   3.105273   5.379308   5.255762   0.000000
    26  H    6.002367   4.735011   6.470521   6.013143   1.755738
    27  H    6.904999   5.581220   5.674251   5.842728   3.048020
    28  H    7.323820   5.058911   5.989817   6.521603   2.451431
    29  H    7.121207   5.033239   4.245027   5.469177   3.682720
    30  H    5.642108   4.312852   3.361967   3.974454   3.186101
    31  H    5.848394   3.372688   3.595350   4.604837   2.551046
                   26         27         28         29         30
    26  H    0.000000
    27  H    2.452100   0.000000
    28  H    2.480398   1.760423   0.000000
    29  H    4.220417   2.472615   2.405476   0.000000
    30  H    3.684057   2.321360   2.940854   1.658067   0.000000
    31  H    3.694131   2.976650   2.532625   1.667282   1.643554
                   31
    31  H    0.000000
 Symmetry turned off by external request.
 Stoichiometry    C9H15N4O3(1+)
 Framework group  C1[X(C9H15N4O3)]
 Deg. of freedom    87
 Full point group                 C1      NOp   1
 Rotational constants (GHZ):      0.7464841      0.3985491      0.2973763
 Standard basis: 6-311G(d,p) (5D, 7F)
   378 basis functions,   632 primitive gaussians,   394 cartesian basis functions
    60 alpha electrons       60 beta electrons
       nuclear repulsion energy      1185.4331447700 Hartrees.
 NAtoms=   31 NActive=   31 NUniq=   31 SFac= 1.00D+00 NAtFMM=   60 NAOKFM=F Big=F
 Integral buffers will be    131072 words long.
 Raffenetti 2 integral format.
 Two-electron integral symmetry is turned off.
 One-electron integrals computed using PRISM.
 NBasis=   378 RedAO= T EigKep=  4.95D-04  NBF=   378
 NBsUse=   378 1.00D-06 EigRej= -1.00D+00 NBFU=   378
 ExpMin= 1.03D-01 ExpMax= 8.59D+03 ExpMxC= 1.30D+03 IAcc=3 IRadAn=         5 AccDes= 0.00D+00
 Harris functional with IExCor=  402 and IRadAn=       5 diagonalized for initial guess.
 HarFok:  IExCor=  402 AccDes= 0.00D+00 IRadAn=         5 IDoV= 1 UseB2=F ITyADJ=14
 ICtDFT=  3500011 ScaDFX=  1.000000  1.000000  1.000000  1.000000
 FoFCou: FMM=F IPFlag=           0 FMFlag=      100000 FMFlg1=           0
         NFxFlg=           0 DoJE=T BraDBF=F KetDBF=T FulRan=T
         wScrn=  0.000000 ICntrl=     500 IOpCl=  0 I1Cent=   200000004 NGrid=           0
         NMat0=    1 NMatS0=      1 NMatT0=    0 NMatD0=    1 NMtDS0=    0 NMtDT0=    0
 Symmetry not used in FoFCou.
 Requested convergence on RMS density matrix=1.00D-08 within 128 cycles.
 Requested convergence on MAX density matrix=1.00D-06.
 Requested convergence on             energy=1.00D-06.
 No special actions if energy rises.
 Integral accuracy reduced to 1.0D-05 until final iterations.
 Initial convergence to 1.0D-05 achieved.  Increase integral accuracy.
 SCF Done:  E(RB3LYP) =  -796.701813553     A.U. after   14 cycles
            NFock= 14  Conv=0.62D-08     -V/T= 2.0035
 DoSCS=F DFT=T ScalE2(SS,OS)=  1.000000  1.000000
 Range of M.O.s used for correlation:     1   378
 NBasis=   378 NAE=    60 NBE=    60 NFC=     0 NFV=     0
 NROrb=    378 NOA=    60 NOB=    60 NVA=   318 NVB=   318
 Symmetrizing basis deriv contribution to polar:
 IMax=3 JMax=2 DiffMx= 0.00D+00
 G2DrvN: will do    32 centers at a time, making    1 passes.
 Calling FoFCou, ICntrl=  3107 FMM=F I1Cent=   0 AccDes= 0.00D+00.
 End of G2Drv F.D. properties file   721 does not exist.
 End of G2Drv F.D. properties file   722 does not exist.
 End of G2Drv F.D. properties file   788 does not exist.
          IDoAtm=1111111111111111111111111111111
          Differentiating once with respect to nuclear coordinates.
          There are    96 degrees of freedom in the 1st order CPHF.  IDoFFX=6 NUNeed=     0.
     90 vectors produced by pass  0 Test12= 1.99D-14 1.04D-09 XBig12= 1.53D-01 1.00D-01.
 AX will form    90 AO Fock derivatives at one time.
     90 vectors produced by pass  1 Test12= 1.99D-14 1.04D-09 XBig12= 1.41D-02 2.40D-02.
     90 vectors produced by pass  2 Test12= 1.99D-14 1.04D-09 XBig12= 1.46D-04 1.91D-03.
     90 vectors produced by pass  3 Test12= 1.99D-14 1.04D-09 XBig12= 6.70D-07 8.38D-05.
     90 vectors produced by pass  4 Test12= 1.99D-14 1.04D-09 XBig12= 1.67D-09 3.14D-06.
     80 vectors produced by pass  5 Test12= 1.99D-14 1.04D-09 XBig12= 2.27D-12 1.50D-07.
     19 vectors produced by pass  6 Test12= 1.99D-14 1.04D-09 XBig12= 2.18D-15 4.71D-09.
 InvSVY:  IOpt=1 It=  1 EMax= 4.72D-16
 Solved reduced A of dimension   549 with    96 vectors.
 End of Minotr F.D. properties file   721 does not exist.
 End of Minotr F.D. properties file   722 does not exist.
 End of Minotr F.D. properties file   788 does not exist.

 **********************************************************************

            Population analysis using the SCF density.

 **********************************************************************

 Alpha  occ. eigenvalues --  -19.28150 -19.24177 -19.23034 -14.60585 -14.49039
 Alpha  occ. eigenvalues --  -14.47697 -14.41806 -10.42767 -10.42386 -10.40400
 Alpha  occ. eigenvalues --  -10.35735 -10.35259 -10.34787 -10.33114 -10.31742
 Alpha  occ. eigenvalues --  -10.30539  -1.23161  -1.19930  -1.18007  -1.14585
 Alpha  occ. eigenvalues --   -1.14357  -1.07512  -1.00052  -0.96312  -0.92930
 Alpha  occ. eigenvalues --   -0.87997  -0.84001  -0.80262  -0.76683  -0.76265
 Alpha  occ. eigenvalues --   -0.74383  -0.73971  -0.72852  -0.71779  -0.68705
 Alpha  occ. eigenvalues --   -0.66841  -0.65493  -0.62811  -0.61817  -0.61339
 Alpha  occ. eigenvalues --   -0.60024  -0.59149  -0.57980  -0.57254  -0.56479
 Alpha  occ. eigenvalues --   -0.55975  -0.54807  -0.53723  -0.53492  -0.53360
 Alpha  occ. eigenvalues --   -0.52502  -0.50822  -0.49941  -0.44260  -0.42305
 Alpha  occ. eigenvalues --   -0.41835  -0.40546  -0.39993  -0.39861  -0.35807
 Alpha virt. eigenvalues --   -0.15043  -0.14088  -0.12293  -0.10587  -0.09807
 Alpha virt. eigenvalues --   -0.08646  -0.07711  -0.07598  -0.07030  -0.06523
 Alpha virt. eigenvalues --   -0.05214  -0.03969  -0.03649  -0.02775  -0.01927
 Alpha virt. eigenvalues --   -0.00847  -0.00531   0.00126   0.00573   0.02194
 Alpha virt. eigenvalues --    0.02265   0.05178   0.06616   0.07745   0.08454
 Alpha virt. eigenvalues --    0.09484   0.09900   0.10437   0.11549   0.13777
 Alpha virt. eigenvalues --    0.14097   0.14705   0.15920   0.17814   0.18494
 Alpha virt. eigenvalues --    0.19652   0.20651   0.21441   0.22147   0.24753
 Alpha virt. eigenvalues --    0.25268   0.25804   0.26037   0.28239   0.28403
 Alpha virt. eigenvalues --    0.28834   0.30225   0.30642   0.31199   0.33269
 Alpha virt. eigenvalues --    0.34386   0.35628   0.36830   0.37856   0.38501
 Alpha virt. eigenvalues --    0.38906   0.39537   0.40109   0.40414   0.41392
 Alpha virt. eigenvalues --    0.42549   0.43443   0.43814   0.45625   0.45949
 Alpha virt. eigenvalues --    0.46097   0.46770   0.47840   0.48470   0.48853
 Alpha virt. eigenvalues --    0.50143   0.50628   0.51094   0.51542   0.51923
 Alpha virt. eigenvalues --    0.52819   0.53972   0.55309   0.55428   0.57310
 Alpha virt. eigenvalues --    0.58560   0.59410   0.59665   0.61065   0.63837
 Alpha virt. eigenvalues --    0.64123   0.64998   0.68572   0.68911   0.69902
 Alpha virt. eigenvalues --    0.70505   0.71559   0.73779   0.76445   0.77475
 Alpha virt. eigenvalues --    0.79266   0.80716   0.82425   0.82761   0.84803
 Alpha virt. eigenvalues --    0.85636   0.87117   0.88945   0.92190   0.92939
 Alpha virt. eigenvalues --    0.94508   0.95073   0.95971   0.96336   0.99738
 Alpha virt. eigenvalues --    1.00600   1.02448   1.03753   1.05731   1.06872
 Alpha virt. eigenvalues --    1.07853   1.09957   1.11979   1.13131   1.15305
 Alpha virt. eigenvalues --    1.16942   1.17494   1.18596   1.20073   1.21986
 Alpha virt. eigenvalues --    1.26233   1.27185   1.29554   1.30466   1.31049
 Alpha virt. eigenvalues --    1.32598   1.32906   1.33526   1.34349   1.35063
 Alpha virt. eigenvalues --    1.37244   1.38099   1.39016   1.40147   1.41097
 Alpha virt. eigenvalues --    1.42435   1.43439   1.44426   1.45190   1.48036
 Alpha virt. eigenvalues --    1.48453   1.49970   1.51253   1.53141   1.53316
 Alpha virt. eigenvalues --    1.53962   1.54534   1.56499   1.57121   1.57387
 Alpha virt. eigenvalues --    1.58706   1.59848   1.60303   1.61198   1.61474
 Alpha virt. eigenvalues --    1.62080   1.64051   1.65478   1.66602   1.68358
 Alpha virt. eigenvalues --    1.69393   1.70359   1.72616   1.74046   1.75143
 Alpha virt. eigenvalues --    1.77003   1.78334   1.79256   1.82287   1.83740
 Alpha virt. eigenvalues --    1.87144   1.88260   1.88848   1.91853   1.92342
 Alpha virt. eigenvalues --    1.94325   1.96391   1.97668   1.99407   1.99907
 Alpha virt. eigenvalues --    2.00847   2.05177   2.05369   2.06923   2.08168
 Alpha virt. eigenvalues --    2.09616   2.11344   2.12418   2.13771   2.16164
 Alpha virt. eigenvalues --    2.19249   2.21239   2.24229   2.25212   2.25889
 Alpha virt. eigenvalues --    2.28307   2.31234   2.31707   2.32830   2.34492
 Alpha virt. eigenvalues --    2.34882   2.36818   2.38231   2.39342   2.40948
 Alpha virt. eigenvalues --    2.42315   2.43419   2.43769   2.44962   2.45778
 Alpha virt. eigenvalues --    2.46896   2.49251   2.51168   2.51679   2.53329
 Alpha virt. eigenvalues --    2.54862   2.56678   2.56940   2.58663   2.59182
 Alpha virt. eigenvalues --    2.61196   2.62035   2.66655   2.66997   2.68336
 Alpha virt. eigenvalues --    2.69198   2.71635   2.72351   2.72853   2.73640
 Alpha virt. eigenvalues --    2.75081   2.76891   2.77238   2.78076   2.78990
 Alpha virt. eigenvalues --    2.80455   2.82358   2.83605   2.85836   2.86725
 Alpha virt. eigenvalues --    2.87692   2.89527   2.90619   2.94169   2.95718
 Alpha virt. eigenvalues --    3.01547   3.03736   3.04691   3.12622   3.14514
 Alpha virt. eigenvalues --    3.16517   3.20482   3.24030   3.24551   3.26195
 Alpha virt. eigenvalues --    3.27386   3.36942   3.42013   3.43422   3.45403
 Alpha virt. eigenvalues --    3.47652   3.52683   3.54707   3.55834   3.60773
 Alpha virt. eigenvalues --    3.61593   3.64320   3.66354   3.67559   3.68676
 Alpha virt. eigenvalues --    3.71932   3.76705   3.77329   3.81932   3.87286
 Alpha virt. eigenvalues --    3.95723   4.05820   4.07871   4.15931   4.30705
 Alpha virt. eigenvalues --    4.46028   4.48924   4.60330   4.63388   4.69036
 Alpha virt. eigenvalues --    4.72450   4.79329   4.79844   4.81841   4.86331
 Alpha virt. eigenvalues --    4.93980   5.01856   5.13223   5.15955   5.45978
 Alpha virt. eigenvalues --    5.52978   5.62338  23.60059  23.61835  23.66091
 Alpha virt. eigenvalues --   23.66858  23.68461  23.71056  23.76141  23.79654
 Alpha virt. eigenvalues --   24.01830  35.31838  35.40313  35.48063  35.56788
 Alpha virt. eigenvalues --   49.74244  49.86490  49.87967
          Condensed to atoms (all electrons):
               1          2          3          4          5          6
     1  O    7.934174   0.593568  -0.093741   0.002840  -0.000220   0.000001
     2  C    0.593568   4.515120   0.411094  -0.062430   0.006976  -0.000098
     3  N   -0.093741   0.411094   6.680182   0.220286  -0.034679   0.001771
     4  C    0.002840  -0.062430   0.220286   5.338770   0.266331  -0.103254
     5  C   -0.000220   0.006976  -0.034679   0.266331   4.493443   0.355030
     6  O    0.000001  -0.000098   0.001771  -0.103254   0.355030   7.805674
     7  O   -0.000004   0.000340  -0.001318  -0.094214   0.655064  -0.076176
     8  C   -0.002195  -0.008243  -0.053239   0.323694  -0.058184   0.004106
     9  C   -0.001618   0.001416  -0.009999  -0.076474   0.002162  -0.000031
    10  C   -0.002067   0.001659   0.005695  -0.010351  -0.000232  -0.000005
    11  N   -0.000199  -0.000507   0.000077  -0.000113   0.000001   0.000000
    12  C    0.002673   0.000425  -0.000391   0.000970   0.000000   0.000000
    13  N   -0.000142  -0.001458  -0.000111   0.003115   0.000085   0.000003
    14  C   -0.105401   0.270792  -0.093226   0.010822  -0.000503   0.000000
    15  C    0.027658  -0.059399   0.007583  -0.000589   0.000009   0.000000
    16  N   -0.018285  -0.003632  -0.000485   0.000007   0.000000   0.000000
    17  H    0.002683  -0.031794   0.364073  -0.043785  -0.005924   0.001132
    18  H    0.017671  -0.011657  -0.028688   0.383257  -0.016939   0.007322
    19  H    0.000000   0.000028  -0.000466   0.016759  -0.029910   0.309196
    20  H   -0.000114  -0.000720   0.000233  -0.038611   0.000023  -0.000784
    21  H   -0.000321   0.000518   0.006355  -0.052099  -0.003184   0.009357
    22  H   -0.000040   0.000107   0.000430  -0.000294  -0.000014   0.000000
    23  H    0.000128   0.000022  -0.000010   0.000016  -0.000001   0.000000
    24  H    0.001492   0.000038  -0.000202   0.000511  -0.000032  -0.000036
    25  H    0.001405  -0.032446   0.001240  -0.001541  -0.000011  -0.000001
    26  H    0.000972  -0.015220   0.000102  -0.000116  -0.000003   0.000000
    27  H    0.005474  -0.004671   0.000338  -0.000040   0.000001   0.000000
    28  H    0.000574   0.006199  -0.000031   0.000010   0.000000   0.000000
    29  H   -0.000162   0.000031   0.000004  -0.000002   0.000000   0.000000
    30  H    0.043336   0.002224   0.001075   0.000275   0.000001   0.000000
    31  H    0.000799  -0.000858  -0.000339   0.000028  -0.000003   0.000000
               7          8          9         10         11         12
     1  O   -0.000004  -0.002195  -0.001618  -0.002067  -0.000199   0.002673
     2  C    0.000340  -0.008243   0.001416   0.001659  -0.000507   0.000425
     3  N   -0.001318  -0.053239  -0.009999   0.005695   0.000077  -0.000391
     4  C   -0.094214   0.323694  -0.076474  -0.010351  -0.000113   0.000970
     5  C    0.655064  -0.058184   0.002162  -0.000232   0.000001   0.000000
     6  O   -0.076176   0.004106  -0.000031  -0.000005   0.000000   0.000000
     7  O    7.795503  -0.002944  -0.000292  -0.000003   0.000000   0.000000
     8  C   -0.002944   4.911174   0.335813  -0.033755   0.006061   0.006090
     9  C   -0.000292   0.335813   5.137032   0.533778  -0.098087  -0.126386
    10  C   -0.000003  -0.033755   0.533778   4.933833   0.474176  -0.178766
    11  N    0.000000   0.006061  -0.098087   0.474176   6.494888   0.554698
    12  C    0.000000   0.006090  -0.126386  -0.178766   0.554698   4.783285
    13  N    0.000000  -0.050567   0.380259  -0.080370  -0.085571   0.413776
    14  C   -0.000139  -0.001088  -0.000075  -0.000411   0.000427   0.000007
    15  C    0.000000   0.000059  -0.000142  -0.000870  -0.000213   0.000039
    16  N    0.000000   0.000003   0.000113  -0.000062  -0.003750  -0.000170
    17  H    0.024954   0.001520  -0.000705   0.000585  -0.000010  -0.000032
    18  H    0.002264  -0.028826  -0.011012  -0.000163   0.000029  -0.000111
    19  H    0.008599  -0.000898   0.000095   0.000001   0.000000   0.000000
    20  H    0.003792   0.410058  -0.045078  -0.000660   0.000217  -0.000325
    21  H    0.000038   0.398587  -0.023149   0.002780  -0.000244  -0.000229
    22  H   -0.000006   0.000153  -0.051098   0.427757  -0.027450   0.007917
    23  H    0.000000  -0.000298   0.003625   0.006067  -0.025768   0.417992
    24  H    0.000000   0.001594  -0.035394   0.007886   0.005519  -0.021853
    25  H   -0.000049   0.000448   0.000303   0.004825  -0.000241  -0.000363
    26  H   -0.000038   0.000015   0.000087   0.000172   0.000001  -0.000006
    27  H    0.000000   0.000005   0.000011   0.000021  -0.000024  -0.000046
    28  H    0.000000   0.000000   0.000001   0.000002  -0.000045  -0.000016
    29  H    0.000000   0.000001  -0.000015   0.000026  -0.000087   0.000102
    30  H    0.000000   0.000061  -0.001049  -0.001429   0.000430   0.005198
    31  H    0.000000  -0.000161   0.001788   0.000093   0.029369   0.000675
              13         14         15         16         17         18
     1  O   -0.000142  -0.105401   0.027658  -0.018285   0.002683   0.017671
     2  C   -0.001458   0.270792  -0.059399  -0.003632  -0.031794  -0.011657
     3  N   -0.000111  -0.093226   0.007583  -0.000485   0.364073  -0.028688
     4  C    0.003115   0.010822  -0.000589   0.000007  -0.043785   0.383257
     5  C    0.000085  -0.000503   0.000009   0.000000  -0.005924  -0.016939
     6  O    0.000003   0.000000   0.000000   0.000000   0.001132   0.007322
     7  O    0.000000  -0.000139   0.000000   0.000000   0.024954   0.002264
     8  C   -0.050567  -0.001088   0.000059   0.000003   0.001520  -0.028826
     9  C    0.380259  -0.000075  -0.000142   0.000113  -0.000705  -0.011012
    10  C   -0.080370  -0.000411  -0.000870  -0.000062   0.000585  -0.000163
    11  N   -0.085571   0.000427  -0.000213  -0.003750  -0.000010   0.000029
    12  C    0.413776   0.000007   0.000039  -0.000170  -0.000032  -0.000111
    13  N    6.421000  -0.000300   0.000075  -0.000138  -0.000024   0.002960
    14  C   -0.000300   5.253028   0.315487  -0.035303  -0.000009   0.002703
    15  C    0.000075   0.315487   4.915332   0.236261   0.000056  -0.000098
    16  N   -0.000138  -0.035303   0.236261   6.153851   0.000019   0.000027
    17  H   -0.000024  -0.000009   0.000056   0.000019   0.430670   0.006079
    18  H    0.002960   0.002703  -0.000098   0.000027   0.006079   0.490648
    19  H   -0.000001   0.000000   0.000000   0.000000  -0.000242  -0.000911
    20  H    0.003863  -0.000045   0.000006   0.000000   0.003618   0.006950
    21  H   -0.002836  -0.000016   0.000000   0.000000  -0.000132  -0.002410
    22  H    0.004164  -0.000199   0.000020   0.000018   0.000003  -0.000020
    23  H   -0.035588   0.000016  -0.000014   0.000071   0.000000   0.000015
    24  H    0.358741   0.000078  -0.000009   0.000014   0.000003   0.000744
    25  H   -0.000078   0.385947  -0.029191  -0.003578  -0.000108  -0.000138
    26  H   -0.000010   0.385760  -0.020314   0.003498   0.000612  -0.000146
    27  H    0.000005  -0.037144   0.408917  -0.024351  -0.000029  -0.000021
    28  H    0.000002  -0.031967   0.410941  -0.023748  -0.000031   0.000000
    29  H   -0.000019   0.005972  -0.023246   0.356188   0.000002   0.000000
    30  H    0.000620  -0.015533  -0.019101   0.328734  -0.000147  -0.000122
    31  H   -0.000273  -0.002599  -0.027040   0.338510   0.000017  -0.000034
              19         20         21         22         23         24
     1  O    0.000000  -0.000114  -0.000321  -0.000040   0.000128   0.001492
     2  C    0.000028  -0.000720   0.000518   0.000107   0.000022   0.000038
     3  N   -0.000466   0.000233   0.006355   0.000430  -0.000010  -0.000202
     4  C    0.016759  -0.038611  -0.052099  -0.000294   0.000016   0.000511
     5  C   -0.029910   0.000023  -0.003184  -0.000014  -0.000001  -0.000032
     6  O    0.309196  -0.000784   0.009357   0.000000   0.000000  -0.000036
     7  O    0.008599   0.003792   0.000038  -0.000006   0.000000   0.000000
     8  C   -0.000898   0.410058   0.398587   0.000153  -0.000298   0.001594
     9  C    0.000095  -0.045078  -0.023149  -0.051098   0.003625  -0.035394
    10  C    0.000001  -0.000660   0.002780   0.427757   0.006067   0.007886
    11  N    0.000000   0.000217  -0.000244  -0.027450  -0.025768   0.005519
    12  C    0.000000  -0.000325  -0.000229   0.007917   0.417992  -0.021853
    13  N   -0.000001   0.003863  -0.002836   0.004164  -0.035588   0.358741
    14  C    0.000000  -0.000045  -0.000016  -0.000199   0.000016   0.000078
    15  C    0.000000   0.000006   0.000000   0.000020  -0.000014  -0.000009
    16  N    0.000000   0.000000   0.000000   0.000018   0.000071   0.000014
    17  H   -0.000242   0.003618  -0.000132   0.000003   0.000000   0.000003
    18  H   -0.000911   0.006950  -0.002410  -0.000020   0.000015   0.000744
    19  H    0.420495  -0.000222  -0.000133   0.000000   0.000000  -0.000001
    20  H   -0.000222   0.522687  -0.015111   0.001612   0.000013  -0.000067
    21  H   -0.000133  -0.015111   0.508480   0.000053  -0.000019   0.001185
    22  H    0.000000   0.001612   0.000053   0.524570  -0.000294  -0.000260
    23  H    0.000000   0.000013  -0.000019  -0.000294   0.502431  -0.001730
    24  H   -0.000001  -0.000067   0.001185  -0.000260  -0.001730   0.433946
    25  H    0.000000   0.000054   0.000024   0.001245  -0.000006  -0.000010
    26  H    0.000000  -0.000007   0.000002   0.000001   0.000000   0.000000
    27  H    0.000000   0.000000   0.000000   0.000002  -0.000002  -0.000001
    28  H    0.000000   0.000000   0.000000   0.000003   0.000000   0.000000
    29  H    0.000000   0.000000   0.000000   0.000004   0.000017   0.000002
    30  H    0.000000  -0.000003  -0.000015  -0.000002   0.000242   0.000042
    31  H    0.000000  -0.000026   0.000003  -0.000797  -0.000152  -0.000147
              25         26         27         28         29         30
     1  O    0.001405   0.000972   0.005474   0.000574  -0.000162   0.043336
     2  C   -0.032446  -0.015220  -0.004671   0.006199   0.000031   0.002224
     3  N    0.001240   0.000102   0.000338  -0.000031   0.000004   0.001075
     4  C   -0.001541  -0.000116  -0.000040   0.000010  -0.000002   0.000275
     5  C   -0.000011  -0.000003   0.000001   0.000000   0.000000   0.000001
     6  O   -0.000001   0.000000   0.000000   0.000000   0.000000   0.000000
     7  O   -0.000049  -0.000038   0.000000   0.000000   0.000000   0.000000
     8  C    0.000448   0.000015   0.000005   0.000000   0.000001   0.000061
     9  C    0.000303   0.000087   0.000011   0.000001  -0.000015  -0.001049
    10  C    0.004825   0.000172   0.000021   0.000002   0.000026  -0.001429
    11  N   -0.000241   0.000001  -0.000024  -0.000045  -0.000087   0.000430
    12  C   -0.000363  -0.000006  -0.000046  -0.000016   0.000102   0.005198
    13  N   -0.000078  -0.000010   0.000005   0.000002  -0.000019   0.000620
    14  C    0.385947   0.385760  -0.037144  -0.031967   0.005972  -0.015533
    15  C   -0.029191  -0.020314   0.408917   0.410941  -0.023246  -0.019101
    16  N   -0.003578   0.003498  -0.024351  -0.023748   0.356188   0.328734
    17  H   -0.000108   0.000612  -0.000029  -0.000031   0.000002  -0.000147
    18  H   -0.000138  -0.000146  -0.000021   0.000000   0.000000  -0.000122
    19  H    0.000000   0.000000   0.000000   0.000000   0.000000   0.000000
    20  H    0.000054  -0.000007   0.000000   0.000000   0.000000  -0.000003
    21  H    0.000024   0.000002   0.000000   0.000000   0.000000  -0.000015
    22  H    0.001245   0.000001   0.000002   0.000003   0.000004  -0.000002
    23  H   -0.000006   0.000000  -0.000002   0.000000   0.000017   0.000242
    24  H   -0.000010   0.000000  -0.000001   0.000000   0.000002   0.000042
    25  H    0.515358  -0.013253   0.006931  -0.004464  -0.000228  -0.000718
    26  H   -0.013253   0.468339  -0.003532  -0.002186  -0.000188   0.000183
    27  H    0.006931  -0.003532   0.477054  -0.018960  -0.002691  -0.004822
    28  H   -0.004464  -0.002186  -0.018960   0.477688  -0.004151   0.005002
    29  H   -0.000228  -0.000188  -0.002691  -0.004151   0.395178  -0.010601
    30  H   -0.000718   0.000183  -0.004822   0.005002  -0.010601   0.381064
    31  H    0.003471   0.000151   0.004360  -0.003286  -0.013977  -0.016225
              31
     1  O    0.000799
     2  C   -0.000858
     3  N   -0.000339
     4  C    0.000028
     5  C   -0.000003
     6  O    0.000000
     7  O    0.000000
     8  C   -0.000161
     9  C    0.001788
    10  C    0.000093
    11  N    0.029369
    12  C    0.000675
    13  N   -0.000273
    14  C   -0.002599
    15  C   -0.027040
    16  N    0.338510
    17  H    0.000017
    18  H   -0.000034
    19  H    0.000000
    20  H   -0.000026
    21  H    0.000003
    22  H   -0.000797
    23  H   -0.000152
    24  H   -0.000147
    25  H    0.003471
    26  H    0.000151
    27  H    0.004360
    28  H   -0.003286
    29  H   -0.013977
    30  H   -0.016225
    31  H    0.395886
 Mulliken charges:
               1
     1  O   -0.410939
     2  C    0.422574
     3  N   -0.383611
     4  C   -0.083778
     5  C    0.370712
     6  O   -0.313207
     7  O   -0.315372
     8  C   -0.159044
     9  C    0.084123
    10  C   -0.090212
    11  N   -0.323584
    12  C    0.134846
    13  N   -0.331184
    14  C   -0.307084
    15  C   -0.142219
    16  N   -0.303813
    17  H    0.246947
    18  H    0.180626
    19  H    0.277611
    20  H    0.148646
    21  H    0.172519
    22  H    0.112414
    23  H    0.133229
    24  H    0.247946
    25  H    0.165171
    26  H    0.195123
    27  H    0.193213
    28  H    0.188463
    29  H    0.297840
    30  H    0.301278
    31  H    0.290767
 Sum of Mulliken charges =   1.00000
 Mulliken charges with hydrogens summed into heavy atoms:
               1
     1  O   -0.410939
     2  C    0.422574
     3  N   -0.136664
     4  C    0.096848
     5  C    0.370712
     6  O   -0.035596
     7  O   -0.315372
     8  C    0.162121
     9  C    0.084123
    10  C    0.022202
    11  N   -0.323584
    12  C    0.268075
    13  N   -0.083238
    14  C    0.053210
    15  C    0.239456
    16  N    0.586071
 APT charges:
               1
     1  O   -0.284066
     2  C    0.113750
     3  N   -0.447825
     4  C   -0.435125
     5  C   -0.637664
     6  O   -0.761202
     7  O    0.358936
     8  C   -0.912314
     9  C   -0.059534
    10  C   -0.379118
    11  N   -0.162035
    12  C   -0.428639
    13  N   -0.643501
    14  C   -0.691146
    15  C   -1.122056
    16  N   -0.777291
    17  H    0.545085
    18  H    0.322459
    19  H    1.180273
    20  H    0.392972
    21  H    0.583131
    22  H    0.370440
    23  H    0.728599
    24  H    0.607663
    25  H    0.225448
    26  H    0.588583
    27  H    0.525290
    28  H    0.746053
    29  H    1.073628
    30  H    0.172876
    31  H    0.206330
 Sum of APT charges =   1.00000
 APT charges with hydrogens summed into heavy atoms:
               1
     1  O   -0.284066
     2  C    0.113750
     3  N    0.097261
     4  C   -0.112666
     5  C   -0.637664
     6  O    0.419071
     7  O    0.358936
     8  C    0.063789
     9  C   -0.059534
    10  C   -0.008679
    11  N   -0.162035
    12  C    0.299961
    13  N   -0.035839
    14  C    0.122884
    15  C    0.149287
    16  N    0.675543
 Electronic spatial extent (au):  <R**2>=           3773.1060
 Charge=              1.0000 electrons
 Dipole moment (field-independent basis, Debye):
    X=              5.2271    Y=             -2.1604    Z=             -4.7345  Tot=              7.3760
 Quadrupole moment (field-independent basis, Debye-Ang):
   XX=            -46.9083   YY=            -78.5076   ZZ=            -83.5227
   XY=             -7.4982   XZ=            -21.5881   YZ=             11.6406
 Traceless Quadrupole moment (field-independent basis, Debye-Ang):
   XX=             22.7379   YY=             -8.8614   ZZ=            -13.8765
   XY=             -7.4982   XZ=            -21.5881   YZ=             11.6406
 Octapole moment (field-independent basis, Debye-Ang**2):
  XXX=            101.8117  YYY=            -66.5090  ZZZ=            -29.2548  XYY=             14.4716
  XXY=              4.7438  XXZ=            -42.9611  XZZ=             58.5592  YZZ=             -5.2897
  YYZ=            -41.1925  XYZ=             15.8156
 Hexadecapole moment (field-independent basis, Debye-Ang**3):
 XXXX=          -1430.8943 YYYY=          -1848.3693 ZZZZ=           -825.0744 XXXY=            125.1695
 XXXZ=            121.2009 YYYX=            376.2679 YYYZ=            133.8060 ZZZX=            241.4198
 ZZZY=            113.1159 XXYY=           -399.9607 XXZZ=           -366.6019 YYZZ=           -452.5217
 XXYZ=            119.9487 YYXZ=             29.5607 ZZXY=            102.4810
 N-N= 1.185433144770D+03 E-N=-4.216041609013D+03  KE= 7.939597159719D+02
  Exact polarizability:   0.000   0.000   0.000   0.000   0.000   0.000
 Approx polarizability: 201.989  -5.922 206.570   8.951  27.947 160.518
 Calling FoFJK, ICntrl=    100147 FMM=F ISym2X=0 I1Cent= 0 IOpClX= 0 NMat=1 NMatS=1 NMatT=0.
 -------------------------------------------------------------------
 Center     Atomic                   Forces (Hartrees/Bohr)
 Number     Number              X              Y              Z
 -------------------------------------------------------------------
      1        8           0.012949227   -0.010366016   -0.003048585
      2        6          -0.013178701    0.009131889    0.006541149
      3        7           0.009379407   -0.010988320   -0.003600139
      4        6          -0.003844335    0.003023228   -0.001218370
      5        6          -0.012185427    0.005270902   -0.002027349
      6        8           0.007859850   -0.002886072   -0.001008520
      7        8           0.004715172   -0.001384780   -0.000018612
      8        6           0.005987073   -0.009165280    0.002468852
      9        6          -0.007970608    0.002220111   -0.001790224
     10        6           0.010145163    0.006641327    0.000179378
     11        7           0.009746426    0.004623781    0.003643121
     12        6          -0.003289945   -0.004061683   -0.007990658
     13        7          -0.004807082   -0.000261610   -0.001186741
     14        6          -0.000555543   -0.000106166    0.007763577
     15        6           0.004566643    0.024478343   -0.008868932
     16        7          -0.002118812   -0.006474715   -0.002491003
     17        1           0.001293908    0.004533524    0.002507320
     18        1          -0.001136598    0.001517552   -0.000568921
     19        1          -0.005223445    0.003126662    0.001476330
     20        1          -0.000507467    0.001207016    0.001071203
     21        1          -0.002824796    0.000503487    0.001197729
     22        1          -0.002105325   -0.003547594    0.000355158
     23        1          -0.001405163   -0.000692134    0.000779082
     24        1          -0.000577402   -0.000617528    0.001339992
     25        1          -0.000381232    0.001545794   -0.001339646
     26        1           0.003273614   -0.000883690   -0.001509340
     27        1          -0.000128990   -0.006559506   -0.000630866
     28        1           0.000018340   -0.004528177    0.001134388
     29        1           0.002157258   -0.001251138    0.000818838
     30        1          -0.008927252    0.000228187    0.000815363
     31        1          -0.000923958   -0.004277394    0.005206423
 -------------------------------------------------------------------
 Cartesian Forces:  Max     0.024478343 RMS     0.005519092
 FormGI is forming the generalized inverse of G from B-inverse, IUseBI=4.
 GSVD:  received Info=                   1 from GESDD.

 GradGradGradGradGradGradGradGradGradGradGradGradGradGradGradGradGradGrad
 Berny optimization.
 Internal  Forces:  Max     0.025673946 RMS     0.005805399
 Search for a local minimum.
 Step number   1 out of a maximum of  167
 All quantities printed in internal units (Hartrees-Bohrs-Radians)
 Mixed Optimization -- RFO/linear search
 Second derivative matrix not updated -- analytic derivatives used.
 ITU=  0
     Eigenvalues ---   -0.00426   0.00234   0.00259   0.00353   0.00399
     Eigenvalues ---    0.00582   0.00713   0.00789   0.01039   0.01412
     Eigenvalues ---    0.01925   0.02129   0.02157   0.02587   0.03090
     Eigenvalues ---    0.03805   0.03906   0.03997   0.04112   0.04121
     Eigenvalues ---    0.04319   0.04664   0.04911   0.05142   0.05252
     Eigenvalues ---    0.05546   0.05824   0.06021   0.06345   0.07822
     Eigenvalues ---    0.08142   0.08395   0.10410   0.10951   0.11034
     Eigenvalues ---    0.11633   0.11709   0.12054   0.12379   0.13439
     Eigenvalues ---    0.14715   0.14910   0.15342   0.15870   0.17533
     Eigenvalues ---    0.18631   0.20254   0.20352   0.21921   0.22996
     Eigenvalues ---    0.23310   0.23910   0.24245   0.25070   0.25887
     Eigenvalues ---    0.27999   0.29172   0.32300   0.32443   0.32757
     Eigenvalues ---    0.33479   0.33744   0.33803   0.33831   0.34143
     Eigenvalues ---    0.34491   0.34767   0.35093   0.35819   0.36272
     Eigenvalues ---    0.36844   0.37425   0.41272   0.41407   0.41926
     Eigenvalues ---    0.42350   0.43869   0.44611   0.44729   0.46968
     Eigenvalues ---    0.47443   0.47873   0.49002   0.52643   0.58898
     Eigenvalues ---    0.78996   0.88989
 RFO step:  Lambda=-2.72385891D-02 EMin=-4.25817331D-03
 Linear search not attempted -- first point.
 Maximum step size (   0.300) exceeded in Quadratic search.
    -- Step size scaled by   0.832
 Iteration  1 RMS(Cart)=  0.36984195 RMS(Int)=  0.03443891
 Iteration  2 RMS(Cart)=  0.18196050 RMS(Int)=  0.00724658
 Iteration  3 RMS(Cart)=  0.01116363 RMS(Int)=  0.00136244
 Iteration  4 RMS(Cart)=  0.00006142 RMS(Int)=  0.00136198
 Iteration  5 RMS(Cart)=  0.00000019 RMS(Int)=  0.00136198
 Variable       Old X    -DE/DX   Delta X   Delta X   Delta X     New X
                                 (Linear)    (Quad)   (Total)
    R1        2.31937   0.00369   0.00000   0.00049   0.00049   2.31986
    R2        2.56877  -0.00492   0.00000   0.00742   0.00742   2.57619
    R3        2.87782  -0.00257   0.00000   0.00881   0.00881   2.88663
    R4        2.72872   0.00445   0.00000   0.01796   0.01796   2.74669
    R5        1.90088   0.00521   0.00000   0.00815   0.00815   1.90903
    R6        2.85738   0.00565   0.00000   0.00973   0.00973   2.86711
    R7        2.93500   0.00181   0.00000   0.04131   0.04131   2.97631
    R8        2.05784   0.00013   0.00000  -0.00098  -0.00098   2.05686
    R9        2.54703  -0.00263   0.00000  -0.00989  -0.00989   2.53714
   R10        2.27257   0.00065   0.00000  -0.00298  -0.00298   2.26958
   R11        1.82488   0.00532   0.00000   0.00778   0.00778   1.83266
   R12        2.83326  -0.00335   0.00000  -0.00909  -0.00909   2.82416
   R13        2.06176   0.00131   0.00000   0.00164   0.00164   2.06340
   R14        2.05798   0.00279   0.00000   0.00285   0.00285   2.06083
   R15        2.58405   0.00713   0.00000   0.00626   0.00675   2.59080
   R16        2.60764   0.00215   0.00000  -0.00760  -0.00710   2.60055
   R17        2.60776   0.00086   0.00000   0.00963   0.00930   2.61706
   R18        2.04939  -0.00305   0.00000  -0.00799  -0.00799   2.04140
   R19        2.47149   0.01111   0.00000   0.03633   0.03577   2.50726
   R20        2.56787   0.00309   0.00000  -0.01355  -0.01366   2.55421
   R21        2.04036   0.00025   0.00000  -0.00033  -0.00033   2.04003
   R22        1.90756  -0.00018   0.00000   0.00228   0.00228   1.90984
   R23        2.87101  -0.00178   0.00000   0.01067   0.01067   2.88168
   R24        2.07475  -0.00145   0.00000  -0.00944  -0.00944   2.06531
   R25        2.06635   0.00019   0.00000   0.00106   0.00106   2.06741
   R26        2.80254   0.01405   0.00000   0.03711   0.03711   2.83965
   R27        2.06099  -0.00016   0.00000  -0.00034  -0.00034   2.06064
   R28        2.06189  -0.00080   0.00000  -0.00263  -0.00263   2.05926
   R29        1.92841   0.00175   0.00000  -0.00116  -0.00116   1.92724
   R30        1.93557   0.00811   0.00000   0.00421   0.00421   1.93978
   R31        1.93525   0.00573   0.00000   0.05749   0.05749   1.99275
    A1        2.12155   0.01397   0.00000   0.01884   0.01719   2.13874
    A2        2.16009  -0.02194   0.00000  -0.02996  -0.03133   2.12876
    A3        2.00140   0.00786   0.00000   0.00948   0.00798   2.00938
    A4        2.10513  -0.00390   0.00000  -0.01748  -0.02284   2.08229
    A5        2.10528   0.00150   0.00000  -0.01595  -0.02168   2.08360
    A6        2.03766   0.00115   0.00000  -0.01418  -0.01987   2.01780
    A7        1.88589   0.00633   0.00000   0.03239   0.03313   1.91902
    A8        1.97109  -0.01990   0.00000  -0.10056  -0.10062   1.87047
    A9        1.88544   0.00502   0.00000   0.01984   0.01886   1.90430
   A10        1.88366   0.01211   0.00000   0.03736   0.03785   1.92151
   A11        1.92510  -0.00504   0.00000  -0.00012  -0.00103   1.92407
   A12        1.91266   0.00140   0.00000   0.01179   0.01103   1.92369
   A13        1.94702  -0.00052   0.00000  -0.01129  -0.01132   1.93570
   A14        2.18129  -0.00528   0.00000  -0.01465  -0.01467   2.16661
   A15        2.15426   0.00577   0.00000   0.02554   0.02551   2.17977
   A16        1.84910   0.00596   0.00000   0.02903   0.02903   1.87813
   A17        1.98025  -0.02528   0.00000  -0.11091  -0.11173   1.86853
   A18        1.90562   0.00417   0.00000  -0.02962  -0.03212   1.87351
   A19        1.88614   0.00932   0.00000   0.07413   0.07602   1.96216
   A20        1.88262   0.00770   0.00000   0.01507   0.00984   1.89246
   A21        1.92981   0.00865   0.00000   0.04918   0.05118   1.98099
   A22        1.87672  -0.00374   0.00000   0.00589   0.00573   1.88244
   A23        2.30513  -0.00303   0.00000  -0.05002  -0.05252   2.25261
   A24        2.15626   0.00057   0.00000   0.03562   0.03082   2.18708
   A25        1.81988   0.00234   0.00000   0.00610   0.00424   1.82412
   A26        1.93903  -0.00096   0.00000  -0.00811  -0.00764   1.93139
   A27        2.21675   0.00152   0.00000   0.00909   0.00833   2.22508
   A28        2.12623  -0.00058   0.00000  -0.00310  -0.00365   2.12258
   A29        1.83499  -0.00047   0.00000  -0.00190  -0.00257   1.83242
   A30        1.94715  -0.00008   0.00000  -0.00920  -0.00943   1.93772
   A31        2.19226   0.00094   0.00000   0.00665   0.00676   2.19902
   A32        2.14366  -0.00085   0.00000   0.00259   0.00270   2.14636
   A33        1.88306  -0.00087   0.00000   0.01104   0.01166   1.89471
   A34        2.20220   0.00047   0.00000  -0.00244  -0.00278   2.19942
   A35        2.19584   0.00037   0.00000  -0.01008  -0.01070   2.18514
   A36        1.99204  -0.02567   0.00000  -0.02004  -0.02049   1.97155
   A37        1.88374   0.00581   0.00000  -0.02339  -0.02401   1.85974
   A38        1.89273   0.01268   0.00000   0.05236   0.05251   1.94524
   A39        1.91403   0.00709   0.00000  -0.01315  -0.01389   1.90013
   A40        1.91770   0.00486   0.00000   0.00232   0.00233   1.92003
   A41        1.85861  -0.00338   0.00000   0.00356   0.00381   1.86242
   A42        1.95025  -0.01467   0.00000   0.00328   0.00339   1.95364
   A43        1.90380   0.00783   0.00000   0.03225   0.03221   1.93601
   A44        1.90898   0.00656   0.00000   0.00273   0.00264   1.91163
   A45        1.90189  -0.00196   0.00000  -0.04301  -0.04300   1.85889
   A46        1.91966   0.00397   0.00000  -0.00290  -0.00296   1.91670
   A47        1.87774  -0.00124   0.00000   0.00802   0.00750   1.88524
   A48        1.96166   0.00013   0.00000  -0.02028  -0.02175   1.93991
   A49        1.87036  -0.00185   0.00000  -0.02532  -0.02460   1.84576
   A50        1.96640   0.00452   0.00000   0.12481   0.12433   2.09073
   A51        1.89137   0.00186   0.00000   0.01022   0.00982   1.90119
   A52        1.90708  -0.00252   0.00000  -0.01414  -0.01602   1.89106
   A53        1.86254  -0.00230   0.00000  -0.08280  -0.08123   1.78131
    D1        0.34095  -0.00005   0.00000   0.18128   0.17984   0.52080
    D2       -3.09134  -0.00492   0.00000  -0.01357  -0.01391  -3.10525
    D3       -2.78262   0.00648   0.00000   0.27984   0.28018  -2.50244
    D4        0.06827   0.00161   0.00000   0.08499   0.08643   0.15470
    D5       -0.04731   0.00133   0.00000  -0.04566  -0.04612  -0.09342
    D6       -2.17975   0.00504   0.00000   0.00165   0.00070  -2.17904
    D7        2.09652  -0.00050   0.00000  -0.01721  -0.01775   2.07876
    D8        3.07582  -0.00493   0.00000  -0.14609  -0.14525   2.93056
    D9        0.94338  -0.00122   0.00000  -0.09878  -0.09843   0.84494
   D10       -1.06354  -0.00677   0.00000  -0.11765  -0.11689  -1.18043
   D11       -2.68663  -0.00381   0.00000  -0.14507  -0.14503  -2.83166
   D12        1.51432  -0.01097   0.00000  -0.15180  -0.15110   1.36323
   D13       -0.60394  -0.00349   0.00000  -0.11614  -0.11557  -0.71951
   D14        0.73481   0.00077   0.00000   0.04276   0.04193   0.77674
   D15       -1.34742  -0.00638   0.00000   0.03603   0.03586  -1.31156
   D16        2.81750   0.00110   0.00000   0.07169   0.07138   2.88889
   D17        2.83637   0.00707   0.00000   0.03856   0.03837   2.87474
   D18       -0.34202   0.00642   0.00000   0.02705   0.02695  -0.31507
   D19       -1.31007  -0.00603   0.00000  -0.04150  -0.04144  -1.35151
   D20        1.79473  -0.00668   0.00000  -0.05301  -0.05286   1.74186
   D21        0.77896   0.00012   0.00000  -0.00444  -0.00444   0.77452
   D22       -2.39943  -0.00053   0.00000  -0.01595  -0.01587  -2.41530
   D23       -0.96769   0.00513   0.00000   0.06267   0.06040  -0.90730
   D24        1.13260   0.00127   0.00000  -0.01196  -0.01097   1.12163
   D25       -3.11423   0.00422   0.00000   0.02006   0.02001  -3.09422
   D26       -3.05121   0.00130   0.00000   0.05868   0.05721  -2.99400
   D27       -0.95092  -0.00257   0.00000  -0.01595  -0.01415  -0.96507
   D28        1.08544   0.00039   0.00000   0.01607   0.01682   1.10226
   D29        1.13509  -0.00068   0.00000   0.02959   0.02784   1.16293
   D30       -3.04780  -0.00455   0.00000  -0.04505  -0.04353  -3.09133
   D31       -1.01144  -0.00159   0.00000  -0.01303  -0.01255  -1.02399
   D32        3.11010  -0.00087   0.00000  -0.00676  -0.00689   3.10321
   D33        0.00463   0.00003   0.00000   0.00552   0.00565   0.01028
   D34        1.78605  -0.00552   0.00000  -0.32696  -0.32593   1.46012
   D35       -1.27808  -0.00304   0.00000  -0.15993  -0.15979  -1.43787
   D36       -0.32722  -0.00006   0.00000  -0.22934  -0.22899  -0.55621
   D37        2.89183   0.00243   0.00000  -0.06231  -0.06285   2.82898
   D38       -2.37482  -0.00490   0.00000  -0.27268  -0.27272  -2.64755
   D39        0.84423  -0.00241   0.00000  -0.10565  -0.10659   0.73764
   D40       -3.04317   0.00340   0.00000   0.19611   0.19205  -2.85112
   D41        0.04671   0.00296   0.00000   0.14915   0.14644   0.19314
   D42        0.03183   0.00125   0.00000   0.05405   0.05391   0.08574
   D43        3.12170   0.00080   0.00000   0.00709   0.00829   3.13000
   D44        3.06600  -0.00310   0.00000  -0.16518  -0.16973   2.89627
   D45       -0.00926  -0.00266   0.00000  -0.14129  -0.14479  -0.15405
   D46       -0.01629  -0.00100   0.00000  -0.03464  -0.03436  -0.05065
   D47       -3.09155  -0.00056   0.00000  -0.01075  -0.00942  -3.10097
   D48       -0.03527  -0.00090   0.00000  -0.05264  -0.05268  -0.08795
   D49       -3.12826  -0.00056   0.00000  -0.00894  -0.01061  -3.13887
   D50        0.02423   0.00030   0.00000   0.02952   0.03011   0.05434
   D51       -3.13356   0.00122   0.00000   0.03220   0.03186  -3.10170
   D52       -0.00524   0.00048   0.00000   0.00320   0.00257  -0.00267
   D53        3.07033   0.00005   0.00000  -0.02022  -0.02174   3.04859
   D54       -3.13116  -0.00043   0.00000   0.00056   0.00083  -3.13033
   D55       -0.05559  -0.00087   0.00000  -0.02286  -0.02348  -0.07908
   D56       -0.96637   0.00606   0.00000   0.11167   0.11156  -0.85481
   D57        1.13758  -0.00051   0.00000   0.08148   0.08124   1.21882
   D58       -3.09619   0.00625   0.00000   0.11127   0.11121  -2.98497
   D59        1.14939   0.00113   0.00000   0.05783   0.05798   1.20736
   D60       -3.02986  -0.00544   0.00000   0.02764   0.02767  -3.00219
   D61       -0.98044   0.00132   0.00000   0.05743   0.05764  -0.92280
   D62       -3.09654   0.00401   0.00000   0.05581   0.05584  -3.04070
   D63       -0.99260  -0.00257   0.00000   0.02562   0.02553  -0.96707
   D64        1.05682   0.00420   0.00000   0.05541   0.05550   1.11232
   D65       -3.02915  -0.00067   0.00000   0.04533   0.04503  -2.98412
   D66        1.17806  -0.00184   0.00000   0.06081   0.06029   1.23835
   D67       -0.86534  -0.00041   0.00000   0.10776   0.10860  -0.75674
   D68        1.14898   0.00017   0.00000   0.03160   0.03137   1.18035
   D69       -0.92700  -0.00101   0.00000   0.04708   0.04664  -0.88036
   D70       -2.97040   0.00043   0.00000   0.09403   0.09494  -2.87546
   D71       -0.90547   0.00053   0.00000   0.04900   0.04861  -0.85686
   D72       -2.98145  -0.00064   0.00000   0.06448   0.06387  -2.91758
   D73        1.25833   0.00079   0.00000   0.11143   0.11218   1.37051
         Item               Value     Threshold  Converged?
 Maximum Force            0.025674     0.000450     NO 
 RMS     Force            0.005805     0.000300     NO 
 Maximum Displacement     2.048057     0.001800     NO 
 RMS     Displacement     0.535723     0.001200     NO 
 Predicted change in Energy=-2.333596D-02
 GradGradGradGradGradGradGradGradGradGradGradGradGradGradGradGradGradGrad

                          Input orientation:                          
 ---------------------------------------------------------------------
 Center     Atomic      Atomic             Coordinates (Angstroms)
 Number     Number       Type             X           Y           Z
 ---------------------------------------------------------------------
      1          8           0       -0.184878   -0.128777   -1.781364
      2          6           0        0.293815    0.745362   -1.064582
      3          7           0       -0.478504    1.617475   -0.356472
      4          6           0       -1.790260    1.193756    0.104369
      5          6           0       -2.628535    2.405714    0.465446
      6          8           0       -3.925677    2.076354    0.572707
      7          8           0       -2.177314    3.498307    0.677743
      8          6           0       -1.567299    0.291695    1.376052
      9          6           0       -0.572216   -0.757995    0.999967
     10          6           0        0.796781   -0.685379    0.986155
     11          7           0        1.333396   -1.719087    0.236886
     12          6           0        0.294813   -2.471375   -0.103352
     13          7           0       -0.862324   -1.927012    0.334367
     14          6           0        1.792236    0.826488   -0.779045
     15          6           0        2.573318   -0.346171   -1.362281
     16          7           0        1.943734   -1.666544   -1.018362
     17          1           0       -0.034262    2.338745    0.193935
     18          1           0       -2.276488    0.620569   -0.682869
     19          1           0       -4.409891    2.873735    0.837729
     20          1           0       -1.126795    0.923429    2.150083
     21          1           0       -2.500926   -0.114254    1.766988
     22          1           0        1.417982    0.094779    1.401398
     23          1           0        0.335341   -3.391840   -0.665938
     24          1           0       -1.786675   -2.280277    0.128993
     25          1           0        1.902913    0.819087    0.308224
     26          1           0        2.216252    1.771243   -1.131945
     27          1           0        2.603085   -0.291331   -2.450940
     28          1           0        3.599022   -0.319181   -0.995288
     29          1           0        2.549138   -2.443132   -1.283879
     30          1           0        1.079021   -1.714940   -1.569369
     31          1           0        1.591388   -1.839858   -0.039679
 ---------------------------------------------------------------------
                    Distance matrix (angstroms):
                    1          2          3          4          5
     1  O    0.000000
     2  C    1.227616   0.000000
     3  N    2.272868   1.363259   0.000000
     4  C    2.807549   2.431228   1.453484   0.000000
     5  C    4.176513   3.692950   2.433003   1.517209   0.000000
     6  O    4.939416   4.717665   3.599576   2.357611   1.342595
     7  O    4.813808   4.089117   2.737350   2.406143   1.201012
     8  C    3.472343   3.102620   2.438198   1.574994   2.534660
     9  C    2.877804   2.696749   2.737073   2.468817   3.810933
    10  C    2.988750   2.550591   2.955019   3.316847   4.643144
    11  N    2.984556   2.974568   3.842877   4.273107   5.723908
    12  C    2.921232   3.357285   4.169027   4.221832   5.714498
    13  N    2.858129   3.230371   3.631524   3.263917   4.680726
    14  C    2.413743   1.527541   2.441411   3.708043   4.856535
    15  C    2.798310   2.544839   3.765790   4.854199   6.162201
    16  N    2.734573   2.922612   4.134020   4.835757   6.300049
    17  H    3.164357   2.056786   1.010213   2.098226   2.609302
    18  H    2.478516   2.601486   2.081610   1.088442   2.151582
    19  H    5.807363   5.502145   4.296523   3.197282   1.879060
    20  H    4.177394   3.519078   2.680448   2.167535   2.700072
    21  H    4.237345   4.070295   3.405607   2.231644   2.839107
    22  H    3.570590   2.787125   3.000895   3.630819   4.752970
    23  H    3.487461   4.156571   5.084422   5.112655   6.608798
    24  H    3.293049   3.861029   4.139983   3.474122   4.772886
    25  H    3.102208   2.116419   2.598152   3.717722   4.803761
    26  H    3.130055   2.180077   2.808329   4.232505   5.140639
    27  H    2.871845   2.886079   4.186470   5.294957   6.568805
    28  H    3.869375   3.473103   4.559050   5.704610   6.952788
    29  H    3.616431   3.911658   5.149294   5.829628   7.306144
    30  H    2.039190   2.631434   3.873241   4.415278   5.904763
    31  H    3.019336   3.068792   4.042025   4.545229   6.007311
                    6          7          8          9         10
     6  O    0.000000
     7  O    2.256048   0.000000
     8  C    3.064689   3.337981   0.000000
     9  C    4.411552   4.560293   1.494483   0.000000
    10  C    5.486321   5.142333   2.587580   1.370992   0.000000
    11  N    6.494305   6.304018   3.708770   2.266572   1.384887
    12  C    6.241109   6.508350   3.645635   2.214661   2.151460
    13  N    5.046571   5.592959   2.550443   1.376149   2.172352
    14  C    6.006990   5.001817   4.027025   3.356502   2.528360
    15  C    7.200677   6.442842   5.005003   3.955275   2.964169
    16  N    7.140783   6.821693   4.679239   3.350988   2.509238
    17  H    3.918601   2.484216   2.817450   3.244824   3.234745
    18  H    2.532905   3.184725   2.202332   2.763498   3.733112
    19  H    0.969802   2.323808   3.877764   5.286164   6.308626
    20  H    3.413369   3.146644   1.091905   2.111282   2.764623
    21  H    2.873149   3.787053   1.090543   2.173165   3.436678
    22  H    5.759172   5.003382   2.991876   2.202103   1.080260
    23  H    7.042135   7.456074   4.621492   3.245926   3.204258
    24  H    4.873648   5.817710   2.866761   2.133271   3.154785
    25  H    5.968512   4.895204   3.668892   3.015288   1.986589
    26  H    6.381397   5.055803   4.774345   4.326390   3.540655
    27  H    7.574504   6.855817   5.690158   4.712651   3.902772
    28  H    8.050981   7.123083   5.717280   4.644656   3.451488
    29  H    8.111467   7.841429   5.612448   4.218826   3.363556
[...]
 00026140,-0.00000949,0.00017571,-0.00000071,-0.00004298,0.00004101,0.0
 0030773,0.00008550,-0.07278658,-0.01132772,-0.28679484,-0.00204130,-0.
 00016508,-0.01488722,-0.00006994,-0.00027873,0.00077926,-0.00025588,0.
 00051704,-0.00011301,0.00015680,0.00002581,-0.00000721,-0.00001132,0.0
 0000443,-0.00000803,0.00000804,0.00000703,-0.00003473,0.00002155,0.000
 00939,-0.00003772,0.00022232,0.00033833,-0.00007185,-0.00000029,0.0000
 0767,-0.00000608,-0.00001902,-0.00001099,0.00000746,0.07584805,0.01388
 231,0.31236329,-0.00456518,0.00108460,-0.00313558,-0.00143817,-0.03192
 647,0.01422729,-0.00034844,0.00246335,-0.00108815,-0.00034683,0.000386
 12,-0.00023924,-0.00017890,-0.00035256,-0.00009332,-0.00004638,0.00011
 841,0.00004180,0.00004057,0.00017163,-0.00002786,0.00003258,0.00022008
 ,-0.00017554,0.00018985,0.00001136,-0.00000450,-0.00015612,0.00004114,
 0.00002543,0.00017841,0.00009623,-0.00011636,-0.00011088,-0.00004908,-
 0.00009149,0.00012619,0.00000723,0.00001888,-0.05489462,-0.04372311,0.
 02254305,0.00407015,0.01521534,-0.00787830,-0.00202316,0.00356121,0.00
 222985,-0.00043339,-0.00013529,0.00075672,0.00006131,0.00003794,0.0000
 0720,-0.00002709,-0.00000484,0.00002308,0.00000019,-0.00001294,0.00002
 562,-0.00000443,-0.00000571,0.00001314,-0.00000998,0.00001800,0.000029
 38,-0.00000541,-0.00000141,0.00000871,0.00000204,0.00000099,0.00000208
 ,0.00172238,0.00924794,-0.00387166,0.05791154,-0.00089219,0.00083114,0
 .00028966,-0.00347607,-0.00530347,0.00072751,0.00130002,-0.00005164,-0
 .00058206,-0.00075318,0.00019465,-0.00024628,-0.00007849,0.00010606,0.
 00002928,0.00004660,-0.00003434,-0.00001647,0.00002849,-0.00007587,-0.
 00001398,0.00027121,0.00002163,-0.00000982,0.00003866,-0.00003049,0.00
 004600,-0.00001881,-0.00007119,-0.00003312,-0.00010388,0.00000130,0.00
 010834,0.00005374,0.00004142,0.00005192,-0.00005145,-0.00000235,-0.000
 04731,-0.03869711,-0.25672357,0.09563987,-0.00413182,-0.01971210,0.008
 57241,0.00319444,-0.00202770,-0.00250848,0.00010492,0.00006780,0.00043
 513,0.00001535,0.00002085,0.00001511,-0.00000111,0.00000463,0.00000318
 ,-0.00000957,0.00000001,0.00000682,0.00000035,0.00005236,-0.00006715,0
 .00001928,0.00001151,0.00000468,0.00000372,0.00000494,-0.00000294,0.00
 000538,-0.00000364,-0.00000293,0.00059814,0.00211312,-0.00021300,0.043
 03498,0.27970682,-0.00149908,-0.00008432,-0.00134747,-0.00100361,-0.00
 363490,0.00063634,0.00092473,-0.00020837,0.00053241,0.00007779,-0.0000
 2319,-0.00040364,0.00011761,0.00026888,0.00010918,-0.00006732,-0.00007
 151,-0.00002085,-0.00011827,-0.00016001,-0.00005315,0.00012379,-0.0001
 0836,0.00009662,-0.00038086,0.00005432,-0.00011050,0.00026285,0.000101
 36,-0.00037256,-0.00007739,-0.00020240,0.00004561,0.00025064,0.0000415
 4,0.00009262,0.00004859,0.00022899,0.00015465,0.02015462,0.09789220,-0
 .08671053,-0.00392155,-0.01526182,0.00595745,0.00237365,-0.00451282,-0
 .00147697,0.00063992,0.00014206,-0.00028838,-0.00003961,-0.00003358,0.
 00002203,0.00001420,0.00000246,0.00000219,0.00001023,0.00000592,-0.000
 02308,0.00001118,0.00000049,-0.00003317,0.00002982,0.00003219,0.000275
 57,0.00001639,0.00001193,-0.00000781,-0.00002420,0.00000994,0.00000414
 ,0.00565730,0.02856450,-0.01225195,-0.02295383,-0.10231623,0.09421812,
 -0.00023329,-0.00042800,-0.00116237,0.00078561,0.00054484,0.00169204,-
 0.00008460,-0.00020370,-0.00045309,-0.00016611,0.00001530,-0.00008670,
 -0.00007272,0.00004292,0.00000284,0.00004814,-0.00001337,-0.00001190,0
 .00003685,-0.00002787,-0.00001882,0.00007118,-0.00003284,0.00001258,-0
 .00002012,0.00002585,-0.00000909,0.00003727,-0.00015411,-0.00002210,-0
 .00029111,-0.00004111,0.00034483,0.00016529,0.00003189,0.00012033,-0.0
 0012811,0.00005257,-0.00007961,0.00201944,-0.00171606,0.01918046,-0.05
 496803,0.00423058,-0.02594087,-0.00014293,-0.00630920,0.01478572,0.000
 14737,-0.00007679,0.00008851,-0.00004652,0.00000049,0.00002405,-0.0000
 1004,0.00000487,0.00000827,-0.00000300,0.00000555,-0.00000516,-0.00000
 312,0.00002347,-0.00001959,-0.00000193,0.00002517,-0.00001572,-0.00000
 186,-0.00001179,0.00000729,-0.00000561,-0.00000894,0.00001584,-0.00172
 995,0.00225802,0.00155894,0.00126478,-0.00065221,-0.00062004,0.0525962
 7,0.00032847,0.00100100,0.00014878,-0.00136241,-0.00063617,-0.00059329
 ,0.00060007,-0.00007422,0.00013518,-0.00013571,-0.00004752,0.00014444,
 -0.00005437,0.00000931,-0.00003892,0.00007401,-0.00001331,-0.00000631,
 0.00006361,0.00000916,0.00001866,0.00004155,-0.00007874,-0.00001213,-0
 .00022418,0.00001729,-0.00005902,0.00005786,-0.00042948,-0.00025760,-0
 .00082937,-0.00033583,0.00102727,0.00057514,0.00024328,0.00032872,-0.0
 0033161,0.00025048,-0.00003087,-0.00174475,0.00132986,-0.02355241,0.00
 143954,-0.05148961,0.02745179,-0.00207127,-0.01717151,0.04022798,-0.00
 017815,0.00020222,-0.00005420,0.00004935,0.00001490,-0.00001015,-0.000
 00247,0.00000083,-0.00000170,-0.00001192,0.00001714,0.00000608,-0.0000
 0223,0.00002578,-0.00001355,0.00001377,-0.00000259,0.00014277,-0.00000
 199,-0.00000813,0.00001912,0.00000273,0.00003670,0.00000187,0.00356633
 ,-0.00233293,-0.00209825,-0.00025932,0.00087811,-0.00033007,-0.0011717
 8,0.07028569,0.00003112,0.00060445,0.00107266,-0.00086491,-0.00101739,
 -0.00090923,0.00016485,0.00018905,0.00020325,0.00000662,-0.00003826,0.
 00006518,-0.00001680,0.00000356,-0.00000417,0.00002044,-0.00000452,0.0
 0000071,0.00001316,0.00000020,0.00000750,-0.00001986,0.00000917,-0.000
 00480,-0.00001002,0.00000568,-0.00002032,-0.00004722,-0.00002140,-0.00
 003017,0.00001399,-0.00004077,0.00001754,0.00001063,0.00001059,0.00001
 319,0.00003484,0.00003199,0.00002038,-0.00094941,-0.00098715,-0.013940
 15,-0.02066391,0.03755352,-0.31552390,0.00023614,0.00253959,-0.0024633
 4,-0.00010840,0.00012717,-0.00005572,0.00002628,0.00001761,-0.00000026
 ,-0.00000196,0.00000054,-0.00000254,-0.00000387,-0.00000015,0.00000557
 ,0.00000242,-0.00000260,0.00000439,-0.00000501,-0.00000664,0.00005504,
 0.00000446,0.00000434,-0.00000355,-0.00000445,0.00000305,-0.00000747,0
 .00184619,-0.00182456,0.00030202,-0.00005262,-0.00007366,0.00081033,0.
 02118520,-0.03844170,0.33559543,0.00046842,0.00007678,0.00001383,0.000
 54592,0.00254415,0.00113957,-0.00101546,-0.00037336,0.00016177,0.00015
 056,0.00017432,0.00009860,0.00003852,-0.00014111,0.00000515,-0.0000748
 6,0.00004756,0.00001353,-0.00002890,0.00005632,0.00001625,-0.00008279,
 0.00002195,-0.00002035,0.00000664,0.00003694,0.00000237,-0.00006776,-0
 .00001360,-0.00001778,0.00003644,-0.00002043,0.00005063,-0.00001541,-0
 .00001356,0.00000544,0.00007550,-0.00000238,0.00003711,-0.01465308,0.0
 0006998,-0.00399778,-0.30098849,-0.01696512,-0.07351053,-0.00647979,-0
 .00283388,-0.00145008,-0.00000809,-0.00005576,-0.00009526,0.00000175,-
 0.00000054,0.00000197,0.00000274,-0.00000455,-0.00000504,0.00000186,-0
 .00000155,0.00000295,0.00000329,-0.00002061,0.00002442,-0.00002969,0.0
 0001448,0.00002199,0.00000434,0.00001174,-0.00000957,0.00000533,0.0000
 0844,-0.00000550,0.00093555,-0.00057770,0.00019368,-0.00012095,0.00031
 185,0.00000564,-0.00003828,0.00073263,-0.00069635,0.32076618,-0.000234
 10,0.00150821,0.00039899,-0.00031398,-0.00460143,-0.00272784,0.0019235
 8,0.00081376,-0.00015880,-0.00023039,-0.00039692,-0.00011788,-0.000037
 81,0.00022235,-0.00002166,0.00014581,-0.00008583,-0.00002534,0.0000601
 4,-0.00007126,-0.00002021,0.00009880,-0.00001984,-0.00000200,0.0000275
 2,0.00001240,0.00001675,-0.00001294,-0.00006602,-0.00005881,-0.0002064
 2,-0.00014303,0.00022431,0.00016648,0.00006942,0.00019781,-0.00006171,
 -0.00000466,-0.00006521,0.02178963,0.00358557,0.00575759,-0.00691250,-
 0.05093692,-0.00056366,-0.03871144,-0.01018034,-0.00995239,-0.00001973
 ,0.00012176,0.00012517,0.00000235,0.00000685,-0.00000311,-0.00000051,0
 .00000584,0.00000895,-0.00001020,0.00001176,-0.00000078,-0.00000412,0.
 00003906,-0.00003542,0.00000958,0.00001024,0.00003652,0.00000838,0.000
 04060,-0.00003321,0.00000842,-0.00000998,-0.00000185,-0.00037715,0.000
 91373,0.00002884,-0.00044930,0.00018606,0.00049104,0.00495676,0.001384
 79,0.00043200,0.01827159,0.06212056,-0.00046375,0.00059632,0.00083612,
 0.00060333,-0.00437849,-0.00191732,0.00126756,0.00057773,-0.00021815,-
 0.00007339,-0.00018052,-0.00019656,0.00000333,0.00011417,-0.00001211,0
 .00005417,-0.00004188,-0.00000878,0.00001384,-0.00003676,-0.00001258,0
 .00009235,-0.00002911,0.00002278,0.00002485,-0.00004243,0.00001214,0.0
 0004660,0.00000796,0.00003222,-0.00005804,-0.00000286,-0.00002580,-0.0
 0000225,0.00003472,0.00000118,-0.00011035,-0.00001369,-0.00004340,0.01
 897864,0.00047435,0.00390136,-0.07760421,-0.00424478,-0.07416901,0.009
 65708,0.00243127,0.00259513,0.00002376,0.00004385,0.00008549,0.0000003
 3,0.00000937,0.00000583,0.00000535,0.00000007,0.00000433,0.00000123,0.
 00000057,-0.00000320,-0.00000602,0.00002466,-0.00002629,0.00004230,-0.
 00001144,-0.00003574,-0.00000730,-0.00001211,0.00000919,0.00000179,-0.
 00000315,-0.00000098,0.00025147,0.00074176,0.00081580,-0.00047285,0.00
 013138,0.00030735,-0.03061486,-0.00245324,-0.00657220,0.07784015,0.005
 42538,0.07421833,-0.00254755,0.00351379,-0.00008107,-0.00162745,-0.001
 83831,-0.00157635,0.00003000,0.00034792,0.00055616,0.00012035,-0.00001
 494,-0.00001687,-0.00002745,0.00006759,0.00005368,0.00003019,-0.000019
 33,-0.00000706,0.00000208,-0.00003790,-0.00002378,-0.00005210,0.000028
 50,0.00002015,-0.00006921,-0.00011378,-0.00011880,0.00019050,-0.000055
 41,-0.00004631,0.00006328,0.00002123,-0.00008121,-0.00002984,0.0000533
 2,-0.00000569,0.00001474,0.00009765,-0.00000599,-0.00106930,-0.0034583
 1,0.00124664,0.01045536,-0.00847174,-0.00963441,-0.17062206,0.13188985
 ,0.10034365,-0.00004468,0.00003691,0.00008370,0.00003276,0.00000056,-0
 .00001762,-0.00001165,0.00000694,0.00000185,0.00000263,-0.00001496,0.0
 0000041,0.00000688,-0.00001685,0.00000954,-0.00000003,-0.00002452,0.00
 002545,-0.00006479,-0.00011556,0.00011024,-0.00003690,0.00000178,0.000
 03960,0.00002999,0.00011568,-0.00003990,0.00057879,-0.00077160,-0.0004
 7940,0.00035148,0.00048487,0.00000249,0.00008055,-0.00049186,-0.000663
 47,0.17392119,-0.00055268,0.00165366,0.00026612,-0.00072294,-0.0007068
 8,-0.00049733,-0.00019646,0.00031206,0.00031865,0.00010769,0.00007771,
 -0.00001669,0.00011761,-0.00010263,-0.00002143,-0.00009691,0.00003376,
 0.00001276,-0.00005439,0.00006045,0.00001890,-0.00001785,-0.00002020,-
 0.00001137,0.00009669,-0.00008493,-0.00006320,0.00013886,-0.00030486,-
 0.00003920,-0.00058577,-0.00086422,0.00074243,0.00022638,0.00032548,0.
 00023785,-0.00034596,0.00002799,-0.00015762,-0.00322473,-0.00434823,0.
 00300266,0.01801609,-0.01930605,-0.01592843,0.13291904,-0.21116167,-0.
 11680530,-0.00007342,-0.00004356,0.00004414,0.00002219,-0.00000867,-0.
 00000971,0.00001768,-0.00000652,-0.00000275,0.00000546,0.00000239,-0.0
 0000008,-0.00001063,-0.00000362,0.00000778,0.00000709,-0.00000324,-0.0
 0004527,-0.00012029,-0.00003759,0.00009617,0.00002621,0.00006988,-0.00
 000951,-0.00018431,0.00001069,0.00002149,0.00099449,-0.00079246,-0.001
 01380,0.00068201,0.00098762,0.00064254,-0.00034969,0.00123036,-0.00071
 791,-0.14090775,0.22248170,-0.00193994,0.00181274,0.00002813,-0.000012
 07,-0.00062777,-0.00082321,-0.00029384,0.00017730,0.00039197,0.0001510
 7,0.00008149,0.00000267,0.00015126,-0.00009493,-0.00001274,-0.00011971
 ,0.00003400,0.00000490,-0.00007445,0.00005372,0.00001045,-0.00004315,-
 0.00001002,-0.00003037,-0.00010820,0.00017014,0.00009437,-0.00026962,0
 .00017424,0.00000628,0.00048928,0.00102925,-0.00069035,-0.00004696,0.0
 0001451,-0.00020767,0.00020142,-0.00009882,0.00009631,0.00042311,0.001
 14969,-0.00015185,-0.00563452,0.00382576,0.00434070,0.10088686,-0.1169
 2585,-0.14962959,0.00002981,-0.00004364,0.00000193,0.00001791,-0.00001
 328,-0.00000381,0.00001843,-0.00000811,0.00000444,0.00000712,-0.000002
 93,-0.00000548,-0.00001025,-0.00001437,0.00001973,0.00001979,-0.000028
 11,0.00001722,0.00008161,0.00004760,-0.00003418,-0.00000407,0.00000111
 ,0.00004450,-0.00002994,0.00021689,0.00006626,-0.00011447,0.00030521,0
 .00030085,-0.00045382,0.00081175,0.00004675,-0.00010231,-0.00031667,0.
 00004825,-0.11044347,0.12423840,0.14915845,-0.01018561,-0.01809160,-0.
 00788119,0.01187730,0.01663259,0.01420866,0.00056999,-0.00661445,-0.00
 672642,-0.00205929,-0.00028904,0.00039794,-0.00111218,0.00078061,-0.00
 000903,0.00081333,-0.00026439,-0.00012231,0.00060244,-0.00052887,-0.00
 012248,0.00058421,-0.00026655,0.00020870,-0.00056971,0.00001136,0.0001
 5321,0.00067863,-0.00121216,-0.00051462,-0.00251453,-0.00064054,0.0023
 6496,0.00192752,0.00011245,0.00077946,-0.00175398,0.00082272,-0.000629
 69,-0.00052388,-0.00093236,-0.00150210,-0.01206287,-0.01430332,-0.0024
 8644,-0.30059707,-0.00826965,-0.08636758,0.00085046,0.00041778,-0.0005
 1796,-0.00023123,0.00014871,0.00014706,-0.00011588,0.00005567,0.000035
 11,-0.00006033,0.00002969,0.00000700,0.00001335,0.00026098,-0.00019198
 ,0.00012906,-0.00002267,0.00004096,0.00006231,-0.00016409,0.00013968,-
 0.00015968,-0.00010468,0.00022818,-0.00072511,0.00002081,0.00001796,-0
 .00115397,0.00037095,0.00030944,0.00069117,0.00154796,0.00005549,0.000
 87898,0.00044907,0.00042868,-0.00948596,0.00020817,-0.00313590,0.31711
 778,-0.00320941,0.00985088,0.00609334,-0.00309257,-0.01574799,-0.01207
 846,-0.00147419,0.00430704,0.00474123,0.00179001,0.00030947,-0.0003135
 2,0.00089745,-0.00041937,0.00014483,-0.00068110,0.00016360,0.00008753,
 -0.00054176,0.00026146,0.00006013,-0.00056841,0.00026151,-0.00010111,-
 0.00005209,-0.00035827,-0.00026777,0.00010945,0.00003947,0.00039931,0.
 00101911,0.00056175,-0.00061412,-0.00103452,-0.00021465,-0.00101101,0.
 00025637,0.00022685,0.00039449,0.00046098,0.00111192,-0.00040324,-0.03
 591379,-0.00381591,-0.01139311,-0.01429259,-0.05359503,-0.00895814,-0.
 00048874,-0.00015213,0.00010932,0.00027229,-0.00008541,-0.00010519,0.0
 0008225,-0.00002988,-0.00003585,0.00006718,-0.00007569,-0.00000313,0.0
 0000476,-0.00022192,0.00016588,-0.00006319,-0.00001955,-0.00021392,-0.
 00011818,-0.00039242,0.00036456,-0.00005387,0.00013617,-0.00001288,0.0
 0036620,0.00014853,0.00016174,0.00051757,0.00019258,0.00022946,0.00015
 848,0.00085170,0.00032480,-0.00090910,-0.00703094,0.00184869,0.0216396
 5,0.00116559,0.01042811,0.02740906,0.06247067,-0.00153694,-0.00010659,
 -0.00707183,0.00308779,-0.00131974,-0.00004379,-0.00056054,-0.00096520
 ,-0.00018552,-0.00022048,0.00011340,0.00023497,0.00014086,-0.00025102,
 -0.00014582,-0.00009961,0.00007047,-0.00000872,0.00002689,0.00014668,0
 .00003415,0.00008581,-0.00016911,-0.00008643,0.00018532,0.00025083,0.0
 0006655,-0.00000664,-0.00080088,-0.00038366,-0.00067018,-0.00043966,0.
 00100834,0.00140470,0.00071063,0.00078502,-0.00025876,-0.00008072,-0.0
 0041161,-0.00109957,-0.00050650,-0.00065528,0.00615705,0.00018090,0.00
 360259,-0.09120835,-0.00654144,-0.09583105,0.00021721,-0.00024543,0.00
 003080,-0.00002562,-0.00001724,-0.00000163,0.00002483,-0.00001576,0.00
 002484,-0.00001913,0.00005500,-0.00001099,-0.00004202,0.00004447,-0.00
 000243,-0.00001061,0.00006063,0.00004953,-0.00001526,0.00011382,-0.000
 06590,0.00010751,0.00003360,0.00014173,-0.00011026,-0.00023782,-0.0001
 0265,0.00006041,0.00014660,0.00010595,0.00123011,0.00066310,-0.0000810
 2,0.00030431,0.00170134,0.00003946,0.02153934,0.00363815,0.00846362,0.
 09631996,0.00516430,0.10325330,-0.00183461,0.00051407,0.00205696,0.001
 09120,0.00051405,-0.00111045,-0.00075824,0.00018649,0.00082315,0.00066
 936,-0.00012895,-0.00028980,-0.00024554,0.00058412,0.00034817,0.000114
 79,-0.00014451,-0.00000224,-0.00006653,-0.00043518,-0.00012416,-0.0003
 5998,0.00037791,0.00022392,0.00111784,0.00032524,0.00053258,-0.0018302
 8,0.00336285,0.00185903,0.00102498,0.00262001,-0.00478318,-0.00608679,
 -0.00156774,-0.00151909,0.00261796,-0.00198677,0.00053924,0.00045775,0
 .00078938,-0.00096663,-0.00118190,-0.00317650,0.01031578,-0.05841523,0
 .00227389,0.00580737,0.00004222,0.00004672,-0.00005776,-0.00001874,0.0
 0002916,-0.00005618,-0.00005980,0.00004183,-0.00002873,0.00003703,-0.0
 0013059,-0.00000650,0.00006013,-0.00011392,0.00007231,0.00018950,-0.00
 015110,-0.00047882,0.00023068,0.00008969,-0.00036594,-0.00026168,-0.00
 029774,-0.00001647,0.00023663,-0.00001567,-0.00008679,-0.00031488,0.00
 023942,0.00015676,-0.00026755,-0.00119635,-0.00020953,-0.00039902,0.00
 015603,0.00073969,-0.00022177,-0.00614191,0.02035905,0.00651474,0.0074
 4271,-0.03500814,0.05791776,-0.00106482,0.00096192,0.00064841,0.002117
 14,-0.00155479,-0.00125822,-0.00091704,0.00040057,0.00089338,0.0007748
 0,-0.00001436,-0.00021123,0.00012601,0.00015350,0.00018428,-0.00015814
 ,-0.00001946,0.00002878,-0.00017971,-0.00015600,-0.00003960,-0.0001713
 1,0.00024062,0.00025714,0.00219533,-0.00051926,0.00034588,0.00143785,0
 .00200636,0.00073384,0.00160065,-0.00186179,-0.00490739,-0.00394434,-0
 .00135488,-0.00052372,0.00149184,-0.00175951,-0.00021628,0.00063518,0.
 00127734,0.00006550,0.00092846,-0.00522212,0.02931396,0.00120611,-0.08
 316138,0.06699449,0.00003314,-0.00011343,-0.00007704,-0.00000097,-0.00
 000788,-0.00003840,-0.00000079,0.00001076,-0.00002491,0.00002039,-0.00
 006250,-0.00000463,0.00003669,-0.00012853,0.00008682,0.00007234,-0.000
 11761,-0.00086397,-0.00003142,0.00006674,-0.00017624,0.00010064,-0.000
 15307,-0.00012079,-0.00005842,-0.00043904,-0.00060803,-0.00030857,0.00
 039383,-0.00011592,-0.00221098,-0.00492582,-0.00004106,-0.00009579,0.0
 0126386,-0.00029389,-0.00195341,0.00935601,-0.02638741,0.00242577,0.00
 009997,-0.00139681,-0.00410663,0.08533995,0.00257119,-0.00341119,-0.00
 188891,-0.00222543,0.00258350,0.00361762,0.00189887,-0.00079802,-0.002
 32150,-0.00134503,-0.00002364,0.00044036,0.00004072,-0.00056283,-0.000
 41128,0.00010788,0.00011436,-0.00005614,0.00025318,0.00047073,0.000094
 30,0.00040888,-0.00068273,-0.00011165,-0.00193462,-0.00055467,-0.00066
 223,0.00267262,-0.00446880,-0.00336895,-0.00564726,-0.00785525,0.00333
 932,0.00476779,0.00430553,0.00369216,-0.00612310,0.00228243,-0.0011969
 4,-0.00025193,0.00041939,0.00195250,0.00221982,0.00767268,0.00679877,0
 .00871153,0.06000821,-0.31536560,0.00000117,0.00003693,0.00023275,0.00
 000393,-0.00001435,0.00009355,0.00005239,-0.00004417,0.00006178,-0.000
 02378,0.00015619,-0.00000232,-0.00009604,0.00028127,-0.00017232,0.0001
 4201,0.00001289,0.00057873,-0.00048484,-0.00066165,0.00072385,0.000026
 09,0.00067923,-0.00002442,-0.00012723,-0.00025077,-0.00049444,0.000303
 12,-0.00037967,-0.00057136,-0.00074327,-0.00317413,0.00139892,-0.00002
 881,-0.00073983,0.00030715,-0.00079152,0.00205158,-0.01155851,-0.00563
 474,0.00479372,-0.01275254,0.00127641,-0.06224694,0.32762735\\-0.00000
 125,0.00000125,0.00000644,-0.00004051,-0.00000564,-0.00000240,0.000018
 50,0.00002790,-0.00001722,0.00001556,-0.00000326,-0.00001473,-0.000001
 44,-0.00000019,-0.00000213,0.00000208,-0.00000238,-0.00000117,0.000002
 92,-0.00000026,0.00000214,0.00000365,-0.00000565,0.00000754,0.00000039
 ,0.00000223,0.00001499,0.00000310,-0.00000144,-0.00000178,-0.00000180,
 0.00000176,0.00000409,0.00000323,0.00000331,-0.00000505,-0.00000197,-0
 .00000157,-0.00000553,-0.00001045,0.00000727,0.00000099,0.00001315,0.0
 0000933,0.00001027,-0.00004079,-0.00000137,-0.00003143,-0.00000669,-0.
 00001425,0.00000683,0.00000672,-0.00000226,-0.00000327,-0.00000150,0.0
 0000219,0.00000063,0.00000140,-0.00000140,0.00000018,-0.00000126,0.000
 00183,-0.00000099,-0.00000133,-0.00000196,0.00000424,0.00000011,0.0000
 0084,0.00000025,0.00000023,-0.00000030,0.00000329,0.00000218,-0.000003
 35,-0.00000281,0.00000210,-0.00000137,-0.00000129,0.00000004,-0.000002
 69,-0.00000107,-0.00000048,-0.00000340,0.00000240,0.00000190,-0.000000
 52,-0.00000206,0.00003353,-0.00000291,0.00001320,-0.00000132,-0.000001
 73,0.00001544\\\@


 SEEN ON A WALL AT THE UNIVERSITY OF ILLINOIS AT CHICAGO CIRCLE:

 TO DO IS TO BE  -- SOCRATES
 TO BE IS TO DO  -- SARTRE
 OO BE DO BE DO  -- SINATRA
 Job cpu time:       0 days  2 hours 35 minutes 48.0 seconds.
 File lengths (MBytes):  RWF=    458 Int=      0 D2E=      0 Chk=     13 Scr=      1
 Normal termination of Gaussian 09 at Thu Jul 29 00:07:21 2021.
