 Entering Gaussian System, Link 0=g09
 Input=opt_freq-conf-580.com
 Output=opt_freq-conf-580.log
 Initial command:
 /aerosol/software/g09/l1.exe "/scratch/nicole/10685/Gau-82798.inp" -scrdir="/scratch/nicole/10685/"
 Entering Link 1 = /aerosol/software/g09/l1.exe PID=     82802.
  
 Copyright (c) 1988,1990,1992,1993,1995,1998,2003,2009,2013,
            Gaussian, Inc.  All Rights Reserved.
  
 This is part of the Gaussian(R) 09 program.  It is based on
 the Gaussian(R) 03 system (copyright 2003, Gaussian, Inc.),
 the Gaussian(R) 98 system (copyright 1998, Gaussian, Inc.),
 the Gaussian(R) 94 system (copyright 1995, Gaussian, Inc.),
 the Gaussian 92(TM) system (copyright 1992, Gaussian, Inc.),
 the Gaussian 90(TM) system (copyright 1990, Gaussian, Inc.),
 the Gaussian 88(TM) system (copyright 1988, Gaussian, Inc.),
 the Gaussian 86(TM) system (copyright 1986, Carnegie Mellon
 University), and the Gaussian 82(TM) system (copyright 1983,
 Carnegie Mellon University). Gaussian is a federally registered
 trademark of Gaussian, Inc.
  
 This software contains proprietary and confidential information,
 including trade secrets, belonging to Gaussian, Inc.
  
 This software is provided under written license and may be
 used, copied, transmitted, or stored only in accord with that
 written license.
  
 The following legend is applicable only to US Government
 contracts under FAR:
  
                    RESTRICTED RIGHTS LEGEND
  
 Use, reproduction and disclosure by the US Government is
 subject to restrictions as set forth in subparagraphs (a)
 and (c) of the Commercial Computer Software - Restricted
 Rights clause in FAR 52.227-19.
  
 Gaussian, Inc.
 340 Quinnipiac St., Bldg. 40, Wallingford CT 06492
  
  
 ---------------------------------------------------------------
 Warning -- This program may not be used in any manner that
 competes with the business of Gaussian, Inc. or will provide
 assistance to any competitor of Gaussian, Inc.  The licensee
 of this program is prohibited from giving any competitor of
 Gaussian, Inc. access to this program.  By using this program,
 the user acknowledges that Gaussian, Inc. is engaged in the
 business of creating and licensing software in the field of
 computational chemistry and represents and warrants to the
 licensee that it is not a competitor of Gaussian, Inc. and that
 it will not use this program in any manner prohibited above.
 ---------------------------------------------------------------
  

 Cite this work as:
 Gaussian 09, Revision D.01,
 M. J. Frisch, G. W. Trucks, H. B. Schlegel, G. E. Scuseria, 
 M. A. Robb, J. R. Cheeseman, G. Scalmani, V. Barone, B. Mennucci, 
 G. A. Petersson, H. Nakatsuji, M. Caricato, X. Li, H. P. Hratchian, 
 A. F. Izmaylov, J. Bloino, G. Zheng, J. L. Sonnenberg, M. Hada, 
 M. Ehara, K. Toyota, R. Fukuda, J. Hasegawa, M. Ishida, T. Nakajima, 
 Y. Honda, O. Kitao, H. Nakai, T. Vreven, J. A. Montgomery, Jr., 
 J. E. Peralta, F. Ogliaro, M. Bearpark, J. J. Heyd, E. Brothers, 
 K. N. Kudin, V. N. Staroverov, T. Keith, R. Kobayashi, J. Normand, 
 K. Raghavachari, A. Rendell, J. C. Burant, S. S. Iyengar, J. Tomasi, 
 M. Cossi, N. Rega, J. M. Millam, M. Klene, J. E. Knox, J. B. Cross, 
 V. Bakken, C. Adamo, J. Jaramillo, R. Gomperts, R. E. Stratmann, 
 O. Yazyev, A. J. Austin, R. Cammi, C. Pomelli, J. W. Ochterski, 
 R. L. Martin, K. Morokuma, V. G. Zakrzewski, G. A. Voth, 
 P. Salvador, J. J. Dannenberg, S. Dapprich, A. D. Daniels, 
 O. Farkas, J. B. Foresman, J. V. Ortiz, J. Cioslowski, 
 and D. J. Fox, Gaussian, Inc., Wallingford CT, 2013.
 
 ******************************************
 Gaussian 09:  ES64L-G09RevD.01 24-Apr-2013
                28-Jul-2021 
 ******************************************
 %mem=2gb
 %nproc=4
 Will use up to    4 processors via shared memory.
 %chk=conf-580.chk
 ----------------------------------------------------------------------
 # B3LYP/6-311G(d,p) opt=calcfc freq=noraman nosymm integral(ultrafineg
 rid)
 ----------------------------------------------------------------------
 1/10=4,14=-1,18=20,19=15,26=4,38=1/1,3;
 2/9=110,12=2,15=1,17=6,18=5,40=1/2;
 3/5=4,6=6,7=101,11=2,16=1,25=1,30=1,71=2,74=-5,75=-5,140=1/1,2,3;
 4//1;
 5/5=2,38=5/2;
 8/6=4,10=90,11=11/1;
 11/6=1,8=1,9=11,15=111,16=1,31=1/1,2,10;
 10/6=1,13=1,31=1/2;
 6/7=2,8=2,9=2,10=2,28=1/1;
 7/10=1,18=20,25=1,30=1/1,2,3,16;
 1/10=4,14=-1,18=20,19=15,26=4/3(2);
 2/9=110,15=1/2;
 99//99;
 2/9=110,15=1/2;
 3/5=4,6=6,7=101,11=2,16=1,25=1,30=1,71=1,74=-5,75=-5/1,2,3;
 4/5=5,16=3,69=1/1;
 5/5=2,38=5/2;
 7/30=1/1,2,3,16;
 1/14=-1,18=20,19=15,26=4/3(-5);
 2/9=110,15=1/2;
 6/7=2,8=2,9=2,10=2,19=2,28=1/1;
 99/9=1/99;
 ------------------------------------------------------------
 Candidate Structure: Conf:580 OPT and FREQ calc in gas phase
 ------------------------------------------------------------
 Symbolic Z-matrix:
 Charge =  1 Multiplicity = 1
 O                     1.1626    0.47867  -1.24083 
 C                     1.43062   0.39643  -0.04924 
 N                     0.44893   0.32097   0.88846 
 C                    -0.95542   0.32737   0.51041 
 C                    -1.72354   0.76875   1.73533 
 O                    -2.59503   1.76808   1.49955 
 O                    -1.57563   0.26701   2.82237 
 C                    -1.39558  -1.08541   0.07214 
 C                    -2.827    -1.1616   -0.34837 
 C                    -3.94651  -1.63385   0.27999 
 N                    -5.07043  -1.45394  -0.50815 
 C                    -4.63104  -0.88057  -1.60483 
 N                    -3.28184  -0.68161  -1.55821 
 C                     2.85113   0.35726   0.49446 
 C                     3.88925   0.67519  -0.5716 
 N                     5.27509   0.60883  -0.03633 
 H                     0.66614   0.21415   1.86708 
 H                    -1.09215   1.03096  -0.31002 
 H                    -3.03128   1.94422   2.34426 
 H                    -1.24299  -1.76764   0.90622 
 H                    -0.73868  -1.39207  -0.73967 
 H                    -4.00148  -2.07935   1.265 
 H                    -5.22149  -0.59048  -2.45542 
 H                    -2.71356  -0.26592  -2.27903 
 H                     3.04083  -0.64193   0.90267 
 H                     2.93715   1.06208   1.32718 
 H                     3.77607  -0.02889  -1.39457 
 H                     3.69767   1.66864  -0.97572 
 H                     5.96943   0.81982  -0.75442 
 H                     5.41211   1.27593   0.72291 
 H                     5.48682  -0.32092   0.32558 
 

 GradGradGradGradGradGradGradGradGradGradGradGradGradGradGradGradGradGrad
 Berny optimization.
 Initialization pass.
                           ----------------------------
                           !    Initial Parameters    !
                           ! (Angstroms and Degrees)  !
 --------------------------                            --------------------------
 ! Name  Definition              Value          Derivative Info.                !
 --------------------------------------------------------------------------------
 ! R1    R(1,2)                  1.2241         calculate D2E/DX2 analytically  !
 ! R2    R(2,3)                  1.3597         calculate D2E/DX2 analytically  !
 ! R3    R(2,14)                 1.5215         calculate D2E/DX2 analytically  !
 ! R4    R(3,4)                  1.4544         calculate D2E/DX2 analytically  !
 ! R5    R(3,17)                 1.0081         calculate D2E/DX2 analytically  !
 ! R6    R(4,5)                  1.5117         calculate D2E/DX2 analytically  !
 ! R7    R(4,8)                  1.5433         calculate D2E/DX2 analytically  !
 ! R8    R(4,18)                 1.0894         calculate D2E/DX2 analytically  !
 ! R9    R(5,6)                  1.3468         calculate D2E/DX2 analytically  !
 ! R10   R(5,7)                  1.2064         calculate D2E/DX2 analytically  !
 ! R11   R(6,19)                 0.9669         calculate D2E/DX2 analytically  !
 ! R12   R(8,9)                  1.4938         calculate D2E/DX2 analytically  !
 ! R13   R(8,20)                 1.0883         calculate D2E/DX2 analytically  !
 ! R14   R(8,21)                 1.0884         calculate D2E/DX2 analytically  !
 ! R15   R(9,10)                 1.3679         calculate D2E/DX2 analytically  !
 ! R16   R(9,13)                 1.3788         calculate D2E/DX2 analytically  !
 ! R17   R(10,11)                1.3845         calculate D2E/DX2 analytically  !
 ! R18   R(10,22)                1.0825         calculate D2E/DX2 analytically  !
 ! R19   R(11,12)                1.3132         calculate D2E/DX2 analytically  !
 ! R20   R(12,13)                1.3646         calculate D2E/DX2 analytically  !
 ! R21   R(12,23)                1.0753         calculate D2E/DX2 analytically  !
 ! R22   R(13,24)                1.0076         calculate D2E/DX2 analytically  !
 ! R23   R(14,15)                1.5216         calculate D2E/DX2 analytically  !
 ! R24   R(14,25)                1.0959         calculate D2E/DX2 analytically  !
 ! R25   R(14,26)                1.0943         calculate D2E/DX2 analytically  !
 ! R26   R(15,16)                1.4871         calculate D2E/DX2 analytically  !
 ! R27   R(15,27)                1.089          calculate D2E/DX2 analytically  !
 ! R28   R(15,28)                1.0895         calculate D2E/DX2 analytically  !
 ! R29   R(16,29)                1.0209         calculate D2E/DX2 analytically  !
 ! R30   R(16,30)                1.0199         calculate D2E/DX2 analytically  !
 ! R31   R(16,31)                1.0199         calculate D2E/DX2 analytically  !
 ! A1    A(1,2,3)              121.1297         calculate D2E/DX2 analytically  !
 ! A2    A(1,2,14)             123.6408         calculate D2E/DX2 analytically  !
 ! A3    A(3,2,14)             115.227          calculate D2E/DX2 analytically  !
 ! A4    A(2,3,4)              121.176          calculate D2E/DX2 analytically  !
 ! A5    A(2,3,17)             121.3189         calculate D2E/DX2 analytically  !
 ! A6    A(4,3,17)             117.442          calculate D2E/DX2 analytically  !
 ! A7    A(3,4,5)              106.3383         calculate D2E/DX2 analytically  !
 ! A8    A(3,4,8)              110.1931         calculate D2E/DX2 analytically  !
 ! A9    A(3,4,18)             108.6502         calculate D2E/DX2 analytically  !
 ! A10   A(5,4,8)              110.6385         calculate D2E/DX2 analytically  !
 ! A11   A(5,4,18)             110.9702         calculate D2E/DX2 analytically  !
 ! A12   A(8,4,18)             109.9717         calculate D2E/DX2 analytically  !
 ! A13   A(4,5,6)              113.8036         calculate D2E/DX2 analytically  !
 ! A14   A(4,5,7)              123.1211         calculate D2E/DX2 analytically  !
 ! A15   A(6,5,7)              123.0739         calculate D2E/DX2 analytically  !
 ! A16   A(5,6,19)             105.914          calculate D2E/DX2 analytically  !
 ! A17   A(4,8,9)              113.5732         calculate D2E/DX2 analytically  !
 ! A18   A(4,8,20)             108.435          calculate D2E/DX2 analytically  !
 ! A19   A(4,8,21)             107.3141         calculate D2E/DX2 analytically  !
 ! A20   A(9,8,20)             108.5493         calculate D2E/DX2 analytically  !
 ! A21   A(9,8,21)             110.7317         calculate D2E/DX2 analytically  !
 ! A22   A(20,8,21)            108.0823         calculate D2E/DX2 analytically  !
 ! A23   A(8,9,10)             132.2612         calculate D2E/DX2 analytically  !
 ! A24   A(8,9,13)             123.049          calculate D2E/DX2 analytically  !
 ! A25   A(10,9,13)            104.6715         calculate D2E/DX2 analytically  !
 ! A26   A(9,10,11)            110.9795         calculate D2E/DX2 analytically  !
 ! A27   A(9,10,22)            126.988          calculate D2E/DX2 analytically  !
 ! A28   A(11,10,22)           122.0242         calculate D2E/DX2 analytically  !
 ! A29   A(10,11,12)           105.1009         calculate D2E/DX2 analytically  !
 ! A30   A(11,12,13)           111.4658         calculate D2E/DX2 analytically  !
 ! A31   A(11,12,23)           126.488          calculate D2E/DX2 analytically  !
 ! A32   A(13,12,23)           122.046          calculate D2E/DX2 analytically  !
 ! A33   A(9,13,12)            107.782          calculate D2E/DX2 analytically  !
 ! A34   A(9,13,24)            125.8228         calculate D2E/DX2 analytically  !
 ! A35   A(12,13,24)           126.3934         calculate D2E/DX2 analytically  !
 ! A36   A(2,14,15)            112.4095         calculate D2E/DX2 analytically  !
 ! A37   A(2,14,25)            108.5535         calculate D2E/DX2 analytically  !
 ! A38   A(2,14,26)            109.1908         calculate D2E/DX2 analytically  !
 ! A39   A(15,14,25)           109.474          calculate D2E/DX2 analytically  !
 ! A40   A(15,14,26)           110.1769         calculate D2E/DX2 analytically  !
 ! A41   A(25,14,26)           106.8689         calculate D2E/DX2 analytically  !
 ! A42   A(14,15,16)           111.9807         calculate D2E/DX2 analytically  !
 ! A43   A(14,15,27)           108.8738         calculate D2E/DX2 analytically  !
 ! A44   A(14,15,28)           109.2953         calculate D2E/DX2 analytically  !
 ! A45   A(16,15,27)           109.8784         calculate D2E/DX2 analytically  !
 ! A46   A(16,15,28)           109.7596         calculate D2E/DX2 analytically  !
 ! A47   A(27,15,28)           106.9165         calculate D2E/DX2 analytically  !
 ! A48   A(15,16,29)           111.8023         calculate D2E/DX2 analytically  !
 ! A49   A(15,16,30)           111.3432         calculate D2E/DX2 analytically  !
 ! A50   A(15,16,31)           111.2144         calculate D2E/DX2 analytically  !
 ! A51   A(29,16,30)           107.2805         calculate D2E/DX2 analytically  !
 ! A52   A(29,16,31)           107.266          calculate D2E/DX2 analytically  !
 ! A53   A(30,16,31)           107.7099         calculate D2E/DX2 analytically  !
 ! D1    D(1,2,3,4)              0.3576         calculate D2E/DX2 analytically  !
 ! D2    D(1,2,3,17)           177.3943         calculate D2E/DX2 analytically  !
 ! D3    D(14,2,3,4)          -179.0877         calculate D2E/DX2 analytically  !
 ! D4    D(14,2,3,17)           -2.0511         calculate D2E/DX2 analytically  !
 ! D5    D(1,2,14,15)           10.0468         calculate D2E/DX2 analytically  !
 ! D6    D(1,2,14,25)         -111.2039         calculate D2E/DX2 analytically  !
 ! D7    D(1,2,14,26)          132.6334         calculate D2E/DX2 analytically  !
 ! D8    D(3,2,14,15)         -170.5235         calculate D2E/DX2 analytically  !
 ! D9    D(3,2,14,25)           68.2258         calculate D2E/DX2 analytically  !
 ! D10   D(3,2,14,26)          -47.9369         calculate D2E/DX2 analytically  !
 ! D11   D(2,3,4,5)           -158.491          calculate D2E/DX2 analytically  !
 ! D12   D(2,3,4,8)             81.5636         calculate D2E/DX2 analytically  !
 ! D13   D(2,3,4,18)           -38.9825         calculate D2E/DX2 analytically  !
 ! D14   D(17,3,4,5)            24.3615         calculate D2E/DX2 analytically  !
 ! D15   D(17,3,4,8)           -95.584          calculate D2E/DX2 analytically  !
 ! D16   D(17,3,4,18)          143.87           calculate D2E/DX2 analytically  !
 ! D17   D(3,4,5,6)            129.6372         calculate D2E/DX2 analytically  !
 ! D18   D(3,4,5,7)            -50.781          calculate D2E/DX2 analytically  !
 ! D19   D(8,4,5,6)           -110.7067         calculate D2E/DX2 analytically  !
 ! D20   D(8,4,5,7)             68.875          calculate D2E/DX2 analytically  !
 ! D21   D(18,4,5,6)            11.6523         calculate D2E/DX2 analytically  !
 ! D22   D(18,4,5,7)          -168.7659         calculate D2E/DX2 analytically  !
 ! D23   D(3,4,8,9)           -179.3492         calculate D2E/DX2 analytically  !
 ! D24   D(3,4,8,20)            59.9            calculate D2E/DX2 analytically  !
 ! D25   D(3,4,8,21)           -56.6265         calculate D2E/DX2 analytically  !
 ! D26   D(5,4,8,9)             63.3402         calculate D2E/DX2 analytically  !
 ! D27   D(5,4,8,20)           -57.4105         calculate D2E/DX2 analytically  !
 ! D28   D(5,4,8,21)          -173.9371         calculate D2E/DX2 analytically  !
 ! D29   D(18,4,8,9)           -59.6006         calculate D2E/DX2 analytically  !
 ! D30   D(18,4,8,20)          179.6487         calculate D2E/DX2 analytically  !
 ! D31   D(18,4,8,21)           63.1221         calculate D2E/DX2 analytically  !
 ! D32   D(4,5,6,19)           178.8089         calculate D2E/DX2 analytically  !
 ! D33   D(7,5,6,19)            -0.7731         calculate D2E/DX2 analytically  !
 ! D34   D(4,8,9,10)          -102.7806         calculate D2E/DX2 analytically  !
 ! D35   D(4,8,9,13)            75.411          calculate D2E/DX2 analytically  !
 ! D36   D(20,8,9,10)           17.9057         calculate D2E/DX2 analytically  !
 ! D37   D(20,8,9,13)         -163.9026         calculate D2E/DX2 analytically  !
 ! D38   D(21,8,9,10)          136.3996         calculate D2E/DX2 analytically  !
 ! D39   D(21,8,9,13)          -45.4088         calculate D2E/DX2 analytically  !
 ! D40   D(8,9,10,11)          178.3004         calculate D2E/DX2 analytically  !
 ! D41   D(8,9,10,22)           -0.6592         calculate D2E/DX2 analytically  !
 ! D42   D(13,9,10,11)          -0.1328         calculate D2E/DX2 analytically  !
 ! D43   D(13,9,10,22)        -179.0924         calculate D2E/DX2 analytically  !
 ! D44   D(8,9,13,12)         -178.5556         calculate D2E/DX2 analytically  !
 ! D45   D(8,9,13,24)            1.9074         calculate D2E/DX2 analytically  !
 ! D46   D(10,9,13,12)           0.0611         calculate D2E/DX2 analytically  !
 ! D47   D(10,9,13,24)        -179.4759         calculate D2E/DX2 analytically  !
 ! D48   D(9,10,11,12)           0.1538         calculate D2E/DX2 analytically  !
 ! D49   D(22,10,11,12)        179.1736         calculate D2E/DX2 analytically  !
 ! D50   D(10,11,12,13)         -0.1125         calculate D2E/DX2 analytically  !
 ! D51   D(10,11,12,23)        179.7345         calculate D2E/DX2 analytically  !
 ! D52   D(11,12,13,9)           0.034          calculate D2E/DX2 analytically  !
 ! D53   D(11,12,13,24)        179.5676         calculate D2E/DX2 analytically  !
 ! D54   D(23,12,13,9)        -179.821          calculate D2E/DX2 analytically  !
 ! D55   D(23,12,13,24)         -0.2873         calculate D2E/DX2 analytically  !
 ! D56   D(2,14,15,16)        -178.9104         calculate D2E/DX2 analytically  !
 ! D57   D(2,14,15,27)         -57.2083         calculate D2E/DX2 analytically  !
 ! D58   D(2,14,15,28)          59.2471         calculate D2E/DX2 analytically  !
 ! D59   D(25,14,15,16)        -58.188          calculate D2E/DX2 analytically  !
 ! D60   D(25,14,15,27)         63.5141         calculate D2E/DX2 analytically  !
 ! D61   D(25,14,15,28)        179.9695         calculate D2E/DX2 analytically  !
 ! D62   D(26,14,15,16)         59.0607         calculate D2E/DX2 analytically  !
 ! D63   D(26,14,15,27)       -179.2371         calculate D2E/DX2 analytically  !
 ! D64   D(26,14,15,28)        -62.7818         calculate D2E/DX2 analytically  !
 ! D65   D(14,15,16,29)        179.8294         calculate D2E/DX2 analytically  !
 ! D66   D(14,15,16,30)        -60.1839         calculate D2E/DX2 analytically  !
 ! D67   D(14,15,16,31)         59.9494         calculate D2E/DX2 analytically  !
 ! D68   D(27,15,16,29)         58.7058         calculate D2E/DX2 analytically  !
 ! D69   D(27,15,16,30)        178.6925         calculate D2E/DX2 analytically  !
 ! D70   D(27,15,16,31)        -61.1741         calculate D2E/DX2 analytically  !
 ! D71   D(28,15,16,29)        -58.5946         calculate D2E/DX2 analytically  !
 ! D72   D(28,15,16,30)         61.3921         calculate D2E/DX2 analytically  !
 ! D73   D(28,15,16,31)       -178.4746         calculate D2E/DX2 analytically  !
 --------------------------------------------------------------------------------
 Trust Radius=3.00D-01 FncErr=1.00D-07 GrdErr=1.00D-06
 Number of steps in this run=    167 maximum allowed number of steps=    186.
 GradGradGradGradGradGradGradGradGradGradGradGradGradGradGradGradGradGrad

                          Input orientation:                          
 ---------------------------------------------------------------------
 Center     Atomic      Atomic             Coordinates (Angstroms)
 Number     Number       Type             X           Y           Z
 ---------------------------------------------------------------------
      1          8           0        1.162603    0.478671   -1.240831
      2          6           0        1.430616    0.396434   -0.049241
      3          7           0        0.448932    0.320965    0.888456
      4          6           0       -0.955423    0.327373    0.510414
      5          6           0       -1.723545    0.768751    1.735326
      6          8           0       -2.595029    1.768084    1.499553
      7          8           0       -1.575633    0.267005    2.822369
      8          6           0       -1.395584   -1.085407    0.072144
      9          6           0       -2.826998   -1.161603   -0.348369
     10          6           0       -3.946509   -1.633854    0.279987
     11          7           0       -5.070431   -1.453941   -0.508152
     12          6           0       -4.631038   -0.880572   -1.604833
     13          7           0       -3.281841   -0.681612   -1.558207
     14          6           0        2.851131    0.357259    0.494464
     15          6           0        3.889249    0.675187   -0.571600
     16          7           0        5.275090    0.608825   -0.036333
     17          1           0        0.666139    0.214146    1.867082
     18          1           0       -1.092150    1.030957   -0.310017
     19          1           0       -3.031278    1.944219    2.344257
     20          1           0       -1.242985   -1.767641    0.906216
     21          1           0       -0.738682   -1.392072   -0.739669
     22          1           0       -4.001481   -2.079351    1.264996
     23          1           0       -5.221486   -0.590477   -2.455421
     24          1           0       -2.713556   -0.265923   -2.279028
     25          1           0        3.040831   -0.641932    0.902672
     26          1           0        2.937152    1.062081    1.327175
     27          1           0        3.776071   -0.028894   -1.394566
     28          1           0        3.697671    1.668637   -0.975717
     29          1           0        5.969430    0.819825   -0.754425
     30          1           0        5.412113    1.275928    0.722911
     31          1           0        5.486815   -0.320917    0.325582
 ---------------------------------------------------------------------
                    Distance matrix (angstroms):
                    1          2          3          4          5
     1  O    0.000000
     2  C    1.224125   0.000000
     3  N    2.251236   1.359660   0.000000
     4  C    2.752414   2.451768   1.454363   0.000000
     5  C    4.155900   3.643080   2.374312   1.511700   0.000000
     6  O    4.826188   4.526147   3.425389   2.396321   1.346752
     7  O    4.904318   4.159378   2.800320   2.394461   1.206354
     8  C    3.273311   3.193430   2.458961   1.543298   2.512297
     9  C    4.404986   4.543592   3.802560   2.541131   3.047238
    10  C    5.733993   5.757076   4.848861   3.584145   3.582191
    11  N    6.566774   6.774813   5.963571   4.598244   4.601652
    12  C    5.962073   6.387038   5.785004   4.409483   4.725510
    13  N    4.604353   5.064228   4.572744   3.272531   3.921632
    14  C    2.424277   1.521517   2.434566   3.806705   4.757807
    15  C    2.814443   2.528921   3.754067   4.976201   6.069112
    16  N    4.287226   3.850358   4.922388   6.260786   7.221166
    17  H    3.158413   2.071219   1.008116   2.117270   2.456732
    18  H    2.501068   2.614377   2.077344   1.089418   2.156580
    19  H    5.708706   5.294617   4.106844   3.207233   1.860830
    20  H    3.929705   3.569910   2.687969   2.151380   2.711392
    21  H    2.713987   2.895047   2.644942   2.136860   3.429972
    22  H    6.284140   6.112643   5.070452   3.954767   3.677213
    23  H    6.585962   7.142419   6.645742   5.276165   5.625429
    24  H    4.081284   4.752350   4.514280   3.350226   4.262125
    25  H    3.062369   2.139424   2.765016   4.130795   5.038116
    26  H    3.175539   2.146453   2.633052   4.044631   4.687720
    27  H    2.666734   2.737145   4.050240   5.113014   6.377949
    28  H    2.812983   2.759782   3.980662   5.065458   6.127734
    29  H    4.843404   4.612741   5.781334   7.056622   8.085996
    30  H    4.748710   4.149946   5.056929   6.441307   7.224945
    31  H    4.668169   4.136163   5.109708   6.477413   7.427251
                    6          7          8          9         10
     6  O    0.000000
     7  O    2.245495   0.000000
     8  C    3.408604   3.070045   0.000000
     9  C    3.471554   3.695999   1.493848   0.000000
    10  C    3.858370   3.962073   2.617481   1.367902   0.000000
    11  N    4.532101   5.125196   3.738591   2.268035   1.384461
    12  C    4.560474   5.500231   3.649982   2.216357   2.142092
    13  N    3.977766   4.795880   2.525680   1.378761   2.174283
    14  C    5.715006   5.002353   4.504912   5.937883   7.086497
    15  C    6.894198   6.445974   5.607456   6.966463   8.213158
    16  N    8.101951   7.431112   6.883320   8.299133   9.495660
    17  H    3.631118   2.437398   3.026771   4.359233   5.216368
    18  H    2.465065   3.260248   2.171892   2.796156   3.949264
    19  H    0.966882   2.271682   4.125121   4.115591   4.231012
    20  H    3.831635   2.814620   1.088304   2.109588   2.778327
    21  H    4.294965   4.017603   1.088395   2.137123   3.374657
    22  H    4.103156   3.716926   3.033400   2.196501   1.082466
    23  H    5.301218   6.471676   4.612057   3.240282   3.193221
    24  H    4.292891   5.253869   2.817200   2.131328   3.152771
    25  H    6.158520   5.081648   4.535221   6.022174   7.084812
    26  H    5.579712   4.820060   4.995939   6.401378   7.466555
    27  H    7.224678   6.819885   5.478456   6.780713   8.063390
    28  H    6.762760   6.648140   5.884218   7.139687   8.421207
    29  H    8.906715   8.368216   7.652226   9.025967  10.267248
    30  H    8.059760   7.365749   7.234926   8.658646   9.810546
    31  H    8.429611   7.513839   6.929365   8.383344   9.524363
                   11         12         13         14         15
    11  N    0.000000
    12  C    1.313212   0.000000
    13  N    2.213179   1.364585   0.000000
    14  C    8.187603   7.869061   6.550272   0.000000
    15  C    9.209402   8.722571   7.364701   1.521597   0.000000
    16  N   10.559708  10.139520   8.786489   2.494115   1.487101
    17  H    6.429035   6.427494   5.302974   2.584329   4.067944
    18  H    4.694752   4.225425   3.047231   4.080505   5.000933
    19  H    4.882814   5.112141   4.710307   6.367332   7.616190
    20  H    4.092455   4.309426   3.377835   4.631040   5.872919
    21  H    4.338373   4.020021   2.764492   4.179713   5.071445
    22  H    2.162833   3.173221   3.231413   7.313623   8.557113
    23  H    2.135473   1.075307   2.139047   8.646802   9.389152
    24  H    3.178403   2.123457   1.007635   6.248709   6.884623
    25  H    8.272990   8.074782   6.784813   1.095903   2.151300
    26  H    8.591867   8.345542   7.074021   1.094341   2.159056
    27  H    9.004281   8.452753   7.089918   2.138472   1.088950
    28  H    9.319266   8.732791   7.387594   2.144242   1.089475
    29  H   11.274271  10.769608   9.406721   3.390793   2.093203
    30  H   10.901901  10.532510   9.198930   2.730342   2.087047
    31  H   10.650555  10.315555   8.975973   2.726770   2.085516
                   16         17         18         19         20
    16  N    0.000000
    17  H    5.002119   0.000000
    18  H    6.387084   2.915222   0.000000
    19  H    8.743354   4.109956   3.411662   0.000000
    20  H    7.001521   2.914704   3.055180   4.363927   0.000000
    21  H    6.376812   3.368770   2.486083   5.088952   1.761905
    22  H    9.745487   5.235391   4.540803   4.277291   2.799140
    23  H   10.838285   7.348168   4.927801   5.853085   5.339924
    24  H    8.343460   5.370571   2.861444   5.134242   3.816217
    25  H    2.727277   2.702243   4.620682   6.755505   4.429257
    26  H    2.744185   2.483544   4.349326   6.118396   5.065380
    27  H    2.120976   4.513213   5.098931   8.013237   5.788589
    28  H    2.119881   4.403094   4.877722   7.508457   6.305534
    29  H    1.020923   5.946768   7.078699   9.585345   7.840385
    30  H    1.019928   4.996077   6.590325   8.623586   7.320331
    31  H    1.019917   5.089346   6.746431   9.042334   6.907993
                   21         22         23         24         25
    21  H    0.000000
    22  H    3.890616   0.000000
    23  H    4.866404   4.188873   0.000000
    24  H    2.745535   4.184182   2.534988   0.000000
    25  H    4.188641   7.196639   8.918819   6.586165   0.000000
    26  H    4.879187   7.616895   9.143432   6.833652   1.759151
    27  H    4.761317   8.471597   9.077269   6.553908   2.488714
    28  H    5.394895   8.851280   9.319039   6.822388   3.049347
    29  H    7.063390  10.578391  11.406969   8.882427   3.668705
    30  H    6.862190  10.008372  11.254275   8.798605   3.055074
    31  H    6.406165   9.695482  11.066814   8.604250   2.533559
                   26         27         28         29         30
    26  H    0.000000
    27  H    3.049900   0.000000
    28  H    2.499923   1.750198   0.000000
    29  H    3.685981   2.437402   2.435230   0.000000
    30  H    2.556619   2.977063   2.445173   1.643519   0.000000
    31  H    3.068657   2.443529   2.975356   1.643357   1.647229
                   31
    31  H    0.000000
 Symmetry turned off by external request.
 Stoichiometry    C9H15N4O3(1+)
 Framework group  C1[X(C9H15N4O3)]
 Deg. of freedom    87
 Full point group                 C1      NOp   1
 Rotational constants (GHZ):      1.0449480      0.2251058      0.2000292
 Standard basis: 6-311G(d,p) (5D, 7F)
   378 basis functions,   632 primitive gaussians,   394 cartesian basis functions
    60 alpha electrons       60 beta electrons
       nuclear repulsion energy      1111.5256414978 Hartrees.
 NAtoms=   31 NActive=   31 NUniq=   31 SFac= 1.00D+00 NAtFMM=   60 NAOKFM=F Big=F
 Integral buffers will be    131072 words long.
 Raffenetti 2 integral format.
 Two-electron integral symmetry is turned off.
 One-electron integrals computed using PRISM.
 NBasis=   378 RedAO= T EigKep=  5.25D-04  NBF=   378
 NBsUse=   378 1.00D-06 EigRej= -1.00D+00 NBFU=   378
 ExpMin= 1.03D-01 ExpMax= 8.59D+03 ExpMxC= 1.30D+03 IAcc=3 IRadAn=         5 AccDes= 0.00D+00
 Harris functional with IExCor=  402 and IRadAn=       5 diagonalized for initial guess.
 HarFok:  IExCor=  402 AccDes= 0.00D+00 IRadAn=         5 IDoV= 1 UseB2=F ITyADJ=14
 ICtDFT=  3500011 ScaDFX=  1.000000  1.000000  1.000000  1.000000
 FoFCou: FMM=F IPFlag=           0 FMFlag=      100000 FMFlg1=           0
         NFxFlg=           0 DoJE=T BraDBF=F KetDBF=T FulRan=T
         wScrn=  0.000000 ICntrl=     500 IOpCl=  0 I1Cent=   200000004 NGrid=           0
         NMat0=    1 NMatS0=      1 NMatT0=    0 NMatD0=    1 NMtDS0=    0 NMtDT0=    0
 Symmetry not used in FoFCou.
 Requested convergence on RMS density matrix=1.00D-08 within 128 cycles.
 Requested convergence on MAX density matrix=1.00D-06.
 Requested convergence on             energy=1.00D-06.
 No special actions if energy rises.
 Integral accuracy reduced to 1.0D-05 until final iterations.
 EnCoef did     2 forward-backward iterations
 EnCoef did     2 forward-backward iterations
 Initial convergence to 1.0D-05 achieved.  Increase integral accuracy.
 SCF Done:  E(RB3LYP) =  -796.667463435     A.U. after   17 cycles
            NFock= 17  Conv=0.62D-08     -V/T= 2.0034
 DoSCS=F DFT=T ScalE2(SS,OS)=  1.000000  1.000000
 Range of M.O.s used for correlation:     1   378
 NBasis=   378 NAE=    60 NBE=    60 NFC=     0 NFV=     0
 NROrb=    378 NOA=    60 NOB=    60 NVA=   318 NVB=   318
 Symmetrizing basis deriv contribution to polar:
 IMax=3 JMax=2 DiffMx= 0.00D+00
 G2DrvN: will do    32 centers at a time, making    1 passes.
 Calling FoFCou, ICntrl=  3107 FMM=F I1Cent=   0 AccDes= 0.00D+00.
 End of G2Drv F.D. properties file   721 does not exist.
 End of G2Drv F.D. properties file   722 does not exist.
 End of G2Drv F.D. properties file   788 does not exist.
          IDoAtm=1111111111111111111111111111111
          Differentiating once with respect to nuclear coordinates.
          There are    96 degrees of freedom in the 1st order CPHF.  IDoFFX=6 NUNeed=     0.
     90 vectors produced by pass  0 Test12= 1.99D-14 1.04D-09 XBig12= 1.52D-01 9.94D-02.
 AX will form    90 AO Fock derivatives at one time.
     90 vectors produced by pass  1 Test12= 1.99D-14 1.04D-09 XBig12= 1.42D-02 3.59D-02.
     90 vectors produced by pass  2 Test12= 1.99D-14 1.04D-09 XBig12= 1.70D-04 2.15D-03.
     90 vectors produced by pass  3 Test12= 1.99D-14 1.04D-09 XBig12= 5.46D-07 1.12D-04.
     90 vectors produced by pass  4 Test12= 1.99D-14 1.04D-09 XBig12= 1.12D-09 3.81D-06.
     82 vectors produced by pass  5 Test12= 1.99D-14 1.04D-09 XBig12= 1.53D-12 1.82D-07.
     24 vectors produced by pass  6 Test12= 1.99D-14 1.04D-09 XBig12= 1.86D-15 5.30D-09.
 InvSVY:  IOpt=1 It=  1 EMax= 4.16D-16
 Solved reduced A of dimension   556 with    96 vectors.
 End of Minotr F.D. properties file   721 does not exist.
 End of Minotr F.D. properties file   722 does not exist.
 End of Minotr F.D. properties file   788 does not exist.

 **********************************************************************

            Population analysis using the SCF density.

 **********************************************************************

 Alpha  occ. eigenvalues --  -19.26694 -19.22483 -19.21461 -14.65339 -14.46915
 Alpha  occ. eigenvalues --  -14.43720 -14.35362 -10.42238 -10.41920 -10.40922
 Alpha  occ. eigenvalues --  -10.36511 -10.33692 -10.28893 -10.28319 -10.27738
 Alpha  occ. eigenvalues --  -10.24918  -1.22572  -1.21568  -1.18206  -1.12714
 Alpha  occ. eigenvalues --   -1.08709  -1.06111  -0.97863  -0.94150  -0.90781
 Alpha  occ. eigenvalues --   -0.86184  -0.82893  -0.80783  -0.79960  -0.77260
 Alpha  occ. eigenvalues --   -0.73285  -0.71161  -0.70857  -0.68524  -0.66477
 Alpha  occ. eigenvalues --   -0.65569  -0.65233  -0.61833  -0.60645  -0.59999
 Alpha  occ. eigenvalues --   -0.58322  -0.57699  -0.57373  -0.55632  -0.54428
 Alpha  occ. eigenvalues --   -0.53417  -0.52353  -0.50946  -0.50317  -0.49349
 Alpha  occ. eigenvalues --   -0.48268  -0.47692  -0.46975  -0.42611  -0.40575
 Alpha  occ. eigenvalues --   -0.39547  -0.38480  -0.35130  -0.33417  -0.30154
 Alpha virt. eigenvalues --   -0.19622  -0.14056  -0.13300  -0.12135  -0.10677
 Alpha virt. eigenvalues --   -0.10223  -0.07864  -0.05834  -0.05338  -0.04432
 Alpha virt. eigenvalues --   -0.04303  -0.03874  -0.02341  -0.02151  -0.01246
 Alpha virt. eigenvalues --    0.00121   0.00532   0.01577   0.02824   0.02971
 Alpha virt. eigenvalues --    0.03939   0.05090   0.07680   0.08845   0.09789
 Alpha virt. eigenvalues --    0.10939   0.12408   0.13129   0.13638   0.13882
 Alpha virt. eigenvalues --    0.14356   0.16542   0.17008   0.17661   0.18170
 Alpha virt. eigenvalues --    0.20274   0.21707   0.23358   0.25322   0.26403
 Alpha virt. eigenvalues --    0.26900   0.27894   0.28247   0.29393   0.29853
 Alpha virt. eigenvalues --    0.31175   0.31802   0.33310   0.33482   0.35234
 Alpha virt. eigenvalues --    0.35952   0.36536   0.37042   0.37471   0.37752
 Alpha virt. eigenvalues --    0.39294   0.39443   0.40607   0.41711   0.42955
 Alpha virt. eigenvalues --    0.43406   0.43658   0.44708   0.45670   0.46039
 Alpha virt. eigenvalues --    0.47051   0.47868   0.48173   0.49169   0.49706
 Alpha virt. eigenvalues --    0.50541   0.50883   0.52276   0.53216   0.54728
 Alpha virt. eigenvalues --    0.55386   0.56342   0.56910   0.58534   0.59373
 Alpha virt. eigenvalues --    0.59711   0.62062   0.62281   0.63783   0.64293
 Alpha virt. eigenvalues --    0.66380   0.66856   0.67445   0.69765   0.70707
 Alpha virt. eigenvalues --    0.71833   0.72643   0.75470   0.75865   0.77432
 Alpha virt. eigenvalues --    0.80422   0.80942   0.82317   0.84030   0.84766
 Alpha virt. eigenvalues --    0.86357   0.87948   0.89535   0.91785   0.92548
 Alpha virt. eigenvalues --    0.93619   0.96753   0.96977   0.99449   1.02091
 Alpha virt. eigenvalues --    1.03577   1.04311   1.04971   1.05276   1.09958
 Alpha virt. eigenvalues --    1.10243   1.10894   1.12199   1.14597   1.15203
 Alpha virt. eigenvalues --    1.16625   1.21594   1.22317   1.22507   1.23012
 Alpha virt. eigenvalues --    1.23672   1.24547   1.25836   1.27761   1.28836
 Alpha virt. eigenvalues --    1.29979   1.31033   1.33144   1.33798   1.35738
 Alpha virt. eigenvalues --    1.38398   1.40418   1.41628   1.43268   1.44471
 Alpha virt. eigenvalues --    1.45101   1.45711   1.46504   1.47359   1.47982
 Alpha virt. eigenvalues --    1.49498   1.49929   1.51263   1.51816   1.52674
 Alpha virt. eigenvalues --    1.53162   1.54404   1.56029   1.56844   1.57981
 Alpha virt. eigenvalues --    1.58327   1.60135   1.61055   1.62259   1.64783
 Alpha virt. eigenvalues --    1.65113   1.65436   1.66852   1.67643   1.68999
 Alpha virt. eigenvalues --    1.70977   1.71978   1.73389   1.76214   1.76690
 Alpha virt. eigenvalues --    1.78170   1.79278   1.80916   1.82375   1.83290
 Alpha virt. eigenvalues --    1.85335   1.87467   1.89096   1.91821   1.92637
 Alpha virt. eigenvalues --    1.95396   1.96930   1.97346   2.00417   2.01764
 Alpha virt. eigenvalues --    2.03041   2.07255   2.08038   2.08923   2.10732
 Alpha virt. eigenvalues --    2.11640   2.13708   2.15983   2.16771   2.17298
 Alpha virt. eigenvalues --    2.17463   2.19276   2.20712   2.24186   2.27282
 Alpha virt. eigenvalues --    2.28964   2.30823   2.33013   2.33610   2.35185
 Alpha virt. eigenvalues --    2.35909   2.37165   2.37515   2.38929   2.40719
 Alpha virt. eigenvalues --    2.41451   2.42914   2.43949   2.45962   2.47095
 Alpha virt. eigenvalues --    2.48442   2.49459   2.49946   2.50572   2.51340
 Alpha virt. eigenvalues --    2.54142   2.55096   2.57187   2.60611   2.61651
 Alpha virt. eigenvalues --    2.62629   2.63252   2.64937   2.66187   2.67087
 Alpha virt. eigenvalues --    2.69078   2.70642   2.71155   2.74973   2.75401
 Alpha virt. eigenvalues --    2.76845   2.77301   2.77979   2.79385   2.79531
 Alpha virt. eigenvalues --    2.80769   2.81475   2.82475   2.85247   2.85812
 Alpha virt. eigenvalues --    2.87772   2.91504   2.94584   2.96595   2.99502
 Alpha virt. eigenvalues --    3.01194   3.05546   3.06918   3.09503   3.14350
 Alpha virt. eigenvalues --    3.19081   3.20578   3.23233   3.26571   3.27894
 Alpha virt. eigenvalues --    3.30896   3.39838   3.43285   3.44463   3.48871
 Alpha virt. eigenvalues --    3.50793   3.53190   3.58003   3.59239   3.59676
 Alpha virt. eigenvalues --    3.61797   3.62923   3.66062   3.70166   3.70594
 Alpha virt. eigenvalues --    3.72845   3.76881   3.78657   3.82853   3.87799
 Alpha virt. eigenvalues --    3.99900   4.04739   4.10937   4.21737   4.34874
 Alpha virt. eigenvalues --    4.41985   4.42234   4.56896   4.68193   4.71324
 Alpha virt. eigenvalues --    4.72867   4.79961   4.80937   4.84704   4.85824
 Alpha virt. eigenvalues --    4.93397   5.00383   5.15454   5.18206   5.46847
 Alpha virt. eigenvalues --    5.51956   5.66434  23.59880  23.62645  23.65947
 Alpha virt. eigenvalues --   23.68296  23.68805  23.71376  23.82254  23.85152
 Alpha virt. eigenvalues --   24.07095  35.28062  35.44863  35.47626  35.61472
 Alpha virt. eigenvalues --   49.74348  49.87391  49.91325
          Condensed to atoms (all electrons):
               1          2          3          4          5          6
     1  O    7.874424   0.639260  -0.098381   0.001325   0.000366   0.000001
     2  C    0.639260   4.449872   0.420715  -0.065564   0.008643  -0.000203
     3  N   -0.098381   0.420715   6.728716   0.211989  -0.020263   0.000513
     4  C    0.001325  -0.065564   0.211989   5.307455   0.244255  -0.081298
     5  C    0.000366   0.008643  -0.020263   0.244255   4.533546   0.363365
     6  O    0.000001  -0.000203   0.000513  -0.081298   0.363365   7.770596
     7  O   -0.000004  -0.000138  -0.006340  -0.094196   0.617498  -0.077149
     8  C   -0.003924  -0.004149  -0.048604   0.312986  -0.056891  -0.002303
     9  C   -0.000805   0.000079   0.006713  -0.085948  -0.003091   0.003152
    10  C   -0.000006  -0.000021  -0.000068  -0.008176   0.004632  -0.000396
    11  N    0.000000   0.000000   0.000000  -0.000239  -0.000018  -0.000050
    12  C   -0.000001   0.000000   0.000002   0.000435  -0.000086   0.000251
    13  N    0.000022   0.000000  -0.000014   0.003327  -0.000887  -0.000324
    14  C   -0.106687   0.251979  -0.099636   0.009683  -0.000166   0.000000
    15  C    0.020347  -0.041016   0.005364  -0.000362  -0.000001   0.000000
    16  N    0.000305   0.003626   0.000000   0.000001   0.000000   0.000000
    17  H    0.003047  -0.030090   0.354600  -0.036739  -0.008894   0.001220
    18  H    0.014039  -0.009224  -0.030686   0.393205  -0.029764   0.009390
    19  H    0.000002   0.000041  -0.000475   0.016793  -0.033080   0.309893
    20  H   -0.000085  -0.000272   0.003352  -0.040408  -0.006804   0.000402
    21  H    0.008224   0.002650  -0.008122  -0.051702   0.007470  -0.000229
    22  H    0.000000   0.000000  -0.000017   0.000029   0.000483  -0.000052
    23  H    0.000000   0.000000   0.000000   0.000004   0.000001   0.000009
    24  H    0.000214   0.000021  -0.000060  -0.000037   0.000073  -0.000045
    25  H    0.000302  -0.013079   0.000101  -0.000335  -0.000001   0.000000
    26  H    0.001508  -0.017442   0.004213   0.000043  -0.000051  -0.000001
    27  H    0.012269   0.001195   0.000913   0.000018   0.000000   0.000000
    28  H    0.005560   0.000434   0.000400  -0.000014   0.000000   0.000000
    29  H    0.000043  -0.000117   0.000006   0.000000   0.000000   0.000000
    30  H    0.000036   0.000038  -0.000002   0.000000   0.000000   0.000000
    31  H    0.000036   0.000031   0.000000   0.000000   0.000000   0.000000
               7          8          9         10         11         12
     1  O   -0.000004  -0.003924  -0.000805  -0.000006   0.000000  -0.000001
     2  C   -0.000138  -0.004149   0.000079  -0.000021   0.000000   0.000000
     3  N   -0.006340  -0.048604   0.006713  -0.000068   0.000000   0.000002
     4  C   -0.094196   0.312986  -0.085948  -0.008176  -0.000239   0.000435
     5  C    0.617498  -0.056891  -0.003091   0.004632  -0.000018  -0.000086
     6  O   -0.077149  -0.002303   0.003152  -0.000396  -0.000050   0.000251
     7  O    7.850116   0.004810  -0.004166   0.000596   0.000004  -0.000003
     8  C    0.004810   4.953555   0.304904  -0.027752   0.008010   0.005080
     9  C   -0.004166   0.304904   5.174212   0.546960  -0.094103  -0.119965
    10  C    0.000596  -0.027752   0.546960   4.838977   0.501860  -0.174003
    11  N    0.000004   0.008010  -0.094103   0.501860   6.416989   0.578045
    12  C   -0.000003   0.005080  -0.119965  -0.174003   0.578045   4.728777
    13  N    0.000001  -0.053062   0.370525  -0.073455  -0.083880   0.416944
    14  C   -0.000095  -0.001516  -0.000025  -0.000001   0.000000   0.000000
    15  C    0.000000   0.000028   0.000000   0.000000   0.000000   0.000000
    16  N    0.000000   0.000000   0.000000   0.000000   0.000000   0.000000
    17  H    0.024055   0.001695  -0.000089   0.000006   0.000000   0.000000
    18  H    0.004112  -0.032806  -0.003700  -0.000272   0.000040  -0.000007
    19  H    0.007786  -0.001152   0.000830   0.000432  -0.000009  -0.000047
    20  H    0.009509   0.401216  -0.033758  -0.001280   0.000330  -0.000248
    21  H   -0.000158   0.410276  -0.026083   0.001614  -0.000317   0.000075
    22  H    0.000449   0.000185  -0.052718   0.424551  -0.023522   0.007931
    23  H    0.000000  -0.000383   0.004046   0.006268  -0.021869   0.414723
    24  H   -0.000004   0.003248  -0.038257   0.007439   0.006714  -0.021853
    25  H   -0.000019   0.000219  -0.000001   0.000000   0.000000   0.000000
    26  H   -0.000047   0.000067   0.000000   0.000000   0.000000   0.000000
    27  H    0.000000   0.000000   0.000001   0.000000   0.000000   0.000000
    28  H    0.000000   0.000006   0.000000   0.000000   0.000000   0.000000
    29  H    0.000000   0.000000   0.000000   0.000000   0.000000   0.000000
    30  H    0.000000   0.000000   0.000000   0.000000   0.000000   0.000000
    31  H    0.000000   0.000000   0.000000   0.000000   0.000000   0.000000
              13         14         15         16         17         18
     1  O    0.000022  -0.106687   0.020347   0.000305   0.003047   0.014039
     2  C    0.000000   0.251979  -0.041016   0.003626  -0.030090  -0.009224
     3  N   -0.000014  -0.099636   0.005364   0.000000   0.354600  -0.030686
     4  C    0.003327   0.009683  -0.000362   0.000001  -0.036739   0.393205
     5  C   -0.000887  -0.000166  -0.000001   0.000000  -0.008894  -0.029764
     6  O   -0.000324   0.000000   0.000000   0.000000   0.001220   0.009390
     7  O    0.000001  -0.000095   0.000000   0.000000   0.024055   0.004112
     8  C   -0.053062  -0.001516   0.000028   0.000000   0.001695  -0.032806
     9  C    0.370525  -0.000025   0.000000   0.000000  -0.000089  -0.003700
    10  C   -0.073455  -0.000001   0.000000   0.000000   0.000006  -0.000272
    11  N   -0.083880   0.000000   0.000000   0.000000   0.000000   0.000040
    12  C    0.416944   0.000000   0.000000   0.000000   0.000000  -0.000007
    13  N    6.463462   0.000000   0.000000   0.000000  -0.000006   0.004366
    14  C    0.000000   5.262150   0.314930  -0.042534   0.001657   0.002260
    15  C    0.000000   0.314930   4.967047   0.216044  -0.000033  -0.000016
    16  N    0.000000  -0.042534   0.216044   6.104881  -0.000033   0.000000
    17  H   -0.000006   0.001657  -0.000033  -0.000033   0.439014   0.005367
    18  H    0.004366   0.002260  -0.000016   0.000000   0.005367   0.501619
    19  H    0.000006   0.000001   0.000000   0.000000  -0.000415  -0.001185
    20  H    0.003764   0.000061  -0.000001   0.000000   0.003223   0.007638
    21  H   -0.001761   0.000671  -0.000018   0.000000  -0.001007  -0.006645
    22  H    0.004087   0.000000   0.000000   0.000000  -0.000007  -0.000025
    23  H   -0.036649   0.000000   0.000000   0.000000   0.000000   0.000012
    24  H    0.351036   0.000003   0.000000   0.000000   0.000004   0.000912
    25  H    0.000000   0.384771  -0.033244  -0.002041   0.000091  -0.000041
    26  H    0.000000   0.385455  -0.037167  -0.001971   0.000074  -0.000245
    27  H    0.000000  -0.040572   0.402999  -0.021114  -0.000085  -0.000036
    28  H    0.000000  -0.036439   0.404869  -0.021667  -0.000060  -0.000011
    29  H    0.000000   0.005320  -0.027714   0.363211   0.000001   0.000000
    30  H    0.000000  -0.002251  -0.025508   0.356255  -0.000002   0.000000
    31  H    0.000000  -0.001414  -0.027588   0.356670   0.000000   0.000000
              19         20         21         22         23         24
     1  O    0.000002  -0.000085   0.008224   0.000000   0.000000   0.000214
     2  C    0.000041  -0.000272   0.002650   0.000000   0.000000   0.000021
     3  N   -0.000475   0.003352  -0.008122  -0.000017   0.000000  -0.000060
     4  C    0.016793  -0.040408  -0.051702   0.000029   0.000004  -0.000037
     5  C   -0.033080  -0.006804   0.007470   0.000483   0.000001   0.000073
     6  O    0.309893   0.000402  -0.000229  -0.000052   0.000009  -0.000045
     7  O    0.007786   0.009509  -0.000158   0.000449   0.000000  -0.000004
     8  C   -0.001152   0.401216   0.410276   0.000185  -0.000383   0.003248
     9  C    0.000830  -0.033758  -0.026083  -0.052718   0.004046  -0.038257
    10  C    0.000432  -0.001280   0.001614   0.424551   0.006268   0.007439
    11  N   -0.000009   0.000330  -0.000317  -0.023522  -0.021869   0.006714
    12  C   -0.000047  -0.000248   0.000075   0.007931   0.414723  -0.021853
    13  N    0.000006   0.003764  -0.001761   0.004087  -0.036649   0.351036
    14  C    0.000001   0.000061   0.000671   0.000000   0.000000   0.000003
    15  C    0.000000  -0.000001  -0.000018   0.000000   0.000000   0.000000
    16  N    0.000000   0.000000   0.000000   0.000000   0.000000   0.000000
    17  H   -0.000415   0.003223  -0.001007  -0.000007   0.000000   0.000004
    18  H   -0.001185   0.007638  -0.006645  -0.000025   0.000012   0.000912
    19  H    0.430307  -0.000113   0.000061   0.000050   0.000000   0.000004
    20  H   -0.000113   0.529877  -0.021253   0.001425   0.000014  -0.000031
    21  H    0.000061  -0.021253   0.536624   0.000067  -0.000010   0.001765
    22  H    0.000050   0.001425   0.000067   0.529260  -0.000322  -0.000308
    23  H    0.000000   0.000014  -0.000010  -0.000322   0.513909  -0.002019
    24  H    0.000004  -0.000031   0.001765  -0.000308  -0.002019   0.460485
    25  H    0.000000  -0.000015  -0.000092   0.000000   0.000000   0.000000
    26  H    0.000000  -0.000026   0.000014   0.000000   0.000000   0.000000
    27  H    0.000000  -0.000001   0.000015   0.000000   0.000000   0.000000
    28  H    0.000000   0.000000  -0.000006   0.000000   0.000000   0.000000
    29  H    0.000000   0.000000   0.000000   0.000000   0.000000   0.000000
    30  H    0.000000   0.000000   0.000000   0.000000   0.000000   0.000000
    31  H    0.000000   0.000000   0.000000   0.000000   0.000000   0.000000
              25         26         27         28         29         30
     1  O    0.000302   0.001508   0.012269   0.005560   0.000043   0.000036
     2  C   -0.013079  -0.017442   0.001195   0.000434  -0.000117   0.000038
     3  N    0.000101   0.004213   0.000913   0.000400   0.000006  -0.000002
     4  C   -0.000335   0.000043   0.000018  -0.000014   0.000000   0.000000
     5  C   -0.000001  -0.000051   0.000000   0.000000   0.000000   0.000000
     6  O    0.000000  -0.000001   0.000000   0.000000   0.000000   0.000000
     7  O   -0.000019  -0.000047   0.000000   0.000000   0.000000   0.000000
     8  C    0.000219   0.000067   0.000000   0.000006   0.000000   0.000000
     9  C   -0.000001   0.000000   0.000001   0.000000   0.000000   0.000000
    10  C    0.000000   0.000000   0.000000   0.000000   0.000000   0.000000
    11  N    0.000000   0.000000   0.000000   0.000000   0.000000   0.000000
    12  C    0.000000   0.000000   0.000000   0.000000   0.000000   0.000000
    13  N    0.000000   0.000000   0.000000   0.000000   0.000000   0.000000
    14  C    0.384771   0.385455  -0.040572  -0.036439   0.005320  -0.002251
    15  C   -0.033244  -0.037167   0.402999   0.404869  -0.027714  -0.025508
    16  N   -0.002041  -0.001971  -0.021114  -0.021667   0.363211   0.356255
    17  H    0.000091   0.000074  -0.000085  -0.000060   0.000001  -0.000002
    18  H   -0.000041  -0.000245  -0.000036  -0.000011   0.000000   0.000000
    19  H    0.000000   0.000000   0.000000   0.000000   0.000000   0.000000
    20  H   -0.000015  -0.000026  -0.000001   0.000000   0.000000   0.000000
    21  H   -0.000092   0.000014   0.000015  -0.000006   0.000000   0.000000
    22  H    0.000000   0.000000   0.000000   0.000000   0.000000   0.000000
    23  H    0.000000   0.000000   0.000000   0.000000   0.000000   0.000000
    24  H    0.000000   0.000000   0.000000   0.000000   0.000000   0.000000
    25  H    0.522531  -0.025346  -0.006300   0.006651  -0.000195  -0.000624
    26  H   -0.025346   0.531773   0.007004  -0.006296  -0.000203   0.005052
    27  H   -0.006300   0.007004   0.457876  -0.017716  -0.002768   0.004784
    28  H    0.006651  -0.006296  -0.017716   0.465477  -0.003149  -0.004255
    29  H   -0.000195  -0.000203  -0.002768  -0.003149   0.381224  -0.015293
    30  H   -0.000624   0.005052   0.004784  -0.004255  -0.015293   0.394665
    31  H    0.005619  -0.000470  -0.004108   0.005034  -0.015132  -0.017329
              31
     1  O    0.000036
     2  C    0.000031
     3  N    0.000000
     4  C    0.000000
     5  C    0.000000
     6  O    0.000000
     7  O    0.000000
     8  C    0.000000
     9  C    0.000000
    10  C    0.000000
    11  N    0.000000
    12  C    0.000000
    13  N    0.000000
    14  C   -0.001414
    15  C   -0.027588
    16  N    0.356670
    17  H    0.000000
    18  H    0.000000
    19  H    0.000000
    20  H    0.000000
    21  H    0.000000
    22  H    0.000000
    23  H    0.000000
    24  H    0.000000
    25  H    0.005619
    26  H   -0.000470
    27  H   -0.004108
    28  H    0.005034
    29  H   -0.015132
    30  H   -0.017329
    31  H    0.393978
 Mulliken charges:
               1
     1  O   -0.371435
     2  C    0.402728
     3  N   -0.424926
     4  C   -0.036530
     5  C    0.379665
     6  O   -0.296744
     7  O   -0.336617
     8  C   -0.173744
     9  C    0.051285
    10  C   -0.047906
    11  N   -0.287984
    12  C    0.163950
    13  N   -0.367502
    14  C   -0.287607
    15  C   -0.138960
    16  N   -0.311632
    17  H    0.243408
    18  H    0.171704
    19  H    0.270268
    20  H    0.143486
    21  H    0.147879
    22  H    0.108455
    23  H    0.122266
    24  H    0.230696
    25  H    0.161049
    26  H    0.154062
    27  H    0.205625
    28  H    0.201183
    29  H    0.314768
    30  H    0.304436
    31  H    0.304674
 Sum of Mulliken charges =   1.00000
 Mulliken charges with hydrogens summed into heavy atoms:
               1
     1  O   -0.371435
     2  C    0.402728
     3  N   -0.181518
     4  C    0.135174
     5  C    0.379665
     6  O   -0.026476
     7  O   -0.336617
     8  C    0.117622
     9  C    0.051285
    10  C    0.060549
    11  N   -0.287984
    12  C    0.286216
    13  N   -0.136806
    14  C    0.027505
    15  C    0.267848
    16  N    0.612245
 APT charges:
               1
     1  O   -0.289662
     2  C    0.126003
     3  N   -0.651004
     4  C   -0.208525
     5  C   -0.543509
     6  O   -0.628766
     7  O    0.242936
     8  C   -0.647382
     9  C   -0.523588
    10  C   -0.492740
    11  N    0.806464
    12  C   -0.881685
    13  N   -0.542128
    14  C   -0.670636
    15  C   -0.182944
    16  N   -1.625933
    17  H    0.564541
    18  H    0.299133
    19  H    0.999552
    20  H    0.372176
    21  H    0.218223
    22  H    0.499879
    23  H    0.975474
    24  H    0.207071
    25  H    0.341512
    26  H    0.399283
    27  H    0.198352
    28  H    0.283160
    29  H    1.187064
    30  H    0.637625
    31  H    0.530055
 Sum of APT charges =   1.00000
 APT charges with hydrogens summed into heavy atoms:
               1
     1  O   -0.289662
     2  C    0.126003
     3  N   -0.086463
     4  C    0.090608
     5  C   -0.543509
     6  O    0.370786
     7  O    0.242936
     8  C   -0.056983
     9  C   -0.523588
    10  C    0.007139
    11  N    0.806464
    12  C    0.093789
    13  N   -0.335057
    14  C    0.070159
    15  C    0.298567
    16  N    0.728810
 Electronic spatial extent (au):  <R**2>=           5471.6002
 Charge=              1.0000 electrons
 Dipole moment (field-independent basis, Debye):
    X=             23.5926    Y=              4.3282    Z=              0.3550  Tot=             23.9890
 Quadrupole moment (field-independent basis, Debye-Ang):
   XX=             19.0093   YY=            -88.3878   ZZ=            -84.8001
   XY=              2.9302   XZ=              6.1960   YZ=              3.5891
 Traceless Quadrupole moment (field-independent basis, Debye-Ang):
   XX=             70.4022   YY=            -36.9949   ZZ=            -33.4072
   XY=              2.9302   XZ=              6.1960   YZ=              3.5891
 Octapole moment (field-independent basis, Debye-Ang**2):
  XXX=            972.7572  YYY=             32.9967  ZZZ=            -65.7142  XYY=            100.4224
  XXY=            138.4478  XXZ=            -25.5712  XZZ=             41.9683  YZZ=             17.4682
  YYZ=              3.8858  XYZ=             -6.5455
 Hexadecapole moment (field-independent basis, Debye-Ang**3):
 XXXX=          -2489.5812 YYYY=           -610.0356 ZZZZ=           -894.7723 XXXY=           -373.0635
 XXXZ=            -32.3948 YYYX=           -484.4813 YYYZ=           -117.4461 ZZZX=             45.1531
 ZZZY=            -81.2252 XXYY=           -963.1608 XXZZ=           -802.2367 YYZZ=           -213.4087
 XXYZ=            -26.3761 YYXZ=            -65.0802 ZZXY=           -174.6894
 N-N= 1.111525641498D+03 E-N=-4.070551348323D+03  KE= 7.939434511902D+02
  Exact polarizability:   0.000   0.000   0.000   0.000   0.000   0.000
 Approx polarizability: 209.999   3.465 146.067   1.074 -23.185 209.408
 Calling FoFJK, ICntrl=    100147 FMM=F ISym2X=0 I1Cent= 0 IOpClX= 0 NMat=1 NMatS=1 NMatT=0.
 -------------------------------------------------------------------
 Center     Atomic                   Forces (Hartrees/Bohr)
 Number     Number              X              Y              Z
 -------------------------------------------------------------------
      1        8           0.015464605    0.001158727    0.000591133
      2        6          -0.025606808   -0.000763750   -0.004087336
      3        7           0.017980911    0.003990097   -0.002433930
      4        6           0.000308655   -0.000691891   -0.003144537
      5        6          -0.012923601    0.007278152    0.006211480
      6        8           0.008832215   -0.006973602   -0.003797156
      7        8           0.005148792   -0.000203048   -0.000571282
      8        6          -0.009047735   -0.002121654   -0.001226227
      9        6           0.004130318   -0.000111569    0.000253062
     10        6          -0.008338521   -0.000217359    0.001230890
     11        7           0.005655399   -0.000281225    0.001981719
     12        6           0.000321564   -0.002573036    0.005753796
     13        7           0.001907734    0.003292517   -0.004976009
     14        6           0.011630107   -0.002206902    0.010555999
     15        6          -0.030025302    0.001602092   -0.012133249
     16        7           0.006419284    0.000245292    0.000419778
     17        1          -0.001137498   -0.001469203    0.003315442
     18        1          -0.000023105    0.000930987    0.001221726
     19        1          -0.004432806    0.001606445    0.002283669
     20        1           0.001125510   -0.001194280    0.002096211
     21        1           0.002444685   -0.001128114   -0.002207553
     22        1          -0.001278891   -0.000155276   -0.002316283
     23        1          -0.002398582    0.000321607   -0.001838217
     24        1          -0.000217079   -0.000138297   -0.001268475
     25        1          -0.001626775   -0.001106929    0.001076472
     26        1          -0.000849926    0.000588805    0.001388125
     27        1           0.005567642   -0.000548652   -0.001226001
     28        1           0.006185892    0.001571196   -0.000345694
     29        1           0.002246613    0.000883614   -0.003193571
     30        1           0.001110172    0.002355863    0.003937775
     31        1           0.001426531   -0.003940609    0.002448244
 -------------------------------------------------------------------
 Cartesian Forces:  Max     0.030025302 RMS     0.006183906
 FormGI is forming the generalized inverse of G from B-inverse, IUseBI=4.

 GradGradGradGradGradGradGradGradGradGradGradGradGradGradGradGradGradGrad
 Berny optimization.
 Internal  Forces:  Max     0.018121744 RMS     0.003475440
 Search for a local minimum.
 Step number   1 out of a maximum of  167
 All quantities printed in internal units (Hartrees-Bohrs-Radians)
 Mixed Optimization -- RFO/linear search
 Second derivative matrix not updated -- analytic derivatives used.
 ITU=  0
     Eigenvalues ---   -0.00077   0.00065   0.00173   0.00207   0.00239
     Eigenvalues ---    0.00337   0.00472   0.00476   0.00511   0.00919
     Eigenvalues ---    0.01956   0.02057   0.02231   0.02562   0.03308
     Eigenvalues ---    0.03811   0.03899   0.03982   0.04085   0.04275
     Eigenvalues ---    0.04318   0.04544   0.04688   0.04912   0.05021
     Eigenvalues ---    0.05183   0.05279   0.05628   0.06132   0.07426
     Eigenvalues ---    0.07881   0.08216   0.10175   0.10628   0.10767
     Eigenvalues ---    0.10963   0.11545   0.11888   0.13042   0.13224
     Eigenvalues ---    0.13719   0.14727   0.15542   0.15828   0.15905
     Eigenvalues ---    0.16157   0.16321   0.18477   0.19324   0.20010
     Eigenvalues ---    0.21131   0.22531   0.22719   0.24080   0.24366
     Eigenvalues ---    0.24811   0.26686   0.29492   0.31245   0.32001
     Eigenvalues ---    0.32620   0.33198   0.33372   0.33603   0.34170
     Eigenvalues ---    0.34214   0.34274   0.34736   0.34945   0.35120
     Eigenvalues ---    0.36382   0.37018   0.37672   0.40547   0.41069
     Eigenvalues ---    0.43346   0.43530   0.44031   0.44424   0.45987
     Eigenvalues ---    0.46924   0.47057   0.47650   0.52182   0.57330
     Eigenvalues ---    0.80019   0.87436
 RFO step:  Lambda=-1.01734388D-02 EMin=-7.66109215D-04
 Linear search not attempted -- first point.
 Iteration  1 RMS(Cart)=  0.15397132 RMS(Int)=  0.01884267
 Iteration  2 RMS(Cart)=  0.03455711 RMS(Int)=  0.00067977
 Iteration  3 RMS(Cart)=  0.00114877 RMS(Int)=  0.00036936
 Iteration  4 RMS(Cart)=  0.00000166 RMS(Int)=  0.00036936
 Iteration  5 RMS(Cart)=  0.00000000 RMS(Int)=  0.00036936
 Variable       Old X    -DE/DX   Delta X   Delta X   Delta X     New X
                                 (Linear)    (Quad)   (Total)
    R1        2.31326  -0.00388   0.00000  -0.00368  -0.00368   2.30958
    R2        2.56938  -0.00543   0.00000  -0.03030  -0.03030   2.53908
    R3        2.87525   0.00301   0.00000   0.03350   0.03350   2.90875
    R4        2.74835   0.00855   0.00000   0.01827   0.01827   2.76662
    R5        1.90506   0.00313   0.00000   0.00791   0.00791   1.91297
    R6        2.85670   0.00556   0.00000   0.02224   0.02224   2.87894
    R7        2.91641   0.00628   0.00000   0.02384   0.02384   2.94025
    R8        2.05870  -0.00032   0.00000  -0.00081  -0.00081   2.05789
    R9        2.54499  -0.00656   0.00000  -0.02571  -0.02571   2.51928
   R10        2.27968   0.00020   0.00000   0.00043   0.00043   2.28011
   R11        1.82714   0.00429   0.00000   0.00803   0.00803   1.83517
   R12        2.82296   0.00053   0.00000  -0.00379  -0.00379   2.81917
   R13        2.05660   0.00251   0.00000   0.00762   0.00762   2.06422
   R14        2.05677   0.00344   0.00000   0.01127   0.01127   2.06804
   R15        2.58496   0.00508   0.00000   0.01109   0.01109   2.59605
   R16        2.60548   0.00449   0.00000   0.01121   0.01121   2.61670
   R17        2.61625  -0.00697   0.00000  -0.02080  -0.02081   2.59545
   R18        2.04556  -0.00198   0.00000  -0.00476  -0.00476   2.04081
   R19        2.48161  -0.00201   0.00000  -0.00490  -0.00491   2.47670
   R20        2.57869   0.00218   0.00000   0.00501   0.00502   2.58371
   R21        2.03204   0.00286   0.00000   0.00750   0.00750   2.03953
   R22        1.90415   0.00073   0.00000   0.00106   0.00106   1.90522
   R23        2.87540   0.00270   0.00000   0.00072   0.00072   2.87612
   R24        2.07096   0.00113   0.00000   0.00312   0.00312   2.07408
   R25        2.06800   0.00137   0.00000  -0.00171  -0.00171   2.06630
   R26        2.81021   0.01176   0.00000   0.06041   0.06041   2.87062
   R27        2.05782   0.00070   0.00000  -0.00045  -0.00045   2.05737
   R28        2.05881   0.00047   0.00000  -0.00072  -0.00072   2.05809
   R29        1.92927   0.00396   0.00000   0.00709   0.00709   1.93636
   R30        1.92739   0.00462   0.00000   0.00833   0.00833   1.93572
   R31        1.92736   0.00476   0.00000   0.00904   0.00904   1.93641
    A1        2.11411   0.01812   0.00000   0.06332   0.06332   2.17743
    A2        2.15794  -0.01654   0.00000  -0.07326  -0.07326   2.08468
    A3        2.01109  -0.00158   0.00000   0.00991   0.00991   2.02100
    A4        2.11492   0.00409   0.00000   0.02345   0.02323   2.13815
    A5        2.11741  -0.00024   0.00000   0.00485   0.00460   2.12201
    A6        2.04975  -0.00386   0.00000  -0.03005  -0.03025   2.01950
    A7        1.85595  -0.00049   0.00000  -0.00287  -0.00283   1.85312
    A8        1.92323   0.00306   0.00000   0.01445   0.01443   1.93766
    A9        1.89630  -0.00060   0.00000   0.00454   0.00448   1.90079
   A10        1.93101  -0.00151   0.00000  -0.00623  -0.00624   1.92476
   A11        1.93680  -0.00027   0.00000  -0.00974  -0.00976   1.92704
   A12        1.91937  -0.00014   0.00000   0.00021   0.00009   1.91946
   A13        1.98625  -0.00462   0.00000  -0.01907  -0.01907   1.96718
   A14        2.14887  -0.00211   0.00000  -0.01349  -0.01349   2.13538
   A15        2.14804   0.00674   0.00000   0.03256   0.03256   2.18060
   A16        1.84855   0.00472   0.00000   0.03759   0.03759   1.88614
   A17        1.98223   0.00093   0.00000   0.00800   0.00800   1.99022
   A18        1.89255  -0.00100   0.00000  -0.00796  -0.00799   1.88456
   A19        1.87298  -0.00020   0.00000  -0.00503  -0.00509   1.86789
   A20        1.89454   0.00032   0.00000   0.00290   0.00292   1.89747
   A21        1.93263  -0.00007   0.00000   0.00770   0.00770   1.94033
   A22        1.88639  -0.00005   0.00000  -0.00670  -0.00676   1.87964
   A23        2.30839  -0.00113   0.00000  -0.01056  -0.01057   2.29782
   A24        2.14761   0.00201   0.00000   0.01314   0.01312   2.16073
   A25        1.82686  -0.00088   0.00000  -0.00257  -0.00254   1.82432
   A26        1.93696   0.00043   0.00000   0.00211   0.00207   1.93903
   A27        2.21636   0.00135   0.00000   0.00773   0.00766   2.22402
   A28        2.12972  -0.00178   0.00000  -0.00953  -0.00959   2.12014
   A29        1.83436   0.00201   0.00000   0.00528   0.00528   1.83964
   A30        1.94545   0.00183   0.00000   0.00396   0.00398   1.94942
   A31        2.20763  -0.00196   0.00000  -0.00851  -0.00852   2.19911
   A32        2.13010   0.00013   0.00000   0.00454   0.00453   2.13463
   A33        1.88115  -0.00339   0.00000  -0.00878  -0.00879   1.87236
   A34        2.19602   0.00253   0.00000   0.01196   0.01191   2.20793
   A35        2.20598   0.00086   0.00000  -0.00330  -0.00334   2.20264
   A36        1.96192  -0.01555   0.00000  -0.09486  -0.09514   1.86677
   A37        1.89462   0.00328   0.00000  -0.01187  -0.01293   1.88168
   A38        1.90574   0.00461   0.00000   0.04563   0.04648   1.95222
   A39        1.91068   0.00560   0.00000   0.01963   0.01731   1.92799
   A40        1.92295   0.00503   0.00000   0.03210   0.03271   1.95566
   A41        1.86521  -0.00236   0.00000   0.01416   0.01345   1.87866
   A42        1.95443  -0.00233   0.00000  -0.00610  -0.00569   1.94874
   A43        1.90021   0.00389   0.00000   0.02300   0.02236   1.92256
   A44        1.90756   0.00425   0.00000   0.05073   0.05022   1.95779
   A45        1.91774  -0.00278   0.00000  -0.03452  -0.03460   1.88314
   A46        1.91567  -0.00309   0.00000  -0.05088  -0.05082   1.86484
   A47        1.86604   0.00027   0.00000   0.01995   0.01754   1.88359
   A48        1.95132  -0.00103   0.00000  -0.01004  -0.01003   1.94129
   A49        1.94330   0.00089   0.00000   0.00695   0.00696   1.95027
   A50        1.94106   0.00088   0.00000   0.00035   0.00034   1.94140
   A51        1.87240   0.00014   0.00000   0.00432   0.00434   1.87674
   A52        1.87215   0.00013   0.00000   0.00377   0.00376   1.87591
   A53        1.87989  -0.00106   0.00000  -0.00521  -0.00521   1.87468
    D1        0.00624   0.00090   0.00000   0.04695   0.04709   0.05333
    D2        3.09611   0.00039   0.00000   0.00506   0.00479   3.10091
    D3       -3.12567   0.00064   0.00000   0.04994   0.05021  -3.07547
    D4       -0.03580   0.00013   0.00000   0.00805   0.00791  -0.02789
    D5        0.17535  -0.00027   0.00000   0.21210   0.21313   0.38848
    D6       -1.94087   0.00043   0.00000   0.25652   0.25570  -1.68517
    D7        2.31489  -0.00109   0.00000   0.22135   0.22100   2.53589
    D8       -2.97620   0.00021   0.00000   0.20989   0.21101  -2.76519
    D9        1.19077   0.00091   0.00000   0.25432   0.25359   1.44435
   D10       -0.83666  -0.00060   0.00000   0.21914   0.21888  -0.61777
   D11       -2.76619   0.00052   0.00000   0.00539   0.00554  -2.76064
   D12        1.42355   0.00094   0.00000   0.00661   0.00678   1.43033
   D13       -0.68037  -0.00038   0.00000  -0.00530  -0.00517  -0.68555
   D14        0.42519   0.00093   0.00000   0.04478   0.04464   0.46983
   D15       -1.66826   0.00134   0.00000   0.04600   0.04588  -1.62238
   D16        2.51100   0.00002   0.00000   0.03410   0.03392   2.54492
   D17        2.26260  -0.00023   0.00000   0.11515   0.11515   2.37775
   D18       -0.88630   0.00039   0.00000   0.11483   0.11484  -0.77146
   D19       -1.93220   0.00232   0.00000   0.12737   0.12735  -1.80485
   D20        1.20210   0.00294   0.00000   0.12705   0.12703   1.32913
   D21        0.20337   0.00092   0.00000   0.11661   0.11662   0.32000
   D22       -2.94552   0.00154   0.00000   0.11629   0.11631  -2.82921
   D23       -3.13023  -0.00026   0.00000  -0.01393  -0.01395   3.13900
   D24        1.04545  -0.00057   0.00000  -0.01717  -0.01716   1.02830
   D25       -0.98832   0.00011   0.00000  -0.00255  -0.00259  -0.99091
   D26        1.10549  -0.00062   0.00000  -0.01548  -0.01548   1.09002
   D27       -1.00200  -0.00093   0.00000  -0.01872  -0.01868  -1.02069
   D28       -3.03578  -0.00025   0.00000  -0.00410  -0.00412  -3.03990
   D29       -1.04023   0.00083   0.00000   0.00091   0.00092  -1.03931
   D30        3.13546   0.00053   0.00000  -0.00232  -0.00229   3.13317
   D31        1.10169   0.00120   0.00000   0.01229   0.01227   1.11396
   D32        3.12080  -0.00107   0.00000  -0.04688  -0.04688   3.07392
   D33       -0.01349  -0.00164   0.00000  -0.04634  -0.04633  -0.05982
   D34       -1.79386   0.00029   0.00000   0.00141   0.00141  -1.79245
   D35        1.31617   0.00038   0.00000   0.00190   0.00192   1.31809
   D36        0.31251  -0.00014   0.00000  -0.00146  -0.00146   0.31105
   D37       -2.86064  -0.00006   0.00000  -0.00097  -0.00095  -2.86159
   D38        2.38062  -0.00005   0.00000  -0.00333  -0.00337   2.37725
   D39       -0.79253   0.00004   0.00000  -0.00284  -0.00285  -0.79539
   D40        3.11193   0.00024   0.00000   0.00340   0.00344   3.11537
   D41       -0.01151  -0.00041   0.00000  -0.01621  -0.01627  -0.02777
   D42       -0.00232   0.00012   0.00000   0.00273   0.00274   0.00042
   D43       -3.12575  -0.00053   0.00000  -0.01689  -0.01696   3.14047
   D44       -3.11638  -0.00012   0.00000  -0.00259  -0.00262  -3.11901
   D45        0.03329   0.00021   0.00000   0.01209   0.01216   0.04545
   D46        0.00107  -0.00007   0.00000  -0.00243  -0.00244  -0.00137
   D47       -3.13245   0.00026   0.00000   0.01225   0.01234  -3.12011
   D48        0.00268  -0.00013   0.00000  -0.00196  -0.00195   0.00073
   D49        3.12717   0.00053   0.00000   0.01673   0.01659  -3.13942
   D50       -0.00196   0.00008   0.00000   0.00034   0.00032  -0.00165
   D51        3.13696  -0.00013   0.00000  -0.00316  -0.00311   3.13385
   D52        0.00059  -0.00001   0.00000   0.00134   0.00136   0.00196
   D53        3.13405  -0.00034   0.00000  -0.01336  -0.01327   3.12078
   D54       -3.13847   0.00019   0.00000   0.00468   0.00467  -3.13380
   D55       -0.00501  -0.00014   0.00000  -0.01002  -0.00996  -0.01498
   D56       -3.12258   0.00044   0.00000   0.18937   0.18914  -2.93344
   D57       -0.99847  -0.00191   0.00000   0.15769   0.15702  -0.84145
   D58        1.03406   0.00295   0.00000   0.22267   0.22298   1.25704
   D59       -1.01557  -0.00175   0.00000   0.12563   0.12548  -0.89009
   D60        1.10853  -0.00410   0.00000   0.09395   0.09336   1.20189
   D61        3.14106   0.00076   0.00000   0.15893   0.15932  -2.98280
   D62        1.03080   0.00167   0.00000   0.17338   0.17367   1.20447
   D63       -3.12828  -0.00069   0.00000   0.14170   0.14155  -2.98673
   D64       -1.09575   0.00417   0.00000   0.20669   0.20750  -0.88824
   D65        3.13861  -0.00008   0.00000  -0.00600  -0.00598   3.13264
   D66       -1.05041   0.00000   0.00000  -0.00256  -0.00255  -1.05296
   D67        1.04631  -0.00015   0.00000  -0.00423  -0.00422   1.04209
   D68        1.02461  -0.00154   0.00000  -0.00728  -0.00701   1.01760
   D69        3.11877  -0.00146   0.00000  -0.00384  -0.00359   3.11519
   D70       -1.06769  -0.00161   0.00000  -0.00552  -0.00526  -1.07295
   D71       -1.02267   0.00161   0.00000   0.01898   0.01871  -1.00396
   D72        1.07149   0.00169   0.00000   0.02242   0.02214   1.09363
   D73       -3.11497   0.00154   0.00000   0.02074   0.02047  -3.09450
         Item               Value     Threshold  Converged?
 Maximum Force            0.018122     0.000450     NO 
 RMS     Force            0.003475     0.000300     NO 
 Maximum Displacement     0.848375     0.001800     NO 
 RMS     Displacement     0.173362     0.001200     NO 
 Predicted change in Energy=-6.318356D-03
 GradGradGradGradGradGradGradGradGradGradGradGradGradGradGradGradGradGrad

                          Input orientation:                          
 ---------------------------------------------------------------------
 Center     Atomic      Atomic             Coordinates (Angstroms)
 Number     Number       Type             X           Y           Z
 ---------------------------------------------------------------------
      1          8           0        1.332978    0.446268   -1.222063
      2          6           0        1.474024    0.370084   -0.010443
      3          7           0        0.466369    0.345883    0.878022
      4          6           0       -0.940345    0.344174    0.472380
      5          6           0       -1.728092    0.859566    1.670202
      6          8           0       -2.667345    1.741469    1.327675
      7          8           0       -1.509111    0.485547    2.796253
      8          6           0       -1.410440   -1.090054    0.094398
      9          6           0       -2.839285   -1.169724   -0.327085
     10          6           0       -3.963379   -1.602364    0.333583
     11          7           0       -5.082710   -1.459647   -0.449424
     12          6           0       -4.655423   -0.947151   -1.577468
     13          7           0       -3.302909   -0.747659   -1.561709
     14          6           0        2.891659    0.276634    0.581884
     15          6           0        3.845316    0.849978   -0.456496
     16          7           0        5.294281    0.549568   -0.113246
     17          1           0        0.637218    0.246728    1.870860
     18          1           0       -1.062965    1.012296   -0.378778
     19          1           0       -3.165338    1.977011    2.127439
     20          1           0       -1.265614   -1.732867    0.965613
     21          1           0       -0.744374   -1.447346   -0.697007
     22          1           0       -4.021847   -2.010008    1.331929
     23          1           0       -5.264185   -0.705268   -2.435218
     24          1           0       -2.746180   -0.381266   -2.318196
     25          1           0        3.111533   -0.783674    0.760853
     26          1           0        2.967373    0.797122    1.540512
     27          1           0        3.637210    0.420047   -1.434835
     28          1           0        3.758772    1.932351   -0.540795
     29          1           0        5.929905    0.931022   -0.820660
     30          1           0        5.561356    0.951454    0.790317
     31          1           0        5.461740   -0.460024   -0.061306
 ---------------------------------------------------------------------
                    Distance matrix (angstroms):
                    1          2          3          4          5
     1  O    0.000000
     2  C    1.222179   0.000000
     3  N    2.274081   1.343624   0.000000
     4  C    2.837174   2.462309   1.464032   0.000000
     5  C    4.231567   3.649344   2.388949   1.523467   0.000000
     6  O    4.917448   4.563135   3.459770   2.380440   1.333144
     7  O    4.921979   4.097557   2.757107   2.396637   1.206580
     8  C    3.408767   3.234676   2.489657   1.555914   2.526871
     9  C    4.562914   4.590850   3.831017   2.556756   3.056455
    10  C    5.887981   5.794330   4.869779   3.598195   3.583874
    11  N    6.737250   6.821392   5.984508   4.611148   4.596196
    12  C    6.158642   6.462260   5.825300   4.435223   4.730840
    13  N    4.799194   5.145373   4.621209   3.303230   3.938079
    14  C    2.390081   1.539244   2.444284   3.834163   4.781877
    15  C    2.657239   2.460140   3.667743   4.901143   5.965385
    16  N    4.114860   3.825852   4.932832   6.265437   7.251931
    17  H    3.176487   2.062707   1.012299   2.110438   2.451638
    18  H    2.602318   2.642806   2.088663   1.088987   2.159638
    19  H    5.813534   5.355038   4.172638   3.218069   1.877079
    20  H    4.035745   3.588970   2.707146   2.159439   2.725993
    21  H    2.859519   2.948850   2.676245   2.148352   3.448655
    22  H    6.421084   6.137703   5.089237   3.971984   3.689199
    23  H    6.805904   7.241504   6.702367   5.315172   5.639781
    24  H    4.304166   4.868303   4.589664   3.402149   4.299242
    25  H    2.933934   2.146506   2.878632   4.215800   5.191255
    26  H    3.228958   2.194974   2.626316   4.076313   4.697672
    27  H    2.314184   2.590514   3.925435   4.959560   6.214572
    28  H    2.925244   2.818160   3.920439   5.062661   6.012076
    29  H    4.639812   4.563549   5.751360   7.015460   8.053225
    30  H    4.709996   4.205411   5.131598   6.537735   7.342935
    31  H    4.383537   4.073517   5.146412   6.474430   7.512198
                    6          7          8          9         10
     6  O    0.000000
     7  O    2.252902   0.000000
     8  C    3.334412   3.129261   0.000000
     9  C    3.353035   3.776841   1.491842   0.000000
    10  C    3.721444   4.055558   2.614798   1.373771   0.000000
    11  N    4.386254   5.204691   3.730672   2.265388   1.373452
    12  C    4.429559   5.575064   3.653146   2.216158   2.135496
    13  N    3.866296   4.871380   2.537984   1.384695   2.181483
    14  C    5.796936   4.930908   4.540213   5.980125   7.112231
    15  C    6.811225   6.275594   5.629403   6.984256   8.222769
    16  N    8.178286   7.399691   6.905415   8.316044   9.514974
    17  H    3.667348   2.349493   3.022533   4.350101   5.191133
    18  H    2.453102   3.249205   2.182776   2.814106   3.969421
    19  H    0.971133   2.326986   4.076740   4.004115   4.082489
    20  H    3.763901   2.886502   1.092336   2.112969   2.773883
    21  H    4.238597   4.064943   1.094360   2.145360   3.383510
    22  H    3.988518   3.832216   3.032696   2.203828   1.079948
    23  H    5.185506   6.548810   4.625837   3.246550   3.187967
    24  H    4.219549   5.332850   2.847313   2.143561   3.163002
    25  H    6.331909   5.206162   4.581077   6.061755   7.134928
    26  H    5.717267   4.659708   4.981759   6.408875   7.433003
    27  H    7.008925   6.662658   5.486140   6.760138   8.061414
    28  H    6.694968   6.401541   6.021558   7.294032   8.537585
    29  H    8.898588   8.283687   7.668295   9.030805  10.277519
    30  H    8.283984   7.364262   7.297807   8.736060   9.871736
[...]
 405,0.00000195,-0.00000020,0.00000003,0.00000994,-0.00002376,-0.005088
 51,0.03745221,-0.05385748,-0.00526590,0.02333524,-0.00392764,-0.001080
 03,-0.00058132,0.00128447,0.00000107,-0.00040072,0.00015362,0.00007509
 ,-0.00000988,-0.00003104,-0.00000439,-0.00000089,0.00000619,-0.0000011
 8,0.00000279,0.00001080,-0.00001003,0.00003172,-0.00002448,-0.00000062
 ,-0.00000055,0.00000033,0.00000041,0.00000024,-0.00000017,-0.00000159,
 0.00000519,-0.00000639,0.00582479,-0.04282665,0.05531586,-0.00686834,0
 .00245223,-0.00405013,0.00679998,-0.01621740,-0.02586904,0.00008916,0.
 00114368,0.00165363,0.00003942,0.00002102,0.00007901,-0.00016677,0.000
 01218,-0.00040331,0.00010731,-0.00004511,0.00010789,0.00014330,0.00007
 797,0.00025704,0.00010940,0.00003014,0.00002756,-0.00001064,0.00002926
 ,-0.00000310,-0.00000047,0.00001198,-0.00000245,-0.00001897,-0.0000057
 3,0.00000223,0.00001546,-0.00000074,0.00000269,-0.00000969,-0.00000453
 ,0.00000689,-0.04999340,-0.00848111,-0.00905419,0.00028920,0.01127504,
 0.02219269,0.00110543,0.00021705,0.00030235,-0.00171419,-0.00052167,0.
 00013448,0.00016414,-0.00003844,0.00002586,-0.00003679,-0.00000475,0.0
 0000185,-0.00001532,-0.00001472,0.00000612,0.00002553,0.00008372,0.000
 00628,0.,-0.00000461,0.00000041,0.00000014,-0.00000009,0.00000007,0.00
 002792,-0.00000015,0.00000040,0.00003353,0.00351004,0.00683435,0.05311
 184,0.00057233,0.00086127,0.00097128,0.00186762,0.00005366,0.00225627,
 -0.00045311,-0.00008169,0.00030358,-0.00005142,0.00000527,0.00023192,-
 0.00003342,-0.00000139,-0.00022398,0.00002040,-0.00000740,0.00006625,0
 .00002062,-0.00004570,0.00015266,0.00001389,-0.00000027,-0.00002329,-0
 .00001499,0.00000369,0.00000324,0.00000570,0.00001068,-0.00001106,-0.0
 0002142,-0.00000593,-0.00000187,0.00000603,0.00000147,0.00000016,-0.00
 000588,-0.00001150,0.00001665,-0.00819012,-0.11155758,-0.11346876,0.00
 097283,0.00709393,0.01511250,0.00066450,0.00008432,-0.00014657,-0.0006
 1569,0.00044467,0.00002331,0.00007463,0.00000236,0.00002823,0.00000035
 ,0.00001129,-0.00000754,-0.00000558,-0.00001664,-0.00000388,0.00000637
 ,0.00001659,0.00002566,0.00000030,-0.00000109,0.00000029,0.00000030,0.
 00000066,0.00000060,0.00001205,0.00000144,0.00000446,-0.00181193,-0.01
 398774,-0.02710396,0.00852571,0.11637972,-0.00324372,0.00025816,0.0001
 2136,0.00181815,-0.00481232,-0.01183413,0.00160292,0.00071227,0.001154
 68,-0.00052902,0.00059972,0.00000470,-0.00010289,-0.00002251,-0.000024
 69,0.00003657,-0.00000616,0.00000194,0.00005730,0.00002230,0.00001284,
 0.00021532,-0.00006796,0.00003377,0.00000776,0.00007831,-0.00000532,-0
 .00001846,0.00000305,0.00001556,0.00001248,-0.00001552,0.00002218,0.00
 003566,0.00000745,-0.00000315,-0.00001581,0.00000533,-0.00001047,-0.00
 839389,-0.11115653,-0.24625122,-0.00211799,-0.00898742,-0.01814503,0.0
 0030568,0.00004493,0.00066040,-0.00014870,-0.00049720,0.00092821,0.000
 03081,-0.00005203,0.00004777,-0.00001117,-0.00000713,0.00000353,-0.000
 00965,-0.00000786,0.00000519,0.00000249,0.00002686,0.00000182,-0.00000
 108,-0.00000149,0.00000048,0.00000137,-0.00000074,-0.00000030,0.000015
 83,-0.00000122,-0.00000756,0.00013417,0.00245411,0.00593885,0.00731837
 ,0.11998125,0.26820072,-0.00157529,-0.00052877,-0.00421921,0.00024735,
 0.00030215,0.00765209,0.00096030,-0.00018003,-0.00307798,-0.00041002,0
 .00002837,-0.00011069,-0.00019806,0.00017714,0.00025197,0.00013046,-0.
 00007951,-0.00007036,0.00011168,-0.00010483,-0.00022487,-0.00002476,-0
 .00003619,0.00001832,0.00000086,0.00001095,0.00001552,-0.00002860,-0.0
 0001602,0.00002467,0.00007708,0.00000686,0.00002285,-0.00000359,-0.000
 00227,0.00000044,0.00002237,0.00003222,-0.00003840,0.00502803,0.008768
 95,0.01834446,-0.05357197,-0.01549290,-0.04243007,-0.01746511,-0.01027
 642,-0.03328358,0.00063114,0.00003782,0.00008647,-0.00006675,0.0000369
 7,0.00003554,-0.00001401,0.00001913,0.00001084,0.00000669,-0.00000741,
 -0.00001410,-0.00000790,-0.00008514,-0.00001509,-0.00000428,-0.0000023
 8,-0.00000045,0.00000157,-0.00000143,-0.00000024,-0.00003924,-0.000004
 74,-0.00002287,0.00050843,-0.00028299,-0.00024860,-0.00350446,-0.00245
 984,0.00237369,0.07074371,-0.00022636,-0.00196974,-0.00020377,-0.00041
 255,0.00104796,0.00008535,0.00038047,0.00018301,-0.00023222,-0.0001042
 9,-0.00000089,-0.00013291,-0.00005898,0.00005494,0.00006088,0.00005260
 ,-0.00003411,-0.00001735,0.00003127,-0.00002638,-0.00004414,-0.0000102
 9,-0.00000696,0.00001874,-0.00000410,-0.00000077,-0.00001134,-0.000010
 99,-0.00000868,0.00000851,0.00002355,-0.00000230,0.00001458,0.00000863
 ,0.00000165,-0.00000014,0.00000711,0.00000027,-0.00001182,0.00288784,0
 .00569978,0.01292224,-0.02137977,-0.08980076,-0.09360107,0.00655700,0.
 00351388,0.01381718,0.00015247,0.00012522,0.00005771,-0.00002399,0.000
 00370,0.00002596,-0.00000533,0.00000644,0.00000212,-0.00000385,-0.0000
 0225,0.00000380,-0.00000937,-0.00000935,-0.00001386,-0.00000275,-0.000
 00002,0.00000178,0.00000129,0.00000152,0.00000062,-0.00000802,0.000015
 40,-0.00000965,0.00073977,0.00046765,0.00001718,-0.00212765,-0.0003242
 1,0.00156372,0.01907175,0.08957783,-0.00327091,-0.00016699,0.00142312,
 -0.00120290,-0.00052590,-0.00287119,-0.00000710,0.00004028,-0.00011774
 ,-0.00001003,-0.00000213,0.00005865,0.00000403,-0.00003227,-0.00004065
 ,-0.00000906,0.00000746,0.00000912,0.00000939,0.00001343,0.00003337,0.
 00000406,0.00000872,0.00000427,0.00000397,-0.00000101,0.00001802,0.000
 00712,0.00000399,-0.00000528,-0.00000373,0.00000481,-0.00001488,-0.000
 01907,-0.00000475,0.00000135,0.00000456,-0.00000141,-0.00000282,0.0011
 9242,-0.00725596,-0.02101114,-0.05184904,-0.08924909,-0.27889966,-0.00
 107798,0.00026057,-0.00030331,-0.00001688,-0.00004300,0.00009531,0.000
 03132,-0.00000710,0.00000975,-0.00000057,0.00000038,0.00000089,-0.0000
 0140,-0.00000166,-0.00000268,0.00001122,0.00002011,0.00001169,0.000000
 91,0.00000054,-0.00000110,-0.00000219,0.00000027,0.00000020,-0.0000056
 2,-0.00000136,0.00001302,-0.00037460,0.00017695,0.00054413,0.00176360,
 0.00250812,-0.00137180,0.05358758,0.09337778,0.29839828,-0.00050385,0.
 00059230,-0.00077887,0.00197220,-0.00077051,0.00116968,-0.00068461,0.0
 0043244,0.00007761,0.00008810,-0.00005666,0.00009623,0.00004670,-0.000
 07055,-0.00002791,-0.00005776,0.00005027,0.00000609,-0.00004007,0.0000
 4381,0.00001130,-0.00002593,0.00000443,-0.00001857,0.00000243,-0.00000
 713,0.00001316,0.00000919,0.00000633,-0.00000380,-0.00001553,0.0000063
 5,-0.00001570,-0.00001649,-0.00000320,-0.00000190,-0.00000353,0.000005
 61,0.00000564,0.00229460,-0.02159293,0.00004089,-0.04927152,-0.0057057
 5,-0.00162768,-0.01196750,0.04067322,-0.00109987,0.00008531,-0.0001403
 5,-0.00005183,-0.00003889,-0.00002226,-0.00003670,-0.00000400,-0.00001
 345,0.00000212,0.00001797,0.00000882,-0.00001146,0.00000660,0.00000209
 ,0.00002401,0.00000320,-0.00000075,-0.00000215,-0.00000131,-0.00000177
 ,-0.00000103,0.00000246,-0.00001437,0.00000470,-0.00284051,-0.00119970
 ,0.00282634,0.00065701,0.00074131,-0.00035760,0.00196810,-0.00705735,0
 .00134865,0.06232742,-0.00027871,0.00051992,-0.00057309,0.00019703,-0.
 00018506,0.00103141,-0.00022480,-0.00002795,-0.00017920,0.00000119,-0.
 00001146,0.00004233,0.00000307,-0.00000938,-0.00000471,-0.00001334,0.0
 0000681,0.00000240,-0.00000697,0.00000530,0.00000005,-0.00001196,0.000
 01228,-0.00000118,-0.00000071,-0.00000441,0.00000562,0.00000389,0.0000
 0095,-0.00000229,-0.00000381,0.00000242,-0.00000548,-0.00000606,-0.000
 00124,-0.00000025,-0.00000029,0.00000039,0.00000071,-0.00114254,-0.008
 98193,0.00040422,0.00688243,-0.32449697,-0.00064227,0.00202027,-0.0047
 8501,-0.00008296,0.00003245,-0.00005627,-0.00002446,-0.00000722,0.0000
 0091,-0.00001333,0.00000074,0.00000037,-0.00000014,0.00000598,0.000002
 03,-0.00000337,0.00000284,-0.00000268,0.00000455,0.00000085,0.00000015
 ,-0.00000059,-0.00000048,-0.00000015,-0.00000007,-0.00000164,-0.000002
 86,0.00000283,-0.00127405,0.00086314,0.00095074,0.00018632,0.00108740,
 0.00000994,-0.00007472,-0.00895413,0.00057026,-0.00735213,0.34381638,-
 0.00035175,0.00071967,0.00004315,-0.00045645,-0.00001977,0.00018827,0.
 00001838,-0.00034532,-0.00008910,0.00002431,-0.00002513,-0.00000190,0.
 00005038,0.00000987,0.00006642,-0.00003100,0.00000811,-0.00001721,-0.0
 0003130,-0.00002662,-0.00004681,-0.00000250,0.00002540,-0.00000704,0.0
 0000030,-0.00001279,0.00000639,0.00000497,-0.00000015,-0.00000334,-0.0
 0000224,0.00000298,-0.00000819,-0.00000873,-0.00000209,0.00000230,0.00
 000324,0.00000131,-0.00000016,0.00001792,0.02320264,-0.00059141,0.0002
 7278,-0.00461823,-0.05103974,-0.00298788,0.00872089,-0.00084545,0.0000
 3831,0.00011982,-0.00000089,0.00000273,-0.00000228,0.00000588,0.000010
 41,0.00000302,0.00000146,-0.00000567,-0.00000094,0.00000393,0.00000264
 ,-0.00000233,-0.00000376,0.00000059,0.00000182,-0.00000043,-0.00000099
 ,-0.00000018,0.00000004,-0.00000127,-0.00000553,0.00000620,0.00348818,
 0.00177837,-0.00208272,-0.00121957,-0.00004096,0.00084031,0.00240036,-
 0.02865920,0.00294322,-0.00052885,-0.00171637,0.05025982,0.00065478,0.
 00025655,-0.00102782,0.00006106,-0.00047295,0.00349327,-0.00064283,-0.
 00001598,-0.00067402,0.00000353,0.00004041,0.00017960,-0.00009615,0.00
 000599,-0.00007391,0.00002424,-0.00000288,0.00002368,0.00004301,-0.000
 00424,0.00001416,-0.00002152,0.00000677,-0.00000202,0.00000084,-0.0000
 1277,0.00000745,-0.00000312,-0.00000318,0.00000149,0.00002074,0.000006
 69,-0.00000047,-0.00001426,-0.00000438,0.00000305,0.00001256,0.0000080
 9,-0.00001002,-0.00575849,0.00236668,-0.00367979,-0.01782942,-0.012272
 05,0.02083953,-0.18516559,-0.08626009,0.14853593,0.00001589,-0.0000154
 8,-0.00003522,-0.00001551,0.00000077,-0.00000177,-0.00001601,0.0000059
 7,0.00000193,-0.00000125,-0.00000169,0.00000077,0.00000104,-0.00001230
 ,-0.00000559,-0.00000238,-0.00000113,0.00000027,-0.00000095,-0.0000006
 4,0.00000008,-0.00001204,-0.00000239,-0.00000195,0.00052931,0.00015311
 ,-0.00041541,0.00005974,0.00019151,0.00005121,0.00078397,-0.00105250,-
 0.00066018,0.00124822,0.00064542,0.00048186,0.19357872,0.00013553,-0.0
 0012661,0.00005963,-0.00010137,0.00063088,-0.00058110,0.00039815,-0.00
 004265,0.00004205,-0.00006614,-0.00005464,-0.00008843,-0.00006982,0.00
 006845,0.00006753,0.00007519,-0.00005018,-0.00001951,0.00004730,-0.000
 03366,-0.00003191,-0.00000921,-0.00000954,0.00000133,-0.00000354,0.000
 00315,-0.00000268,-0.00000921,-0.00000557,0.00000474,0.00002184,-0.000
 00350,0.00001105,0.00000540,0.00000081,0.00000070,0.00000607,0.0000008
 3,-0.00001083,0.00191626,-0.00092167,0.00149716,0.00452145,0.00541964,
 -0.00900115,-0.08068760,-0.11446321,0.08978490,-0.00003083,0.00004379,
 0.00005858,0.00001937,0.00000703,0.00000607,-0.00000481,0.00001170,0.0
 0000230,-0.00000438,-0.00000123,0.00000416,-0.00000139,-0.00000509,-0.
 00000810,-0.00000285,0.00000024,0.00000178,0.00000061,0.00000186,0.000
 00095,-0.00000786,0.00000919,-0.00000682,-0.00009505,0.00031499,0.0000
 1291,-0.00021708,0.00003943,0.00005514,-0.00058246,0.00003150,-0.00006
 312,0.00072126,-0.00025627,-0.00055207,0.08830075,0.11496623,-0.000238
 59,-0.00000586,-0.00009265,-0.00011020,-0.00015924,0.00060644,-0.00043
 859,-0.00001126,-0.00012792,0.00008901,0.00001377,0.00007093,0.0001080
 4,-0.00006435,0.00000544,-0.00010338,0.00004904,0.00000230,-0.00007739
 ,0.00001768,-0.00001486,0.00000183,0.00003423,0.00001151,0.00000542,-0
 .00001673,0.00000991,0.00001821,0.00000303,-0.00000953,-0.00002611,0.0
 0000495,-0.00002642,-0.00002133,-0.00000391,0.00000090,-0.00000044,-0.
 00001021,0.00000654,-0.00143997,0.00091230,-0.00065301,-0.00284669,-0.
 00601350,0.00904124,0.14058033,0.09117155,-0.22237756,0.00007483,-0.00
 001326,-0.00007878,-0.00001875,-0.00000057,-0.00000362,0.00001590,-0.0
 0000296,-0.00000118,0.00000571,0.00000175,-0.00000551,0.00000395,0.000
 00609,0.00000914,0.00000347,0.00000408,-0.00000146,-0.00000288,0.00000
 115,0.00000032,0.00000206,0.00000259,0.00002132,0.00007880,0.00003108,
 -0.00018125,-0.00022985,0.00005950,0.00009022,-0.00077217,-0.00037135,
 0.00039310,0.00005452,-0.00010305,0.00024975,-0.15388761,-0.09987521,0
 .23222523,-0.00023802,-0.00025405,0.00161729,-0.00188266,0.00027491,-0
 .00210113,0.00066962,0.00004455,0.00028803,-0.00019197,0.00000210,-0.0
 0012608,-0.00017767,0.00010877,0.00005058,0.00016547,-0.00007969,-0.00
 001956,0.00012728,-0.00003148,-0.00001634,0.00001268,-0.00005190,-0.00
 000965,-0.00000358,0.00002402,0.00000044,-0.00002844,-0.00000597,0.000
 01940,0.00005448,-0.00000144,0.00002636,0.00001164,-0.00000028,0.00000
 281,0.00001191,0.00002228,-0.00002610,0.00275707,-0.00066618,-0.000398
 29,-0.00797682,-0.01195072,-0.03077661,-0.08468583,-0.03597413,-0.0906
 8179,-0.00012723,-0.00001348,0.00013347,0.00002627,0.00000292,0.000014
 49,-0.00002788,0.00000792,0.00000945,-0.00000793,-0.00000184,0.0000047
 0,-0.00000087,-0.00001336,-0.00001171,-0.00000559,-0.00000499,0.000000
 99,0.00000133,-0.00000119,0.00000010,-0.00001329,-0.00000459,-0.000021
 60,-0.00019094,-0.00026192,0.00011338,-0.00053249,0.00030127,0.0009168
 5,-0.00552155,0.00304644,0.00093533,0.00147112,0.00029146,0.00028459,0
 .00886684,0.01053804,0.02208243,0.08668601,0.00051084,0.00010433,-0.00
 006189,-0.00051722,-0.00022449,0.00023096,0.00030244,-0.00007174,-0.00
 015206,-0.00009805,0.00003564,-0.00005932,-0.00008744,0.00008606,0.000
 07782,0.00007192,-0.00005152,-0.00001923,0.00004788,-0.00005441,-0.000
 05153,0.00001515,-0.00001078,0.00000030,-0.00000307,0.00000736,-0.0000
 0313,-0.00001182,-0.00000591,0.00000593,0.00002713,-0.00000425,0.00001
 312,0.00000633,0.00000107,0.00000118,0.00000716,0.00000369,-0.00001134
 ,-0.00017005,0.00000356,0.00022967,0.00074395,0.00540874,0.01041897,-0
 .03201187,-0.09965103,-0.09924686,-0.00001980,0.00005560,0.00004928,0.
 00000712,0.00000942,0.00001269,-0.00000416,0.00001662,0.00000370,-0.00
 000661,-0.00000234,0.00000433,-0.00000252,-0.00001760,-0.00001144,-0.0
 0000347,0.00000070,0.00000181,0.00000068,0.00000132,0.00000097,-0.0000
 0969,0.00000601,-0.00000781,-0.00018178,-0.00041419,-0.00018164,0.0000
 8672,0.00023428,-0.00028610,0.00231561,-0.00044645,-0.00000537,0.00029
 136,-0.00013068,0.00093130,0.00664687,0.00638440,0.01528506,0.03371546
 ,0.09855320,0.00030598,0.00006336,-0.00030983,-0.00020381,0.00006877,-
 0.00020447,0.00047517,-0.00001598,-0.00017028,-0.00008030,-0.00002511,
 -0.00008565,-0.00001148,0.00005047,0.00018900,0.00002160,-0.00001798,-
 0.00005279,0.00000358,-0.00003032,-0.00013185,0.00000290,-0.00001455,0
 .00001160,0.00000089,0.00000308,0.00000785,-0.00000543,-0.00000732,0.0
 0001036,0.00002486,0.00000398,-0.00000212,-0.00000894,-0.00000269,0.00
 000245,0.00000995,0.00001101,-0.00001921,0.00035525,0.00030687,0.00253
 217,-0.00540546,0.00090101,-0.00202570,-0.08177469,-0.10235908,-0.3384
 2504,0.00005672,0.00002543,0.00009651,-0.00000124,0.00000582,0.0000036
 8,0.00000168,0.00000290,0.00000891,0.00000005,0.00000339,-0.00000182,-
 0.00000312,-0.00001732,-0.00000859,-0.00000089,0.00000146,-0.00000024,
 -0.00000090,0.00000022,0.00000008,-0.00001236,-0.00000061,-0.00000049,
 -0.00004487,0.00006851,0.00014051,-0.00005474,-0.00066147,-0.00030883,
 0.00002137,0.00065110,0.00110782,0.00049383,0.00035256,0.00007799,-0.0
 0819969,-0.00944032,-0.02147879,0.09281056,0.10972118,0.35657544,0.000
 44355,-0.00018020,0.00043530,-0.00105468,-0.00034537,-0.00083682,0.000
 72372,0.00000777,-0.00001847,-0.00019986,0.00008221,-0.00014414,-0.000
 19367,0.00014365,0.00011509,0.00016965,-0.00009182,-0.00003318,0.00012
 317,-0.00005945,-0.00006956,0.00002134,-0.00005655,0.00000300,-0.00000
 152,0.00002235,-0.00000372,-0.00003383,-0.00001160,0.00002334,0.000067
 28,-0.00000218,0.00003216,0.00001409,0.00000052,0.00000327,0.00001665,
 0.00002284,-0.00003245,0.00207424,0.00130367,0.00000392,-0.00177434,0.
 03510455,0.00103533,-0.06046265,0.03915643,0.00221075,-0.00006322,0.00
 004369,0.00013886,0.00002033,0.00000723,0.00002049,-0.00002398,0.00001
 458,0.00000973,-0.00001231,-0.00000394,0.00000774,-0.00000721,-0.00002
 376,-0.00002460,-0.00000676,-0.00000376,0.00000173,0.00000164,-0.00000
 065,0.00000041,-0.00001959,0.00000234,-0.00002267,-0.00047533,-0.00152
 287,0.00083532,0.00009301,-0.00033429,0.00001336,0.00121386,-0.0004620
 7,-0.00039286,-0.00672915,0.00012550,-0.00147374,0.00367504,-0.0248136
 1,-0.00291055,0.00075103,-0.01166910,0.00122353,0.06164951,-0.00034986
 ,-0.00021237,0.00006795,0.00031099,-0.00009276,0.00035658,-0.00052103,
 -0.00004300,-0.00000944,0.00013523,0.00004306,0.00009552,0.00005972,-0
 .00005078,-0.00004498,-0.00007691,0.00002740,0.00001913,-0.00006165,0.
 00000026,0.00002138,-0.00000507,0.00004441,0.00001079,0.00000026,-0.00
 002449,-0.00001101,0.00001098,-0.00000133,-0.00001354,-0.00002276,-0.0
 0000635,-0.00000778,-0.00000252,0.00000214,-0.00000074,-0.00000173,-0.
 00002232,0.00001268,-0.00096471,0.00228243,-0.00155016,0.00596182,-0.0
 0569700,0.00149947,0.02922230,-0.39744823,-0.00809604,0.00004518,0.000
 04673,-0.00006894,-0.00000803,-0.00000670,-0.00000083,0.00001396,0.000
 00872,-0.00000536,-0.00000748,0.00000145,0.00001181,0.00000266,0.00002
 255,-0.00000891,-0.00000012,0.00000602,0.00000287,-0.00000091,0.000003
 62,0.00000141,0.00000628,0.00001847,0.00001175,0.00041323,-0.00027174,
 -0.00016304,0.00002069,-0.00029099,0.00009967,-0.00058984,0.00085623,0
 .00036743,0.00042930,0.00158798,0.00050476,0.00149907,-0.01196031,-0.0
 0094636,0.00093708,-0.00982660,0.00035164,-0.03645612,0.42100350,-0.00
 014365,-0.00017167,-0.00073978,0.00077063,0.00032909,0.00074808,-0.000
 17275,0.00001409,-0.00014263,0.00007148,-0.00003460,0.00002392,0.00008
 337,-0.00004279,0.00004606,-0.00007344,0.00003238,-0.00001033,-0.00005
 761,0.00001744,-0.00004026,-0.00001568,0.00002837,0.00002272,0.0000037
 9,-0.00001729,0.00001018,0.00001496,-0.00000124,-0.00000540,-0.0000149
 3,0.00000616,-0.00002256,-0.00002136,-0.00000415,0.00000067,0.00000294
 ,-0.00000798,-0.00000206,-0.00026417,-0.00146503,-0.00005987,-0.000602
 47,0.00790531,0.00059187,0.00219594,-0.00639831,-0.06289876,0.00005756
 ,-0.00002889,-0.00002851,-0.00001078,0.00000105,-0.00000570,0.00001213
 ,-0.00000344,0.00000024,0.00000658,0.00000211,-0.00000536,0.00000106,0
 .00000728,0.00000521,0.00000275,0.00000367,-0.00000098,-0.00000255,0.0
 0000170,0.00000032,-0.00000287,0.00000767,0.00001737,0.00015657,0.0005
 4495,0.00029480,0.00016263,-0.00005259,-0.00012203,-0.00031748,0.00067
 958,-0.00042307,-0.00161087,-0.00002479,0.00004302,-0.00495881,0.02807
 024,0.00230826,0.00487760,-0.03689056,0.00246129,-0.00015058,0.0074922
 7,0.05793329\\0.00000499,0.00000150,0.00000067,0.00000438,-0.00000201,
 0.00000078,-0.00000398,0.00000018,0.00000147,-0.00000133,0.00000016,0.
 00000011,0.00000121,-0.00000168,-0.00000115,-0.00000133,0.00000140,-0.
 00000024,0.00000056,0.00000019,0.00000030,0.00000184,0.00000093,0.0000
 0192,0.00000011,0.00000014,0.00000012,0.00000018,-0.00000026,0.0000009
 0,-0.00000004,0.00000023,-0.00000025,-0.00000090,-0.00000056,0.0000003
 6,0.00000003,-0.00000059,0.00000019,-0.00000443,0.00000062,0.00000022,
 -0.00000248,0.00000071,-0.00000247,-0.00000161,-0.00000122,-0.00000166
 ,-0.00000051,0.00000011,0.00000079,0.,-0.00000009,-0.00000061,0.000000
 61,0.00000096,-0.00000053,-0.00000007,-0.00000005,0.00000030,-0.000000
 31,-0.00000031,0.00000012,0.00000020,0.00000051,0.00000060,0.00000008,
 -0.00000057,0.00000030,0.00000017,-0.00000038,0.,-0.00000002,0.0000007
 2,0.00000018,0.00000047,0.00000042,-0.00000026,0.00000315,-0.00000006,
 -0.00000073,-0.00000027,-0.00000112,-0.00000101,0.00000002,-0.00000023
 ,-0.00000011,-0.00000077,0.00000031,-0.00000034,0.00000003,0.00000005,
 0.00000003\\\@


 A MAN SHOULD NEVER BE ASHAMED TO OWN HE HAS BEEN IN THE WRONG
 WHICH IS BUT SAYING IN OTHER WORDS,
 THAT HE IS WISER TODAY THAN HE WAS YESTERDAY.

                          -- JONATHAN SWIFT
 Job cpu time:       0 days  2 hours  6 minutes 43.8 seconds.
 File lengths (MBytes):  RWF=    458 Int=      0 D2E=      0 Chk=     13 Scr=      1
 Normal termination of Gaussian 09 at Wed Jul 28 23:35:46 2021.
