 Entering Gaussian System, Link 0=g09
 Input=opt_freq-conf-715.com
 Output=opt_freq-conf-715.log
 Initial command:
 /aerosol/software/g09/l1.exe "/scratch/nicole/10686/Gau-83075.inp" -scrdir="/scratch/nicole/10686/"
 Entering Link 1 = /aerosol/software/g09/l1.exe PID=     83079.
  
 Copyright (c) 1988,1990,1992,1993,1995,1998,2003,2009,2013,
            Gaussian, Inc.  All Rights Reserved.
  
 This is part of the Gaussian(R) 09 program.  It is based on
 the Gaussian(R) 03 system (copyright 2003, Gaussian, Inc.),
 the Gaussian(R) 98 system (copyright 1998, Gaussian, Inc.),
 the Gaussian(R) 94 system (copyright 1995, Gaussian, Inc.),
 the Gaussian 92(TM) system (copyright 1992, Gaussian, Inc.),
 the Gaussian 90(TM) system (copyright 1990, Gaussian, Inc.),
 the Gaussian 88(TM) system (copyright 1988, Gaussian, Inc.),
 the Gaussian 86(TM) system (copyright 1986, Carnegie Mellon
 University), and the Gaussian 82(TM) system (copyright 1983,
 Carnegie Mellon University). Gaussian is a federally registered
 trademark of Gaussian, Inc.
  
 This software contains proprietary and confidential information,
 including trade secrets, belonging to Gaussian, Inc.
  
 This software is provided under written license and may be
 used, copied, transmitted, or stored only in accord with that
 written license.
  
 The following legend is applicable only to US Government
 contracts under FAR:
  
                    RESTRICTED RIGHTS LEGEND
  
 Use, reproduction and disclosure by the US Government is
 subject to restrictions as set forth in subparagraphs (a)
 and (c) of the Commercial Computer Software - Restricted
 Rights clause in FAR 52.227-19.
  
 Gaussian, Inc.
 340 Quinnipiac St., Bldg. 40, Wallingford CT 06492
  
  
 ---------------------------------------------------------------
 Warning -- This program may not be used in any manner that
 competes with the business of Gaussian, Inc. or will provide
 assistance to any competitor of Gaussian, Inc.  The licensee
 of this program is prohibited from giving any competitor of
 Gaussian, Inc. access to this program.  By using this program,
 the user acknowledges that Gaussian, Inc. is engaged in the
 business of creating and licensing software in the field of
 computational chemistry and represents and warrants to the
 licensee that it is not a competitor of Gaussian, Inc. and that
 it will not use this program in any manner prohibited above.
 ---------------------------------------------------------------
  

 Cite this work as:
 Gaussian 09, Revision D.01,
 M. J. Frisch, G. W. Trucks, H. B. Schlegel, G. E. Scuseria, 
 M. A. Robb, J. R. Cheeseman, G. Scalmani, V. Barone, B. Mennucci, 
 G. A. Petersson, H. Nakatsuji, M. Caricato, X. Li, H. P. Hratchian, 
 A. F. Izmaylov, J. Bloino, G. Zheng, J. L. Sonnenberg, M. Hada, 
 M. Ehara, K. Toyota, R. Fukuda, J. Hasegawa, M. Ishida, T. Nakajima, 
 Y. Honda, O. Kitao, H. Nakai, T. Vreven, J. A. Montgomery, Jr., 
 J. E. Peralta, F. Ogliaro, M. Bearpark, J. J. Heyd, E. Brothers, 
 K. N. Kudin, V. N. Staroverov, T. Keith, R. Kobayashi, J. Normand, 
 K. Raghavachari, A. Rendell, J. C. Burant, S. S. Iyengar, J. Tomasi, 
 M. Cossi, N. Rega, J. M. Millam, M. Klene, J. E. Knox, J. B. Cross, 
 V. Bakken, C. Adamo, J. Jaramillo, R. Gomperts, R. E. Stratmann, 
 O. Yazyev, A. J. Austin, R. Cammi, C. Pomelli, J. W. Ochterski, 
 R. L. Martin, K. Morokuma, V. G. Zakrzewski, G. A. Voth, 
 P. Salvador, J. J. Dannenberg, S. Dapprich, A. D. Daniels, 
 O. Farkas, J. B. Foresman, J. V. Ortiz, J. Cioslowski, 
 and D. J. Fox, Gaussian, Inc., Wallingford CT, 2013.
 
 ******************************************
 Gaussian 09:  ES64L-G09RevD.01 24-Apr-2013
                28-Jul-2021 
 ******************************************
 %mem=2gb
 %nproc=4
 Will use up to    4 processors via shared memory.
 %chk=conf-715.chk
 ----------------------------------------------------------------------
 # B3LYP/6-311G(d,p) opt=calcfc freq=noraman nosymm integral(ultrafineg
 rid)
 ----------------------------------------------------------------------
 1/10=4,14=-1,18=20,19=15,26=4,38=1/1,3;
 2/9=110,12=2,15=1,17=6,18=5,40=1/2;
 3/5=4,6=6,7=101,11=2,16=1,25=1,30=1,71=2,74=-5,75=-5,140=1/1,2,3;
 4//1;
 5/5=2,38=5/2;
 8/6=4,10=90,11=11/1;
 11/6=1,8=1,9=11,15=111,16=1,31=1/1,2,10;
 10/6=1,13=1,31=1/2;
 6/7=2,8=2,9=2,10=2,28=1/1;
 7/10=1,18=20,25=1,30=1/1,2,3,16;
 1/10=4,14=-1,18=20,19=15,26=4/3(2);
 2/9=110,15=1/2;
 99//99;
 2/9=110,15=1/2;
 3/5=4,6=6,7=101,11=2,16=1,25=1,30=1,71=1,74=-5,75=-5/1,2,3;
 4/5=5,16=3,69=1/1;
 5/5=2,38=5/2;
 7/30=1/1,2,3,16;
 1/14=-1,18=20,19=15,26=4/3(-5);
 2/9=110,15=1/2;
 6/7=2,8=2,9=2,10=2,19=2,28=1/1;
 99/9=1/99;
 ------------------------------------------------------------
 Candidate Structure: Conf:715 OPT and FREQ calc in gas phase
 ------------------------------------------------------------
 Symbolic Z-matrix:
 Charge =  1 Multiplicity = 1
 O                    -2.0885    1.182    -0.21825 
 C                    -1.46719   0.20547   0.19926 
 N                    -0.12132   0.20757   0.28624 
 C                     0.63783   1.29466  -0.29198 
 C                     0.98029   1.0447   -1.75562 
 O                     1.23244   2.14989  -2.48335 
 O                     1.08562  -0.04757  -2.25602 
 C                     1.91546   1.5648    0.52718 
 C                     2.70196   0.33131   0.85697 
 C                     3.40428  -0.01181   1.97613 
 N                     3.95687  -1.26981   1.84035 
 C                     3.5892   -1.67166   0.64641 
 N                     2.82178  -0.74817   0.01529 
 C                    -2.16715  -1.04944   0.69628 
 C                    -3.29142  -1.47616  -0.2379 
 N                    -4.33054  -0.42348  -0.32038 
 H                     0.38118  -0.63739   0.50118 
 H                    -0.00933   2.17279  -0.24627 
 H                     1.09821   2.93528  -1.94331 
 H                     2.53317   2.28932  -0.01518 
 H                     1.6259    2.0376    1.46797 
 H                     3.54597   0.56831   2.87675 
 H                     3.83588  -2.61477   0.19139 
 H                     2.44531  -0.82716  -0.92241 
 H                    -1.44086  -1.85534   0.81604 
 H                    -2.58091  -0.82551   1.683 
 H                    -3.73537  -2.40919   0.11305 
 H                    -2.88608  -1.66138  -1.23542 
 H                    -3.83816   0.47228  -0.44803 
 H                    -4.9767   -0.56907  -1.09527 
 H                    -4.85767  -0.35807   0.54953 
 

 GradGradGradGradGradGradGradGradGradGradGradGradGradGradGradGradGradGrad
 Berny optimization.
 Initialization pass.
                           ----------------------------
                           !    Initial Parameters    !
                           ! (Angstroms and Degrees)  !
 --------------------------                            --------------------------
 ! Name  Definition              Value          Derivative Info.                !
 --------------------------------------------------------------------------------
 ! R1    R(1,2)                  1.2304         calculate D2E/DX2 analytically  !
 ! R2    R(2,3)                  1.3487         calculate D2E/DX2 analytically  !
 ! R3    R(2,14)                 1.5205         calculate D2E/DX2 analytically  !
 ! R4    R(3,4)                  1.4465         calculate D2E/DX2 analytically  !
 ! R5    R(3,17)                 1.0063         calculate D2E/DX2 analytically  !
 ! R6    R(4,5)                  1.5238         calculate D2E/DX2 analytically  !
 ! R7    R(4,8)                  1.5415         calculate D2E/DX2 analytically  !
 ! R8    R(4,18)                 1.0918         calculate D2E/DX2 analytically  !
 ! R9    R(5,6)                  1.3471         calculate D2E/DX2 analytically  !
 ! R10   R(5,7)                  1.206          calculate D2E/DX2 analytically  !
 ! R11   R(6,19)                 0.9625         calculate D2E/DX2 analytically  !
 ! R12   R(8,9)                  1.4996         calculate D2E/DX2 analytically  !
 ! R13   R(8,20)                 1.0957         calculate D2E/DX2 analytically  !
 ! R14   R(8,21)                 1.092          calculate D2E/DX2 analytically  !
 ! R15   R(9,10)                 1.3651         calculate D2E/DX2 analytically  !
 ! R16   R(9,13)                 1.3741         calculate D2E/DX2 analytically  !
 ! R17   R(10,11)                1.3807         calculate D2E/DX2 analytically  !
 ! R18   R(10,22)                1.0806         calculate D2E/DX2 analytically  !
 ! R19   R(11,12)                1.3123         calculate D2E/DX2 analytically  !
 ! R20   R(12,13)                1.3565         calculate D2E/DX2 analytically  !
 ! R21   R(12,23)                1.0758         calculate D2E/DX2 analytically  !
 ! R22   R(13,24)                1.0135         calculate D2E/DX2 analytically  !
 ! R23   R(14,15)                1.5227         calculate D2E/DX2 analytically  !
 ! R24   R(14,25)                1.0915         calculate D2E/DX2 analytically  !
 ! R25   R(14,26)                1.0932         calculate D2E/DX2 analytically  !
 ! R26   R(15,16)                1.4815         calculate D2E/DX2 analytically  !
 ! R27   R(15,27)                1.0912         calculate D2E/DX2 analytically  !
 ! R28   R(15,28)                1.0925         calculate D2E/DX2 analytically  !
 ! R29   R(16,29)                1.0301         calculate D2E/DX2 analytically  !
 ! R30   R(16,30)                1.0194         calculate D2E/DX2 analytically  !
 ! R31   R(16,31)                1.0193         calculate D2E/DX2 analytically  !
 ! A1    A(1,2,3)              121.6382         calculate D2E/DX2 analytically  !
 ! A2    A(1,2,14)             122.2423         calculate D2E/DX2 analytically  !
 ! A3    A(3,2,14)             116.0786         calculate D2E/DX2 analytically  !
 ! A4    A(2,3,4)              119.9412         calculate D2E/DX2 analytically  !
 ! A5    A(2,3,17)             120.7154         calculate D2E/DX2 analytically  !
 ! A6    A(4,3,17)             117.0225         calculate D2E/DX2 analytically  !
 ! A7    A(3,4,5)              112.2482         calculate D2E/DX2 analytically  !
 ! A8    A(3,4,8)              110.7476         calculate D2E/DX2 analytically  !
 ! A9    A(3,4,18)             106.0591         calculate D2E/DX2 analytically  !
 ! A10   A(5,4,8)              110.6642         calculate D2E/DX2 analytically  !
 ! A11   A(5,4,18)             107.7799         calculate D2E/DX2 analytically  !
 ! A12   A(8,4,18)             109.152          calculate D2E/DX2 analytically  !
 ! A13   A(4,5,6)              115.2382         calculate D2E/DX2 analytically  !
 ! A14   A(4,5,7)              124.5212         calculate D2E/DX2 analytically  !
 ! A15   A(6,5,7)              120.1687         calculate D2E/DX2 analytically  !
 ! A16   A(5,6,19)             109.8912         calculate D2E/DX2 analytically  !
 ! A17   A(4,8,9)              114.0417         calculate D2E/DX2 analytically  !
 ! A18   A(4,8,20)             108.6675         calculate D2E/DX2 analytically  !
 ! A19   A(4,8,21)             108.2948         calculate D2E/DX2 analytically  !
 ! A20   A(9,8,20)             110.9204         calculate D2E/DX2 analytically  !
 ! A21   A(9,8,21)             107.8024         calculate D2E/DX2 analytically  !
 ! A22   A(20,8,21)            106.8359         calculate D2E/DX2 analytically  !
 ! A23   A(8,9,10)             131.062          calculate D2E/DX2 analytically  !
 ! A24   A(8,9,13)             123.8635         calculate D2E/DX2 analytically  !
 ! A25   A(10,9,13)            105.0617         calculate D2E/DX2 analytically  !
 ! A26   A(9,10,11)            110.7505         calculate D2E/DX2 analytically  !
 ! A27   A(9,10,22)            128.0101         calculate D2E/DX2 analytically  !
 ! A28   A(11,10,22)           121.2392         calculate D2E/DX2 analytically  !
 ! A29   A(10,11,12)           104.8527         calculate D2E/DX2 analytically  !
 ! A30   A(11,12,13)           111.9211         calculate D2E/DX2 analytically  !
 ! A31   A(11,12,23)           126.0866         calculate D2E/DX2 analytically  !
 ! A32   A(13,12,23)           121.9891         calculate D2E/DX2 analytically  !
 ! A33   A(9,13,12)            107.4082         calculate D2E/DX2 analytically  !
 ! A34   A(9,13,24)            126.5521         calculate D2E/DX2 analytically  !
 ! A35   A(12,13,24)           125.9817         calculate D2E/DX2 analytically  !
 ! A36   A(2,14,15)            111.7551         calculate D2E/DX2 analytically  !
 ! A37   A(2,14,25)            109.8128         calculate D2E/DX2 analytically  !
 ! A38   A(2,14,26)            107.4722         calculate D2E/DX2 analytically  !
 ! A39   A(15,14,25)           110.5913         calculate D2E/DX2 analytically  !
 ! A40   A(15,14,26)           109.3721         calculate D2E/DX2 analytically  !
 ! A41   A(25,14,26)           107.7021         calculate D2E/DX2 analytically  !
 ! A42   A(14,15,16)           110.6653         calculate D2E/DX2 analytically  !
 ! A43   A(14,15,27)           110.0394         calculate D2E/DX2 analytically  !
 ! A44   A(14,15,28)           109.4941         calculate D2E/DX2 analytically  !
 ! A45   A(16,15,27)           109.8828         calculate D2E/DX2 analytically  !
 ! A46   A(16,15,28)           109.2605         calculate D2E/DX2 analytically  !
 ! A47   A(27,15,28)           107.4348         calculate D2E/DX2 analytically  !
 ! A48   A(15,16,29)           106.8291         calculate D2E/DX2 analytically  !
 ! A49   A(15,16,30)           112.6713         calculate D2E/DX2 analytically  !
 ! A50   A(15,16,31)           111.1517         calculate D2E/DX2 analytically  !
 ! A51   A(29,16,30)           109.4498         calculate D2E/DX2 analytically  !
 ! A52   A(29,16,31)           107.287          calculate D2E/DX2 analytically  !
 ! A53   A(30,16,31)           109.2757         calculate D2E/DX2 analytically  !
 ! D1    D(1,2,3,4)             -8.8925         calculate D2E/DX2 analytically  !
 ! D2    D(1,2,3,17)          -171.0822         calculate D2E/DX2 analytically  !
 ! D3    D(14,2,3,4)           173.3831         calculate D2E/DX2 analytically  !
 ! D4    D(14,2,3,17)           11.1934         calculate D2E/DX2 analytically  !
 ! D5    D(1,2,14,15)           44.9129         calculate D2E/DX2 analytically  !
 ! D6    D(1,2,14,25)          168.0241         calculate D2E/DX2 analytically  !
 ! D7    D(1,2,14,26)          -75.0887         calculate D2E/DX2 analytically  !
 ! D8    D(3,2,14,15)         -137.3777         calculate D2E/DX2 analytically  !
 ! D9    D(3,2,14,25)          -14.2664         calculate D2E/DX2 analytically  !
 ! D10   D(3,2,14,26)          102.6207         calculate D2E/DX2 analytically  !
 ! D11   D(2,3,4,5)            -88.0776         calculate D2E/DX2 analytically  !
 ! D12   D(2,3,4,8)            147.6811         calculate D2E/DX2 analytically  !
 ! D13   D(2,3,4,18)            29.379          calculate D2E/DX2 analytically  !
 ! D14   D(17,3,4,5)            74.7538         calculate D2E/DX2 analytically  !
 ! D15   D(17,3,4,8)           -49.4875         calculate D2E/DX2 analytically  !
 ! D16   D(17,3,4,18)         -167.7896         calculate D2E/DX2 analytically  !
 ! D17   D(3,4,5,6)            156.7686         calculate D2E/DX2 analytically  !
 ! D18   D(3,4,5,7)            -26.3232         calculate D2E/DX2 analytically  !
 ! D19   D(8,4,5,6)            -78.9439         calculate D2E/DX2 analytically  !
 ! D20   D(8,4,5,7)             97.9644         calculate D2E/DX2 analytically  !
 ! D21   D(18,4,5,6)            40.3419         calculate D2E/DX2 analytically  !
 ! D22   D(18,4,5,7)          -142.7499         calculate D2E/DX2 analytically  !
 ! D23   D(3,4,8,9)             47.6667         calculate D2E/DX2 analytically  !
 ! D24   D(3,4,8,20)           171.9589         calculate D2E/DX2 analytically  !
 ! D25   D(3,4,8,21)           -72.3392         calculate D2E/DX2 analytically  !
 ! D26   D(5,4,8,9)            -77.4741         calculate D2E/DX2 analytically  !
 ! D27   D(5,4,8,20)            46.8182         calculate D2E/DX2 analytically  !
 ! D28   D(5,4,8,21)           162.5201         calculate D2E/DX2 analytically  !
 ! D29   D(18,4,8,9)           164.0713         calculate D2E/DX2 analytically  !
 ! D30   D(18,4,8,20)          -71.6365         calculate D2E/DX2 analytically  !
 ! D31   D(18,4,8,21)           44.0654         calculate D2E/DX2 analytically  !
 ! D32   D(4,5,6,19)            -3.3164         calculate D2E/DX2 analytically  !
 ! D33   D(7,5,6,19)           179.6299         calculate D2E/DX2 analytically  !
 ! D34   D(4,8,9,10)          -143.0645         calculate D2E/DX2 analytically  !
 ! D35   D(4,8,9,13)            35.4293         calculate D2E/DX2 analytically  !
 ! D36   D(20,8,9,10)           93.8599         calculate D2E/DX2 analytically  !
 ! D37   D(20,8,9,13)          -87.6463         calculate D2E/DX2 analytically  !
 ! D38   D(21,8,9,10)          -22.7823         calculate D2E/DX2 analytically  !
 ! D39   D(21,8,9,13)          155.7115         calculate D2E/DX2 analytically  !
 ! D40   D(8,9,10,11)          179.0039         calculate D2E/DX2 analytically  !
 ! D41   D(8,9,10,22)           -0.8137         calculate D2E/DX2 analytically  !
 ! D42   D(13,9,10,11)           0.299          calculate D2E/DX2 analytically  !
 ! D43   D(13,9,10,22)        -179.5186         calculate D2E/DX2 analytically  !
 ! D44   D(8,9,13,12)         -179.4715         calculate D2E/DX2 analytically  !
 ! D45   D(8,9,13,24)            3.1788         calculate D2E/DX2 analytically  !
 ! D46   D(10,9,13,12)          -0.6475         calculate D2E/DX2 analytically  !
 ! D47   D(10,9,13,24)        -177.9972         calculate D2E/DX2 analytically  !
 ! D48   D(9,10,11,12)           0.1762         calculate D2E/DX2 analytically  !
 ! D49   D(22,10,11,12)       -179.9919         calculate D2E/DX2 analytically  !
 ! D50   D(10,11,12,13)         -0.6066         calculate D2E/DX2 analytically  !
 ! D51   D(10,11,12,23)       -179.9715         calculate D2E/DX2 analytically  !
 ! D52   D(11,12,13,9)           0.8136         calculate D2E/DX2 analytically  !
 ! D53   D(11,12,13,24)        178.1827         calculate D2E/DX2 analytically  !
 ! D54   D(23,12,13,9)        -179.7915         calculate D2E/DX2 analytically  !
 ! D55   D(23,12,13,24)         -2.4224         calculate D2E/DX2 analytically  !
 ! D56   D(2,14,15,16)         -61.657          calculate D2E/DX2 analytically  !
 ! D57   D(2,14,15,27)         176.7094         calculate D2E/DX2 analytically  !
 ! D58   D(2,14,15,28)          58.8408         calculate D2E/DX2 analytically  !
 ! D59   D(25,14,15,16)        175.6747         calculate D2E/DX2 analytically  !
 ! D60   D(25,14,15,27)         54.0411         calculate D2E/DX2 analytically  !
 ! D61   D(25,14,15,28)        -63.8274         calculate D2E/DX2 analytically  !
 ! D62   D(26,14,15,16)         57.2232         calculate D2E/DX2 analytically  !
 ! D63   D(26,14,15,27)        -64.4103         calculate D2E/DX2 analytically  !
 ! D64   D(26,14,15,28)        177.7211         calculate D2E/DX2 analytically  !
 ! D65   D(14,15,16,29)         45.9451         calculate D2E/DX2 analytically  !
 ! D66   D(14,15,16,30)        166.1675         calculate D2E/DX2 analytically  !
 ! D67   D(14,15,16,31)        -70.7928         calculate D2E/DX2 analytically  !
 ! D68   D(27,15,16,29)        167.6708         calculate D2E/DX2 analytically  !
 ! D69   D(27,15,16,30)        -72.1068         calculate D2E/DX2 analytically  !
 ! D70   D(27,15,16,31)         50.9329         calculate D2E/DX2 analytically  !
 ! D71   D(28,15,16,29)        -74.6919         calculate D2E/DX2 analytically  !
 ! D72   D(28,15,16,30)         45.5305         calculate D2E/DX2 analytically  !
 ! D73   D(28,15,16,31)        168.5702         calculate D2E/DX2 analytically  !
 --------------------------------------------------------------------------------
 Trust Radius=3.00D-01 FncErr=1.00D-07 GrdErr=1.00D-06
 Number of steps in this run=    167 maximum allowed number of steps=    186.
 GradGradGradGradGradGradGradGradGradGradGradGradGradGradGradGradGradGrad

                          Input orientation:                          
 ---------------------------------------------------------------------
 Center     Atomic      Atomic             Coordinates (Angstroms)
 Number     Number       Type             X           Y           Z
 ---------------------------------------------------------------------
      1          8           0       -2.088503    1.182001   -0.218250
      2          6           0       -1.467191    0.205474    0.199256
      3          7           0       -0.121320    0.207573    0.286237
      4          6           0        0.637831    1.294657   -0.291983
      5          6           0        0.980290    1.044701   -1.755619
      6          8           0        1.232437    2.149894   -2.483347
      7          8           0        1.085624   -0.047571   -2.256015
      8          6           0        1.915465    1.564801    0.527178
      9          6           0        2.701962    0.331315    0.856973
     10          6           0        3.404279   -0.011806    1.976126
     11          7           0        3.956873   -1.269812    1.840347
     12          6           0        3.589197   -1.671656    0.646407
     13          7           0        2.821779   -0.748170    0.015291
     14          6           0       -2.167146   -1.049439    0.696276
     15          6           0       -3.291419   -1.476156   -0.237902
     16          7           0       -4.330544   -0.423485   -0.320382
     17          1           0        0.381180   -0.637395    0.501180
     18          1           0       -0.009331    2.172793   -0.246272
     19          1           0        1.098213    2.935276   -1.943309
     20          1           0        2.533171    2.289324   -0.015180
     21          1           0        1.625897    2.037598    1.467968
     22          1           0        3.545970    0.568313    2.876746
     23          1           0        3.835878   -2.614765    0.191386
     24          1           0        2.445311   -0.827160   -0.922414
     25          1           0       -1.440857   -1.855343    0.816045
     26          1           0       -2.580910   -0.825509    1.683004
     27          1           0       -3.735367   -2.409192    0.113052
     28          1           0       -2.886078   -1.661376   -1.235420
     29          1           0       -3.838156    0.472280   -0.448030
     30          1           0       -4.976697   -0.569074   -1.095267
     31          1           0       -4.857675   -0.358075    0.549529
 ---------------------------------------------------------------------
                    Distance matrix (angstroms):
                    1          2          3          4          5
     1  O    0.000000
     2  C    1.230425   0.000000
     3  N    2.252516   1.348680   0.000000
     4  C    2.729657   2.420487   1.446514   0.000000
     5  C    3.435090   3.242838   2.466476   1.523806   0.000000
     6  O    4.134746   4.273771   3.643606   2.426327   1.347078
     7  O    3.967293   3.550951   2.825749   2.420644   1.206047
     8  C    4.090716   3.660281   2.459393   1.541541   2.521154
     9  C    4.982803   4.222590   2.883049   2.551228   3.209160
    10  C    6.034163   5.189961   3.915827   3.808464   4.573604
    11  N    6.840744   5.855776   4.607557   4.705249   5.210372
    12  C    6.413055   5.412081   4.174825   4.288374   4.467071
    13  N    5.281191   4.397561   3.106234   3.006192   3.121152
    14  C    2.412854   1.520451   2.435901   3.786732   4.505947
    15  C    2.917737   2.519285   3.627560   4.808258   5.187069
    16  N    2.759486   2.977315   4.299277   5.257145   5.693894
    17  H    3.150733   2.053792   1.006318   2.104234   2.877762
    18  H    2.303348   2.488814   2.039166   1.091802   2.128396
    19  H    4.025538   4.315518   3.728069   2.372858   1.903525
    20  H    4.756814   4.515674   3.386867   2.158308   2.643796
    21  H    4.167990   3.812283   2.792534   2.150735   3.434263
    22  H    6.457778   5.694944   4.504430   4.361845   5.316809
    23  H    7.048512   6.006359   4.861481   5.073926   5.033577
    24  H    5.008797   4.199066   3.019786   2.857715   2.518805
    25  H    3.273327   2.151299   2.505493   3.933341   4.570083
    26  H    2.808439   2.122452   3.011279   4.330817   5.291877
    27  H    3.964668   3.462446   4.465287   5.745208   6.136671
    28  H    3.123388   2.748939   3.667737   4.695333   4.747869
    29  H    1.902049   2.472174   3.797906   4.553584   5.025423
    30  H    3.489568   3.819993   5.107486   5.970066   6.206933
    31  H    3.260311   3.454802   4.777273   5.800022   6.431432
                    6          7          8          9         10
     6  O    0.000000
     7  O    2.214066   0.000000
     8  C    3.141993   3.321828   0.000000
     9  C    4.077311   3.528002   1.499610   0.000000
    10  C    5.410799   4.825812   2.608008   1.365095   0.000000
    11  N    6.149086   5.149575   3.731861   2.259520   1.380715
    12  C    5.473018   4.162882   3.645580   2.200777   2.134819
    13  N    4.143425   2.943451   2.536388   1.374071   2.174032
    14  C    5.648265   4.505582   4.850830   5.063647   5.809947
    15  C    6.217358   5.027140   6.078191   6.355023   7.202682
    16  N    6.499804   5.763927   6.609407   7.170218   8.079042
    17  H    4.171452   2.906245   2.684095   2.539885   3.421397
    18  H    2.558714   3.188732   2.161647   3.458222   4.622149
    19  H    0.962539   2.999219   2.940987   4.146589   5.418967
    20  H    2.793420   3.546522   1.095741   2.150103   3.165332
    21  H    3.972443   4.302078   1.092004   2.107755   2.760602
    22  H    6.048506   5.725195   3.028532   2.201818   1.080615
    23  H    6.052609   4.488224   4.611888   3.226168   3.185431
    24  H    3.573573   2.057912   2.846670   2.138727   3.160057
    25  H    5.837329   4.369061   4.800596   4.684666   5.312228
    26  H    6.383817   5.437328   5.221772   5.470769   6.047357
    27  H    7.225346   5.867852   6.920695   7.035837   7.758418
    28  H    5.748501   4.406858   6.047295   6.290876   7.252842
    29  H    5.715577   5.270926   5.937069   6.670536   7.652696
    30  H    6.919024   6.194435   7.395109   7.973941   8.943420
    31  H    7.251048   6.579535   7.040835   7.597229   8.391362
                   11         12         13         14         15
    11  N    0.000000
    12  C    1.312310   0.000000
    13  N    2.211646   1.356490   0.000000
    14  C    6.233865   5.790089   5.044193   0.000000
    15  C    7.543171   6.939965   6.161596   1.522749   0.000000
    16  N    8.606177   8.075575   7.167553   2.470972   1.481452
    17  H    3.870258   3.373746   2.490960   2.588785   3.838978
    18  H    5.651219   5.340980   4.076227   3.990907   4.907851
    19  H    6.338039   5.842555   4.513819   5.788603   6.452752
    20  H    4.258797   4.152379   3.051326   5.809173   6.939330
    21  H    4.063382   4.276456   3.361682   4.951008   6.279845
    22  H    2.149806   3.161288   3.231951   6.325446   7.786577
    23  H    2.131340   1.075802   2.131568   6.224263   7.230427
    24  H    3.180189   2.117274   1.013537   4.893295   5.813762
    25  H    5.525172   5.036265   4.476282   1.091478   2.163139
    26  H    6.554752   6.313535   5.654759   1.093151   2.148964
    27  H    7.965694   7.380899   6.764962   2.156014   1.091245
    28  H    7.512632   6.743187   5.914208   2.150065   1.092543
    29  H    8.308672   7.807678   6.786671   2.533247   2.034570
    30  H    9.429609   8.810429   7.879190   3.366593   2.097148
    31  H    8.955094   8.548949   7.707892   2.781809   2.079257
                   16         17         18         19         20
    16  N    0.000000
    17  H    4.787595   0.000000
    18  H    5.041729   2.933997   0.000000
    19  H    6.586847   4.387896   2.165172   0.000000
    20  H    7.386682   3.669247   2.555641   2.488782   0.000000
    21  H    6.688371   3.104768   2.372944   3.566663   1.756770
    22  H    8.558315   4.136779   4.996775   5.901436   3.514382
    23  H    8.470776   3.992606   6.156126   6.546348   5.078366
    24  H    6.814515   2.514611   3.934737   4.124660   3.247040
    25  H    3.419353   2.214127   4.404959   6.083661   5.801905
    26  H    2.690055   3.194695   4.396014   6.389804   6.224134
    27  H    2.117814   4.498430   5.916675   7.493694   7.834990
    28  H    2.110960   3.839179   4.894379   6.124123   6.816545
    29  H    1.030113   4.464883   4.194324   5.715763   6.639490
    30  H    1.019390   5.591078   5.737015   7.064288   8.107721
    31  H    1.019260   5.246519   5.526755   7.247965   7.870973
                   21         22         23         24         25
    21  H    0.000000
    22  H    2.798238   0.000000
    23  H    5.306426   4.174589   0.000000
    24  H    3.819974   4.194331   2.523838   0.000000
    25  H    4.998497   5.915153   5.367573   4.379692   0.000000
    26  H    5.093216   6.395813   6.826531   5.661370   1.764058
    27  H    7.095977   8.337950   7.574440   6.463420   2.462869
    28  H    6.430290   7.953155   6.937537   5.405331   2.516903
    29  H    5.998095   8.098684   8.296354   6.433938   3.572501
    30  H    7.547128   9.471345   9.137931   7.428505   4.220162
    31  H    6.972767   8.769001   8.988813   7.464601   3.739985
                   26         27         28         29         30
    26  H    0.000000
    27  H    2.511090   0.000000
    28  H    3.051066   1.760369   0.000000
    29  H    2.793963   2.937390   2.465547   0.000000
    30  H    3.677545   2.527246   2.362933   1.673202   0.000000
    31  H    2.585907   2.378481   2.961728   1.650464   1.662540
                   31
    31  H    0.000000
 Symmetry turned off by external request.
 Stoichiometry    C9H15N4O3(1+)
 Framework group  C1[X(C9H15N4O3)]
 Deg. of freedom    87
 Full point group                 C1      NOp   1
 Rotational constants (GHZ):      0.7862783      0.3062208      0.2589168
 Standard basis: 6-311G(d,p) (5D, 7F)
   378 basis functions,   632 primitive gaussians,   394 cartesian basis functions
    60 alpha electrons       60 beta electrons
       nuclear repulsion energy      1154.5710476958 Hartrees.
 NAtoms=   31 NActive=   31 NUniq=   31 SFac= 1.00D+00 NAtFMM=   60 NAOKFM=F Big=F
 Integral buffers will be    131072 words long.
 Raffenetti 2 integral format.
 Two-electron integral symmetry is turned off.
 One-electron integrals computed using PRISM.
 NBasis=   378 RedAO= T EigKep=  5.36D-04  NBF=   378
 NBsUse=   378 1.00D-06 EigRej= -1.00D+00 NBFU=   378
 ExpMin= 1.03D-01 ExpMax= 8.59D+03 ExpMxC= 1.30D+03 IAcc=3 IRadAn=         5 AccDes= 0.00D+00
 Harris functional with IExCor=  402 and IRadAn=       5 diagonalized for initial guess.
 HarFok:  IExCor=  402 AccDes= 0.00D+00 IRadAn=         5 IDoV= 1 UseB2=F ITyADJ=14
 ICtDFT=  3500011 ScaDFX=  1.000000  1.000000  1.000000  1.000000
 FoFCou: FMM=F IPFlag=           0 FMFlag=      100000 FMFlg1=           0
         NFxFlg=           0 DoJE=T BraDBF=F KetDBF=T FulRan=T
         wScrn=  0.000000 ICntrl=     500 IOpCl=  0 I1Cent=   200000004 NGrid=           0
         NMat0=    1 NMatS0=      1 NMatT0=    0 NMatD0=    1 NMtDS0=    0 NMtDT0=    0
 Symmetry not used in FoFCou.
 Requested convergence on RMS density matrix=1.00D-08 within 128 cycles.
 Requested convergence on MAX density matrix=1.00D-06.
 Requested convergence on             energy=1.00D-06.
 No special actions if energy rises.
 Integral accuracy reduced to 1.0D-05 until final iterations.
 Initial convergence to 1.0D-05 achieved.  Increase integral accuracy.
 SCF Done:  E(RB3LYP) =  -796.679774962     A.U. after   14 cycles
            NFock= 14  Conv=0.62D-08     -V/T= 2.0033
 DoSCS=F DFT=T ScalE2(SS,OS)=  1.000000  1.000000
 Range of M.O.s used for correlation:     1   378
 NBasis=   378 NAE=    60 NBE=    60 NFC=     0 NFV=     0
 NROrb=    378 NOA=    60 NOB=    60 NVA=   318 NVB=   318
 Symmetrizing basis deriv contribution to polar:
 IMax=3 JMax=2 DiffMx= 0.00D+00
 G2DrvN: will do    32 centers at a time, making    1 passes.
 Calling FoFCou, ICntrl=  3107 FMM=F I1Cent=   0 AccDes= 0.00D+00.
 End of G2Drv F.D. properties file   721 does not exist.
 End of G2Drv F.D. properties file   722 does not exist.
 End of G2Drv F.D. properties file   788 does not exist.
          IDoAtm=1111111111111111111111111111111
          Differentiating once with respect to nuclear coordinates.
          There are    96 degrees of freedom in the 1st order CPHF.  IDoFFX=6 NUNeed=     0.
     90 vectors produced by pass  0 Test12= 1.99D-14 1.04D-09 XBig12= 1.97D-01 9.36D-02.
 AX will form    90 AO Fock derivatives at one time.
     90 vectors produced by pass  1 Test12= 1.99D-14 1.04D-09 XBig12= 2.59D-02 2.67D-02.
     90 vectors produced by pass  2 Test12= 1.99D-14 1.04D-09 XBig12= 2.71D-04 2.71D-03.
     90 vectors produced by pass  3 Test12= 1.99D-14 1.04D-09 XBig12= 1.05D-06 1.25D-04.
     90 vectors produced by pass  4 Test12= 1.99D-14 1.04D-09 XBig12= 1.99D-09 3.69D-06.
     81 vectors produced by pass  5 Test12= 1.99D-14 1.04D-09 XBig12= 2.78D-12 1.55D-07.
     24 vectors produced by pass  6 Test12= 1.99D-14 1.04D-09 XBig12= 2.72D-15 6.08D-09.
      1 vectors produced by pass  7 Test12= 1.99D-14 1.04D-09 XBig12= 1.37D-16 1.05D-09.
 InvSVY:  IOpt=1 It=  1 EMax= 7.22D-16
 Solved reduced A of dimension   556 with    96 vectors.
 End of Minotr F.D. properties file   721 does not exist.
 End of Minotr F.D. properties file   722 does not exist.
 End of Minotr F.D. properties file   788 does not exist.

 **********************************************************************

            Population analysis using the SCF density.

 **********************************************************************

 Alpha  occ. eigenvalues --  -19.29262 -19.26051 -19.23630 -14.62013 -14.49657
 Alpha  occ. eigenvalues --  -14.45663 -14.37355 -10.44337 -10.43431 -10.42082
 Alpha  occ. eigenvalues --  -10.36767 -10.36683 -10.31466 -10.30750 -10.30005
 Alpha  occ. eigenvalues --  -10.26941  -1.23693  -1.21966  -1.19632  -1.15603
 Alpha  occ. eigenvalues --   -1.11316  -1.09168  -0.97928  -0.96377  -0.92914
 Alpha  occ. eigenvalues --   -0.86656  -0.84301  -0.78836  -0.78227  -0.78159
 Alpha  occ. eigenvalues --   -0.75702  -0.74490  -0.71305  -0.70018  -0.69352
 Alpha  occ. eigenvalues --   -0.68548  -0.66121  -0.65107  -0.62276  -0.61276
 Alpha  occ. eigenvalues --   -0.59608  -0.58844  -0.58154  -0.57607  -0.56699
 Alpha  occ. eigenvalues --   -0.55399  -0.55017  -0.53998  -0.52437  -0.51291
 Alpha  occ. eigenvalues --   -0.50466  -0.50044  -0.49551  -0.45069  -0.44040
 Alpha  occ. eigenvalues --   -0.43076  -0.40531  -0.37451  -0.35438  -0.32336
 Alpha virt. eigenvalues --   -0.17142  -0.15183  -0.13276  -0.11731  -0.10671
 Alpha virt. eigenvalues --   -0.09605  -0.08357  -0.06936  -0.06297  -0.05985
 Alpha virt. eigenvalues --   -0.04320  -0.03781  -0.02905  -0.02521  -0.01500
 Alpha virt. eigenvalues --   -0.00737   0.00109   0.00584   0.01659   0.02773
 Alpha virt. eigenvalues --    0.03466   0.04982   0.06070   0.06452   0.08842
 Alpha virt. eigenvalues --    0.09905   0.10791   0.10938   0.12260   0.13221
 Alpha virt. eigenvalues --    0.13915   0.14711   0.16319   0.16854   0.18715
 Alpha virt. eigenvalues --    0.19709   0.20663   0.23170   0.23646   0.24666
 Alpha virt. eigenvalues --    0.25297   0.25416   0.25732   0.27599   0.28952
 Alpha virt. eigenvalues --    0.29192   0.29698   0.30483   0.32497   0.33308
 Alpha virt. eigenvalues --    0.34085   0.34629   0.35427   0.37051   0.37899
 Alpha virt. eigenvalues --    0.38237   0.38701   0.38928   0.39484   0.40466
 Alpha virt. eigenvalues --    0.41723   0.42213   0.43140   0.44650   0.45091
 Alpha virt. eigenvalues --    0.45772   0.47030   0.47201   0.47610   0.48000
 Alpha virt. eigenvalues --    0.48573   0.49117   0.51312   0.51752   0.52730
 Alpha virt. eigenvalues --    0.53176   0.53790   0.54953   0.55445   0.57163
 Alpha virt. eigenvalues --    0.58138   0.60566   0.61964   0.63179   0.63836
 Alpha virt. eigenvalues --    0.64446   0.66617   0.69236   0.69667   0.70442
 Alpha virt. eigenvalues --    0.70761   0.72376   0.73626   0.76507   0.76647
 Alpha virt. eigenvalues --    0.78765   0.79607   0.80916   0.83440   0.84561
 Alpha virt. eigenvalues --    0.86046   0.88672   0.89816   0.90589   0.92137
 Alpha virt. eigenvalues --    0.92561   0.95858   0.97550   0.99712   1.00987
 Alpha virt. eigenvalues --    1.01592   1.03156   1.04933   1.07495   1.08118
 Alpha virt. eigenvalues --    1.10582   1.11168   1.12131   1.12656   1.13741
 Alpha virt. eigenvalues --    1.16821   1.17708   1.19169   1.20516   1.23432
 Alpha virt. eigenvalues --    1.23509   1.24766   1.26500   1.27370   1.28392
 Alpha virt. eigenvalues --    1.30252   1.30940   1.32982   1.33580   1.35460
 Alpha virt. eigenvalues --    1.36668   1.39282   1.40423   1.41177   1.43102
 Alpha virt. eigenvalues --    1.43226   1.45223   1.46181   1.47516   1.48029
 Alpha virt. eigenvalues --    1.48544   1.49293   1.49554   1.50642   1.51640
 Alpha virt. eigenvalues --    1.52222   1.52576   1.54795   1.56022   1.56943
 Alpha virt. eigenvalues --    1.58941   1.59101   1.59910   1.60803   1.61446
 Alpha virt. eigenvalues --    1.62826   1.64176   1.65543   1.65826   1.67176
 Alpha virt. eigenvalues --    1.68147   1.70460   1.71267   1.74042   1.75760
 Alpha virt. eigenvalues --    1.76993   1.78978   1.79297   1.81093   1.83826
 Alpha virt. eigenvalues --    1.84989   1.87888   1.89074   1.89930   1.92092
 Alpha virt. eigenvalues --    1.94166   1.94725   1.97762   1.99337   2.01037
 Alpha virt. eigenvalues --    2.01422   2.02579   2.06473   2.07292   2.08053
 Alpha virt. eigenvalues --    2.09907   2.13855   2.15385   2.15770   2.16849
 Alpha virt. eigenvalues --    2.18125   2.18968   2.22334   2.23760   2.24952
 Alpha virt. eigenvalues --    2.28715   2.28894   2.31776   2.35095   2.36142
 Alpha virt. eigenvalues --    2.36918   2.38508   2.39619   2.39930   2.41370
 Alpha virt. eigenvalues --    2.43912   2.44814   2.46088   2.47246   2.47683
 Alpha virt. eigenvalues --    2.48337   2.49246   2.50342   2.51336   2.53197
 Alpha virt. eigenvalues --    2.54604   2.54817   2.55165   2.58168   2.58630
 Alpha virt. eigenvalues --    2.60410   2.61509   2.62455   2.63971   2.68155
 Alpha virt. eigenvalues --    2.69672   2.71323   2.71466   2.73187   2.73578
 Alpha virt. eigenvalues --    2.75689   2.76603   2.77322   2.77686   2.78553
 Alpha virt. eigenvalues --    2.80497   2.80950   2.85394   2.85888   2.87828
 Alpha virt. eigenvalues --    2.88595   2.92480   2.93062   2.96149   2.97184
 Alpha virt. eigenvalues --    3.00229   3.05342   3.05743   3.08109   3.13829
 Alpha virt. eigenvalues --    3.16818   3.19475   3.21777   3.23128   3.24354
 Alpha virt. eigenvalues --    3.29886   3.37171   3.39468   3.41760   3.45551
 Alpha virt. eigenvalues --    3.48831   3.52251   3.56389   3.58562   3.58898
 Alpha virt. eigenvalues --    3.63495   3.65171   3.67743   3.71280   3.72894
 Alpha virt. eigenvalues --    3.73861   3.75659   3.77848   3.80777   3.91152
 Alpha virt. eigenvalues --    3.95463   4.03175   4.05423   4.20902   4.33224
 Alpha virt. eigenvalues --    4.45480   4.47678   4.58700   4.66855   4.69156
 Alpha virt. eigenvalues --    4.71236   4.76993   4.80640   4.81672   4.88385
 Alpha virt. eigenvalues --    4.94689   5.02296   5.15890   5.16558   5.40791
 Alpha virt. eigenvalues --    5.53023   5.67828  23.59015  23.61298  23.62991
 Alpha virt. eigenvalues --   23.65708  23.67267  23.70265  23.80137  23.83872
 Alpha virt. eigenvalues --   24.05842  35.30469  35.43250  35.44912  35.60356
 Alpha virt. eigenvalues --   49.72739  49.84124  49.89016
          Condensed to atoms (all electrons):
               1          2          3          4          5          6
     1  O    7.976794   0.552752  -0.094511  -0.009179   0.002138  -0.000066
     2  C    0.552752   4.548344   0.400160  -0.083912   0.000332  -0.000034
     3  N   -0.094511   0.400160   6.652485   0.203352  -0.047039   0.003646
     4  C   -0.009179  -0.083912   0.203352   5.535218   0.251534  -0.093015
     5  C    0.002138   0.000332  -0.047039   0.251534   4.539759   0.353644
     6  O   -0.000066  -0.000034   0.003646  -0.093015   0.353644   7.740256
     7  O   -0.000132   0.004863   0.006450  -0.103726   0.613165  -0.068436
     8  C    0.000195   0.007976  -0.042173   0.314695  -0.069042   0.003814
     9  C   -0.000062  -0.000638  -0.007452  -0.067372  -0.006403  -0.001457
    10  C    0.000000  -0.000048   0.000270  -0.000211  -0.000144  -0.000024
    11  N    0.000000  -0.000002   0.000007  -0.000259  -0.000009   0.000000
    12  C    0.000000  -0.000037  -0.000066  -0.000085   0.000281   0.000000
    13  N   -0.000001   0.000033  -0.006616   0.002002  -0.000973   0.000132
    14  C   -0.082284   0.298389  -0.065120   0.008746  -0.001075  -0.000003
    15  C    0.009572  -0.057564  -0.001438  -0.000272   0.000188  -0.000001
    16  N   -0.032560  -0.003318  -0.000110  -0.000004  -0.000004   0.000000
    17  H    0.002181  -0.022969   0.362665  -0.035478  -0.000757   0.000227
    18  H    0.025831  -0.012913  -0.027935   0.388085  -0.034152   0.002839
    19  H   -0.000252  -0.000160   0.000173   0.009398  -0.035418   0.310465
    20  H   -0.000017   0.000098   0.005932  -0.054754  -0.004316   0.007178
    21  H   -0.000079   0.000027   0.003072  -0.029850   0.006253  -0.000201
    22  H    0.000000  -0.000003   0.000016  -0.000075   0.000003   0.000000
    23  H    0.000000  -0.000001  -0.000005   0.000014   0.000024   0.000000
    24  H    0.000000   0.000144   0.001709  -0.000437  -0.005830   0.000279
    25  H    0.003118  -0.024042   0.003031  -0.000215  -0.000018   0.000001
    26  H    0.001989  -0.034118  -0.001211  -0.000495  -0.000028   0.000000
    27  H    0.000045   0.006707  -0.000238   0.000021   0.000000   0.000000
    28  H    0.000887  -0.004518   0.000769  -0.000222   0.000109   0.000001
    29  H    0.073807  -0.004112   0.002292   0.000118  -0.000011   0.000001
    30  H    0.000410  -0.000169   0.000004  -0.000002   0.000001   0.000000
    31  H    0.001581  -0.000186   0.000038  -0.000006   0.000000   0.000000
               7          8          9         10         11         12
     1  O   -0.000132   0.000195  -0.000062   0.000000   0.000000   0.000000
     2  C    0.004863   0.007976  -0.000638  -0.000048  -0.000002  -0.000037
     3  N    0.006450  -0.042173  -0.007452   0.000270   0.000007  -0.000066
     4  C   -0.103726   0.314695  -0.067372  -0.000211  -0.000259  -0.000085
     5  C    0.613165  -0.069042  -0.006403  -0.000144  -0.000009   0.000281
     6  O   -0.068436   0.003814  -0.001457  -0.000024   0.000000   0.000000
     7  O    7.847500  -0.001953   0.002581   0.000162  -0.000008   0.000047
     8  C   -0.001953   4.907419   0.272817  -0.019838   0.006662   0.006622
     9  C    0.002581   0.272817   5.275722   0.532104  -0.093350  -0.134201
    10  C    0.000162  -0.019838   0.532104   4.843777   0.509449  -0.169323
    11  N   -0.000008   0.006662  -0.093350   0.509449   6.405964   0.579206
    12  C    0.000047   0.006622  -0.134201  -0.169323   0.579206   4.744640
    13  N   -0.012295  -0.057327   0.361891  -0.077844  -0.087318   0.414445
    14  C   -0.000145  -0.000102  -0.000056  -0.000008   0.000000  -0.000005
    15  C   -0.000006  -0.000004   0.000000   0.000000   0.000000   0.000000
    16  N    0.000000   0.000000   0.000000   0.000000   0.000000   0.000000
    17  H    0.006520  -0.010704   0.005623  -0.001852  -0.000632   0.000665
    18  H    0.003373  -0.028126   0.007146   0.000216   0.000006   0.000038
    19  H    0.004005  -0.000946   0.000038  -0.000002   0.000000   0.000003
    20  H   -0.000637   0.407717  -0.038648  -0.007759   0.000029   0.000274
    21  H   -0.000341   0.410636  -0.040957  -0.003251   0.000189  -0.000202
    22  H    0.000003   0.000497  -0.056285   0.428348  -0.023470   0.008128
    23  H   -0.000072  -0.000372   0.004349   0.006116  -0.021971   0.416877
    24  H    0.035707  -0.000096  -0.033423   0.008397   0.004757  -0.018510
    25  H   -0.000025  -0.000023  -0.000020   0.000030   0.000007   0.000034
    26  H    0.000002   0.000056   0.000001   0.000004   0.000000  -0.000001
    27  H    0.000000   0.000000   0.000000   0.000000   0.000000   0.000000
    28  H    0.000240   0.000008  -0.000003   0.000000   0.000000   0.000000
    29  H    0.000001   0.000002   0.000001   0.000000   0.000000   0.000000
    30  H    0.000000   0.000000   0.000000   0.000000   0.000000   0.000000
    31  H    0.000000   0.000000   0.000000   0.000000   0.000000   0.000000
              13         14         15         16         17         18
     1  O   -0.000001  -0.082284   0.009572  -0.032560   0.002181   0.025831
     2  C    0.000033   0.298389  -0.057564  -0.003318  -0.022969  -0.012913
     3  N   -0.006616  -0.065120  -0.001438  -0.000110   0.362665  -0.027935
     4  C    0.002002   0.008746  -0.000272  -0.000004  -0.035478   0.388085
     5  C   -0.000973  -0.001075   0.000188  -0.000004  -0.000757  -0.034152
     6  O    0.000132  -0.000003  -0.000001   0.000000   0.000227   0.002839
     7  O   -0.012295  -0.000145  -0.000006   0.000000   0.006520   0.003373
     8  C   -0.057327  -0.000102  -0.000004   0.000000  -0.010704  -0.028126
     9  C    0.361891  -0.000056   0.000000   0.000000   0.005623   0.007146
    10  C   -0.077844  -0.000008   0.000000   0.000000  -0.001852   0.000216
    11  N   -0.087318   0.000000   0.000000   0.000000  -0.000632   0.000006
    12  C    0.414445  -0.000005   0.000000   0.000000   0.000665   0.000038
    13  N    6.520294  -0.000035   0.000000   0.000000   0.016733  -0.000102
    14  C   -0.000035   5.139291   0.310053  -0.037645  -0.004087   0.002984
    15  C    0.000000   0.310053   5.008579   0.223608   0.000264  -0.000258
    16  N    0.000000  -0.037645   0.223608   6.165411   0.000016   0.000041
    17  H    0.016733  -0.004087   0.000264   0.000016   0.417465   0.005659
    18  H   -0.000102   0.002984  -0.000258   0.000041   0.005659   0.500619
    19  H    0.000008  -0.000010   0.000001   0.000000  -0.000066   0.001849
    20  H    0.001136   0.000026   0.000000   0.000000   0.000601  -0.001547
    21  H    0.003576  -0.000021   0.000008   0.000000  -0.001158  -0.013001
    22  H    0.003962   0.000000   0.000000   0.000000   0.000047   0.000016
    23  H   -0.037192   0.000000   0.000000   0.000000  -0.000016  -0.000001
    24  H    0.338299   0.000019  -0.000010   0.000000   0.000401   0.000346
    25  H   -0.000085   0.391435  -0.027690   0.003770   0.003116  -0.000212
    26  H   -0.000003   0.401908  -0.044502  -0.002137   0.000188   0.000013
    27  H    0.000000  -0.035782   0.420102  -0.024999  -0.000034   0.000002
    28  H    0.000000  -0.029775   0.397689  -0.023187   0.000140  -0.000021
    29  H    0.000000  -0.015982  -0.027601   0.317677  -0.000153  -0.000068
    30  H    0.000000   0.005624  -0.022258   0.356807   0.000001  -0.000005
    31  H    0.000000  -0.000968  -0.029386   0.357079   0.000004  -0.000008
              19         20         21         22         23         24
     1  O   -0.000252  -0.000017  -0.000079   0.000000   0.000000   0.000000
     2  C   -0.000160   0.000098   0.000027  -0.000003  -0.000001   0.000144
     3  N    0.000173   0.005932   0.003072   0.000016  -0.000005   0.001709
     4  C    0.009398  -0.054754  -0.029850  -0.000075   0.000014  -0.000437
     5  C   -0.035418  -0.004316   0.006253   0.000003   0.000024  -0.005830
     6  O    0.310465   0.007178  -0.000201   0.000000   0.000000   0.000279
     7  O    0.004005  -0.000637  -0.000341   0.000003  -0.000072   0.035707
     8  C   -0.000946   0.407717   0.410636   0.000497  -0.000372  -0.000096
     9  C    0.000038  -0.038648  -0.040957  -0.056285   0.004349  -0.033423
    10  C   -0.000002  -0.007759  -0.003251   0.428348   0.006116   0.008397
    11  N    0.000000   0.000029   0.000189  -0.023470  -0.021971   0.004757
    12  C    0.000003   0.000274  -0.000202   0.008128   0.416877  -0.018510
    13  N    0.000008   0.001136   0.003576   0.003962  -0.037192   0.338299
    14  C   -0.000010   0.000026  -0.000021   0.000000   0.000000   0.000019
    15  C    0.000001   0.000000   0.000008   0.000000   0.000000  -0.000010
    16  N    0.000000   0.000000   0.000000   0.000000   0.000000   0.000000
    17  H   -0.000066   0.000601  -0.001158   0.000047  -0.000016   0.000401
    18  H    0.001849  -0.001547  -0.013001   0.000016  -0.000001   0.000346
    19  H    0.446473   0.003597  -0.000240  -0.000001   0.000000  -0.000211
    20  H    0.003597   0.547817  -0.018959  -0.000079   0.000003  -0.000185
    21  H   -0.000240  -0.018959   0.528547   0.001585   0.000017  -0.000159
    22  H   -0.000001  -0.000079   0.001585   0.525784  -0.000331  -0.000227
    23  H    0.000000   0.000003   0.000017  -0.000331   0.510112  -0.002708
    24  H   -0.000211  -0.000185  -0.000159  -0.000227  -0.002708   0.424150
    25  H    0.000001  -0.000003  -0.000002   0.000000   0.000002  -0.000005
    26  H    0.000000  -0.000002  -0.000027   0.000000   0.000000   0.000002
    27  H    0.000000   0.000000   0.000000   0.000000   0.000000   0.000000
    28  H   -0.000001   0.000000  -0.000001   0.000000   0.000000   0.000003
    29  H    0.000000   0.000000  -0.000002   0.000000   0.000000   0.000000
    30  H    0.000000   0.000000   0.000000   0.000000   0.000000   0.000000
    31  H    0.000000   0.000000   0.000000   0.000000   0.000000   0.000000
              25         26         27         28         29         30
     1  O    0.003118   0.001989   0.000045   0.000887   0.073807   0.000410
     2  C   -0.024042  -0.034118   0.006707  -0.004518  -0.004112  -0.000169
     3  N    0.003031  -0.001211  -0.000238   0.000769   0.002292   0.000004
     4  C   -0.000215  -0.000495   0.000021  -0.000222   0.000118  -0.000002
     5  C   -0.000018  -0.000028   0.000000   0.000109  -0.000011   0.000001
     6  O    0.000001   0.000000   0.000000   0.000001   0.000001   0.000000
     7  O   -0.000025   0.000002   0.000000   0.000240   0.000001   0.000000
     8  C   -0.000023   0.000056   0.000000   0.000008   0.000002   0.000000
     9  C   -0.000020   0.000001   0.000000  -0.000003   0.000001   0.000000
    10  C    0.000030   0.000004   0.000000   0.000000   0.000000   0.000000
    11  N    0.000007   0.000000   0.000000   0.000000   0.000000   0.000000
    12  C    0.000034  -0.000001   0.000000   0.000000   0.000000   0.000000
    13  N   -0.000085  -0.000003   0.000000   0.000000   0.000000   0.000000
    14  C    0.391435   0.401908  -0.035782  -0.029775  -0.015982   0.005624
    15  C   -0.027690  -0.044502   0.420102   0.397689  -0.027601  -0.022258
    16  N    0.003770  -0.002137  -0.024999  -0.023187   0.317677   0.356807
    17  H    0.003116   0.000188  -0.000034   0.000140  -0.000153   0.000001
    18  H   -0.000212   0.000013   0.000002  -0.000021  -0.000068  -0.000005
    19  H    0.000001   0.000000   0.000000  -0.000001   0.000000   0.000000
    20  H   -0.000003  -0.000002   0.000000   0.000000   0.000000   0.000000
    21  H   -0.000002  -0.000027   0.000000  -0.000001  -0.000002   0.000000
    22  H    0.000000   0.000000   0.000000   0.000000   0.000000   0.000000
    23  H    0.000002   0.000000   0.000000   0.000000   0.000000   0.000000
    24  H   -0.000005   0.000002   0.000000   0.000003   0.000000   0.000000
    25  H    0.485098  -0.009049  -0.004452  -0.001266   0.000185  -0.000173
    26  H   -0.009049   0.501217  -0.004873   0.006325   0.001464  -0.000249
    27  H   -0.004452  -0.004873   0.466625  -0.018560   0.003882  -0.001253
    28  H   -0.001266   0.006325  -0.018560   0.474030  -0.000734  -0.005369
    29  H    0.000185   0.001464   0.003882  -0.000734   0.369000  -0.009293
    30  H   -0.000173  -0.000249  -0.001253  -0.005369  -0.009293   0.385780
    31  H    0.000097   0.004620  -0.005799   0.005223  -0.011595  -0.014904
              31
     1  O    0.001581
     2  C   -0.000186
     3  N    0.000038
     4  C   -0.000006
     5  C    0.000000
     6  O    0.000000
     7  O    0.000000
     8  C    0.000000
     9  C    0.000000
    10  C    0.000000
    11  N    0.000000
    12  C    0.000000
    13  N    0.000000
    14  C   -0.000968
    15  C   -0.029386
    16  N    0.357079
    17  H    0.000004
    18  H   -0.000008
    19  H    0.000000
    20  H    0.000000
    21  H    0.000000
    22  H    0.000000
    23  H    0.000000
    24  H    0.000000
    25  H    0.000097
    26  H    0.004620
    27  H   -0.005799
    28  H    0.005223
    29  H   -0.011595
    30  H   -0.014904
    31  H    0.399382
 Mulliken charges:
               1
     1  O   -0.432156
     2  C    0.428917
     3  N   -0.352155
     4  C   -0.233614
     5  C    0.437788
     6  O   -0.259246
     7  O   -0.336845
     8  C   -0.108410
     9  C    0.018053
    10  C   -0.048567
    11  N   -0.279257
    12  C    0.151170
    13  N   -0.382721
    14  C   -0.285373
    15  C   -0.159073
    16  N   -0.300445
    17  H    0.255389
    18  H    0.179287
    19  H    0.261295
    20  H    0.152499
    21  H    0.154541
    22  H    0.112082
    23  H    0.125155
    24  H    0.247589
    25  H    0.177355
    26  H    0.178905
    27  H    0.198607
    28  H    0.198231
    29  H    0.301122
    30  H    0.305050
    31  H    0.294827
 Sum of Mulliken charges =   1.00000
 Mulliken charges with hydrogens summed into heavy atoms:
               1
     1  O   -0.432156
     2  C    0.428917
     3  N   -0.096766
     4  C   -0.054327
     5  C    0.437788
     6  O    0.002050
     7  O   -0.336845
     8  C    0.198630
     9  C    0.018053
    10  C    0.063515
    11  N   -0.279257
    12  C    0.276325
    13  N   -0.135132
    14  C    0.070887
    15  C    0.237765
    16  N    0.600554
 APT charges:
               1
     1  O   -0.117861
     2  C    0.070065
     3  N   -0.377224
     4  C   -0.502357
     5  C   -0.217603
     6  O   -0.043559
     7  O   -0.134408
     8  C   -0.991944
     9  C   -0.279341
    10  C   -0.570816
    11  N    0.572255
    12  C   -0.697220
    13  N   -0.575608
    14  C   -0.626817
    15  C   -0.706017
    16  N   -1.225319
    17  H    0.367603
    18  H    0.427833
    19  H    0.535737
    20  H    0.592267
    21  H    0.396308
    22  H    0.682099
    23  H    0.685588
    24  H    0.208277
    25  H    0.198041
    26  H    0.508053
    27  H    0.741796
    28  H    0.159885
    29  H    0.054144
    30  H    1.052868
    31  H    0.813272
 Sum of APT charges =   1.00000
 APT charges with hydrogens summed into heavy atoms:
               1
     1  O   -0.117861
     2  C    0.070065
     3  N   -0.009621
     4  C   -0.074523
     5  C   -0.217603
     6  O    0.492179
     7  O   -0.134408
     8  C   -0.003369
     9  C   -0.279341
    10  C    0.111283
    11  N    0.572255
    12  C   -0.011632
    13  N   -0.367331
    14  C    0.079277
    15  C    0.195665
    16  N    0.694965
 Electronic spatial extent (au):  <R**2>=           4391.4490
 Charge=              1.0000 electrons
 Dipole moment (field-independent basis, Debye):
    X=            -16.3117    Y=             -0.6910    Z=             -0.3978  Tot=             16.3312
 Quadrupole moment (field-independent basis, Debye-Ang):
   XX=            -26.6651   YY=            -75.0265   ZZ=            -98.9818
   XY=             21.5441   XZ=             -2.9435   YZ=              3.3922
 Traceless Quadrupole moment (field-independent basis, Debye-Ang):
   XX=             40.2260   YY=             -8.1353   ZZ=            -32.0907
   XY=             21.5441   XZ=             -2.9435   YZ=              3.3922
 Octapole moment (field-independent basis, Debye-Ang**2):
  XXX=           -537.7568  YYY=             -0.9674  ZZZ=             23.2830  XYY=            -40.0971
  XXY=            -40.1042  XXZ=            -55.6824  XZZ=            -86.5947  YZZ=              5.3132
  YYZ=            -16.8411  XYZ=             18.5954
 Hexadecapole moment (field-independent basis, Debye-Ang**3):
 XXXX=          -2448.9941 YYYY=           -713.6977 ZZZZ=          -1010.8558 XXXY=            218.5027
 XXXZ=           -300.7749 YYYX=              3.7340 YYYZ=            133.0068 ZZZX=           -209.9729
 ZZZY=            222.0884 XXYY=           -705.9997 XXZZ=           -795.4127 YYZZ=           -304.9599
 XXYZ=            163.8649 YYXZ=           -114.8863 ZZXY=             44.4608
 N-N= 1.154571047696D+03 E-N=-4.154581403930D+03  KE= 7.940568153083D+02
  Exact polarizability:   0.000   0.000   0.000   0.000   0.000   0.000
 Approx polarizability: 178.206 -21.075 205.213  19.727   0.265 177.846
 Calling FoFJK, ICntrl=    100147 FMM=F ISym2X=0 I1Cent= 0 IOpClX= 0 NMat=1 NMatS=1 NMatT=0.
 -------------------------------------------------------------------
 Center     Atomic                   Forces (Hartrees/Bohr)
 Number     Number              X              Y              Z
 -------------------------------------------------------------------
      1        8          -0.017643967   -0.001842219   -0.004962663
      2        6           0.015595850   -0.001372591    0.004780870
      3        7          -0.009084074   -0.000308138   -0.006893354
      4        6           0.000252793    0.008737629    0.007115882
      5        6           0.003345387   -0.002145737   -0.015660929
      6        8          -0.001458551   -0.006016149    0.004563802
      7        8          -0.003120951    0.001873426    0.004389631
      8        6           0.005928950    0.000279645    0.003608386
      9        6          -0.006104716    0.010497294    0.001020509
     10        6           0.004786669   -0.006276723    0.007610319
     11        7          -0.001190872    0.004144547   -0.001124697
     12        6           0.005251886   -0.005142325    0.007352997
     13        7          -0.002609240   -0.005005559   -0.013210195
     14        6           0.001798788    0.005447823    0.003633815
     15        6           0.016582905   -0.020774848   -0.000991370
     16        7          -0.007223672    0.002967125   -0.001223906
     17        1           0.001630505   -0.003265395    0.002771511
     18        1           0.000523456    0.000561057    0.000356627
     19        1          -0.000163075    0.005539446   -0.001116062
     20        1          -0.000361745    0.000921723   -0.000479553
     21        1           0.000302758    0.000931334   -0.000429981
     22        1          -0.000277151   -0.000345641   -0.000622252
     23        1           0.001260274   -0.002463239   -0.000702377
     24        1           0.001489449    0.000320733   -0.000132181
     25        1          -0.004507731   -0.002839251   -0.000149186
     26        1           0.001389228   -0.001061295    0.003478481
     27        1          -0.003338449    0.002118824   -0.000902429
     28        1          -0.004470541    0.003249069   -0.001407360
     29        1           0.008934823    0.011912414   -0.001543457
     30        1          -0.003323400   -0.000863553   -0.000854085
     31        1          -0.004195589    0.000220576    0.001723205
 -------------------------------------------------------------------
 Cartesian Forces:  Max     0.020774848 RMS     0.005774976
 FormGI is forming the generalized inverse of G from B-inverse, IUseBI=4.
 GSVD:  received Info=                   1 from GESDD.

 GradGradGradGradGradGradGradGradGradGradGradGradGradGradGradGradGradGrad
 Berny optimization.
 Internal  Forces:  Max     0.021606297 RMS     0.004674185
 Search for a local minimum.
 Step number   1 out of a maximum of  167
 All quantities printed in internal units (Hartrees-Bohrs-Radians)
 Mixed Optimization -- RFO/linear search
 Second derivative matrix not updated -- analytic derivatives used.
 ITU=  0
     Eigenvalues ---   -0.00134   0.00114   0.00273   0.00306   0.00355
     Eigenvalues ---    0.00561   0.00693   0.00873   0.01061   0.01124
     Eigenvalues ---    0.01634   0.01915   0.02102   0.02765   0.03420
     Eigenvalues ---    0.03878   0.03984   0.04190   0.04254   0.04400
     Eigenvalues ---    0.04727   0.05038   0.05082   0.05297   0.05508
     Eigenvalues ---    0.05698   0.05858   0.05950   0.06178   0.07728
     Eigenvalues ---    0.08133   0.08160   0.10628   0.10983   0.11296
     Eigenvalues ---    0.11687   0.12185   0.12608   0.12965   0.13247
     Eigenvalues ---    0.14815   0.15406   0.16072   0.16888   0.17936
     Eigenvalues ---    0.20338   0.21365   0.22008   0.22306   0.22644
     Eigenvalues ---    0.23092   0.23497   0.24585   0.24795   0.26027
     Eigenvalues ---    0.27011   0.29182   0.31741   0.32150   0.32347
     Eigenvalues ---    0.32778   0.33549   0.33633   0.33928   0.33989
     Eigenvalues ---    0.34205   0.34571   0.34691   0.36690   0.36828
     Eigenvalues ---    0.37613   0.39616   0.41051   0.41809   0.43824
     Eigenvalues ---    0.44276   0.44430   0.45154   0.45973   0.47562
     Eigenvalues ---    0.48025   0.53221   0.54158   0.55827   0.58155
     Eigenvalues ---    0.79086   0.86844
 RFO step:  Lambda=-1.37012586D-02 EMin=-1.33513058D-03
 Linear search not attempted -- first point.
 Iteration  1 RMS(Cart)=  0.16213412 RMS(Int)=  0.04322936
 Iteration  2 RMS(Cart)=  0.16163596 RMS(Int)=  0.00721230
 Iteration  3 RMS(Cart)=  0.02453794 RMS(Int)=  0.00033529
 Iteration  4 RMS(Cart)=  0.00022491 RMS(Int)=  0.00032700
 Iteration  5 RMS(Cart)=  0.00000005 RMS(Int)=  0.00032700
 Variable       Old X    -DE/DX   Delta X   Delta X   Delta X     New X
                                 (Linear)    (Quad)   (Total)
    R1        2.32517   0.00913   0.00000   0.02593   0.02593   2.35110
    R2        2.54864   0.00030   0.00000  -0.02787  -0.02787   2.52077
    R3        2.87324  -0.00049   0.00000   0.00677   0.00677   2.88001
    R4        2.73352   0.00792   0.00000   0.01751   0.01751   2.75103
    R5        1.90167   0.00415   0.00000   0.01130   0.01130   1.91297
    R6        2.87958   0.00732   0.00000   0.03534   0.03534   2.91492
    R7        2.91309   0.00819   0.00000   0.01166   0.01166   2.92475
    R8        2.06321   0.00016   0.00000   0.00256   0.00256   2.06577
    R9        2.54561  -0.00256   0.00000  -0.01692  -0.01692   2.52868
   R10        2.27910  -0.00379   0.00000  -0.00541  -0.00541   2.27369
   R11        1.81893   0.00392   0.00000   0.00699   0.00699   1.82593
   R12        2.83385   0.00492   0.00000   0.00308   0.00308   2.83693
   R13        2.07065   0.00064   0.00000   0.00119   0.00119   2.07184
   R14        2.06359  -0.00005   0.00000  -0.00028  -0.00028   2.06330
   R15        2.57966   0.00847   0.00000   0.01794   0.01798   2.59764
   R16        2.59662   0.01382   0.00000   0.03097   0.03105   2.62767
   R17        2.60917  -0.00295   0.00000  -0.01697  -0.01703   2.59214
   R18        2.04207  -0.00074   0.00000  -0.00127  -0.00127   2.04080
   R19        2.47991  -0.00064   0.00000  -0.00228  -0.00235   2.47755
   R20        2.56339   0.01042   0.00000   0.01871   0.01872   2.58211
   R21        2.03297   0.00275   0.00000   0.00676   0.00676   2.03973
   R22        1.91531  -0.00046   0.00000  -0.00437  -0.00437   1.91094
   R23        2.87758   0.00133   0.00000   0.01905   0.01905   2.89663
   R24        2.06259  -0.00092   0.00000  -0.00141  -0.00141   2.06118
   R25        2.06576   0.00240   0.00000   0.00486   0.00486   2.07061
   R26        2.79954   0.01430   0.00000   0.05241   0.05241   2.85195
   R27        2.06215  -0.00074   0.00000  -0.00421  -0.00421   2.05794
   R28        2.06461  -0.00092   0.00000  -0.00345  -0.00345   2.06116
   R29        1.94663   0.01482   0.00000   0.06133   0.06133   2.00796
   R30        1.92637   0.00288   0.00000   0.00334   0.00334   1.92970
   R31        1.92612   0.00365   0.00000   0.00493   0.00493   1.93106
    A1        2.12299   0.01399   0.00000   0.01005   0.00976   2.13275
    A2        2.13353  -0.02161   0.00000  -0.05700  -0.05729   2.07624
    A3        2.02595   0.00767   0.00000   0.04852   0.04823   2.07418
    A4        2.09337   0.00932   0.00000   0.01103   0.01062   2.10399
    A5        2.10688  -0.00543   0.00000  -0.01795  -0.01833   2.08855
    A6        2.04243  -0.00330   0.00000  -0.00767  -0.00813   2.03430
    A7        1.95910  -0.00497   0.00000  -0.03814  -0.03801   1.92110
    A8        1.93291   0.00058   0.00000  -0.01560  -0.01550   1.91741
    A9        1.85108   0.00153   0.00000   0.02882   0.02882   1.87990
   A10        1.93145   0.00441   0.00000   0.02545   0.02501   1.95646
   A11        1.88111  -0.00019   0.00000  -0.00671  -0.00670   1.87442
   A12        1.90506  -0.00151   0.00000   0.00750   0.00747   1.91254
   A13        2.01129   0.00304   0.00000   0.01325   0.01321   2.02449
   A14        2.17330  -0.00578   0.00000  -0.02891  -0.02897   2.14434
   A15        2.09734   0.00280   0.00000   0.01651   0.01647   2.11381
   A16        1.91796   0.00732   0.00000   0.03919   0.03919   1.95715
   A17        1.99040   0.00760   0.00000   0.01696   0.01695   2.00735
   A18        1.89661  -0.00139   0.00000  -0.00737  -0.00747   1.88914
   A19        1.89010  -0.00352   0.00000  -0.00895  -0.00898   1.88112
   A20        1.93593  -0.00210   0.00000   0.00436   0.00436   1.94029
   A21        1.88151  -0.00163   0.00000  -0.00202  -0.00197   1.87953
   A22        1.86464   0.00060   0.00000  -0.00457  -0.00463   1.86001
   A23        2.28746  -0.00421   0.00000  -0.01586  -0.01621   2.27126
   A24        2.16183   0.00790   0.00000   0.02570   0.02532   2.18714
   A25        1.83367  -0.00368   0.00000  -0.00900  -0.00907   1.82461
   A26        1.93296   0.00242   0.00000   0.00638   0.00644   1.93940
   A27        2.23420  -0.00135   0.00000  -0.00881  -0.00886   2.22534
   A28        2.11602  -0.00107   0.00000   0.00245   0.00240   2.11843
   A29        1.83003   0.00404   0.00000   0.01010   0.01004   1.84007
   A30        1.95339  -0.00010   0.00000   0.00014   0.00016   1.95355
   A31        2.20063  -0.00067   0.00000  -0.00280  -0.00281   2.19782
   A32        2.12911   0.00078   0.00000   0.00267   0.00266   2.13177
   A33        1.87463  -0.00268   0.00000  -0.00760  -0.00755   1.86707
   A34        2.20875   0.00164   0.00000   0.00332   0.00313   2.21188
   A35        2.19879   0.00101   0.00000   0.00547   0.00526   2.20406
   A36        1.95049  -0.01900   0.00000  -0.05594  -0.05575   1.89474
   A37        1.91659   0.01163   0.00000   0.05170   0.05117   1.96777
   A38        1.87574   0.00329   0.00000   0.01172   0.01148   1.88722
   A39        1.93018   0.00205   0.00000  -0.01266  -0.01198   1.91820
   A40        1.90890   0.00595   0.00000   0.01535   0.01545   1.92435
   A41        1.87976  -0.00337   0.00000  -0.00794  -0.00842   1.87134
   A42        1.93147  -0.01190   0.00000  -0.03768  -0.03780   1.89367
   A43        1.92055   0.00557   0.00000   0.04282   0.04240   1.96295
   A44        1.91103   0.00635   0.00000   0.01907   0.01708   1.92811
   A45        1.91782   0.00338   0.00000  -0.00195  -0.00127   1.91655
   A46        1.90696  -0.00196   0.00000  -0.04372  -0.04380   1.86316
   A47        1.87509  -0.00111   0.00000   0.02277   0.02172   1.89681
   A48        1.86452  -0.00300   0.00000  -0.05370  -0.05367   1.81085
   A49        1.96649   0.00074   0.00000   0.00218   0.00215   1.96863
   A50        1.93996   0.00248   0.00000   0.01489   0.01494   1.95490
   A51        1.91026   0.00138   0.00000   0.03384   0.03377   1.94402
   A52        1.87251   0.00072   0.00000   0.01806   0.01819   1.89071
   A53        1.90722  -0.00230   0.00000  -0.01419  -0.01420   1.89302
    D1       -0.15520   0.00224   0.00000   0.00365   0.00431  -0.15090
    D2       -2.98595   0.00062   0.00000   0.05943   0.05986  -2.92609
    D3        3.02611   0.00137   0.00000  -0.03868  -0.03910   2.98700
    D4        0.19536  -0.00024   0.00000   0.01710   0.01644   0.21181
    D5        0.78388  -0.00195   0.00000  -0.02564  -0.02487   0.75901
    D6        2.93257  -0.00417   0.00000  -0.04368  -0.04395   2.88863
    D7       -1.31055  -0.00010   0.00000  -0.01883  -0.01821  -1.32876
    D8       -2.39769  -0.00019   0.00000   0.01865   0.01868  -2.37901
    D9       -0.24900  -0.00241   0.00000   0.00062  -0.00039  -0.24939
   D10        1.79107   0.00166   0.00000   0.02547   0.02534   1.81641
   D11       -1.53724   0.00200   0.00000   0.43796   0.43840  -1.09885
   D12        2.57752  -0.00056   0.00000   0.44452   0.44430   3.02182
   D13        0.51276   0.00004   0.00000   0.42698   0.42687   0.93964
   D14        1.30470   0.00308   0.00000   0.38223   0.38259   1.68729
   D15       -0.86372   0.00052   0.00000   0.38878   0.38849  -0.47523
   D16       -2.92848   0.00112   0.00000   0.37125   0.37107  -2.55741
   D17        2.73613  -0.00083   0.00000   0.04359   0.04385   2.77998
   D18       -0.45943   0.00043   0.00000   0.06255   0.06268  -0.39675
   D19       -1.37783  -0.00040   0.00000   0.01430   0.01430  -1.36353
   D20        1.70980   0.00086   0.00000   0.03325   0.03313   1.74293
   D21        0.70410   0.00021   0.00000   0.03404   0.03398   0.73808
   D22       -2.49146   0.00147   0.00000   0.05300   0.05280  -2.43865
   D23        0.83194  -0.00163   0.00000  -0.00230  -0.00236   0.82958
   D24        3.00125  -0.00004   0.00000   0.00982   0.00973   3.01098
   D25       -1.26256  -0.00194   0.00000  -0.00426  -0.00428  -1.26683
   D26       -1.35218   0.00115   0.00000   0.03985   0.03999  -1.31219
   D27        0.81713   0.00275   0.00000   0.05197   0.05208   0.86921
   D28        2.83651   0.00084   0.00000   0.03789   0.03808   2.87459
   D29        2.86358  -0.00034   0.00000   0.02818   0.02809   2.89167
   D30       -1.25029   0.00126   0.00000   0.04030   0.04018  -1.21012
   D31        0.76909  -0.00064   0.00000   0.02623   0.02617   0.79526
   D32       -0.05788  -0.00010   0.00000  -0.01662  -0.01641  -0.07430
   D33        3.13513  -0.00101   0.00000  -0.03316  -0.03337   3.10177
   D34       -2.49695   0.00227   0.00000   0.04330   0.04326  -2.45369
   D35        0.61836   0.00313   0.00000   0.09296   0.09305   0.71141
   D36        1.63816   0.00008   0.00000   0.03699   0.03688   1.67505
   D37       -1.52972   0.00094   0.00000   0.08665   0.08668  -1.44304
   D38       -0.39763   0.00147   0.00000   0.04128   0.04122  -0.35640
   D39        2.71768   0.00233   0.00000   0.09094   0.09102   2.80870
   D40        3.12421   0.00100   0.00000   0.04677   0.04609  -3.11288
   D41       -0.01420   0.00061   0.00000   0.03562   0.03516   0.02096
   D42        0.00522   0.00012   0.00000   0.00363   0.00367   0.00889
   D43       -3.13319  -0.00028   0.00000  -0.00752  -0.00726  -3.14045
   D44       -3.13237  -0.00055   0.00000  -0.03890  -0.03945   3.11136
   D45        0.05548   0.00020   0.00000  -0.06617  -0.06655  -0.01107
   D46       -0.01130   0.00007   0.00000  -0.00036  -0.00036  -0.01166
   D47       -3.10664   0.00082   0.00000  -0.02763  -0.02746  -3.13409
   D48        0.00308  -0.00023   0.00000  -0.00541  -0.00551  -0.00244
   D49       -3.14145   0.00014   0.00000   0.00484   0.00462  -3.13683
   D50       -0.01059   0.00024   0.00000   0.00508   0.00517  -0.00542
   D51       -3.14110  -0.00042   0.00000   0.00317   0.00317  -3.13792
   D52        0.01420  -0.00020   0.00000  -0.00311  -0.00313   0.01107
   D53        3.10987  -0.00093   0.00000   0.02389   0.02374   3.13362
   D54       -3.13795   0.00041   0.00000  -0.00133  -0.00126  -3.13921
   D55       -0.04228  -0.00031   0.00000   0.02568   0.02561  -0.01667
   D56       -1.07612   0.00572   0.00000   0.05859   0.05880  -1.01732
   D57        3.08416   0.00562   0.00000   0.05735   0.05807  -3.14095
   D58        1.02697  -0.00015   0.00000  -0.00724  -0.00748   1.01948
   D59        3.06610   0.00264   0.00000   0.04046   0.04021   3.10631
   D60        0.94320   0.00254   0.00000   0.03922   0.03948   0.98267
   D61       -1.11400  -0.00322   0.00000  -0.02536  -0.02608  -1.14008
   D62        0.99873   0.00186   0.00000   0.04835   0.04835   1.04708
   D63       -1.12417   0.00176   0.00000   0.04712   0.04762  -1.07655
   D64        3.10182  -0.00401   0.00000  -0.01747  -0.01793   3.08388
   D65        0.80189  -0.00075   0.00000  -0.04433  -0.04397   0.75792
   D66        2.90017  -0.00058   0.00000  -0.03664  -0.03621   2.86396
   D67       -1.23557  -0.00118   0.00000  -0.04245  -0.04199  -1.27756
   D68        2.92641   0.00067   0.00000  -0.01669  -0.01667   2.90974
   D69       -1.25850   0.00083   0.00000  -0.00900  -0.00891  -1.26741
   D70        0.88895   0.00024   0.00000  -0.01481  -0.01469   0.87425
   D71       -1.30362   0.00013   0.00000  -0.01606  -0.01661  -1.32023
   D72        0.79466   0.00030   0.00000  -0.00837  -0.00885   0.78581
   D73        2.94211  -0.00030   0.00000  -0.01418  -0.01463   2.92747
         Item               Value     Threshold  Converged?
 Maximum Force            0.021606     0.000450     NO 
 RMS     Force            0.004674     0.000300     NO 
 Maximum Displacement     1.133695     0.001800     NO 
 RMS     Displacement     0.313245     0.001200     NO 
 Predicted change in Energy=-9.818895D-03
 GradGradGradGradGradGradGradGradGradGradGradGradGradGradGradGradGradGrad

                          Input orientation:                          
 ---------------------------------------------------------------------
 Center     Atomic      Atomic             Coordinates (Angstroms)
 Number     Number       Type             X           Y           Z
 ---------------------------------------------------------------------
      1          8           0       -2.119769    1.041224   -0.413526
      2          6           0       -1.488380    0.264630    0.325493
      3          7           0       -0.197250    0.444701    0.608230
      4          6           0        0.578372    1.460127   -0.089352
      5          6           0        0.645698    1.133068   -1.595284
      6          8           0        0.936949    2.157442   -2.405469
      7          8           0        0.485698    0.022625   -2.029987
      8          6           0        1.985446    1.574913    0.544976
      9          6           0        2.686754    0.267575    0.774646
     10          6           0        3.467092   -0.146228    1.827924
     11          7           0        3.946880   -1.414240    1.619319
     12          6           0        3.468028   -1.781231    0.455314
     13          7           0        2.688425   -0.809115   -0.105257
     14          6           0       -2.211761   -0.935542    0.924652
     15          6           0       -3.077590   -1.577381   -0.165280
     16          7           0       -4.044680   -0.540046   -0.681345
     17          1           0        0.326534   -0.298423    1.053383
     18          1           0        0.050668    2.411758    0.015148
     19          1           0        1.002854    2.993647   -1.925847
     20          1           0        2.589587    2.244057   -0.078954
     21          1           0        1.875455    2.067016    1.513418
     22          1           0        3.712300    0.407747    2.721940
     23          1           0        3.639380   -2.730388   -0.029249
     24          1           0        2.218532   -0.860321   -0.999211
     25          1           0       -1.527251   -1.676522    1.339483
     26          1           0       -2.840856   -0.578459    1.747655
     27          1           0       -3.626174   -2.445759    0.196560
     28          1           0       -2.461308   -1.881541   -1.012243
     29          1           0       -3.448033    0.333338   -0.782661
     30          1           0       -4.471412   -0.804663   -1.570521
     31          1           0       -4.790027   -0.343997   -0.010344
 ---------------------------------------------------------------------
                    Distance matrix (angstroms):
                    1          2          3          4          5
     1  O    0.000000
     2  C    1.244146   0.000000
     3  N    2.257410   1.333934   0.000000
     4  C    2.749642   2.423380   1.455781   0.000000
     5  C    3.008786   2.999642   2.457617   1.542508   0.000000
     6  O    3.815404   4.113771   3.647228   2.445245   1.338122
     7  O    3.230936   3.082829   2.757672   2.416829   1.203183
     8  C    4.249275   3.719204   2.458769   1.547710   2.563370
     9  C    5.011282   4.199225   2.894227   2.571760   3.245236
    10  C    6.135728   5.194497   3.906950   3.821129   4.616840
    11  N    6.853174   5.833921   4.653148   4.746408   5.265003
    12  C    6.320175   5.363616   4.290971   4.376435   4.545728
    13  N    5.161154   4.334070   3.226180   3.098715   3.188257
    14  C    2.388888   1.524035   2.462406   3.814744   4.335238
    15  C    2.799311   2.481824   3.603261   4.753764   4.822273
    16  N    2.505479   2.862848   4.175577   5.071859   5.063026
    17  H    3.151330   2.034887   1.012298   2.112289   3.027618
    18  H    2.602483   2.659914   2.069426   1.093158   2.140701
    19  H    3.981186   4.326929   3.789317   2.429935   1.923172
    20  H    4.872040   4.550991   3.387678   2.158620   2.704119
    21  H    4.552711   3.996892   2.783411   2.149328   3.471108
    22  H    6.651727   5.728046   4.444516   4.339628   5.344956
    23  H    6.894963   5.948940   5.020688   5.189778   5.132337
    24  H    4.772814   4.094087   3.181659   2.983697   2.608200
    25  H    3.287896   2.190378   2.608299   4.039032   4.607424
    26  H    2.795361   2.136009   3.055126   4.384238   5.124511
    27  H    3.847144   3.454417   4.503526   5.745946   5.853853
    28  H    3.002943   2.709645   3.628126   4.610653   4.368213
    29  H    1.549725   2.252325   3.537593   4.238191   4.249536
    30  H    3.205646   3.692796   4.957452   5.729176   5.471767
    31  H    3.035073   3.374031   4.700880   5.663992   5.851568
                    6          7          8          9         10
     6  O    0.000000
     7  O    2.214060   0.000000
     8  C    3.184934   3.359952   0.000000
     9  C    4.092254   3.573600   1.501238   0.000000
    10  C    5.443357   4.878596   2.608363   1.374611   0.000000
    11  N    6.165672   5.230851   3.733159   2.264927   1.371702
    12  C    5.486674   4.280761   3.670122   2.215845   2.134782
    13  N    4.142355   3.041115   2.569158   1.390502   2.186992
    14  C    5.529071   4.113910   4.905414   5.046329   5.804161
    15  C    5.923164   4.328299   6.006310   6.124948   6.989559
    16  N    5.921628   4.760226   6.506868   6.934289   7.929580
    17  H    4.285737   3.104123   2.553401   2.443089   3.238237
    18  H    2.590281   3.174868   2.173567   3.481854   4.636961
    19  H    0.966240   3.017494   3.013844   4.190423   5.479241
    20  H    2.855063   3.628725   1.096370   2.155123   3.181141
    21  H    4.030713   4.320495   1.091853   2.107600   2.744207
    22  H    6.087226   5.756743   3.013881   2.205299   1.079944
    23  H    6.069632   4.639800   4.647671   3.246772   3.186952
    24  H    3.567480   2.201093   2.892958   2.153590   3.171990
    25  H    5.898833   4.276961   4.852022   4.675082   5.246317
    26  H    6.245431   5.069304   5.420022   5.676001   6.323249
    27  H    6.984419   5.287525   6.912125   6.895609   7.633061
    28  H    5.459178   3.653286   5.843426   5.857834   6.798808
    29  H    5.018858   4.138430   5.729469   6.329703   7.407030
[...]
 36248,0.00104158,-0.00009254,-0.00010602,0.00005062,0.00000040,0.00001
 389,-0.00000442,-0.00001949,0.00000682,-0.00001007,-0.00000725,-0.0000
 0681,-0.00000404,-0.00003587,-0.00003643,-0.00001533,0.00001602,0.0000
 0108,-0.00000251,0.00003553,0.00001128,0.00000098,0.06495623,-0.063715
 24,0.07951040,0.00089181,-0.00004938,-0.00150377,-0.01115105,0.0054275
 0,0.01151100,-0.00056773,-0.00258335,-0.00015699,-0.00006760,-0.000686
 83,-0.00076697,0.00010572,0.00012471,-0.00044768,-0.00007180,-0.000091
 11,0.00017174,0.00004955,0.00002903,0.00017130,0.00003090,-0.00018008,
 0.00022016,-0.00003329,-0.00000454,-0.00002389,-0.00003032,-0.00002500
 ,0.00010726,-0.00002866,0.00003616,-0.00002407,0.00001269,0.00001336,-
 0.00001400,0.00000976,-0.00002416,-0.00008114,-0.12327526,0.04439205,0
 .11239078,0.01187410,-0.00752803,-0.01978731,0.00180093,-0.00015013,0.
 00100955,0.00033414,0.00024548,0.00110175,-0.00024720,-0.00014155,0.00
 011478,0.00001604,0.00003618,-0.00003641,-0.00009612,0.00001401,-0.000
 03245,0.00000096,0.00000040,-0.00000234,-0.00001864,-0.00000666,-0.000
 00166,0.00000558,0.00000042,-0.00000293,0.00002782,-0.00000355,-0.0000
 0895,-0.01116006,0.00570723,0.01703823,0.13298700,0.00146492,-0.001984
 17,-0.00236945,-0.01548615,0.01077496,0.02262021,-0.00065417,-0.002300
 00,-0.00053731,-0.00025769,-0.00059412,-0.00088566,0.00010614,-0.00007
 211,-0.00037305,-0.00002834,0.00000667,0.00010504,0.00004681,0.0001908
 2,0.00015165,0.00002380,-0.00025888,0.00024684,-0.00001986,0.00000761,
 -0.00004393,0.00000654,-0.00005714,0.00003747,-0.00001873,0.00005325,0
 .00001963,-0.00001325,0.00003709,-0.00000272,0.00001691,-0.00001537,-0
 .00002137,0.04124925,-0.07088263,-0.05779955,0.00945356,-0.00610775,-0
 .01237950,-0.00016471,0.00105565,0.00137376,0.00001395,-0.00000729,0.0
 0044471,-0.00015518,-0.00005248,0.00006693,0.00001120,0.00003100,-0.00
 003701,-0.00011513,0.00001545,-0.00002960,0.00001034,0.00001392,0.0000
 0103,0.00000094,0.00000181,0.00000287,-0.00000562,-0.00000037,-0.00000
 134,0.00000382,-0.00001202,-0.00000962,0.01094735,-0.00599941,-0.01713
 440,-0.04358918,0.07606331,-0.00109868,0.00120787,0.00173987,0.0085147
 8,-0.00278452,-0.01005801,-0.00084990,0.00051083,-0.00052246,0.0003110
 3,0.00028340,0.00012479,-0.00007206,-0.00008245,0.00005097,0.00001134,
 0.00002312,0.00001416,0.00002188,0.00002895,0.00001646,0.00001358,0.00
 009784,-0.00006403,-0.00001058,-0.00000641,-0.00000388,-0.00001637,0.0
 0000275,0.00001730,0.00000133,-0.00000640,-0.00001053,0.00000479,-0.00
 000320,0.00000168,-0.00000108,0.00000132,-0.00000716,0.10981881,-0.060
 82753,-0.20450166,0.01041360,-0.00843527,-0.01961462,0.00082643,0.0001
 8309,0.00141471,-0.00003329,-0.00001036,0.00006035,0.00004570,-0.00001
 199,0.00001318,0.00000845,-0.00000186,-0.00000161,0.00002424,-0.000002
 37,0.00001305,-0.00000038,-0.00000174,0.00000700,-0.00000060,-0.000000
 32,0.00000313,0.00000050,-0.00000020,-0.00000046,0.00000184,-0.0000002
 8,-0.00000112,-0.00568109,0.00276813,0.00955309,-0.11878247,0.06801305
 ,0.22305014,0.00170631,-0.00022231,0.00126328,-0.00094500,0.00098887,-
 0.00458674,-0.00038340,-0.00103674,0.00071261,-0.00010082,0.00037850,0
 .00005073,0.00004578,0.00008657,-0.00019047,-0.00008347,-0.00013500,0.
 00020162,-0.00015271,-0.00008698,0.00006152,0.00004024,-0.00007036,0.0
 0008777,-0.00002172,-0.00000433,-0.00001575,-0.00000679,-0.00004300,0.
 00002819,-0.00001361,0.00005732,-0.00000593,0.00000019,0.00000232,0.00
 002276,-0.00000303,0.00000091,-0.00004476,-0.00862983,-0.01377049,0.00
 749023,-0.12427120,-0.11336433,0.05958795,0.01037195,0.02960880,-0.013
 45757,0.00016219,-0.00013132,0.00003070,0.00000313,-0.00000923,-0.0000
 0350,0.00001872,0.00003285,-0.00002288,-0.00004127,0.00000622,-0.00001
 348,0.00000100,0.00001258,-0.00000569,0.00000485,-0.00000461,0.0000108
 5,-0.00000276,-0.00000255,0.00000054,0.00002263,-0.00000801,-0.0000056
 1,0.00003718,0.00013325,0.00014140,0.00095986,0.00044074,-0.00006240,0
 .13122532,-0.00011332,0.00053259,-0.00039597,-0.00138615,0.00056593,-0
 .00206665,-0.00052524,-0.00054537,0.00036186,-0.00000977,0.00018334,-0
 .00005334,-0.00009001,-0.00023587,-0.00010137,0.00002335,0.00007010,0.
 00002831,0.00010253,0.00015508,0.00006931,-0.00001015,-0.00002250,0.00
 004717,-0.00000504,-0.00000997,-0.00001155,-0.00000367,-0.00000793,0.0
 0001202,-0.00000456,0.00000685,0.00000233,-0.00000453,0.00001250,-0.00
 000215,0.00000572,-0.00000225,-0.00000302,-0.00703138,-0.00884021,0.00
 356636,-0.10346124,-0.20933859,0.08039861,-0.00565746,-0.02068411,0.01
 035603,0.00003815,-0.00003287,-0.00000237,0.00000750,-0.00000214,0.000
 01128,0.00000505,0.00001131,-0.00001279,-0.00001983,-0.00000046,-0.000
 00857,0.00000494,0.00000237,0.00000275,0.00000090,-0.00000103,0.000002
 77,-0.00000036,0.00000077,-0.00000054,-0.00000277,-0.00000270,-0.00000
 324,-0.00005382,0.00049943,-0.00004594,0.00059780,0.00015042,0.0004003
 0,0.11032633,0.22763245,0.00160548,-0.00031072,0.00116414,-0.00316413,
 0.00047091,-0.00556825,-0.00087840,-0.00129164,0.00119884,-0.00016723,
 0.00040891,-0.00003670,-0.00017125,-0.00036265,-0.00023944,0.00002350,
 0.00007037,0.00011525,0.00017522,0.00021599,0.00014401,-0.00001550,-0.
 00007119,0.00011791,-0.00000556,-0.00001537,-0.00002208,-0.00001019,-0
 .00002339,0.00002757,-0.00001254,0.00002238,-0.00000016,-0.00000661,0.
 00002031,0.00000338,0.00000741,-0.00000336,-0.00001768,-0.01209303,-0.
 02057038,0.01015043,0.05414664,0.08208029,-0.09365003,0.00388021,0.009
 62443,-0.00442883,0.00012732,-0.00011185,-0.00001632,0.00000946,-0.000
 00951,0.00001674,0.00000381,0.00003122,-0.00003368,-0.00005205,-0.0000
 0332,-0.00002076,0.00001118,0.00000712,0.00000299,0.00000387,-0.000002
 89,0.00000794,0.00000074,0.00000075,-0.00000012,0.00000118,-0.00000339
 ,-0.00000684,0.00043911,0.00065484,0.00077665,0.00081823,0.00019944,0.
 00113522,-0.05448653,-0.09026615,0.09735989,0.00020243,-0.00008071,0.0
 0034757,0.00190011,0.00065909,-0.00096762,-0.00037053,0.00012610,0.000
 16874,0.00010828,0.00006457,-0.00009597,-0.00024180,-0.00078112,-0.000
 21530,0.00018889,0.00041101,-0.00010401,0.00017809,0.00065242,0.000329
 44,-0.00005706,0.00000584,0.00001683,0.00001833,-0.00001008,-0.0000322
 9,0.00000362,-0.00000493,-0.00002711,0.00000999,-0.00001254,0.00002704
 ,-0.00001938,0.00003540,-0.00001119,0.00002699,0.00000347,0.00006104,0
 .01210868,-0.00797963,-0.01758903,-0.12693383,0.04204670,0.11246570,-0
 .01868365,0.01110792,0.01570997,0.00000078,-0.00008008,-0.00013937,0.0
 0000573,0.00000789,0.00002745,0.00000144,0.00000062,-0.00003389,-0.000
 00934,-0.00000697,-0.00000503,0.00002164,0.00000262,0.00001545,0.00000
 542,0.00000392,0.00000382,-0.00001119,0.00000011,-0.00000030,-0.000042
 80,-0.00000872,-0.00000430,0.00073908,0.00045929,0.00062268,-0.0025323
 4,-0.00265143,-0.00310900,-0.00683819,0.00437887,0.01174400,0.14186287
 ,-0.00060738,-0.00020009,0.00061203,0.00108897,-0.00002978,-0.00151339
 ,-0.00015340,0.00015360,0.00010018,0.00005973,-0.00009256,-0.00005148,
 -0.00032243,-0.00086162,-0.00011568,0.00020274,0.00042061,-0.00018241,
 0.00053640,0.00056703,0.00027481,-0.00010014,0.00004771,-0.00001583,0.
 00002850,0.00000024,-0.00000918,-0.00000103,0.00003271,-0.00002457,0.0
 0001221,-0.00006098,0.00001033,-0.00000768,0.00001640,-0.00001962,0.00
 001188,-0.00000157,0.00005232,0.00563829,-0.00457177,-0.01167484,0.038
 92809,-0.07527641,-0.05671656,0.01813322,-0.01119403,-0.01666385,-0.00
 006206,0.00004144,-0.00009968,0.00000837,0.00000933,0.00002118,-0.0000
 3836,-0.00001007,-0.00002481,0.00001103,-0.00001607,0.00000045,0.00002
 214,-0.00000707,0.00001456,-0.00000205,0.00000241,-0.00000773,0.000005
 73,0.00000300,0.00000069,-0.00003911,0.00001410,0.00000189,0.00001107,
 0.00060944,0.00048393,-0.00168211,-0.00026053,-0.00166303,-0.01345026,
 0.01040350,0.01951327,-0.05100715,0.08114521,0.00056756,-0.00041770,0.
 00084143,0.00037761,0.00170353,-0.00044161,-0.00029181,-0.00025857,0.0
 0019867,0.00000539,-0.00006553,-0.00011150,-0.00007070,-0.00011840,-0.
 00002386,0.00002190,0.00006543,-0.00002653,0.00011141,0.00016126,-0.00
 009771,-0.00000699,-0.00003115,0.00002026,0.00000559,-0.00000217,-0.00
 000272,0.00001342,-0.00001058,-0.00002012,0.00000584,0.00001763,0.0000
 0716,-0.00001045,0.00000595,0.00001259,0.00000535,0.00000595,0.0000104
 5,0.00914816,-0.00744075,-0.01760890,0.12103386,-0.06529056,-0.2222096
 5,-0.01314116,0.00802268,0.01215667,0.00005156,-0.00005978,-0.00007102
 ,-0.00001855,-0.00000151,0.00000430,0.00000721,0.00000476,-0.00000430,
 -0.00000971,0.00000287,-0.00000309,0.00000495,0.00000270,0.00000397,0.
 00000407,0.00000012,0.00000411,-0.00000647,-0.00000162,0.00000126,-0.0
 0000744,-0.00000523,0.00000298,0.00002657,0.00024320,0.00030214,-0.003
 31420,-0.00160317,-0.00130060,0.00551858,-0.00388177,-0.00804095,-0.11
 766431,0.06701469,0.23527242,0.02091279,-0.00205750,0.02101808,-0.0244
 0595,0.02480529,-0.02319030,0.01264110,-0.00379265,0.00561807,-0.00162
 703,-0.00239059,0.00106152,-0.00095896,0.00012284,0.00243814,0.0005656
 3,0.00068654,-0.00166562,0.00069827,-0.00045075,-0.00112341,-0.0006226
 3,-0.00002209,-0.00048918,0.00047829,0.00006306,0.00041159,0.00019411,
 0.00048292,-0.00034803,0.00023187,-0.00040277,-0.00004504,0.00000562,-
 0.00018355,-0.00004808,0.00000629,0.00008155,0.00026849,-0.00052438,-0
 .00093133,0.00134877,0.02062493,0.01522520,0.00051339,-0.09445656,-0.0
 6479878,0.01336942,0.00041626,0.00081009,-0.00153660,-0.00034084,-0.00
 023290,-0.00024762,-0.00025335,-0.00033599,0.00029707,0.00027176,-0.00
 004750,-0.00000555,-0.00004940,-0.00011304,-0.00001111,-0.00008799,0.0
 0000293,-0.00012303,-0.00000535,0.00000566,-0.00000089,-0.00018733,0.0
 0005463,0.00010231,-0.00104966,-0.00176821,0.00027690,0.00012802,-0.00
 067098,0.00041842,-0.00557399,0.00362319,-0.00245134,-0.00054386,0.001
 10626,-0.00033018,0.08898001,0.01876157,-0.02019594,0.01544499,-0.0063
 4809,0.02327206,-0.01453151,0.00938664,-0.00422716,0.00611527,-0.00141
 785,-0.00164998,0.00072557,-0.00040474,0.00082750,0.00166938,0.0002651
 7,0.00011935,-0.00094781,0.00009497,-0.00080312,-0.00091055,-0.0004017
 1,-0.00001761,-0.00032155,0.00032566,0.00004901,0.00028186,0.00011953,
 0.00033247,-0.00024662,0.00015170,-0.00029563,-0.00003669,0.00002085,-
 0.00014179,-0.00004386,-0.00001096,0.00004545,0.00018150,-0.00087144,-
 0.00039799,0.00163790,0.00237273,-0.02856574,0.01118748,-0.07775689,-0
 .18778645,0.01385203,0.00067758,0.00108581,-0.00065585,-0.00013149,-0.
 00015022,-0.00018980,-0.00020809,-0.00018830,0.00019458,0.00017615,-0.
 00003451,-0.00000020,-0.00004772,-0.00007297,-0.00002635,-0.00005433,0
 .00001026,-0.00008509,0.00000496,0.00000559,0.00000050,-0.00010160,0.0
 0005165,0.00007189,-0.00140721,-0.00188052,-0.00048154,0.00019938,-0.0
 0024873,0.00032185,0.00082313,-0.00027747,-0.00060793,-0.00058959,0.00
 078110,-0.00084799,0.05209662,0.20781810,0.01055903,0.00320127,-0.0094
 4577,-0.00935420,0.00211630,-0.00523659,0.00188485,0.00037395,0.001334
 08,-0.00029455,-0.00042380,0.00019950,0.00005188,0.00053954,0.00095070
 ,-0.00001711,0.00002414,-0.00041363,-0.00022734,-0.00036891,-0.0005717
 1,-0.00009728,-0.00002424,-0.00014439,0.00006857,0.00001742,0.00011847
 ,0.00005549,0.00009214,-0.00005385,0.00005575,-0.00005478,-0.00003484,
 0.00000679,-0.00006183,0.00000961,-0.00000135,0.00001068,-0.00000693,-
 0.00048986,0.00051334,-0.00028732,0.00489995,0.01289364,-0.00136848,0.
 01679179,0.01703254,-0.06887391,-0.00013495,0.00040698,0.00044765,0.00
 002034,-0.00015203,-0.00005992,-0.00000367,-0.00007791,0.00011142,0.00
 008208,0.00000320,0.00000266,-0.00003238,-0.00002344,-0.00001731,-0.00
 003096,-0.00000879,-0.00003456,0.00000065,-0.00000056,0.00000029,-0.00
 001245,0.00000743,0.00003792,0.00013394,-0.00046596,0.00005197,0.00002
 908,0.00009867,-0.00061621,-0.00240629,0.00161055,-0.00051906,-0.00000
 895,-0.00066431,-0.00001238,-0.01631044,-0.03050745,0.07914676,-0.0013
 2875,-0.00132886,0.00091502,0.00010005,0.00030260,-0.00021021,0.000218
 86,-0.00001128,0.00022293,0.00000295,-0.00001033,-0.00000710,-0.000253
 50,-0.00049347,-0.00013096,0.00013741,0.00019985,-0.00007107,0.0003052
 0,0.00028472,0.00018679,-0.00005071,0.00002133,0.00000307,0.00001435,0
 .00000085,-0.00002265,-0.00000494,0.00000472,-0.00001242,0.00001449,-0
 .00002634,0.00001654,-0.00000662,0.00001806,-0.00001274,0.00001582,0.0
 0000154,0.00004586,-0.00247760,0.00422486,-0.00086382,-0.00832932,-0.0
 0817489,-0.01760464,-0.10794347,-0.03746759,-0.11906930,0.00003633,0.0
 0007784,-0.00010684,-0.00000532,0.00000414,0.00001725,-0.00002940,-0.0
 0001636,-0.00000848,-0.00000100,-0.00001012,-0.00000469,0.00001227,-0.
 00000529,0.00001030,-0.00000013,0.00000388,-0.00000119,-0.00000726,-0.
 00000020,-0.00000138,-0.00003476,-0.00000218,-0.00000639,-0.00062882,-
 0.00089799,-0.00077050,0.00023579,0.00017776,0.00004350,0.00041992,-0.
 00003907,0.00041563,0.00009472,-0.00013576,0.00029109,-0.00407071,-0.0
 0023027,-0.01519021,0.10875261,-0.00421950,-0.00159763,0.00041636,0.00
 068183,-0.00142008,0.00104285,-0.00018077,0.00014576,-0.00020998,-0.00
 000214,0.00001856,-0.00001043,-0.00001414,0.00002664,-0.00009413,0.000
 02237,-0.00004053,0.00004529,0.00004296,-0.00004136,0.00003268,-0.0000
 0406,0.00002299,-0.00000291,-0.00000734,-0.00000065,0.00000218,0.00000
 154,0.00000659,0.00000292,0.00000628,-0.00001293,-0.00000027,-0.000004
 93,0.00000815,-0.00000211,0.00000225,-0.00000690,-0.00000283,0.0032561
 1,-0.00432577,0.00089664,0.00781988,0.01009488,0.02262747,-0.03653901,
 -0.08268553,-0.09321942,-0.00010948,0.00002425,-0.00001732,0.00000091,
 0.00002336,-0.00000589,-0.00002710,0.00000935,-0.00001343,-0.00000142,
 -0.00000282,0.00000211,0.00000135,-0.00000158,0.00000090,-0.00000457,-
 0.00000200,-0.00000547,0.00000360,0.00000204,0.00000011,-0.00000497,0.
 00000776,0.00000184,0.00083931,0.00077040,0.00091778,-0.00024252,0.000
 01864,-0.00009913,0.00009444,-0.00048186,0.00091155,0.00000171,0.00134
 358,-0.00044828,-0.00349464,-0.00040734,-0.02763568,0.03457970,0.08051
 168,0.00299940,0.00106850,0.00045894,-0.00142335,0.00041614,-0.0004243
 7,0.00083755,0.00003162,0.00015345,-0.00012138,-0.00026441,0.00009784,
 0.00000176,0.00011446,0.00038515,0.00002146,0.00006094,-0.00021537,-0.
 00003213,-0.00007113,-0.00025155,-0.00002821,0.00000674,-0.00005945,0.
 00002809,0.00000789,0.00006119,0.00003155,0.00004443,-0.00002218,0.000
 02951,-0.00001137,-0.00002187,-0.00000300,-0.00002789,0.00001505,0.000
 00237,0.00000877,-0.00001724,-0.00043368,0.00175400,0.00037074,-0.0035
 0105,-0.00106953,-0.00656516,-0.11124515,-0.08871038,-0.33786208,-0.00
 005702,0.00006301,-0.00006795,-0.00000903,-0.00000050,-0.00002258,-0.0
 0000226,-0.00003313,0.00004760,0.00003581,0.00000381,0.00000126,-0.000
 01617,-0.00001143,-0.00000635,-0.00001656,-0.00000733,-0.00001544,-0.0
 0000059,-0.00000097,0.00000113,-0.00000813,0.00000224,0.00002290,-0.00
 012885,-0.00044024,0.00011561,0.00017015,0.00016621,0.00018818,0.00028
 036,-0.00008643,-0.00035615,0.00090295,-0.00072210,0.00174779,-0.00164
 814,-0.00279379,0.00659511,0.12386989,0.09733440,0.35462643,0.00049986
 ,-0.00090470,-0.00088046,-0.00115249,-0.00023533,0.00006246,0.00066284
 ,0.00022755,0.00012651,-0.00010585,-0.00018716,0.00009388,-0.00011219,
 -0.00009576,0.00020707,0.00009309,0.00010818,-0.00018149,0.00009987,0.
 00003137,-0.00007733,-0.00005741,0.00003007,-0.00006299,0.00003237,0.0
 0000278,0.00004807,0.00003270,0.00004950,-0.00003060,0.00003515,-0.000
 02885,-0.00000027,-0.00000752,-0.00000824,-0.00000532,0.00001274,0.000
 00271,0.00001582,-0.00013865,-0.00036949,0.00027502,-0.01446816,0.0029
 2386,0.01232454,-0.26070647,0.03887293,0.17263673,-0.00013860,0.000078
 03,-0.00005296,0.00001844,0.00000877,-0.00002093,-0.00003032,-0.000040
 11,0.00003153,0.00003268,-0.00000476,-0.00000138,-0.00000700,-0.000014
 51,0.00000145,-0.00002007,-0.00000656,-0.00001864,-0.00000491,0.,-0.00
 000146,-0.00002957,0.00000082,0.00001101,0.00034565,0.00000456,-0.0001
 6706,-0.00019061,-0.00014365,-0.00076233,0.00204851,-0.00069594,0.0001
 0135,-0.00119313,0.00180431,-0.00232815,-0.01139695,0.00450534,0.00997
 183,0.01481153,-0.00249766,-0.01053614,0.27103448,-0.00196067,-0.00249
 668,-0.00280993,0.00041306,-0.00057605,0.00026812,-0.00050391,0.000093
 39,0.00004476,0.00001795,0.00011598,-0.00005327,0.00003776,0.00004088,
 -0.00004221,-0.00001609,-0.00004340,0.00005616,-0.00003454,-0.00001022
 ,-0.00001052,0.00000910,0.00000270,0.00002005,-0.00001472,-0.00000134,
 -0.00001295,-0.00001088,-0.00000735,0.00000785,-0.00000344,-0.00000566
 ,0.00000122,0.00000002,0.00000764,-0.00000423,0.00000080,-0.00000796,0
 .00000130,-0.00085790,0.00026636,0.00046394,0.01928556,-0.00473406,-0.
 01832822,0.03296418,-0.05948647,-0.03087509,-0.00002659,0.00000567,0.0
 0010436,0.00002514,0.00000101,0.00001397,-0.00000430,0.00002037,-0.000
 00846,-0.00001021,-0.00000088,0.00000086,-0.00000229,0.00000474,-0.000
 00393,0.00000288,0.00000407,0.00000120,0.00000132,0.00000109,-0.000000
 04,0.00000313,0.00000214,-0.00000099,-0.00012840,-0.00004019,-0.000099
 51,0.00016446,0.00043238,0.00009452,-0.00065332,0.00025867,-0.00057807
 ,0.00324538,-0.00300887,0.00323399,-0.01747353,0.01294313,0.02152792,0
 .00894815,-0.00200763,-0.00683254,-0.04341808,0.05822656,-0.00114080,-
 0.00025414,-0.00063772,0.00034497,-0.00048358,0.00041037,-0.00024736,0
 .00009608,-0.00017151,0.00001069,0.00006377,0.00002661,0.00005814,0.00
 011035,0.00003717,-0.00003822,-0.00005234,0.00002141,-0.00007184,-0.00
 009392,-0.00003722,0.00002247,0.00000645,0.00000580,-0.00001493,0.0000
 0116,0.00000523,-0.00000606,-0.00000224,0.00001885,-0.00000277,0.00000
 649,-0.00001466,0.00000288,-0.00000595,0.00000746,-0.00000326,-0.00000
 270,-0.00002842,-0.00022853,0.00075177,0.00142288,-0.01029918,-0.00010
 977,0.01280399,0.16419767,-0.03466143,-0.20663542,-0.00002433,-0.00000
 628,0.00004438,0.00001394,0.00000227,0.00000584,0.00001133,0.00000296,
 0.00000742,0.00000038,0.00000259,0.00000041,-0.00000659,0.00000073,-0.
 00000456,-0.00000215,-0.00000204,0.00000009,0.00000416,0.00000023,0.00
 000048,0.00001178,0.00000212,0.00000438,0.00018155,-0.00009539,-0.0004
 3539,0.00013321,-0.00031986,-0.00070095,-0.00018151,0.00007221,0.00073
 606,-0.00243502,0.00206872,-0.00061127,0.00243242,0.00154977,-0.001309
 29,0.02805673,-0.00246778,-0.01898064,-0.18077979,0.03381975,0.2140082
 3\\-0.00000325,-0.00000314,0.00000463,-0.00000239,0.00000459,-0.000007
 10,-0.00000350,0.00000304,0.00000245,-0.00000219,-0.00001120,0.0000018
 2,0.00000209,-0.00000197,-0.00000422,0.00000170,0.00000212,0.00000039,
 0.00000136,0.00000200,0.00000344,-0.00000410,-0.00000168,0.00000352,0.
 00000654,0.00000249,-0.00001373,-0.00000587,0.00000024,0.00000413,0.00
 000113,0.00000019,-0.00000637,0.00000168,-0.00000565,0.00000021,-0.000
 00349,0.00000642,0.00000081,-0.00000139,0.00000384,0.00000175,0.000008
 48,-0.00000546,0.00000010,0.00001410,0.00002261,0.00000336,0.00000309,
 -0.00000243,0.00000407,-0.00000228,-0.00000087,0.00000018,-0.00000025,
 0.00000279,-0.00000014,0.00000036,-0.00000094,0.00000072,-0.00000198,0
 .00000604,-0.00000095,0.00000178,0.00000041,0.00000083,-0.00000058,0.0
 0000001,0.00000015,0.00000340,-0.00000631,0.00000289,-0.00000012,-0.00
 000073,-0.00000012,0.00000059,-0.00000088,0.00000084,-0.00000120,0.000
 00120,0.00000025,-0.00000144,0.00000028,-0.00000007,-0.00001254,-0.000
 01934,-0.00000331,0.00000130,0.00000202,-0.00000139,-0.00000103,0.0000
 0033,0.00000086\\\@


 IT IS A PROFOUNDLY ERRONEOUS TRUISM ... THAT WE SHOULD CULTIVATE
 THE HABIT OF THINKING OF WHAT WE ARE DOING.
 THE PRECISE OPPOSITE IS THE CASE.
 CIVILIZATION ADVANCES BY EXTENDING THE NUMBER OF IMPORTANT OPERATIONS
 WHICH WE CAN PERFORM WITHOUT THINKING ABOUT THEM.

                                    -- ALFRED NORTH WHITEHEAD
 Job cpu time:       0 days  2 hours 18 minutes 51.2 seconds.
 File lengths (MBytes):  RWF=    458 Int=      0 D2E=      0 Chk=     13 Scr=      1
 Normal termination of Gaussian 09 at Thu Jul 29 03:43:18 2021.
