 Entering Gaussian System, Link 0=g09
 Input=opt_freq-conf-885.com
 Output=opt_freq-conf-885.log
 Initial command:
 /aerosol/software/g09/l1.exe "/scratch/nicole/10693/Gau-84123.inp" -scrdir="/scratch/nicole/10693/"
 Entering Link 1 = /aerosol/software/g09/l1.exe PID=     84128.
  
 Copyright (c) 1988,1990,1992,1993,1995,1998,2003,2009,2013,
            Gaussian, Inc.  All Rights Reserved.
  
 This is part of the Gaussian(R) 09 program.  It is based on
 the Gaussian(R) 03 system (copyright 2003, Gaussian, Inc.),
 the Gaussian(R) 98 system (copyright 1998, Gaussian, Inc.),
 the Gaussian(R) 94 system (copyright 1995, Gaussian, Inc.),
 the Gaussian 92(TM) system (copyright 1992, Gaussian, Inc.),
 the Gaussian 90(TM) system (copyright 1990, Gaussian, Inc.),
 the Gaussian 88(TM) system (copyright 1988, Gaussian, Inc.),
 the Gaussian 86(TM) system (copyright 1986, Carnegie Mellon
 University), and the Gaussian 82(TM) system (copyright 1983,
 Carnegie Mellon University). Gaussian is a federally registered
 trademark of Gaussian, Inc.
  
 This software contains proprietary and confidential information,
 including trade secrets, belonging to Gaussian, Inc.
  
 This software is provided under written license and may be
 used, copied, transmitted, or stored only in accord with that
 written license.
  
 The following legend is applicable only to US Government
 contracts under FAR:
  
                    RESTRICTED RIGHTS LEGEND
  
 Use, reproduction and disclosure by the US Government is
 subject to restrictions as set forth in subparagraphs (a)
 and (c) of the Commercial Computer Software - Restricted
 Rights clause in FAR 52.227-19.
  
 Gaussian, Inc.
 340 Quinnipiac St., Bldg. 40, Wallingford CT 06492
  
  
 ---------------------------------------------------------------
 Warning -- This program may not be used in any manner that
 competes with the business of Gaussian, Inc. or will provide
 assistance to any competitor of Gaussian, Inc.  The licensee
 of this program is prohibited from giving any competitor of
 Gaussian, Inc. access to this program.  By using this program,
 the user acknowledges that Gaussian, Inc. is engaged in the
 business of creating and licensing software in the field of
 computational chemistry and represents and warrants to the
 licensee that it is not a competitor of Gaussian, Inc. and that
 it will not use this program in any manner prohibited above.
 ---------------------------------------------------------------
  

 Cite this work as:
 Gaussian 09, Revision D.01,
 M. J. Frisch, G. W. Trucks, H. B. Schlegel, G. E. Scuseria, 
 M. A. Robb, J. R. Cheeseman, G. Scalmani, V. Barone, B. Mennucci, 
 G. A. Petersson, H. Nakatsuji, M. Caricato, X. Li, H. P. Hratchian, 
 A. F. Izmaylov, J. Bloino, G. Zheng, J. L. Sonnenberg, M. Hada, 
 M. Ehara, K. Toyota, R. Fukuda, J. Hasegawa, M. Ishida, T. Nakajima, 
 Y. Honda, O. Kitao, H. Nakai, T. Vreven, J. A. Montgomery, Jr., 
 J. E. Peralta, F. Ogliaro, M. Bearpark, J. J. Heyd, E. Brothers, 
 K. N. Kudin, V. N. Staroverov, T. Keith, R. Kobayashi, J. Normand, 
 K. Raghavachari, A. Rendell, J. C. Burant, S. S. Iyengar, J. Tomasi, 
 M. Cossi, N. Rega, J. M. Millam, M. Klene, J. E. Knox, J. B. Cross, 
 V. Bakken, C. Adamo, J. Jaramillo, R. Gomperts, R. E. Stratmann, 
 O. Yazyev, A. J. Austin, R. Cammi, C. Pomelli, J. W. Ochterski, 
 R. L. Martin, K. Morokuma, V. G. Zakrzewski, G. A. Voth, 
 P. Salvador, J. J. Dannenberg, S. Dapprich, A. D. Daniels, 
 O. Farkas, J. B. Foresman, J. V. Ortiz, J. Cioslowski, 
 and D. J. Fox, Gaussian, Inc., Wallingford CT, 2013.
 
 ******************************************
 Gaussian 09:  ES64L-G09RevD.01 24-Apr-2013
                28-Jul-2021 
 ******************************************
 %mem=2gb
 %nproc=4
 Will use up to    4 processors via shared memory.
 %chk=conf-885.chk
 ----------------------------------------------------------------------
 # B3LYP/6-311G(d,p) opt=calcfc freq=noraman nosymm integral(ultrafineg
 rid)
 ----------------------------------------------------------------------
 1/10=4,14=-1,18=20,19=15,26=4,38=1/1,3;
 2/9=110,12=2,15=1,17=6,18=5,40=1/2;
 3/5=4,6=6,7=101,11=2,16=1,25=1,30=1,71=2,74=-5,75=-5,140=1/1,2,3;
 4//1;
 5/5=2,38=5/2;
 8/6=4,10=90,11=11/1;
 11/6=1,8=1,9=11,15=111,16=1,31=1/1,2,10;
 10/6=1,13=1,31=1/2;
 6/7=2,8=2,9=2,10=2,28=1/1;
 7/10=1,18=20,25=1,30=1/1,2,3,16;
 1/10=4,14=-1,18=20,19=15,26=4/3(2);
 2/9=110,15=1/2;
 99//99;
 2/9=110,15=1/2;
 3/5=4,6=6,7=101,11=2,16=1,25=1,30=1,71=1,74=-5,75=-5/1,2,3;
 4/5=5,16=3,69=1/1;
 5/5=2,38=5/2;
 7/30=1/1,2,3,16;
 1/14=-1,18=20,19=15,26=4/3(-5);
 2/9=110,15=1/2;
 6/7=2,8=2,9=2,10=2,19=2,28=1/1;
 99/9=1/99;
 ------------------------------------------------------------
 Candidate Structure: Conf:885 OPT and FREQ calc in gas phase
 ------------------------------------------------------------
 Symbolic Z-matrix:
 Charge =  1 Multiplicity = 1
 O                    -1.53818   0.57137  -0.33869 
 C                    -1.47554  -0.58604   0.06799 
 N                    -0.33365  -1.08817   0.5939 
 C                     0.82432  -0.23497   0.84341 
 C                     0.46092   0.81771   1.87913 
 O                     1.1605    1.96328   1.73747 
 O                    -0.33418   0.64265   2.76341 
 C                     1.41772   0.3368   -0.46374 
 C                     2.89502   0.58328  -0.40144 
 C                     3.66779   1.61256   0.05406 
 N                     5.01245   1.34801  -0.13655 
 C                     5.05197   0.16407  -0.69755 
 N                     3.80291  -0.34078  -0.88151 
 C                    -2.64265  -1.55339  -0.03225 
 C                    -3.97464  -0.88997   0.28999 
 N                    -4.25956   0.20384  -0.66934 
 H                    -0.37283  -1.95635   1.09943 
 H                     1.55463  -0.89271   1.33001 
 H                     0.86184   2.54627   2.44771 
 H                     1.23317  -0.38449  -1.26056 
 H                     0.88831   1.24414  -0.73456 
 H                     3.33952   2.5325    0.5093 
 H                     5.93702  -0.37237  -0.9914 
 H                     3.57006  -1.22406  -1.30015 
 H                    -2.66526  -1.93206  -1.05777 
 H                    -2.46599  -2.40279   0.62929 
 H                    -4.77649  -1.62938   0.25892 
 H                    -3.94437  -0.48179   1.3025 
 H                    -4.47322  -0.16443  -1.59548 
 H                    -5.02282   0.80563  -0.36245 
 H                    -3.39869   0.76171  -0.75108 
 

 GradGradGradGradGradGradGradGradGradGradGradGradGradGradGradGradGradGrad
 Berny optimization.
 Initialization pass.
                           ----------------------------
                           !    Initial Parameters    !
                           ! (Angstroms and Degrees)  !
 --------------------------                            --------------------------
 ! Name  Definition              Value          Derivative Info.                !
 --------------------------------------------------------------------------------
 ! R1    R(1,2)                  1.2284         calculate D2E/DX2 analytically  !
 ! R2    R(2,3)                  1.3538         calculate D2E/DX2 analytically  !
 ! R3    R(2,14)                 1.5192         calculate D2E/DX2 analytically  !
 ! R4    R(3,4)                  1.4598         calculate D2E/DX2 analytically  !
 ! R5    R(3,17)                 1.0054         calculate D2E/DX2 analytically  !
 ! R6    R(4,5)                  1.5208         calculate D2E/DX2 analytically  !
 ! R7    R(4,8)                  1.5452         calculate D2E/DX2 analytically  !
 ! R8    R(4,18)                 1.0967         calculate D2E/DX2 analytically  !
 ! R9    R(5,6)                  1.3497         calculate D2E/DX2 analytically  !
 ! R10   R(5,7)                  1.202          calculate D2E/DX2 analytically  !
 ! R11   R(6,19)                 0.9662         calculate D2E/DX2 analytically  !
 ! R12   R(8,9)                  1.499          calculate D2E/DX2 analytically  !
 ! R13   R(8,20)                 1.0905         calculate D2E/DX2 analytically  !
 ! R14   R(8,21)                 1.0848         calculate D2E/DX2 analytically  !
 ! R15   R(9,10)                 1.3653         calculate D2E/DX2 analytically  !
 ! R16   R(9,13)                 1.3815         calculate D2E/DX2 analytically  !
 ! R17   R(10,11)                1.3836         calculate D2E/DX2 analytically  !
 ! R18   R(10,22)                1.0776         calculate D2E/DX2 analytically  !
 ! R19   R(11,12)                1.3107         calculate D2E/DX2 analytically  !
 ! R20   R(12,13)                1.3597         calculate D2E/DX2 analytically  !
 ! R21   R(12,23)                1.0758         calculate D2E/DX2 analytically  !
 ! R22   R(13,24)                1.0048         calculate D2E/DX2 analytically  !
 ! R23   R(14,15)                1.5226         calculate D2E/DX2 analytically  !
 ! R24   R(14,25)                1.0934         calculate D2E/DX2 analytically  !
 ! R25   R(14,26)                1.091          calculate D2E/DX2 analytically  !
 ! R26   R(15,16)                1.4825         calculate D2E/DX2 analytically  !
 ! R27   R(15,27)                1.0912         calculate D2E/DX2 analytically  !
 ! R28   R(15,28)                1.0921         calculate D2E/DX2 analytically  !
 ! R29   R(16,29)                1.0193         calculate D2E/DX2 analytically  !
 ! R30   R(16,30)                1.0193         calculate D2E/DX2 analytically  !
 ! R31   R(16,31)                1.0291         calculate D2E/DX2 analytically  !
 ! A1    A(1,2,3)              121.407          calculate D2E/DX2 analytically  !
 ! A2    A(1,2,14)             122.6121         calculate D2E/DX2 analytically  !
 ! A3    A(3,2,14)             115.9422         calculate D2E/DX2 analytically  !
 ! A4    A(2,3,4)              121.2453         calculate D2E/DX2 analytically  !
 ! A5    A(2,3,17)             118.8653         calculate D2E/DX2 analytically  !
 ! A6    A(4,3,17)             116.7217         calculate D2E/DX2 analytically  !
 ! A7    A(3,4,5)              109.3542         calculate D2E/DX2 analytically  !
 ! A8    A(3,4,8)              112.1043         calculate D2E/DX2 analytically  !
 ! A9    A(3,4,18)             104.6867         calculate D2E/DX2 analytically  !
 ! A10   A(5,4,8)              114.314          calculate D2E/DX2 analytically  !
 ! A11   A(5,4,18)             105.7881         calculate D2E/DX2 analytically  !
 ! A12   A(8,4,18)             109.9704         calculate D2E/DX2 analytically  !
 ! A13   A(4,5,6)              113.0883         calculate D2E/DX2 analytically  !
 ! A14   A(4,5,7)              123.9356         calculate D2E/DX2 analytically  !
 ! A15   A(6,5,7)              122.9345         calculate D2E/DX2 analytically  !
 ! A16   A(5,6,19)             105.9471         calculate D2E/DX2 analytically  !
 ! A17   A(4,8,9)              113.8375         calculate D2E/DX2 analytically  !
 ! A18   A(4,8,20)             107.961          calculate D2E/DX2 analytically  !
 ! A19   A(4,8,21)             109.4665         calculate D2E/DX2 analytically  !
 ! A20   A(9,8,20)             107.8126         calculate D2E/DX2 analytically  !
 ! A21   A(9,8,21)             110.7195         calculate D2E/DX2 analytically  !
 ! A22   A(20,8,21)            106.7503         calculate D2E/DX2 analytically  !
 ! A23   A(8,9,10)             134.0777         calculate D2E/DX2 analytically  !
 ! A24   A(8,9,13)             121.5484         calculate D2E/DX2 analytically  !
 ! A25   A(10,9,13)            104.3721         calculate D2E/DX2 analytically  !
 ! A26   A(9,10,11)            111.0979         calculate D2E/DX2 analytically  !
 ! A27   A(9,10,22)            127.74           calculate D2E/DX2 analytically  !
 ! A28   A(11,10,22)           121.1621         calculate D2E/DX2 analytically  !
 ! A29   A(10,11,12)           105.1277         calculate D2E/DX2 analytically  !
 ! A30   A(11,12,13)           111.4432         calculate D2E/DX2 analytically  !
 ! A31   A(11,12,23)           126.3059         calculate D2E/DX2 analytically  !
 ! A32   A(13,12,23)           122.2508         calculate D2E/DX2 analytically  !
 ! A33   A(9,13,12)            107.9583         calculate D2E/DX2 analytically  !
 ! A34   A(9,13,24)            125.4832         calculate D2E/DX2 analytically  !
 ! A35   A(12,13,24)           126.5558         calculate D2E/DX2 analytically  !
 ! A36   A(2,14,15)            112.3751         calculate D2E/DX2 analytically  !
 ! A37   A(2,14,25)            107.3548         calculate D2E/DX2 analytically  !
 ! A38   A(2,14,26)            109.3497         calculate D2E/DX2 analytically  !
 ! A39   A(15,14,25)           109.3478         calculate D2E/DX2 analytically  !
 ! A40   A(15,14,26)           110.6441         calculate D2E/DX2 analytically  !
 ! A41   A(25,14,26)           107.6032         calculate D2E/DX2 analytically  !
 ! A42   A(14,15,16)           110.6503         calculate D2E/DX2 analytically  !
 ! A43   A(14,15,27)           109.9734         calculate D2E/DX2 analytically  !
 ! A44   A(14,15,28)           109.5618         calculate D2E/DX2 analytically  !
 ! A45   A(16,15,27)           109.8954         calculate D2E/DX2 analytically  !
 ! A46   A(16,15,28)           109.2385         calculate D2E/DX2 analytically  !
 ! A47   A(27,15,28)           107.459          calculate D2E/DX2 analytically  !
 ! A48   A(15,16,29)           111.2021         calculate D2E/DX2 analytically  !
 ! A49   A(15,16,30)           112.6245         calculate D2E/DX2 analytically  !
 ! A50   A(15,16,31)           106.8938         calculate D2E/DX2 analytically  !
 ! A51   A(29,16,30)           109.2634         calculate D2E/DX2 analytically  !
 ! A52   A(29,16,31)           107.3997         calculate D2E/DX2 analytically  !
 ! A53   A(30,16,31)           109.2859         calculate D2E/DX2 analytically  !
 ! D1    D(1,2,3,4)              7.1885         calculate D2E/DX2 analytically  !
 ! D2    D(1,2,3,17)           166.4159         calculate D2E/DX2 analytically  !
 ! D3    D(14,2,3,4)          -175.0172         calculate D2E/DX2 analytically  !
 ! D4    D(14,2,3,17)          -15.7898         calculate D2E/DX2 analytically  !
 ! D5    D(1,2,14,15)          -40.7302         calculate D2E/DX2 analytically  !
 ! D6    D(1,2,14,25)           79.5357         calculate D2E/DX2 analytically  !
 ! D7    D(1,2,14,26)         -164.005          calculate D2E/DX2 analytically  !
 ! D8    D(3,2,14,15)          141.5048         calculate D2E/DX2 analytically  !
 ! D9    D(3,2,14,25)          -98.2293         calculate D2E/DX2 analytically  !
 ! D10   D(3,2,14,26)           18.2299         calculate D2E/DX2 analytically  !
 ! D11   D(2,3,4,5)             63.0455         calculate D2E/DX2 analytically  !
 ! D12   D(2,3,4,8)            -64.8105         calculate D2E/DX2 analytically  !
 ! D13   D(2,3,4,18)           176.0112         calculate D2E/DX2 analytically  !
 ! D14   D(17,3,4,5)           -96.6058         calculate D2E/DX2 analytically  !
 ! D15   D(17,3,4,8)           135.5382         calculate D2E/DX2 analytically  !
 ! D16   D(17,3,4,18)           16.36           calculate D2E/DX2 analytically  !
 ! D17   D(3,4,5,6)           -151.0244         calculate D2E/DX2 analytically  !
 ! D18   D(3,4,5,7)             31.2652         calculate D2E/DX2 analytically  !
 ! D19   D(8,4,5,6)            -24.4154         calculate D2E/DX2 analytically  !
 ! D20   D(8,4,5,7)            157.8743         calculate D2E/DX2 analytically  !
 ! D21   D(18,4,5,6)            96.7304         calculate D2E/DX2 analytically  !
 ! D22   D(18,4,5,7)           -80.98           calculate D2E/DX2 analytically  !
 ! D23   D(3,4,8,9)           -149.8559         calculate D2E/DX2 analytically  !
 ! D24   D(3,4,8,20)           -30.1997         calculate D2E/DX2 analytically  !
 ! D25   D(3,4,8,21)            85.6439         calculate D2E/DX2 analytically  !
 ! D26   D(5,4,8,9)             84.9736         calculate D2E/DX2 analytically  !
 ! D27   D(5,4,8,20)          -155.3702         calculate D2E/DX2 analytically  !
 ! D28   D(5,4,8,21)           -39.5266         calculate D2E/DX2 analytically  !
 ! D29   D(18,4,8,9)           -33.8324         calculate D2E/DX2 analytically  !
 ! D30   D(18,4,8,20)           85.8239         calculate D2E/DX2 analytically  !
 ! D31   D(18,4,8,21)         -158.3326         calculate D2E/DX2 analytically  !
 ! D32   D(4,5,6,19)          -179.1045         calculate D2E/DX2 analytically  !
 ! D33   D(7,5,6,19)            -1.3678         calculate D2E/DX2 analytically  !
 ! D34   D(4,8,9,10)           -84.1443         calculate D2E/DX2 analytically  !
 ! D35   D(4,8,9,13)            96.4351         calculate D2E/DX2 analytically  !
 ! D36   D(20,8,9,10)          156.1155         calculate D2E/DX2 analytically  !
 ! D37   D(20,8,9,13)          -23.3051         calculate D2E/DX2 analytically  !
 ! D38   D(21,8,9,10)           39.6805         calculate D2E/DX2 analytically  !
 ! D39   D(21,8,9,13)         -139.7401         calculate D2E/DX2 analytically  !
 ! D40   D(8,9,10,11)         -179.2905         calculate D2E/DX2 analytically  !
 ! D41   D(8,9,10,22)            0.6845         calculate D2E/DX2 analytically  !
 ! D42   D(13,9,10,11)           0.1998         calculate D2E/DX2 analytically  !
 ! D43   D(13,9,10,22)        -179.8253         calculate D2E/DX2 analytically  !
 ! D44   D(8,9,13,12)          179.5376         calculate D2E/DX2 analytically  !
 ! D45   D(8,9,13,24)            0.1163         calculate D2E/DX2 analytically  !
 ! D46   D(10,9,13,12)          -0.0327         calculate D2E/DX2 analytically  !
 ! D47   D(10,9,13,24)        -179.454          calculate D2E/DX2 analytically  !
 ! D48   D(9,10,11,12)          -0.2927         calculate D2E/DX2 analytically  !
 ! D49   D(22,10,11,12)        179.7304         calculate D2E/DX2 analytically  !
 ! D50   D(10,11,12,13)          0.2688         calculate D2E/DX2 analytically  !
 ! D51   D(10,11,12,23)       -179.839          calculate D2E/DX2 analytically  !
 ! D52   D(11,12,13,9)          -0.1545         calculate D2E/DX2 analytically  !
 ! D53   D(11,12,13,24)        179.2589         calculate D2E/DX2 analytically  !
 ! D54   D(23,12,13,9)         179.9482         calculate D2E/DX2 analytically  !
 ! D55   D(23,12,13,24)         -0.6384         calculate D2E/DX2 analytically  !
 ! D56   D(2,14,15,16)          61.4384         calculate D2E/DX2 analytically  !
 ! D57   D(2,14,15,27)        -176.9661         calculate D2E/DX2 analytically  !
 ! D58   D(2,14,15,28)         -59.0665         calculate D2E/DX2 analytically  !
 ! D59   D(25,14,15,16)        -57.6677         calculate D2E/DX2 analytically  !
 ! D60   D(25,14,15,27)         63.9278         calculate D2E/DX2 analytically  !
 ! D61   D(25,14,15,28)       -178.1726         calculate D2E/DX2 analytically  !
 ! D62   D(26,14,15,16)       -176.0146         calculate D2E/DX2 analytically  !
 ! D63   D(26,14,15,27)        -54.4191         calculate D2E/DX2 analytically  !
 ! D64   D(26,14,15,28)         63.4805         calculate D2E/DX2 analytically  !
 ! D65   D(14,15,16,29)         70.3138         calculate D2E/DX2 analytically  !
 ! D66   D(14,15,16,30)       -166.6591         calculate D2E/DX2 analytically  !
 ! D67   D(14,15,16,31)        -46.6241         calculate D2E/DX2 analytically  !
 ! D68   D(27,15,16,29)        -51.3276         calculate D2E/DX2 analytically  !
 ! D69   D(27,15,16,30)         71.6994         calculate D2E/DX2 analytically  !
 ! D70   D(27,15,16,31)       -168.2656         calculate D2E/DX2 analytically  !
 ! D71   D(28,15,16,29)       -168.9888         calculate D2E/DX2 analytically  !
 ! D72   D(28,15,16,30)        -45.9617         calculate D2E/DX2 analytically  !
 ! D73   D(28,15,16,31)         74.0733         calculate D2E/DX2 analytically  !
 --------------------------------------------------------------------------------
 Trust Radius=3.00D-01 FncErr=1.00D-07 GrdErr=1.00D-06
 Number of steps in this run=    167 maximum allowed number of steps=    186.
 GradGradGradGradGradGradGradGradGradGradGradGradGradGradGradGradGradGrad

                          Input orientation:                          
 ---------------------------------------------------------------------
 Center     Atomic      Atomic             Coordinates (Angstroms)
 Number     Number       Type             X           Y           Z
 ---------------------------------------------------------------------
      1          8           0       -1.538177    0.571365   -0.338685
      2          6           0       -1.475544   -0.586038    0.067993
      3          7           0       -0.333646   -1.088170    0.593896
      4          6           0        0.824321   -0.234971    0.843410
      5          6           0        0.460921    0.817714    1.879128
      6          8           0        1.160504    1.963284    1.737470
      7          8           0       -0.334184    0.642647    2.763409
      8          6           0        1.417721    0.336804   -0.463742
      9          6           0        2.895018    0.583283   -0.401438
     10          6           0        3.667793    1.612560    0.054059
     11          7           0        5.012447    1.348006   -0.136547
     12          6           0        5.051966    0.164069   -0.697549
     13          7           0        3.802905   -0.340777   -0.881507
     14          6           0       -2.642649   -1.553390   -0.032247
     15          6           0       -3.974637   -0.889965    0.289986
     16          7           0       -4.259556    0.203843   -0.669340
     17          1           0       -0.372831   -1.956352    1.099430
     18          1           0        1.554627   -0.892708    1.330011
     19          1           0        0.861839    2.546274    2.447712
     20          1           0        1.233170   -0.384492   -1.260563
     21          1           0        0.888307    1.244140   -0.734564
     22          1           0        3.339524    2.532496    0.509303
     23          1           0        5.937025   -0.372368   -0.991397
     24          1           0        3.570064   -1.224065   -1.300151
     25          1           0       -2.665263   -1.932058   -1.057774
     26          1           0       -2.465988   -2.402790    0.629291
     27          1           0       -4.776490   -1.629383    0.258918
     28          1           0       -3.944371   -0.481792    1.302504
     29          1           0       -4.473217   -0.164428   -1.595482
     30          1           0       -5.022815    0.805627   -0.362453
     31          1           0       -3.398692    0.761715   -0.751084
 ---------------------------------------------------------------------
                    Distance matrix (angstroms):
                    1          2          3          4          5
     1  O    0.000000
     2  C    1.228370   0.000000
     3  N    2.252700   1.353751   0.000000
     4  C    2.762051   2.452325   1.459826   0.000000
     5  C    2.995960   3.000104   2.432191   1.520828   0.000000
     6  O    3.678415   4.029261   3.584915   2.396808   1.349745
     7  O    3.328313   3.174529   2.775340   2.408058   1.201995
     8  C    2.967827   3.083077   2.493278   1.545217   2.576002
     9  C    4.433655   4.548570   3.769445   2.550876   3.343766
    10  C    5.323576   5.593562   4.857662   3.481634   3.774478
    11  N    6.599600   6.773212   5.920238   4.583288   5.006052
    12  C    6.612463   6.614915   5.678094   4.517385   5.305113
    13  N    5.445532   5.368773   4.454937   3.443616   4.486877
    14  C    2.414196   1.519194   2.437207   3.811152   4.348291
    15  C    2.909820   2.527275   3.659025   4.874966   5.011558
    16  N    2.765919   2.986351   4.321786   5.322290   5.399484
    17  H    3.132979   2.039019   1.005406   2.112314   2.999752
    18  H    3.807032   3.296767   2.036086   1.096697   2.103156
    19  H    4.174249   4.575784   4.251471   3.211000   1.863315
    20  H    3.073091   3.023708   2.527665   2.148538   3.449540
    21  H    2.548955   3.095390   2.949177   2.163762   2.682515
    22  H    5.325137   5.753685   5.158348   3.754563   3.619842
    23  H    7.562758   7.490937   6.507445   5.433703   6.296342
    24  H    5.499283   5.266598   4.341063   3.621086   4.893205
    25  H    2.838052   2.120036   2.979363   4.321088   5.095063
    26  H    3.262424   2.143974   2.505267   3.946064   4.527752
    27  H    3.960694   3.467170   4.488205   5.801302   6.003652
    28  H    3.097162   2.762244   3.729230   4.797095   4.629018
    29  H    3.276490   3.454121   4.773125   5.832416   6.114183
    30  H    3.492584   3.834729   5.146783   6.060194   5.924204
    31  H    1.915155   2.487131   3.824336   4.622730   4.670949
                    6          7          8          9         10
     6  O    0.000000
     7  O    2.242927   0.000000
     8  C    2.748988   3.684727   0.000000
     9  C    3.080238   4.521894   1.499013   0.000000
    10  C    3.040293   4.929211   2.637896   1.365309   0.000000
    11  N    4.327583   6.123213   3.748552   2.266821   1.383624
    12  C    4.930515   6.420115   3.645852   2.217172   2.139855
    13  N    4.376074   5.600717   2.514507   1.381526   2.170038
    14  C    5.473834   4.238783   4.499514   5.947052   7.060620
    15  C    6.050282   4.660432   5.581272   7.059794   8.045187
    16  N    6.185904   5.233055   5.682555   7.169635   8.083975
    17  H    4.256965   3.086279   3.302749   4.402407   5.491500
    18  H    2.911708   2.824809   2.178989   2.640666   3.517086
    19  H    0.966190   2.270227   3.696935   4.013079   3.804573
    20  H    3.808613   4.438914   1.090527   2.106282   3.412306
    21  H    2.588863   3.753944   1.084843   2.138830   2.912594
    22  H    2.565254   4.706236   3.075907   2.196921   1.077631
    23  H    5.976382   7.379490   4.604938   3.242704   3.190977
    24  H    5.019195   5.936353   2.787197   2.128352   3.144818
    25  H    6.133806   5.163766   4.708649   6.137951   7.342213
    26  H    5.782915   4.286460   4.876812   6.222493   7.353720
    27  H    7.095158   5.582892   6.538837   8.011491   9.047545
    28  H    5.676913   4.053648   5.704539   7.128467   7.993120
    29  H    6.882916   6.064890   6.019570   7.501713   8.494393
    30  H    6.631989   5.637450   6.458371   7.921050   8.737922
    31  H    5.331316   4.664445   4.843650   6.305939   7.162918
                   11         12         13         14         15
    11  N    0.000000
    12  C    1.310722   0.000000
    13  N    2.206795   1.359729   0.000000
    14  C    8.187153   7.911978   6.613383   0.000000
    15  C    9.271361   9.141432   7.884426   1.522550   0.000000
    16  N    9.357512   9.311650   8.083620   2.471466   1.482532
    17  H    6.437985   6.095387   4.896015   2.568101   3.842576
    18  H    4.373570   4.178417   3.201593   4.461992   5.626226
    19  H    5.034063   5.755410   5.297984   5.936234   6.313084
    20  H    4.306727   3.898860   2.597909   4.230491   5.457194
    21  H    4.168567   4.301626   3.320909   4.559284   5.408543
    22  H    2.149141   3.162024   3.225642   7.264581   8.078261
    23  H    2.131971   1.075844   2.137181   8.713529  10.007542
    24  H    3.170173   2.118037   1.004826   6.349317   7.717686
    25  H    8.399686   8.004945   6.663366   1.093438   2.148692
    26  H    8.401308   8.054124   6.770039   1.091019   2.163282
    27  H   10.239362  10.036426   8.750263   2.154955   1.091179
    28  H    9.254384   9.238584   8.050471   2.150433   1.092114
    29  H    9.715646   9.573051   8.308734   2.779190   2.080860
    30  H   10.052447  10.100748   8.914987   3.367371   2.097471
    31  H    8.453914   8.471934   7.286666   2.539298   2.035581
                   16         17         18         19         20
    16  N    0.000000
    17  H    4.785564   0.000000
    18  H    6.245362   2.213504   0.000000
    19  H    6.436745   4.859621   3.681821   0.000000
    20  H    5.555693   3.258765   2.659453   4.741158   0.000000
    21  H    5.252329   3.898352   3.045090   3.438479   1.745866
    22  H    8.034790   5.854877   3.948600   3.145878   4.009734
    23  H   10.217926   6.833363   4.986492   6.789953   4.711565
    24  H    7.983720   4.673399   3.330096   5.966274   2.483450
    25  H    2.693459   3.147914   4.958754   6.692111   4.199270
    26  H    3.420214   2.191266   4.351632   6.234928   4.618316
    27  H    2.118868   4.495062   6.463201   7.349672   6.322546
    28  H    2.111304   3.869298   5.514398   5.794855   5.778037
    29  H    1.019320   5.223668   6.739718   7.222060   5.720442
    30  H    1.019258   5.602497   7.000822   6.749521   6.431200
    31  H    1.029073   4.468570   5.621693   5.618636   4.798698
                   21         22         23         24         25
    21  H    0.000000
    22  H    3.035710   0.000000
    23  H    5.307412   4.175804   0.000000
    24  H    3.688326   4.176005   2.534408   0.000000
    25  H    4.777087   7.644962   8.742792   6.280072   0.000000
    26  H    5.139212   7.620723   8.795446   6.445624   1.762806
    27  H    6.429157   9.124342  10.859226   8.500585   2.506506
    28  H    5.521165   7.922767  10.144750   7.986959   3.051279
    29  H    5.609918   8.528918  10.429827   8.118154   2.585023
    30  H    5.939034   8.583167  11.040894   8.878992   3.679190
    31  H    4.314089   7.080099   9.407417   7.266935   2.808628
                   26         27         28         29         30
    26  H    0.000000
    27  H    2.464499   0.000000
    28  H    2.515764   1.760243   0.000000
    29  H    3.740167   2.382618   2.962890   0.000000
    30  H    4.220765   2.525084   2.364862   1.662355   0.000000
    31  H    3.576236   2.938670   2.461971   1.650864   1.670550
                   31
    31  H    0.000000
 Symmetry turned off by external request.
 Stoichiometry    C9H15N4O3(1+)
 Framework group  C1[X(C9H15N4O3)]
 Deg. of freedom    87
 Full point group                 C1      NOp   1
 Rotational constants (GHZ):      1.1693117      0.2438321      0.2245456
 Standard basis: 6-311G(d,p) (5D, 7F)
   378 basis functions,   632 primitive gaussians,   394 cartesian basis functions
    60 alpha electrons       60 beta electrons
       nuclear repulsion energy      1139.5684606199 Hartrees.
 NAtoms=   31 NActive=   31 NUniq=   31 SFac= 1.00D+00 NAtFMM=   60 NAOKFM=F Big=F
 Integral buffers will be    131072 words long.
 Raffenetti 2 integral format.
 Two-electron integral symmetry is turned off.
 One-electron integrals computed using PRISM.
 NBasis=   378 RedAO= T EigKep=  5.00D-04  NBF=   378
 NBsUse=   378 1.00D-06 EigRej= -1.00D+00 NBFU=   378
 ExpMin= 1.03D-01 ExpMax= 8.59D+03 ExpMxC= 1.30D+03 IAcc=3 IRadAn=         5 AccDes= 0.00D+00
 Harris functional with IExCor=  402 and IRadAn=       5 diagonalized for initial guess.
 HarFok:  IExCor=  402 AccDes= 0.00D+00 IRadAn=         5 IDoV= 1 UseB2=F ITyADJ=14
 ICtDFT=  3500011 ScaDFX=  1.000000  1.000000  1.000000  1.000000
 FoFCou: FMM=F IPFlag=           0 FMFlag=      100000 FMFlg1=           0
         NFxFlg=           0 DoJE=T BraDBF=F KetDBF=T FulRan=T
         wScrn=  0.000000 ICntrl=     500 IOpCl=  0 I1Cent=   200000004 NGrid=           0
         NMat0=    1 NMatS0=      1 NMatT0=    0 NMatD0=    1 NMtDS0=    0 NMtDT0=    0
 Symmetry not used in FoFCou.
 Requested convergence on RMS density matrix=1.00D-08 within 128 cycles.
 Requested convergence on MAX density matrix=1.00D-06.
 Requested convergence on             energy=1.00D-06.
 No special actions if energy rises.
 Integral accuracy reduced to 1.0D-05 until final iterations.
 Initial convergence to 1.0D-05 achieved.  Increase integral accuracy.
 SCF Done:  E(RB3LYP) =  -796.681563574     A.U. after   14 cycles
            NFock= 14  Conv=0.49D-08     -V/T= 2.0033
 DoSCS=F DFT=T ScalE2(SS,OS)=  1.000000  1.000000
 Range of M.O.s used for correlation:     1   378
 NBasis=   378 NAE=    60 NBE=    60 NFC=     0 NFV=     0
 NROrb=    378 NOA=    60 NOB=    60 NVA=   318 NVB=   318
 Symmetrizing basis deriv contribution to polar:
 IMax=3 JMax=2 DiffMx= 0.00D+00
 G2DrvN: will do    32 centers at a time, making    1 passes.
 Calling FoFCou, ICntrl=  3107 FMM=F I1Cent=   0 AccDes= 0.00D+00.
 End of G2Drv F.D. properties file   721 does not exist.
 End of G2Drv F.D. properties file   722 does not exist.
 End of G2Drv F.D. properties file   788 does not exist.
          IDoAtm=1111111111111111111111111111111
          Differentiating once with respect to nuclear coordinates.
          There are    96 degrees of freedom in the 1st order CPHF.  IDoFFX=6 NUNeed=     0.
     90 vectors produced by pass  0 Test12= 1.99D-14 1.04D-09 XBig12= 1.64D-01 8.76D-02.
 AX will form    90 AO Fock derivatives at one time.
     90 vectors produced by pass  1 Test12= 1.99D-14 1.04D-09 XBig12= 2.45D-02 4.53D-02.
     90 vectors produced by pass  2 Test12= 1.99D-14 1.04D-09 XBig12= 2.03D-04 2.37D-03.
     90 vectors produced by pass  3 Test12= 1.99D-14 1.04D-09 XBig12= 7.45D-07 1.08D-04.
     90 vectors produced by pass  4 Test12= 1.99D-14 1.04D-09 XBig12= 1.21D-09 3.97D-06.
     77 vectors produced by pass  5 Test12= 1.99D-14 1.04D-09 XBig12= 1.62D-12 1.43D-07.
     25 vectors produced by pass  6 Test12= 1.99D-14 1.04D-09 XBig12= 1.82D-15 6.65D-09.
 InvSVY:  IOpt=1 It=  1 EMax= 7.22D-16
 Solved reduced A of dimension   552 with    96 vectors.
 End of Minotr F.D. properties file   721 does not exist.
 End of Minotr F.D. properties file   722 does not exist.
 End of Minotr F.D. properties file   788 does not exist.

 **********************************************************************

            Population analysis using the SCF density.

 **********************************************************************

 Alpha  occ. eigenvalues --  -19.27535 -19.25596 -19.22143 -14.61819 -14.49051
 Alpha  occ. eigenvalues --  -14.44273 -14.35672 -10.43777 -10.41840 -10.41820
 Alpha  occ. eigenvalues --  -10.36564 -10.35507 -10.29241 -10.29211 -10.28191
 Alpha  occ. eigenvalues --  -10.25075  -1.22547  -1.21430  -1.19351  -1.13597
 Alpha  occ. eigenvalues --   -1.09355  -1.08241  -0.97546  -0.94695  -0.91568
 Alpha  occ. eigenvalues --   -0.85910  -0.83228  -0.78437  -0.78063  -0.77433
 Alpha  occ. eigenvalues --   -0.75693  -0.71588  -0.69973  -0.69240  -0.67527
 Alpha  occ. eigenvalues --   -0.66762  -0.63877  -0.62695  -0.62049  -0.60594
 Alpha  occ. eigenvalues --   -0.59803  -0.58791  -0.57503  -0.57019  -0.55559
 Alpha  occ. eigenvalues --   -0.53955  -0.53539  -0.51899  -0.51388  -0.50066
 Alpha  occ. eigenvalues --   -0.49405  -0.48533  -0.47644  -0.43742  -0.42919
 Alpha  occ. eigenvalues --   -0.42179  -0.39486  -0.35596  -0.33791  -0.30594
 Alpha virt. eigenvalues --   -0.16949  -0.14891  -0.11813  -0.11460  -0.10563
 Alpha virt. eigenvalues --   -0.08674  -0.06723  -0.06285  -0.06058  -0.04866
 Alpha virt. eigenvalues --   -0.04531  -0.03957  -0.03658  -0.02135  -0.01716
 Alpha virt. eigenvalues --   -0.00487   0.00536   0.01320   0.02162   0.03088
 Alpha virt. eigenvalues --    0.04320   0.04929   0.07362   0.08934   0.09944
 Alpha virt. eigenvalues --    0.10527   0.11286   0.12298   0.13135   0.13215
 Alpha virt. eigenvalues --    0.15798   0.16696   0.17192   0.17467   0.18482
 Alpha virt. eigenvalues --    0.20219   0.21318   0.23666   0.24884   0.25698
 Alpha virt. eigenvalues --    0.26170   0.26519   0.27989   0.28966   0.30243
 Alpha virt. eigenvalues --    0.30629   0.31383   0.32449   0.33369   0.33866
 Alpha virt. eigenvalues --    0.34277   0.35841   0.36521   0.37273   0.37705
 Alpha virt. eigenvalues --    0.39059   0.39911   0.40844   0.41018   0.41639
 Alpha virt. eigenvalues --    0.42096   0.43169   0.44891   0.45533   0.46107
 Alpha virt. eigenvalues --    0.46872   0.47550   0.48454   0.48896   0.49356
 Alpha virt. eigenvalues --    0.49585   0.50418   0.51431   0.52115   0.53713
 Alpha virt. eigenvalues --    0.54371   0.54849   0.55057   0.57532   0.58876
 Alpha virt. eigenvalues --    0.59300   0.60272   0.60859   0.63221   0.63774
 Alpha virt. eigenvalues --    0.63956   0.66378   0.66782   0.67876   0.70572
 Alpha virt. eigenvalues --    0.71851   0.73651   0.74049   0.76605   0.80042
 Alpha virt. eigenvalues --    0.80884   0.82708   0.82990   0.84395   0.85506
 Alpha virt. eigenvalues --    0.87141   0.89431   0.90841   0.91364   0.92445
 Alpha virt. eigenvalues --    0.93759   0.95771   0.97045   0.99779   1.02066
 Alpha virt. eigenvalues --    1.02854   1.05791   1.06363   1.08493   1.09711
 Alpha virt. eigenvalues --    1.12181   1.12998   1.13116   1.13562   1.14514
 Alpha virt. eigenvalues --    1.18013   1.19938   1.22573   1.22962   1.24484
 Alpha virt. eigenvalues --    1.25539   1.26690   1.27394   1.28662   1.30320
 Alpha virt. eigenvalues --    1.31469   1.32541   1.34041   1.34543   1.35036
 Alpha virt. eigenvalues --    1.36266   1.38425   1.39818   1.40732   1.43757
 Alpha virt. eigenvalues --    1.44840   1.45498   1.46382   1.46483   1.48384
 Alpha virt. eigenvalues --    1.49876   1.49985   1.51128   1.51959   1.53598
 Alpha virt. eigenvalues --    1.54118   1.56045   1.56493   1.56973   1.57677
 Alpha virt. eigenvalues --    1.59373   1.60199   1.61360   1.63125   1.63410
 Alpha virt. eigenvalues --    1.65158   1.65605   1.66068   1.67442   1.68085
 Alpha virt. eigenvalues --    1.68766   1.71210   1.71684   1.73732   1.75320
 Alpha virt. eigenvalues --    1.78271   1.79583   1.80802   1.81927   1.83458
 Alpha virt. eigenvalues --    1.84740   1.86235   1.88254   1.90649   1.91642
 Alpha virt. eigenvalues --    1.94711   1.96066   1.96909   2.00124   2.01646
 Alpha virt. eigenvalues --    2.02725   2.04369   2.05399   2.08899   2.10236
 Alpha virt. eigenvalues --    2.12424   2.14137   2.15398   2.17656   2.18158
 Alpha virt. eigenvalues --    2.19331   2.21327   2.22608   2.24535   2.27934
 Alpha virt. eigenvalues --    2.31301   2.32444   2.33075   2.34156   2.36042
 Alpha virt. eigenvalues --    2.37955   2.38322   2.38715   2.40582   2.42030
 Alpha virt. eigenvalues --    2.43332   2.44763   2.46203   2.46472   2.48348
 Alpha virt. eigenvalues --    2.48936   2.49975   2.50891   2.50957   2.53791
 Alpha virt. eigenvalues --    2.54138   2.55130   2.56585   2.58321   2.59701
 Alpha virt. eigenvalues --    2.61075   2.62237   2.63522   2.64257   2.67219
 Alpha virt. eigenvalues --    2.68495   2.71480   2.72364   2.74565   2.75032
 Alpha virt. eigenvalues --    2.75898   2.76432   2.78466   2.79484   2.80328
 Alpha virt. eigenvalues --    2.80563   2.81619   2.83208   2.86186   2.87550
 Alpha virt. eigenvalues --    2.89422   2.92022   2.93229   2.97473   2.97561
 Alpha virt. eigenvalues --    2.99855   3.05197   3.07648   3.08736   3.12038
 Alpha virt. eigenvalues --    3.17931   3.21779   3.22672   3.23931   3.25803
 Alpha virt. eigenvalues --    3.29364   3.38834   3.40894   3.44497   3.47710
 Alpha virt. eigenvalues --    3.49573   3.53949   3.57657   3.58800   3.59367
 Alpha virt. eigenvalues --    3.61832   3.64063   3.64863   3.69161   3.73638
 Alpha virt. eigenvalues --    3.74398   3.75922   3.78226   3.82381   3.87402
 Alpha virt. eigenvalues --    3.91667   4.04610   4.14744   4.21798   4.35095
 Alpha virt. eigenvalues --    4.45819   4.47906   4.58759   4.68685   4.69200
 Alpha virt. eigenvalues --    4.72371   4.78892   4.80733   4.84599   4.85014
 Alpha virt. eigenvalues --    4.92788   5.07106   5.17440   5.21770   5.46576
 Alpha virt. eigenvalues --    5.53741   5.65054  23.59054  23.62690  23.64010
 Alpha virt. eigenvalues --   23.67055  23.68501  23.71950  23.81391  23.84957
 Alpha virt. eigenvalues --   24.08243  35.30653  35.44287  35.45506  35.61472
 Alpha virt. eigenvalues --   49.73706  49.85537  49.89821
          Condensed to atoms (all electrons):
               1          2          3          4          5          6
     1  O    7.983549   0.542913  -0.093061   0.000257   0.007021  -0.000379
     2  C    0.542913   4.561324   0.392848  -0.078565  -0.001924  -0.000845
     3  N   -0.093061   0.392848   6.631731   0.255628  -0.056089   0.002416
     4  C    0.000257  -0.078565   0.255628   5.327396   0.271239  -0.093573
     5  C    0.007021  -0.001924  -0.056089   0.271239   4.483841   0.354115
     6  O   -0.000379  -0.000845   0.002416  -0.093573   0.354115   7.794645
     7  O   -0.001830   0.012494   0.001664  -0.094419   0.656975  -0.079659
     8  C    0.000004  -0.007636  -0.049502   0.276493  -0.057234   0.008327
     9  C    0.000608   0.000111   0.004752  -0.085246   0.001641  -0.005932
    10  C    0.000003  -0.000014   0.000026  -0.003484   0.000752  -0.002839
    11  N    0.000000   0.000000   0.000000  -0.000036  -0.000006   0.000001
    12  C    0.000000   0.000001  -0.000001   0.000135  -0.000025  -0.000025
    13  N   -0.000001  -0.000010  -0.000071   0.000868   0.000005   0.000041
    14  C   -0.084806   0.295898  -0.064092   0.007928  -0.000639  -0.000020
    15  C    0.011992  -0.062932  -0.000740  -0.000452   0.000281   0.000000
    16  N   -0.032886  -0.002446  -0.000147   0.000016  -0.000011   0.000000
    17  H    0.003145  -0.027831   0.365390  -0.025499   0.002598   0.000096
    18  H    0.000241   0.007030  -0.019801   0.392476  -0.025238   0.001474
    19  H    0.000045  -0.000201  -0.000522   0.017079  -0.027259   0.303215
    20  H   -0.001958   0.000606   0.003525  -0.048876   0.005802   0.000072
    21  H    0.009256  -0.000235  -0.000106  -0.047578  -0.005084   0.005549
    22  H   -0.000006  -0.000001  -0.000004   0.000059   0.000100   0.010040
    23  H    0.000000   0.000000   0.000000   0.000003   0.000000   0.000000
    24  H    0.000000  -0.000002  -0.000044   0.000094   0.000013   0.000001
    25  H    0.001664  -0.032626  -0.001739  -0.000308  -0.000058   0.000001
    26  H    0.003017  -0.025856   0.002341   0.000084  -0.000044   0.000000
    27  H    0.000099   0.006587  -0.000188   0.000016   0.000002   0.000000
    28  H    0.001130  -0.003993   0.000481  -0.000211   0.000147   0.000002
    29  H    0.001489  -0.000096   0.000030  -0.000003  -0.000002   0.000000
    30  H    0.000373  -0.000174   0.000005  -0.000002   0.000000   0.000000
    31  H    0.074432  -0.003627   0.002303  -0.000084   0.000027   0.000005
               7          8          9         10         11         12
     1  O   -0.001830   0.000004   0.000608   0.000003   0.000000   0.000000
     2  C    0.012494  -0.007636   0.000111  -0.000014   0.000000   0.000001
     3  N    0.001664  -0.049502   0.004752   0.000026   0.000000  -0.000001
     4  C   -0.094419   0.276493  -0.085246  -0.003484  -0.000036   0.000135
     5  C    0.656975  -0.057234   0.001641   0.000752  -0.000006  -0.000025
     6  O   -0.079659   0.008327  -0.005932  -0.002839   0.000001  -0.000025
     7  O    7.825510   0.004018  -0.000084   0.000009   0.000000   0.000000
     8  C    0.004018   4.999551   0.298285  -0.031628   0.008069   0.006433
     9  C   -0.000084   0.298285   5.149906   0.551296  -0.094751  -0.121158
    10  C    0.000009  -0.031628   0.551296   4.828544   0.503658  -0.175186
    11  N    0.000000   0.008069  -0.094751   0.503658   6.416553   0.578723
    12  C    0.000000   0.006433  -0.121158  -0.175186   0.578723   4.730247
    13  N    0.000000  -0.049462   0.377189  -0.071659  -0.085942   0.418202
    14  C   -0.000614  -0.000341   0.000058   0.000000   0.000000   0.000000
    15  C   -0.000006  -0.000083   0.000000   0.000000   0.000000   0.000000
    16  N    0.000000   0.000002   0.000000   0.000000   0.000000   0.000000
    17  H    0.003495   0.005155  -0.000450  -0.000006   0.000000   0.000001
    18  H   -0.000026  -0.023435  -0.001656   0.000268  -0.000167  -0.000367
    19  H    0.008598  -0.001881   0.000432   0.000429  -0.000007  -0.000004
    20  H   -0.000202   0.398168  -0.029892   0.002899  -0.000361   0.000139
    21  H    0.000001   0.416056  -0.027975  -0.001304   0.000241  -0.000117
    22  H    0.000071  -0.000017  -0.051921   0.424595  -0.024295   0.007662
    23  H    0.000000  -0.000368   0.003973   0.006285  -0.021712   0.414768
    24  H    0.000000   0.002717  -0.039288   0.008164   0.007084  -0.022386
    25  H    0.000003   0.000175  -0.000010   0.000000   0.000000   0.000000
    26  H    0.000003  -0.000037  -0.000004   0.000000   0.000000   0.000000
    27  H   -0.000004   0.000000   0.000000   0.000000   0.000000   0.000000
    28  H    0.000786   0.000004   0.000000   0.000000   0.000000   0.000000
    29  H    0.000000   0.000001   0.000000   0.000000   0.000000   0.000000
    30  H   -0.000001   0.000000   0.000000   0.000000   0.000000   0.000000
    31  H    0.000027   0.000056   0.000001   0.000000   0.000000   0.000000
              13         14         15         16         17         18
     1  O   -0.000001  -0.084806   0.011992  -0.032886   0.003145   0.000241
     2  C   -0.000010   0.295898  -0.062932  -0.002446  -0.027831   0.007030
     3  N   -0.000071  -0.064092  -0.000740  -0.000147   0.365390  -0.019801
     4  C    0.000868   0.007928  -0.000452   0.000016  -0.025499   0.392476
     5  C    0.000005  -0.000639   0.000281  -0.000011   0.002598  -0.025238
     6  O    0.000041  -0.000020   0.000000   0.000000   0.000096   0.001474
     7  O    0.000000  -0.000614  -0.000006   0.000000   0.003495  -0.000026
     8  C   -0.049462  -0.000341  -0.000083   0.000002   0.005155  -0.023435
     9  C    0.377189   0.000058   0.000000   0.000000  -0.000450  -0.001656
    10  C   -0.071659   0.000000   0.000000   0.000000  -0.000006   0.000268
    11  N   -0.085942   0.000000   0.000000   0.000000   0.000000  -0.000167
    12  C    0.418202   0.000000   0.000000   0.000000   0.000001  -0.000367
    13  N    6.456160   0.000000   0.000000   0.000000  -0.000014   0.004298
    14  C    0.000000   5.150994   0.310020  -0.036618  -0.002476  -0.000274
    15  C    0.000000   0.310020   5.006403   0.223698  -0.000026   0.000011
    16  N    0.000000  -0.036618   0.223698   6.165482   0.000040   0.000000
    17  H   -0.000014  -0.002476  -0.000026   0.000040   0.437713  -0.009478
    18  H    0.004298  -0.000274   0.000011   0.000000  -0.009478   0.487459
    19  H    0.000002  -0.000002   0.000004   0.000000  -0.000007  -0.000558
    20  H   -0.003572  -0.000278   0.000059  -0.000005   0.000281  -0.001083
    21  H    0.002146   0.000315  -0.000009  -0.000005  -0.000481   0.005664
    22  H    0.004047   0.000000   0.000000   0.000000  -0.000002   0.000017
    23  H   -0.036733   0.000000   0.000000   0.000000   0.000000   0.000016
    24  H    0.349448   0.000000   0.000000   0.000000   0.000001   0.000348
    25  H    0.000000   0.398291  -0.044354  -0.002511   0.000362   0.000019
    26  H    0.000000   0.391961  -0.026952   0.003796   0.002385  -0.000068
    27  H    0.000000  -0.036576   0.420478  -0.025244  -0.000059   0.000000
    28  H    0.000000  -0.029769   0.397919  -0.022843   0.000114   0.000010
    29  H    0.000000  -0.001068  -0.029376   0.356620   0.000001   0.000000
    30  H    0.000000   0.005660  -0.022343   0.357145   0.000000   0.000000
    31  H    0.000000  -0.017210  -0.027386   0.316656  -0.000249   0.000003
              19         20         21         22         23         24
     1  O    0.000045  -0.001958   0.009256  -0.000006   0.000000   0.000000
     2  C   -0.000201   0.000606  -0.000235  -0.000001   0.000000  -0.000002
     3  N   -0.000522   0.003525  -0.000106  -0.000004   0.000000  -0.000044
     4  C    0.017079  -0.048876  -0.047578   0.000059   0.000003   0.000094
     5  C   -0.027259   0.005802  -0.005084   0.000100   0.000000   0.000013
     6  O    0.303215   0.000072   0.005549   0.010040   0.000000   0.000001
     7  O    0.008598  -0.000202   0.000001   0.000071   0.000000   0.000000
     8  C   -0.001881   0.398168   0.416056  -0.000017  -0.000368   0.002717
     9  C    0.000432  -0.029892  -0.027975  -0.051921   0.003973  -0.039288
    10  C    0.000429   0.002899  -0.001304   0.424595   0.006285   0.008164
    11  N   -0.000007  -0.000361   0.000241  -0.024295  -0.021712   0.007084
    12  C   -0.000004   0.000139  -0.000117   0.007662   0.414768  -0.022386
    13  N    0.000002  -0.003572   0.002146   0.004047  -0.036733   0.349448
    14  C   -0.000002  -0.000278   0.000315   0.000000   0.000000   0.000000
    15  C    0.000004   0.000059  -0.000009   0.000000   0.000000   0.000000
    16  N    0.000000  -0.000005  -0.000005   0.000000   0.000000   0.000000
    17  H   -0.000007   0.000281  -0.000481  -0.000002   0.000000   0.000001
    18  H   -0.000558  -0.001083   0.005664   0.000017   0.000016   0.000348
    19  H    0.430626   0.000114  -0.000525  -0.000180   0.000000   0.000000
    20  H    0.000114   0.563077  -0.018744  -0.000025  -0.000029   0.003242
    21  H   -0.000525  -0.018744   0.486494   0.000456   0.000016  -0.000022
    22  H   -0.000180  -0.000025   0.000456   0.525253  -0.000321  -0.000320
    23  H    0.000000  -0.000029   0.000016  -0.000321   0.513897  -0.002076
    24  H    0.000000   0.003242  -0.000022  -0.000320  -0.002076   0.470942
    25  H    0.000000  -0.000045  -0.000013   0.000000   0.000000   0.000000
    26  H    0.000000   0.000002  -0.000034   0.000000   0.000000   0.000000
    27  H    0.000000   0.000000   0.000000   0.000000   0.000000   0.000000
    28  H   -0.000003  -0.000001  -0.000003   0.000000   0.000000   0.000000
    29  H    0.000000  -0.000002  -0.000003   0.000000   0.000000   0.000000
    30  H    0.000000   0.000000  -0.000001   0.000000   0.000000   0.000000
    31  H   -0.000001   0.000004   0.000126   0.000000   0.000000   0.000000
              25         26         27         28         29         30
     1  O    0.001664   0.003017   0.000099   0.001130   0.001489   0.000373
     2  C   -0.032626  -0.025856   0.006587  -0.003993  -0.000096  -0.000174
     3  N   -0.001739   0.002341  -0.000188   0.000481   0.000030   0.000005
     4  C   -0.000308   0.000084   0.000016  -0.000211  -0.000003  -0.000002
     5  C   -0.000058  -0.000044   0.000002   0.000147  -0.000002   0.000000
     6  O    0.000001   0.000000   0.000000   0.000002   0.000000   0.000000
     7  O    0.000003   0.000003  -0.000004   0.000786   0.000000  -0.000001
     8  C    0.000175  -0.000037   0.000000   0.000004   0.000001   0.000000
     9  C   -0.000010  -0.000004   0.000000   0.000000   0.000000   0.000000
    10  C    0.000000   0.000000   0.000000   0.000000   0.000000   0.000000
    11  N    0.000000   0.000000   0.000000   0.000000   0.000000   0.000000
    12  C    0.000000   0.000000   0.000000   0.000000   0.000000   0.000000
    13  N    0.000000   0.000000   0.000000   0.000000   0.000000   0.000000
    14  C    0.398291   0.391961  -0.036576  -0.029769  -0.001068   0.005660
    15  C   -0.044354  -0.026952   0.420478   0.397919  -0.029376  -0.022343
    16  N   -0.002511   0.003796  -0.025244  -0.022843   0.356620   0.357145
    17  H    0.000362   0.002385  -0.000059   0.000114   0.000001   0.000000
    18  H    0.000019  -0.000068   0.000000   0.000010   0.000000   0.000000
    19  H    0.000000   0.000000   0.000000  -0.000003   0.000000   0.000000
    20  H   -0.000045   0.000002   0.000000  -0.000001  -0.000002   0.000000
    21  H   -0.000013  -0.000034   0.000000  -0.000003  -0.000003  -0.000001
    22  H    0.000000   0.000000   0.000000   0.000000   0.000000   0.000000
    23  H    0.000000   0.000000   0.000000   0.000000   0.000000   0.000000
    24  H    0.000000   0.000000   0.000000   0.000000   0.000000   0.000000
    25  H    0.509907  -0.010215  -0.004765   0.006294   0.004720  -0.000250
    26  H   -0.010215   0.492856  -0.004506  -0.001354   0.000100  -0.000176
    27  H   -0.004765  -0.004506   0.470212  -0.018705  -0.005762  -0.001335
    28  H    0.006294  -0.001354  -0.018705   0.468917   0.005161  -0.005168
    29  H    0.004720   0.000100  -0.005762   0.005161   0.401379  -0.014983
    30  H   -0.000250  -0.000176  -0.001335  -0.005168  -0.014983   0.385653
    31  H    0.001407   0.000277   0.003866  -0.000656  -0.011585  -0.009327
              31
     1  O    0.074432
     2  C   -0.003627
     3  N    0.002303
     4  C   -0.000084
     5  C    0.000027
     6  O    0.000005
     7  O    0.000027
     8  C    0.000056
     9  C    0.000001
    10  C    0.000000
    11  N    0.000000
    12  C    0.000000
    13  N    0.000000
    14  C   -0.017210
    15  C   -0.027386
    16  N    0.316656
    17  H   -0.000249
    18  H    0.000003
    19  H   -0.000001
    20  H    0.000004
    21  H    0.000126
    22  H    0.000000
    23  H    0.000000
    24  H    0.000000
    25  H    0.001407
    26  H    0.000277
    27  H    0.003866
    28  H   -0.000656
    29  H   -0.011585
    30  H   -0.009327
    31  H    0.369765
 Mulliken charges:
               1
     1  O   -0.426312
     2  C    0.429200
     3  N   -0.377032
     4  C   -0.071434
     5  C    0.389052
     6  O   -0.296728
     7  O   -0.336809
     8  C   -0.201887
     9  C    0.070115
    10  C   -0.040808
    11  N   -0.287052
    12  C    0.162960
    13  N   -0.364941
    14  C   -0.286344
    15  C   -0.156206
    16  N   -0.300736
    17  H    0.245801
    18  H    0.182820
    19  H    0.270605
    20  H    0.127082
    21  H    0.175919
    22  H    0.104794
    23  H    0.122283
    24  H    0.222084
    25  H    0.174052
    26  H    0.172424
    27  H    0.195884
    28  H    0.201743
    29  H    0.293380
    30  H    0.304923
    31  H    0.301170
 Sum of Mulliken charges =   1.00000
 Mulliken charges with hydrogens summed into heavy atoms:
               1
     1  O   -0.426312
     2  C    0.429200
     3  N   -0.131232
     4  C    0.111386
     5  C    0.389052
     6  O   -0.026123
     7  O   -0.336809
     8  C    0.101114
     9  C    0.070115
    10  C    0.063986
    11  N   -0.287052
    12  C    0.285242
    13  N   -0.142857
    14  C    0.060133
    15  C    0.241421
    16  N    0.598737
 APT charges:
               1
     1  O   -0.446490
     2  C    0.365808
     3  N   -0.705453
     4  C   -0.412815
     5  C   -0.447891
     6  O   -0.593307
     7  O    0.234112
     8  C   -0.585790
     9  C   -0.485442
    10  C   -0.479361
    11  N    0.661746
    12  C   -0.884139
    13  N   -0.587390
    14  C   -0.708231
    15  C   -1.022025
    16  N   -0.995422
    17  H    0.663754
    18  H    0.501607
    19  H    0.861307
    20  H    0.266879
    21  H    0.277077
    22  H    0.352053
    23  H    1.103713
    24  H    0.362604
    25  H    0.399607
    26  H    0.410447
    27  H    0.917803
    28  H    0.274299
    29  H    0.724430
    30  H    1.074394
    31  H   -0.097884
 Sum of APT charges =   1.00000
 APT charges with hydrogens summed into heavy atoms:
               1
     1  O   -0.446490
     2  C    0.365808
     3  N   -0.041699
     4  C    0.088792
     5  C   -0.447891
     6  O    0.267999
     7  O    0.234112
     8  C   -0.041834
     9  C   -0.485442
    10  C   -0.127308
    11  N    0.661746
    12  C    0.219574
    13  N   -0.224786
    14  C    0.101823
    15  C    0.170077
    16  N    0.705518
 Electronic spatial extent (au):  <R**2>=           4948.2041
 Charge=              1.0000 electrons
 Dipole moment (field-independent basis, Debye):
    X=            -16.8728    Y=             -5.2995    Z=             -2.2846  Tot=             17.8324
 Quadrupole moment (field-independent basis, Debye-Ang):
   XX=            -22.9921   YY=            -77.8440   ZZ=            -87.3985
   XY=            -10.4923   XZ=              7.2618   YZ=              4.3735
 Traceless Quadrupole moment (field-independent basis, Debye-Ang):
   XX=             39.7527   YY=            -15.0991   ZZ=            -24.6536
   XY=            -10.4923   XZ=              7.2618   YZ=              4.3735
 Octapole moment (field-independent basis, Debye-Ang**2):
  XXX=           -570.7788  YYY=            -51.7740  ZZZ=            -88.2125  XYY=            -74.7231
  XXY=            -99.9269  XXZ=            -96.3860  XZZ=            -54.1704  YZZ=            -13.8088
  YYZ=              0.2181  XYZ=             19.0364
 Hexadecapole moment (field-independent basis, Debye-Ang**3):
 XXXX=          -3658.8069 YYYY=           -588.6744 ZZZZ=           -742.5478 XXXY=           -886.8422
 XXXZ=            109.0815 YYYX=           -406.3376 YYYZ=            -36.3829 ZZZX=            141.0930
 ZZZY=            -48.1646 XXYY=           -936.3588 XXZZ=           -841.9843 YYZZ=           -167.7168
 XXYZ=              3.7746 YYXZ=             38.2592 ZZXY=           -129.5095
 N-N= 1.139568460620D+03 E-N=-4.125951565415D+03  KE= 7.940226040644D+02
  Exact polarizability:   0.000   0.000   0.000   0.000   0.000   0.000
 Approx polarizability: 212.277   5.919 194.408  -3.248   9.244 152.191
 Calling FoFJK, ICntrl=    100147 FMM=F ISym2X=0 I1Cent= 0 IOpClX= 0 NMat=1 NMatS=1 NMatT=0.
 -------------------------------------------------------------------
 Center     Atomic                   Forces (Hartrees/Bohr)
 Number     Number              X              Y              Z
 -------------------------------------------------------------------
      1        8          -0.016394978    0.007102560   -0.005227317
      2        6           0.017560798   -0.007867793    0.008228854
      3        7          -0.011225064    0.002496451   -0.001098434
      4        6           0.004698369   -0.004245175   -0.004645375
      5        6           0.003891723    0.012751184    0.007723199
      6        8          -0.005731340   -0.009178350   -0.002267488
      7        8          -0.004893071   -0.002583548   -0.000516770
      8        6           0.009522368   -0.000102715   -0.001255625
      9        6          -0.005089272   -0.001024228   -0.001398909
     10        6           0.010164614    0.006751486    0.001261208
     11        7          -0.005609819    0.000711750    0.001595766
     12        6           0.001752179    0.003486316    0.001308021
     13        7          -0.002535958   -0.005949492   -0.000802336
     14        6           0.004425765    0.000185887   -0.004386138
     15        6           0.002639300   -0.018178936    0.018674674
     16        7          -0.004702025    0.004359803   -0.003998613
     17        1          -0.001048832   -0.002958473    0.000245584
     18        1           0.001490534    0.003291723   -0.002259061
     19        1           0.001070078    0.003423208    0.003377501
     20        1          -0.002364682   -0.001903594   -0.000997292
     21        1          -0.000586453    0.001791161   -0.000268589
     22        1           0.000358265   -0.000453204   -0.000536705
     23        1           0.002508387   -0.000712456   -0.000794127
     24        1           0.000805772   -0.002650070   -0.002105428
     25        1           0.001012534   -0.003576293   -0.001330241
     26        1          -0.005982356   -0.000942198   -0.000605938
     27        1          -0.001885977    0.003171402   -0.002136448
     28        1          -0.001680940    0.004731453   -0.002633888
     29        1          -0.002912876    0.000301468   -0.003303936
     30        1          -0.003417199    0.001010127   -0.000549914
     31        1           0.014160156    0.006760545    0.000703762
 -------------------------------------------------------------------
 Cartesian Forces:  Max     0.018674674 RMS     0.005666747
 FormGI is forming the generalized inverse of G from B-inverse, IUseBI=4.

 GradGradGradGradGradGradGradGradGradGradGradGradGradGradGradGradGradGrad
 Berny optimization.
 Internal  Forces:  Max     0.023349069 RMS     0.004764626
 Search for a local minimum.
 Step number   1 out of a maximum of  167
 All quantities printed in internal units (Hartrees-Bohrs-Radians)
 Mixed Optimization -- RFO/linear search
 Second derivative matrix not updated -- analytic derivatives used.
 ITU=  0
     Eigenvalues ---    0.00013   0.00036   0.00268   0.00313   0.00390
     Eigenvalues ---    0.00415   0.00516   0.00880   0.00952   0.01068
     Eigenvalues ---    0.01938   0.02068   0.02127   0.02588   0.03408
     Eigenvalues ---    0.03863   0.03975   0.04075   0.04226   0.04442
     Eigenvalues ---    0.04718   0.04871   0.04954   0.05010   0.05192
     Eigenvalues ---    0.05544   0.05969   0.06147   0.06440   0.07727
     Eigenvalues ---    0.08056   0.08252   0.10235   0.10787   0.11017
     Eigenvalues ---    0.11511   0.11701   0.12290   0.12969   0.13231
     Eigenvalues ---    0.15071   0.15284   0.16011   0.16105   0.17901
     Eigenvalues ---    0.19061   0.20514   0.22150   0.22323   0.22849
     Eigenvalues ---    0.23346   0.23767   0.24467   0.25292   0.25810
     Eigenvalues ---    0.26294   0.29584   0.31818   0.32108   0.32598
     Eigenvalues ---    0.33351   0.33539   0.33646   0.33802   0.33921
     Eigenvalues ---    0.34249   0.34703   0.35443   0.35981   0.37327
     Eigenvalues ---    0.37588   0.39498   0.40198   0.40576   0.41157
     Eigenvalues ---    0.43835   0.44282   0.44649   0.45368   0.47805
     Eigenvalues ---    0.47883   0.48413   0.52116   0.52425   0.58107
     Eigenvalues ---    0.79261   0.89324
 RFO step:  Lambda=-1.41905005D-02 EMin= 1.26200527D-04
 Linear search not attempted -- first point.
 Iteration  1 RMS(Cart)=  0.11703724 RMS(Int)=  0.00425189
 Iteration  2 RMS(Cart)=  0.01133132 RMS(Int)=  0.00032975
 Iteration  3 RMS(Cart)=  0.00008205 RMS(Int)=  0.00032492
 Iteration  4 RMS(Cart)=  0.00000007 RMS(Int)=  0.00032492
 Variable       Old X    -DE/DX   Delta X   Delta X   Delta X     New X
                                 (Linear)    (Quad)   (Total)
    R1        2.32128   0.00926   0.00000   0.02903   0.02903   2.35031
    R2        2.55822  -0.00481   0.00000  -0.03776  -0.03776   2.52046
    R3        2.87086   0.00009   0.00000   0.01282   0.01282   2.88368
    R4        2.75867   0.00905   0.00000   0.02439   0.02439   2.78306
    R5        1.89994   0.00272   0.00000   0.00647   0.00647   1.90641
    R6        2.87395   0.01007   0.00000   0.03674   0.03674   2.91069
    R7        2.92004   0.00679   0.00000   0.01695   0.01695   2.93699
    R8        2.07246  -0.00198   0.00000  -0.00697  -0.00697   2.06549
    R9        2.55065  -0.00742   0.00000  -0.02895  -0.02895   2.52170
   R10        2.27144   0.00323   0.00000   0.00385   0.00385   2.27529
   R11        1.82583   0.00422   0.00000   0.00801   0.00801   1.83385
   R12        2.83272   0.00228   0.00000  -0.00242  -0.00242   2.83030
   R13        2.06080   0.00239   0.00000   0.00691   0.00691   2.06770
   R14        2.05006   0.00185   0.00000   0.00779   0.00779   2.05785
   R15        2.58006   0.00826   0.00000   0.01617   0.01615   2.59621
   R16        2.61071   0.00573   0.00000   0.01206   0.01208   2.62279
   R17        2.61467  -0.00552   0.00000  -0.01994  -0.01997   2.59470
   R18        2.03643  -0.00072   0.00000  -0.00015  -0.00015   2.03628
   R19        2.47691   0.00079   0.00000   0.00008   0.00008   2.47698
   R20        2.56952   0.00522   0.00000   0.01168   0.01171   2.58122
   R21        2.03305   0.00264   0.00000   0.00654   0.00654   2.03959
   R22        1.89885   0.00302   0.00000   0.00590   0.00590   1.90475
   R23        2.87720   0.00045   0.00000   0.01729   0.01729   2.89449
   R24        2.06630   0.00247   0.00000   0.00458   0.00458   2.07087
   R25        2.06173  -0.00060   0.00000  -0.00030  -0.00030   2.06143
   R26        2.80158   0.01320   0.00000   0.04952   0.04952   2.85110
   R27        2.06203  -0.00070   0.00000  -0.00408  -0.00408   2.05795
   R28        2.06380  -0.00072   0.00000  -0.00285  -0.00285   2.06095
   R29        1.92624   0.00350   0.00000   0.00449   0.00449   1.93072
   R30        1.92612   0.00299   0.00000   0.00322   0.00322   1.92933
   R31        1.94467   0.01545   0.00000   0.06542   0.06542   2.01008
    A1        2.11895   0.01364   0.00000   0.02463   0.02451   2.14346
    A2        2.13999  -0.02335   0.00000  -0.06945  -0.06959   2.07040
    A3        2.02357   0.00976   0.00000   0.04584   0.04571   2.06928
    A4        2.11613   0.00433   0.00000   0.01408   0.01408   2.13021
    A5        2.07459  -0.00365   0.00000  -0.02113  -0.02113   2.05346
    A6        2.03718  -0.00071   0.00000   0.00659   0.00660   2.04377
    A7        1.90859  -0.00947   0.00000  -0.03620  -0.03646   1.87213
    A8        1.95659   0.00497   0.00000   0.01924   0.01943   1.97602
    A9        1.82713   0.00167   0.00000   0.00981   0.00988   1.83701
   A10        1.99515   0.00698   0.00000   0.03045   0.03063   2.02579
   A11        1.84635   0.00077   0.00000   0.00290   0.00308   1.84943
   A12        1.91935  -0.00563   0.00000  -0.02909  -0.02907   1.89028
   A13        1.97376   0.00154   0.00000  -0.00556  -0.00559   1.96817
   A14        2.16308  -0.00460   0.00000  -0.01791  -0.01794   2.14514
   A15        2.14561   0.00310   0.00000   0.02398   0.02395   2.16957
   A16        1.84913   0.00370   0.00000   0.03130   0.03130   1.88042
   A17        1.98684   0.00329   0.00000   0.00696   0.00698   1.99381
   A18        1.88427  -0.00280   0.00000  -0.01943  -0.01949   1.86479
   A19        1.91055  -0.00029   0.00000  -0.00040  -0.00043   1.91012
   A20        1.88168   0.00027   0.00000   0.01825   0.01831   1.89999
   A21        1.93242  -0.00112   0.00000  -0.00364  -0.00363   1.92879
   A22        1.86314   0.00046   0.00000  -0.00250  -0.00257   1.86057
   A23        2.34010   0.00021   0.00000  -0.01129  -0.01130   2.32879
   A24        2.12142   0.00057   0.00000   0.01248   0.01247   2.13389
   A25        1.82164  -0.00078   0.00000  -0.00117  -0.00115   1.82049
   A26        1.93902   0.00024   0.00000   0.00130   0.00127   1.94030
   A27        2.22948   0.00004   0.00000  -0.00505  -0.00504   2.22444
   A28        2.11468  -0.00028   0.00000   0.00376   0.00377   2.11845
   A29        1.83483   0.00249   0.00000   0.00683   0.00680   1.84162
   A30        1.94505   0.00109   0.00000   0.00216   0.00218   1.94724
   A31        2.20445  -0.00118   0.00000  -0.00450  -0.00451   2.19994
   A32        2.13368   0.00009   0.00000   0.00233   0.00232   2.13600
   A33        1.88423  -0.00304   0.00000  -0.00908  -0.00909   1.87513
   A34        2.19009   0.00301   0.00000   0.01750   0.01740   2.20750
   A35        2.20881   0.00002   0.00000  -0.00860  -0.00868   2.20014
   A36        1.96132  -0.02294   0.00000  -0.06334  -0.06310   1.89821
   A37        1.87369   0.00418   0.00000   0.01193   0.01169   1.88538
   A38        1.90851   0.01396   0.00000   0.06014   0.05932   1.96783
   A39        1.90848   0.00751   0.00000   0.02045   0.02059   1.92907
   A40        1.93110   0.00192   0.00000  -0.01923  -0.01835   1.91276
   A41        1.87803  -0.00385   0.00000  -0.00691  -0.00750   1.87053
   A42        1.93121  -0.01212   0.00000  -0.03669  -0.03688   1.89433
   A43        1.91940   0.00576   0.00000   0.04426   0.04391   1.96331
   A44        1.91221   0.00624   0.00000   0.01627   0.01418   1.92640
   A45        1.91804   0.00370   0.00000   0.00084   0.00152   1.91956
   A46        1.90657  -0.00225   0.00000  -0.04603  -0.04622   1.86035
   A47        1.87551  -0.00100   0.00000   0.02258   0.02164   1.89715
   A48        1.94084   0.00265   0.00000   0.01670   0.01675   1.95759
   A49        1.96567   0.00079   0.00000   0.00301   0.00294   1.96861
   A50        1.86565  -0.00398   0.00000  -0.06427  -0.06426   1.80138
   A51        1.90701  -0.00227   0.00000  -0.01329  -0.01331   1.89370
   A52        1.87448   0.00119   0.00000   0.02125   0.02141   1.89588
   A53        1.90740   0.00166   0.00000   0.03768   0.03755   1.94495
    D1        0.12546  -0.00013   0.00000   0.02423   0.02372   0.14919
    D2        2.90451  -0.00040   0.00000   0.02395   0.02342   2.92792
    D3       -3.05463   0.00075   0.00000   0.05170   0.05223  -3.00239
    D4       -0.27558   0.00049   0.00000   0.05142   0.05193  -0.22366
    D5       -0.71088   0.00094   0.00000   0.01813   0.01720  -0.69368
    D6        1.38816  -0.00082   0.00000   0.01317   0.01251   1.40067
    D7       -2.86243   0.00423   0.00000   0.04304   0.04355  -2.81888
    D8        2.46972  -0.00086   0.00000  -0.01204  -0.01225   2.45748
    D9       -1.71443  -0.00262   0.00000  -0.01699  -0.01693  -1.73136
   D10        0.31817   0.00242   0.00000   0.01288   0.01411   0.33228
   D11        1.10035   0.00107   0.00000  -0.02842  -0.02851   1.07184
   D12       -1.13116  -0.00446   0.00000  -0.05476  -0.05460  -1.18575
   D13        3.07198  -0.00133   0.00000  -0.03595  -0.03599   3.03598
   D14       -1.68609   0.00194   0.00000  -0.02260  -0.02271  -1.70880
   D15        2.36559  -0.00359   0.00000  -0.04894  -0.04879   2.31679
   D16        0.28554  -0.00046   0.00000  -0.03013  -0.03019   0.25535
   D17       -2.63587  -0.00214   0.00000  -0.04953  -0.04939  -2.68527
   D18        0.54568  -0.00334   0.00000  -0.06424  -0.06401   0.48167
   D19       -0.42613   0.00212   0.00000  -0.02997  -0.03022  -0.45635
   D20        2.75543   0.00093   0.00000  -0.04469  -0.04484   2.71059
   D21        1.68826  -0.00019   0.00000  -0.04600  -0.04603   1.64224
   D22       -1.41337  -0.00138   0.00000  -0.06071  -0.06064  -1.47401
   D23       -2.61548  -0.00098   0.00000  -0.00307  -0.00284  -2.61831
   D24       -0.52708  -0.00053   0.00000   0.01079   0.01095  -0.51613
   D25        1.49477  -0.00168   0.00000  -0.00307  -0.00283   1.49193
   D26        1.48307   0.00212   0.00000   0.00545   0.00525   1.48832
   D27       -2.71172   0.00256   0.00000   0.01931   0.01904  -2.69268
   D28       -0.68987   0.00141   0.00000   0.00545   0.00525  -0.68462
   D29       -0.59049   0.00053   0.00000   0.00234   0.00238  -0.58810
   D30        1.49791   0.00098   0.00000   0.01621   0.01618   1.51408
   D31       -2.76343  -0.00017   0.00000   0.00235   0.00239  -2.76104
   D32       -3.12596   0.00086   0.00000   0.03275   0.03261  -3.09335
   D33       -0.02387   0.00185   0.00000   0.04621   0.04636   0.02248
   D34       -1.46860  -0.00128   0.00000  -0.02265  -0.02263  -1.49122
   D35        1.68311  -0.00120   0.00000  -0.02634  -0.02630   1.65681
   D36        2.72473   0.00002   0.00000  -0.01518  -0.01522   2.70951
   D37       -0.40675   0.00010   0.00000  -0.01887  -0.01889  -0.42564
   D38        0.69256  -0.00008   0.00000  -0.02081  -0.02082   0.67173
   D39       -2.43892   0.00000   0.00000  -0.02450  -0.02449  -2.46342
   D40       -3.12921  -0.00022   0.00000  -0.00574  -0.00566  -3.13487
   D41        0.01195  -0.00007   0.00000  -0.00416  -0.00413   0.00782
   D42        0.00349  -0.00028   0.00000  -0.00243  -0.00239   0.00110
   D43       -3.13854  -0.00013   0.00000  -0.00084  -0.00086  -3.13940
   D44        3.13352   0.00000   0.00000   0.00137   0.00136   3.13489
   D45        0.00203   0.00038   0.00000   0.02071   0.02087   0.02290
   D46       -0.00057   0.00006   0.00000  -0.00129  -0.00131  -0.00188
   D47       -3.13206   0.00044   0.00000   0.01806   0.01820  -3.11386
   D48       -0.00511   0.00040   0.00000   0.00528   0.00525   0.00014
   D49        3.13689   0.00026   0.00000   0.00382   0.00383   3.14072
   D50        0.00469  -0.00035   0.00000  -0.00608  -0.00609  -0.00140
   D51       -3.13878  -0.00039   0.00000  -0.00957  -0.00951   3.13489
   D52       -0.00270   0.00020   0.00000   0.00484   0.00482   0.00212
   D53        3.12866  -0.00016   0.00000  -0.01457  -0.01439   3.11427
   D54        3.14069   0.00024   0.00000   0.00818   0.00811  -3.13439
   D55       -0.01114  -0.00012   0.00000  -0.01124  -0.01110  -0.02225
   D56        1.07230  -0.00651   0.00000  -0.07461  -0.07495   0.99735
   D57       -3.08864  -0.00601   0.00000  -0.06824  -0.06907   3.12547
   D58       -1.03091  -0.00007   0.00000  -0.00466  -0.00459  -1.03550
   D59       -1.00649  -0.00227   0.00000  -0.06321  -0.06319  -1.06968
   D60        1.11575  -0.00177   0.00000  -0.05684  -0.05730   1.05845
   D61       -3.10970   0.00417   0.00000   0.00674   0.00718  -3.10252
   D62       -3.07203  -0.00334   0.00000  -0.05579  -0.05540  -3.12743
   D63       -0.94979  -0.00283   0.00000  -0.04942  -0.04951  -0.99931
   D64        1.10794   0.00311   0.00000   0.01417   0.01496   1.12291
   D65        1.22721   0.00132   0.00000   0.03727   0.03675   1.26396
   D66       -2.90875   0.00092   0.00000   0.03460   0.03411  -2.87464
   D67       -0.81374   0.00082   0.00000   0.04068   0.04029  -0.77345
   D68       -0.89584  -0.00040   0.00000   0.00530   0.00518  -0.89066
   D69        1.25139  -0.00081   0.00000   0.00263   0.00253   1.25392
   D70       -2.93679  -0.00091   0.00000   0.00871   0.00872  -2.92807
   D71       -2.94941  -0.00002   0.00000   0.00464   0.00513  -2.94428
   D72       -0.80218  -0.00042   0.00000   0.00198   0.00248  -0.79970
   D73        1.29282  -0.00052   0.00000   0.00805   0.00866   1.30149
         Item               Value     Threshold  Converged?
 Maximum Force            0.023349     0.000450     NO 
 RMS     Force            0.004765     0.000300     NO 
 Maximum Displacement     0.535783     0.001800     NO 
 RMS     Displacement     0.124318     0.001200     NO 
 Predicted change in Energy=-7.947209D-03
 GradGradGradGradGradGradGradGradGradGradGradGradGradGradGradGradGradGrad

                          Input orientation:                          
 ---------------------------------------------------------------------
 Center     Atomic      Atomic             Coordinates (Angstroms)
 Number     Number       Type             X           Y           Z
 ---------------------------------------------------------------------
      1          8           0       -1.641544    0.463831   -0.389392
      2          6           0       -1.500053   -0.694911    0.039752
      3          7           0       -0.345907   -1.147524    0.531720
      4          6           0        0.801971   -0.257845    0.776235
      5          6           0        0.357784    0.785499    1.818616
      6          8           0        1.041111    1.928194    1.729142
      7          8           0       -0.496993    0.568346    2.638305
      8          6           0        1.429629    0.305376   -0.529264
      9          6           0        2.897787    0.585906   -0.434339
     10          6           0        3.626841    1.663983    0.005792
     11          7           0        4.974923    1.435552   -0.119835
     12          6           0        5.080722    0.233102   -0.630736
     13          7           0        3.855403   -0.332448   -0.841667
     14          6           0       -2.694062   -1.643845   -0.010083
     15          6           0       -3.959068   -0.863734    0.360444
     16          7           0       -4.101384    0.298919   -0.590488
     17          1           0       -0.360798   -2.025534    1.028325
     18          1           0        1.548324   -0.881773    1.274569
     19          1           0        0.735583    2.511990    2.441580
     20          1           0        1.262199   -0.442742   -1.309982
     21          1           0        0.889162    1.200085   -0.834619
     22          1           0        3.249717    2.590384    0.406637
     23          1           0        6.001483   -0.275660   -0.872100
     24          1           0        3.682242   -1.239605   -1.245455
     25          1           0       -2.770933   -2.038868   -1.029375
     26          1           0       -2.582076   -2.498212    0.658866
     27          1           0       -4.854553   -1.482630    0.328232
     28          1           0       -3.863734   -0.438469    1.360188
     29          1           0       -4.380582   -0.000697   -1.526511
     30          1           0       -4.767940    0.999112   -0.262172
     31          1           0       -3.115167    0.694296   -0.640388
 ---------------------------------------------------------------------
                    Distance matrix (angstroms):
                    1          2          3          4          5
     1  O    0.000000
     2  C    1.243731   0.000000
     3  N    2.263534   1.333771   0.000000
     4  C    2.801833   2.456165   1.472733   0.000000
     5  C    2.996011   2.967748   2.426492   1.540268   0.000000
     6  O    3.718761   4.023957   3.580179   2.396661   1.334426
     7  O    3.238498   3.058500   2.721165   2.416030   1.204030
     8  C    3.078437   3.147601   2.527674   1.554188   2.625245
     9  C    4.541195   4.605025   3.802579   2.563172   3.401067
    10  C    5.417787   5.643632   4.895294   3.502413   3.839896
    11  N    6.692873   6.818333   5.950466   4.591739   5.049568
    12  C    6.730553   6.679624   5.718894   4.530818   5.348889
    13  N    5.572704   5.439594   4.494613   3.456388   4.534341
    14  C    2.386203   1.525980   2.460429   3.842075   4.308087
    15  C    2.774095   2.485578   3.628333   4.817414   4.845766
    16  N    2.473549   2.855139   4.177936   5.120625   5.091632
    17  H    3.138020   2.011402   1.008831   2.130799   3.007129
    18  H    3.841181   3.294282   2.051965   1.093008   2.119709
    19  H    4.226120   4.588143   4.267227   3.232609   1.873923
    20  H    3.178221   3.084706   2.544522   2.144364   3.480613
    21  H    2.672970   3.172362   2.983881   2.174399   2.737499
    22  H    5.392617   5.786888   5.188074   3.773654   3.689792
    23  H    7.693875   7.568375   6.558980   5.454562   6.341715
    24  H    5.654841   5.366995   4.403728   3.653361   4.953948
    25  H    2.819326   2.136443   3.018652   4.381543   5.086942
    26  H    3.279808   2.192252   2.615526   4.060147   4.557472
    27  H    3.824542   3.457802   4.525659   5.804918   5.876573
    28  H    2.968721   2.719614   3.682964   4.705574   4.419216
    29  H    3.001858   3.351501   4.672272   5.676937   5.853212
    30  H    3.174439   3.693231   4.979225   5.803632   5.536096
    31  H    1.512508   2.236309   3.526321   4.272864   4.256338
                    6          7          8          9         10
     6  O    0.000000
     7  O    2.245335   0.000000
     8  C    2.808003   3.716788   0.000000
     9  C    3.151131   4.578862   1.497731   0.000000
    10  C    3.118612   5.013636   2.638151   1.373857   0.000000
    11  N    4.374505   6.188800   3.743534   2.266121   1.373058
    12  C    4.976024   6.473787   3.653218   2.219966   2.136904
    13  N    4.431681   5.644907   2.527606   1.387918   2.180862
    14  C    5.453062   4.090826   4.590625   6.034944   7.134129
    15  C    5.888122   4.384686   5.585378   7.053339   8.003821
    16  N    5.872007   4.846579   5.531355   7.006792   7.870477
    17  H    4.253052   3.055944   3.326387   4.424633   5.528053
    18  H    2.891335   2.854109   2.162689   2.625928   3.522911
    19  H    0.970429   2.309912   3.765204   4.081156   3.874474
    20  H    3.860892   4.439147   1.094182   2.121324   3.429443
    21  H    2.669476   3.792324   1.088967   2.138227   2.901100
    22  H    2.658092   4.806954   3.067555   2.202050   1.077552
    23  H    6.019030   7.434075   4.621363   3.250671   3.189331
    24  H    5.085150   5.984837   2.823856   2.146106   3.162200
    25  H    6.154566   5.041850   4.836353   6.275181   7.464194
    26  H    5.819454   4.203514   5.036421   6.382459   7.503401
    27  H    6.953785   5.341467   6.589629   8.059723   9.052027
    28  H    5.458454   3.739279   5.669482   7.070207   7.897051
    29  H    6.611705   5.722916   5.903112   7.383197   8.320934
    30  H    6.210765   5.180668   6.241993   7.678786   8.425332
    31  H    4.940832   4.197682   4.562760   6.017460   6.841968
                   11         12         13         14         15
    11  N    0.000000
[...]
 598,-0.00000672,0.00000289,-0.00000382,-0.00000339,-0.00001035,-0.0000
 0055,0.00001004,0.00000291,0.00000502,-0.05769613,-0.08492757,-0.25303
 441,-0.00167874,-0.00332301,-0.00980146,-0.00001613,0.00044954,0.00151
 600,0.00025433,-0.00030898,-0.00011310,0.00001029,-0.00000486,-0.00000
 048,0.00001072,0.00000711,-0.00000017,0.00000219,0.00000242,0.00001307
 ,-0.00002884,-0.00001831,0.00001144,-0.00000030,-0.00000071,-0.0000011
 7,0.00000041,0.00000025,-0.00000082,-0.00000042,-0.00000278,-0.0000027
 7,0.06259352,0.09534711,0.27338091,-0.00555730,-0.00729287,0.00086443,
 0.00966899,-0.01923812,0.01944736,0.00009572,0.00108070,-0.00031558,0.
 00019350,-0.00013450,-0.00009169,0.00005800,-0.00004962,-0.00000385,0.
 00000117,0.00001099,0.00002350,-0.00002204,0.00011841,-0.00010529,0.00
 007366,-0.00003284,0.00010058,0.00003544,0.00003652,-0.00004691,0.0000
 0720,0.00000005,0.00000467,-0.00000454,0.00000531,-0.00000108,-0.00001
 504,0.00000035,-0.00000050,-0.00001991,0.00000103,-0.00002112,-0.05244
 451,0.01726407,-0.01385483,-0.00110697,0.01591081,-0.01670172,-0.00291
 718,0.00567271,0.00202440,-0.00198726,-0.00053058,-0.00019383,0.000021
 94,0.00004605,0.00000617,-0.00000018,-0.00000966,0.00000913,0.00000161
 ,0.00001186,-0.00000811,0.00009526,0.00008240,-0.00005462,0.00000239,0
 .00000610,-0.00000068,-0.00000231,-0.00000099,0.00000293,-0.00000517,-
 0.00000582,0.00000828,-0.00095475,0.00641471,-0.00494042,0.05662268,-0
 .00377617,-0.00122638,0.00075961,0.00534230,-0.01231363,0.00922853,0.0
 0134497,0.00103611,-0.00044734,-0.00016395,-0.00015271,-0.00055994,-0.
 00025711,-0.00006900,0.00004213,0.00011831,0.00003667,0.00005583,0.000
 15600,0.00016323,-0.00017294,0.00007589,-0.00001087,0.00015745,0.00001
 194,0.00007868,-0.00007349,0.00000422,-0.00003189,-0.00001035,0.000025
 13,-0.00000019,0.00000925,0.00000641,0.00002241,0.00000131,-0.00003553
 ,0.00000404,-0.00001844,0.01522621,-0.20123977,0.13089274,0.00135378,-
 0.01480538,0.01262162,0.00268927,-0.00181938,-0.00205811,-0.00089123,0
 .00118774,-0.00004871,-0.00000495,0.00000114,0.00001519,-0.00001542,-0
 .00002700,0.00000039,0.00000412,0.00000188,-0.00000324,0.00005906,0.00
 005837,-0.00004599,0.00000060,0.00000229,0.00000303,-0.00000138,-0.000
 00048,0.00000211,-0.00000747,0.00000392,0.00001037,-0.00108026,0.01075
 060,-0.00777858,-0.01935106,0.21739582,0.00059768,0.00032701,0.0021784
 7,-0.00232057,-0.00009195,-0.00342682,-0.00008957,-0.00078951,0.000007
 74,0.00016428,-0.00005272,0.00027544,-0.00025443,0.00001681,0.00003748
 ,0.00009101,0.00001977,0.00001367,0.00016175,-0.00001502,-0.00001714,-
 0.00005350,-0.00001272,-0.00003906,-0.00000646,-0.00003055,0.00002364,
 -0.00000827,-0.00000033,-0.00000274,0.00000880,-0.00000602,-0.00000219
 ,0.00001001,0.00000031,0.00000188,0.00001364,0.00000481,-0.00000109,-0
 .01290633,0.13391988,-0.15941632,-0.00017425,-0.00795855,0.00676442,0.
 00210580,-0.00340336,0.00054717,0.00024149,-0.00005067,0.00096626,0.00
 002387,0.00001849,0.00001946,-0.00001462,-0.00001269,-0.00000929,0.000
 00001,0.00000702,-0.00002093,-0.00002557,-0.00003164,0.00002457,-0.000
 00133,-0.00000512,0.00000255,0.00000112,0.00000101,0.00000091,-0.00000
 150,0.00000967,0.00000431,-0.00230785,0.02177947,-0.01731121,0.0145232
 3,-0.14302968,0.16833899,0.00107891,-0.00105617,0.00020153,-0.00034646
 ,0.00505034,0.00076958,-0.00114169,-0.00092364,0.00005394,0.00022871,0
 .00017158,-0.00021867,-0.00001527,0.00012056,0.00015697,-0.00008905,-0
 .00011803,-0.00012338,-0.00006676,-0.00006079,-0.00008362,0.00004528,0
 .00003020,-0.00006275,0.00000327,-0.00000798,0.00002060,0.00000593,0.0
 0002871,0.00000555,-0.00004202,-0.00000803,-0.00000739,-0.00001243,-0.
 00000793,-0.00000232,0.00000843,-0.00002467,0.00000976,-0.01851754,-0.
 00890615,0.00124046,-0.26796252,-0.11521897,0.01662821,0.00980876,0.00
 569199,-0.00262171,0.00000265,-0.00007052,0.00011508,-0.00007070,-0.00
 005397,-0.00003321,0.00000021,0.00001134,0.00001642,0.00000376,-0.0000
 0407,-0.00000207,0.00001739,0.00000545,0.00000256,0.00000243,0.0000044
 4,-0.00000254,-0.00000095,-0.00000077,-0.00000057,0.00001587,-0.000007
 09,-0.00000613,0.00110015,-0.00034053,0.00020192,0.00026199,0.00011207
 ,-0.00033155,0.28147105,-0.00125271,0.00235886,-0.00071286,0.00145319,
 -0.00593796,-0.00105488,0.00131028,0.00130627,0.00010357,-0.00017753,-
 0.00023184,0.00028787,0.00022913,-0.00018137,-0.00020982,-0.00002105,0
 .00010018,0.00010384,-0.00016143,0.00010943,0.00009627,-0.00003603,-0.
 00001738,0.00006360,-0.00000164,0.00000531,-0.00002166,-0.00000098,-0.
 00002867,-0.00000335,0.00003633,0.00000959,0.00000699,0.00000988,0.000
 00829,0.00000117,-0.00001094,0.00002517,-0.00001032,0.02070076,0.01204
 124,-0.00250721,-0.10736784,-0.10651420,0.00789906,-0.02343748,-0.0173
 2321,0.00713854,-0.00000089,0.00005560,-0.00013988,0.00009316,0.000073
 05,0.00004292,0.00001016,-0.00000120,0.00000169,-0.00000912,0.00000352
 ,0.00000848,-0.00000919,-0.00000714,-0.00000683,-0.00000110,-0.0000014
 6,0.00000127,0.00000075,0.00000108,0.00000069,-0.00001419,0.00000520,0
 .00000663,-0.00077562,0.00085306,0.00015928,-0.00056354,0.00064820,0.0
 0043851,0.11729706,0.11954616,-0.00011018,-0.00056167,0.00009236,0.001
 40904,-0.00220414,0.00018002,0.00079267,0.00041392,0.00030473,-0.00008
 558,-0.00014830,0.00008182,0.00048472,-0.00013586,-0.00016571,-0.00023
 388,-0.00001745,-0.00001975,-0.00048715,0.00005520,0.00011194,0.000016
 74,0.00004176,-0.00000731,-0.00000135,-0.00000585,-0.00000334,0.000001
 57,0.00000641,0.00000400,-0.00000200,-0.00000081,0.00000158,0.00000082
 ,0.00000048,-0.00000155,0.00000161,-0.00000204,0.00000204,0.01078561,0
 .00439623,-0.00116455,0.00955788,0.00356316,-0.05246946,0.02167543,0.0
 1729873,-0.00734642,0.00000111,-0.00002698,-0.00002152,0.00003535,0.00
 004119,0.00002311,0.00002448,0.00002516,0.00002457,-0.00000885,-0.0000
 0185,0.00001197,0.00000352,-0.00000228,-0.00001076,0.00000033,0.000001
 67,-0.00000339,0.00000033,0.00000027,-0.00000007,0.00000153,-0.0000010
 1,-0.00000009,-0.00021295,0.00086464,0.00024722,-0.00052142,0.00009378
 ,0.00048125,-0.01669791,-0.01373188,0.05504558,-0.00038608,-0.00047930
 ,-0.00035666,0.00204588,0.00088173,0.00185105,-0.00019095,0.00005641,-
 0.00053329,0.00010781,0.00011305,0.00003281,-0.00130826,0.00042092,0.0
 0043662,0.00079612,0.00011927,0.00016908,0.00110944,-0.00025527,-0.000
 58970,-0.00007725,-0.00009842,0.00007102,0.00000058,0.00001116,-0.0000
 1068,-0.00001306,-0.00003842,-0.00002140,0.00004316,0.00000425,0.00000
 119,0.00001143,0.00000652,0.00000626,-0.00000950,0.00002424,-0.0000202
 4,0.00496132,0.01023168,0.02311153,-0.07119306,-0.03012628,-0.06375145
 ,-0.00143890,0.00016665,-0.00337101,-0.00002807,0.00015755,0.00011505,
 0.00000455,-0.00003072,-0.00001924,-0.00007697,-0.00009972,-0.00009398
 ,0.00003034,0.00000278,-0.00004254,0.00000052,0.00000708,0.00001367,-0
 .00000401,-0.00000963,0.00001278,0.,0.,0.00000268,-0.00001771,0.000012
 74,0.00001595,-0.00357250,0.00317851,0.00165796,0.00087178,-0.00060058
 ,-0.00061543,-0.00528688,-0.01025280,-0.02488076,0.07216867,-0.0004247
 3,0.00090275,-0.00035647,-0.00147240,-0.00054487,0.00080111,0.00037906
 ,0.00017010,0.00012241,0.00002848,-0.00008279,-0.00004530,-0.00001520,
 -0.00001639,0.00000631,0.00005104,0.00005203,-0.00000798,-0.00003179,-
 0.00027458,0.00005265,0.00001541,-0.00000574,0.00000079,-0.00000054,0.
 00000380,-0.00000074,-0.00000192,-0.00000574,-0.00000163,0.00001166,0.
 00000184,0.00000050,0.00000246,0.00000154,0.00000109,-0.00000120,0.000
 00501,-0.00000025,-0.00354923,-0.00830973,-0.01859067,-0.03301526,-0.0
 9472907,-0.10223232,0.01064951,0.00529978,0.03398729,0.00002037,-0.000
 03723,-0.00014377,0.00002547,0.00000624,-0.00000363,-0.00001252,0.0000
 0562,-0.00001351,-0.00000608,0.00000363,0.00000582,-0.00000567,-0.0000
 0453,0.00000706,-0.00000104,-0.00000156,0.00000254,0.00000038,0.000000
 02,-0.00000019,-0.00000442,0.00000094,-0.00000255,0.00366492,-0.001557
 73,-0.00058728,-0.00029164,0.00028301,0.00015133,-0.00259657,-0.004299
 76,-0.01308802,0.02552056,0.10524632,0.00042425,0.00051231,0.00020317,
 -0.00031988,-0.00078406,-0.00009774,0.00017824,0.00003284,0.00004758,0
 .00006698,-0.00002654,-0.00005286,0.00034144,-0.00006757,-0.00009384,-
 0.00022357,-0.00008185,-0.00004337,-0.00049015,0.00007787,-0.00014126,
 0.00003253,0.00002412,-0.00001758,0.00000393,-0.00000197,0.00000229,0.
 00000589,0.00001217,0.00000643,-0.00002010,-0.00000234,-0.00000246,-0.
 00000645,-0.00000213,-0.00000197,0.00000164,-0.00001033,0.00000348,-0.
 00010481,-0.00486588,-0.00671100,-0.06117801,-0.09003946,-0.25893655,-
 0.00693527,-0.00302410,-0.02173374,-0.00002782,-0.00002229,0.00001222,
 -0.00000703,0.00000640,0.00000227,0.00001225,0.00001979,0.00003597,-0.
 00000240,0.00000046,0.00000410,0.00001192,0.00000285,-0.00001019,0.000
 00223,0.00000411,-0.00000371,-0.00000063,-0.00000010,-0.00000009,0.000
 00756,-0.00000426,-0.00000261,0.00086623,-0.00081468,0.00098647,0.0001
 1684,-0.00011403,0.00045950,0.00057653,0.00080938,0.00527576,0.0671871
 2,0.09584537,0.28143516,-0.00186595,0.00157853,0.00229206,-0.00077492,
 -0.00020850,-0.00001030,0.00026944,-0.00004473,-0.00014125,-0.00011480
 ,-0.00003522,-0.00002686,-0.00013848,-0.00007595,-0.00011412,0.0001021
 8,0.00007638,0.00008846,0.00009226,0.00004049,0.00006112,-0.00000468,-
 0.00001332,0.00003659,-0.00000845,0.00000564,-0.00000668,-0.00001510,-
 0.00001990,-0.00000314,0.00004986,0.00000753,0.00000893,0.00001197,0.0
 0000173,0.00000167,0.00000165,0.00002294,-0.00000467,-0.00061800,-0.00
 022889,-0.00047428,0.00047255,0.00127596,0.00215160,-0.15985857,-0.045
 55254,-0.15936834,-0.00001733,0.00000913,-0.00009182,0.00001429,0.0000
 0692,0.00001021,-0.00001352,-0.00001470,-0.00002339,-0.00000982,0.0000
 1369,0.00000342,-0.00003102,-0.00001521,-0.00000659,-0.00000457,-0.000
 01003,-0.00000112,0.00000098,-0.00000026,0.00000031,-0.00001723,0.0000
 0712,0.00000030,0.00004742,0.00053289,0.00011671,0.00014370,0.00007570
 ,0.00020302,0.00074324,-0.00029376,0.00104585,0.00059638,-0.00079654,0
 .00089688,0.15935000,-0.00017006,0.00002416,0.00040036,0.00033821,0.00
 021471,0.00009840,-0.00023291,-0.00010624,-0.00008077,0.00006846,0.000
 07146,0.00004178,-0.00003763,0.00007132,0.00008896,0.00000078,-0.00004
 258,-0.00002946,0.00005540,-0.00000544,-0.00007964,-0.00001598,0.00000
 040,-0.00001679,-0.00000427,0.00000535,0.00000408,-0.00000586,0.000021
 88,0.00000078,-0.00001650,-0.00001515,-0.00000102,-0.00000124,0.000002
 52,-0.00000094,0.00000649,-0.00002541,0.00000525,-0.00025882,0.0007623
 8,0.00088278,0.01578806,0.01100112,0.02359669,-0.04072554,-0.08206640,
 -0.07206376,0.00001771,-0.00001972,0.00002320,-0.00001485,-0.00001237,
 -0.00000256,-0.00000193,0.00000647,0.00000071,0.00000810,-0.00000581,-
 0.00000898,0.00000571,0.00001568,-0.00000877,0.00000072,-0.00000043,-0
 .00000282,0.00000024,-0.00000054,-0.00000010,0.00000696,0.00000239,-0.
 00000069,0.00031663,-0.00059057,-0.00077208,-0.00021728,-0.00021407,-0
 .00042228,-0.00040262,0.00112813,-0.00013787,0.00064580,-0.00468394,0.
 00309976,0.04750326,0.08250363,0.00249810,-0.00182214,-0.00068708,-0.0
 0048490,0.00083338,-0.00083487,0.00060817,-0.00030857,0.00036410,-0.00
 021585,-0.00007488,-0.00002379,-0.00023263,-0.00003051,-0.00007752,0.0
 0015278,0.00010381,0.00009175,0.00018340,-0.00003451,0.00005438,-0.000
 02405,0.00000446,0.00006572,0.00000184,-0.00000148,-0.00002353,-0.0000
 0593,-0.00003179,-0.00001533,0.00004471,0.00000876,0.00000096,0.000014
 05,0.00000601,0.00000457,-0.00000371,0.00002890,-0.00001580,0.00006444
 ,0.00027785,0.00123617,-0.00987073,-0.00389603,-0.01779358,-0.14977887
 ,-0.07446778,-0.28511303,0.00002843,0.00008619,0.00006439,0.00002219,0
 .00001133,0.00000822,-0.00001826,-0.00001883,-0.00001494,0.00000632,-0
 .00001105,0.00000457,-0.00002179,-0.00001530,0.00003056,-0.00000472,-0
 .00000435,0.00001224,0.00000070,0.00000100,0.00000317,-0.00001672,0.00
 000653,0.00001599,-0.00033578,0.00010944,0.00005830,0.00017544,-0.0002
 0007,-0.00005095,0.00089798,-0.00082732,0.00122766,0.00002676,0.004012
 39,-0.00069123,0.16601130,0.07562844,0.30148824,-0.00424817,-0.0002985
 7,-0.00099908,0.00002635,-0.00078530,0.00057649,0.00003880,-0.00001976
 ,-0.00011052,0.00009274,0.00001968,-0.00001600,-0.00062641,0.00017469,
 0.00014805,0.00028594,0.00005085,0.00005901,0.00050387,-0.00028919,-0.
 00003579,-0.00007245,-0.00005064,0.00002554,-0.00000860,0.00003123,-0.
 00000839,-0.00002519,0.00000443,-0.00001551,0.00003293,-0.00000989,0.0
 0000113,0.00000839,0.00000202,0.00000396,0.00000373,-0.00000823,-0.000
 00342,0.00034308,0.00036541,-0.00026531,-0.00138598,0.00004735,-0.0008
 4735,-0.12055137,0.12368328,0.06763379,0.00004115,0.00013418,-0.000028
 42,0.00000245,-0.00001665,-0.00000845,-0.00004944,-0.00001481,-0.00005
 438,0.00001582,-0.00000368,-0.00001539,-0.00000786,0.00003475,0.000002
 10,-0.00000810,-0.00001310,0.00001040,0.00000037,-0.00000210,0.0000013
 4,-0.00001039,0.00000939,0.00000505,0.00011908,0.00006338,-0.00007102,
 -0.00012009,-0.00005359,0.00016465,0.00005096,-0.00103379,-0.00001406,
 0.00053130,0.00038926,-0.00043787,0.01109573,-0.01993055,-0.00948829,0
 .11699757,-0.00353380,0.00132169,-0.00094482,0.00050909,-0.00150086,0.
 00112101,-0.00061375,0.00047627,-0.00033590,0.00028513,0.00009072,0.00
 001651,0.00008751,0.00017910,0.00020017,-0.00012540,-0.00014583,-0.000
 12020,-0.00009296,-0.00018858,-0.00010029,-0.00000302,-0.00001011,-0.0
 0004843,-0.00000162,0.00002518,0.00000546,-0.00000766,0.00005754,-0.00
 000129,-0.00004881,-0.00003255,-0.00000996,-0.00001200,0.00000235,-0.0
 0000178,0.00000914,-0.00006387,0.00001200,-0.00097163,-0.00268059,0.00
 414632,0.01049286,-0.01760287,-0.01051034,0.11636965,-0.27750514,-0.12
 855839,-0.00009052,-0.00003683,-0.00006443,-0.00002164,-0.00001564,-0.
 00001237,-0.00000690,0.00005025,0.00000467,0.00001588,-0.00001596,-0.0
 0001273,0.00003251,0.00005410,-0.00000726,0.00000075,0.00000349,0.0000
 0307,-0.00000052,-0.00000211,0.00000039,0.00001944,-0.00000136,-0.0000
 0421,-0.00036311,0.00021684,0.00007779,0.00108147,-0.00028205,-0.00054
 269,-0.00031861,-0.00038474,-0.00033555,0.00015069,0.00227163,-0.00036
 111,0.00349482,-0.00542715,-0.00283481,-0.12949334,0.29153562,0.000539
 43,-0.00024012,0.00049817,0.00083642,0.00079936,-0.00015217,-0.0002258
 0,-0.00016448,-0.00011284,0.00015288,0.00006717,-0.00000379,-0.0003984
 7,0.00018521,0.00022863,0.00014846,-0.00002245,-0.00003919,0.00033898,
 -0.00022166,-0.00017284,-0.00001830,-0.00003533,-0.00000228,0.00000611
 ,-0.00000057,0.00000058,0.00000337,-0.00000180,-0.00000801,-0.00001252
 ,-0.00000462,-0.00001151,-0.00000312,0.00000120,0.00000270,-0.00000126
 ,-0.00000553,-0.00000602,0.00010571,0.00380562,-0.00405525,-0.01190550
 ,0.01754253,0.01395926,0.06255024,-0.12738488,-0.13034595,0.00007393,-
 0.00001659,0.00006497,-0.00001390,-0.00001959,-0.00001473,-0.00003802,
 -0.00000482,0.00000209,0.00001363,-0.00000329,-0.00002026,0.00001234,0
 .00000236,0.00001566,0.00000073,0.00000163,0.00001177,-0.00000091,0.00
 000027,0.00000259,0.00000326,0.00000155,0.00000734,0.00016360,-0.00008
 558,0.00010812,-0.00112941,0.00094517,0.00059929,0.00023092,0.00036926
 ,-0.00016093,-0.00069896,0.00031391,0.00045918,0.01608858,-0.02367710,
 -0.01178516,-0.06835787,0.13473216,0.13545748,0.01184710,-0.03819007,0
 .01202465,0.00413868,0.04304144,-0.02420590,0.00762088,-0.01308676,0.0
 0819205,-0.00386966,-0.00053457,-0.00075118,-0.00053674,-0.00165375,-0
 .00273198,0.00089207,0.00134815,0.00130921,0.00003868,0.00080303,0.002
 11580,-0.00005675,0.00056851,0.00036490,-0.00011132,-0.00027880,-0.000
 06398,-0.00010820,-0.00041771,-0.00006914,0.00067859,0.00015344,0.0001
 1857,0.00024402,0.00004832,0.00003271,0.00005769,0.00047457,-0.0000611
 0,-0.00183992,-0.00170360,-0.00055089,0.00956783,-0.01496881,0.0098593
 7,-0.19977726,-0.03892876,0.04170592,0.00197668,0.00065410,0.00136703,
 0.00017887,0.00006336,0.00015438,-0.00001205,-0.00016996,-0.00022247,-
 0.00012344,0.00004876,0.00016362,-0.00061612,-0.00066279,0.00031103,-0
 .00005199,-0.00009484,0.00001969,0.00002429,0.00001856,0.00000043,-0.0
 0022560,0.00009767,0.00004833,-0.00015913,-0.00080247,0.00028582,-0.00
 299777,-0.00036729,0.00080092,-0.00129671,0.00428094,-0.00258247,0.000
 32392,0.00146817,-0.00097847,-0.00949923,-0.00272649,-0.00023437,-0.00
 307618,0.00315636,0.00153545,0.18676876,-0.01324167,-0.00610653,-0.001
 63917,0.00935500,-0.01106064,0.00541017,-0.00206767,0.00115640,-0.0005
 8573,0.00094990,0.00014648,0.00015405,-0.00021281,0.00059064,0.0007570
 3,-0.00010616,-0.00033306,-0.00029509,0.00017628,-0.00054333,-0.000439
 80,-0.00017423,-0.00016463,-0.00010490,-0.00000344,0.00014920,0.000006
 35,-0.00002216,0.00015506,-0.00000184,-0.00014365,-0.00007756,-0.00002
 301,-0.00004476,-0.00000299,-0.00000558,-0.00000524,-0.00017739,0.0000
 2690,0.00014196,-0.00050470,0.00022650,-0.02486433,-0.01097761,0.01081
 421,-0.04967526,-0.07084855,0.00748278,-0.00012331,0.00013118,0.000182
 21,-0.00006515,-0.00003537,-0.00004378,-0.00002706,0.00006582,-0.00000
 613,0.00005114,-0.00003605,-0.00004493,0.00014197,0.00030874,-0.000115
 76,-0.00000224,-0.00000056,0.00000002,-0.00000474,-0.00000938,-0.00000
 024,0.00005527,-0.00001027,-0.00001177,0.00002306,-0.00045579,-0.00030
 615,-0.00002502,0.00051869,-0.00023859,0.00160341,-0.00334939,0.003598
 98,0.00027953,0.00029942,-0.00022473,-0.00734319,-0.00261577,0.0034609
 2,0.02701330,0.00961147,-0.00687898,0.05836128,0.09417646,0.00092021,0
 .00260399,-0.01401244,-0.00601732,-0.00073059,0.00085847,0.00006601,0.
 00225659,-0.00015601,0.00038318,-0.00004224,0.00005626,-0.00099009,0.0
 0034146,0.00055157,0.00043193,0.00006155,-0.00002443,0.00090503,-0.000
 44559,-0.00028187,-0.00011070,-0.00010454,0.00004498,0.00002638,0.0000
 4616,-0.00001720,0.00001012,-0.00001259,-0.00002479,-0.00002589,-0.000
 00660,-0.00001703,-0.00001232,0.00000733,0.00000482,-0.00002518,-0.000
 01531,-0.00001718,0.00028662,-0.00003870,0.00078285,0.01856042,0.01151
 766,-0.00804192,0.05084074,0.00649492,-0.07913054,-0.00058438,0.000440
 08,0.00037196,0.00000474,-0.00002177,-0.00003144,-0.00005416,-0.000042
 43,-0.00002581,0.00003970,-0.00001742,-0.00003262,0.00008598,0.0000742
 7,0.00002788,0.00000156,0.00000884,0.00002628,-0.00000286,-0.00000084,
 0.00000378,0.00000508,-0.00000201,0.00002053,-0.00023175,-0.00031289,-
 0.00003471,0.00068412,-0.00027759,-0.00044927,-0.00093418,0.00168701,-
 0.00174076,0.00029381,-0.00023629,-0.00039339,-0.02874448,-0.00656554,
 0.01239581,0.01214562,0.00448701,-0.00452689,-0.04795793,-0.02115392,0
 .09381308\\-0.00000593,-0.00000155,0.00000091,0.00000189,-0.00000031,-
 0.00000310,-0.00000192,0.00000093,0.00000162,0.00000139,-0.00000155,0.
 00000268,-0.00000138,-0.00000233,-0.00000072,0.00000209,0.00000112,0.0
 0000094,0.00000029,-0.00000008,-0.00000187,-0.00000212,0.00000082,0.00
 000029,0.00000002,-0.00000038,0.00000050,-0.00000119,0.00000052,0.0000
 0117,0.00000166,-0.00000100,0.00000099,0.00000046,-0.00000017,0.000000
 17,-0.00000027,-0.00000011,-0.00000003,-0.00000065,-0.00000144,-0.0000
 0076,0.00000125,-0.00000052,0.00000062,0.00000985,-0.00000153,-0.00000
 589,0.00000047,-0.00000041,-0.00000102,-0.00000053,-0.00000006,0.00000
 003,-0.00000039,-0.00000060,-0.00000004,0.00000005,0.,0.00000002,0.000
 00009,0.00000060,-0.00000019,0.00000095,-0.00000048,0.00000038,-0.0000
 0011,-0.00000053,0.00000060,-0.00000020,-0.00000012,0.00000040,0.00000
 003,0.00000051,-0.00000041,0.,0.00000056,0.00000033,-0.00000009,0.0000
 0029,-0.00000089,-0.00000074,-0.00000035,0.00000006,-0.00000037,0.0000
 0046,-0.00000006,0.00000210,0.00000119,-0.00000080,-0.00000669,0.00000
 651,0.00000406\\\@


 I WISH TO HAVE NO CONNECTION WITH ANY SHIP THAT DOES NOT SAIL FAST,
 FOR I INTEND TO GO IN HARM'S WAY.
     -- JOHN PAUL JONES, USN 1747-1792
 Job cpu time:       0 days  2 hours 16 minutes 34.7 seconds.
 File lengths (MBytes):  RWF=    458 Int=      0 D2E=      0 Chk=     13 Scr=      1
 Normal termination of Gaussian 09 at Wed Jul 28 23:51:32 2021.
