 Entering Gaussian System, Link 0=g09
 Input=opt_freq-conf-342.com
 Output=opt_freq-conf-342.log
 Initial command:
 /aerosol/software/g09/l1.exe "/scratch/nicole/10473/Gau-72436.inp" -scrdir="/scratch/nicole/10473/"
 Entering Link 1 = /aerosol/software/g09/l1.exe PID=     72442.
  
 Copyright (c) 1988,1990,1992,1993,1995,1998,2003,2009,2013,
            Gaussian, Inc.  All Rights Reserved.
  
 This is part of the Gaussian(R) 09 program.  It is based on
 the Gaussian(R) 03 system (copyright 2003, Gaussian, Inc.),
 the Gaussian(R) 98 system (copyright 1998, Gaussian, Inc.),
 the Gaussian(R) 94 system (copyright 1995, Gaussian, Inc.),
 the Gaussian 92(TM) system (copyright 1992, Gaussian, Inc.),
 the Gaussian 90(TM) system (copyright 1990, Gaussian, Inc.),
 the Gaussian 88(TM) system (copyright 1988, Gaussian, Inc.),
 the Gaussian 86(TM) system (copyright 1986, Carnegie Mellon
 University), and the Gaussian 82(TM) system (copyright 1983,
 Carnegie Mellon University). Gaussian is a federally registered
 trademark of Gaussian, Inc.
  
 This software contains proprietary and confidential information,
 including trade secrets, belonging to Gaussian, Inc.
  
 This software is provided under written license and may be
 used, copied, transmitted, or stored only in accord with that
 written license.
  
 The following legend is applicable only to US Government
 contracts under FAR:
  
                    RESTRICTED RIGHTS LEGEND
  
 Use, reproduction and disclosure by the US Government is
 subject to restrictions as set forth in subparagraphs (a)
 and (c) of the Commercial Computer Software - Restricted
 Rights clause in FAR 52.227-19.
  
 Gaussian, Inc.
 340 Quinnipiac St., Bldg. 40, Wallingford CT 06492
  
  
 ---------------------------------------------------------------
 Warning -- This program may not be used in any manner that
 competes with the business of Gaussian, Inc. or will provide
 assistance to any competitor of Gaussian, Inc.  The licensee
 of this program is prohibited from giving any competitor of
 Gaussian, Inc. access to this program.  By using this program,
 the user acknowledges that Gaussian, Inc. is engaged in the
 business of creating and licensing software in the field of
 computational chemistry and represents and warrants to the
 licensee that it is not a competitor of Gaussian, Inc. and that
 it will not use this program in any manner prohibited above.
 ---------------------------------------------------------------
  

 Cite this work as:
 Gaussian 09, Revision D.01,
 M. J. Frisch, G. W. Trucks, H. B. Schlegel, G. E. Scuseria, 
 M. A. Robb, J. R. Cheeseman, G. Scalmani, V. Barone, B. Mennucci, 
 G. A. Petersson, H. Nakatsuji, M. Caricato, X. Li, H. P. Hratchian, 
 A. F. Izmaylov, J. Bloino, G. Zheng, J. L. Sonnenberg, M. Hada, 
 M. Ehara, K. Toyota, R. Fukuda, J. Hasegawa, M. Ishida, T. Nakajima, 
 Y. Honda, O. Kitao, H. Nakai, T. Vreven, J. A. Montgomery, Jr., 
 J. E. Peralta, F. Ogliaro, M. Bearpark, J. J. Heyd, E. Brothers, 
 K. N. Kudin, V. N. Staroverov, T. Keith, R. Kobayashi, J. Normand, 
 K. Raghavachari, A. Rendell, J. C. Burant, S. S. Iyengar, J. Tomasi, 
 M. Cossi, N. Rega, J. M. Millam, M. Klene, J. E. Knox, J. B. Cross, 
 V. Bakken, C. Adamo, J. Jaramillo, R. Gomperts, R. E. Stratmann, 
 O. Yazyev, A. J. Austin, R. Cammi, C. Pomelli, J. W. Ochterski, 
 R. L. Martin, K. Morokuma, V. G. Zakrzewski, G. A. Voth, 
 P. Salvador, J. J. Dannenberg, S. Dapprich, A. D. Daniels, 
 O. Farkas, J. B. Foresman, J. V. Ortiz, J. Cioslowski, 
 and D. J. Fox, Gaussian, Inc., Wallingford CT, 2013.
 
 ******************************************
 Gaussian 09:  ES64L-G09RevD.01 24-Apr-2013
                24-Jul-2021 
 ******************************************
 %mem=2gb
 %nproc=4
 Will use up to    4 processors via shared memory.
 %chk=conf-342.chk
 ----------------------------------------------------------------------
 # B3LYP/6-31G(d,p) EmpiricalDispersion=GD3BJ opt=calcfc freq=noraman n
 osymm integral(ultrafinegrid)
 ----------------------------------------------------------------------
 1/10=4,14=-1,18=20,19=15,26=4,38=1/1,3;
 2/9=110,12=2,15=1,17=6,18=5,40=1/2;
 3/5=1,6=6,7=101,11=2,16=1,25=1,30=1,71=2,74=-5,75=-5,124=41,140=1/1,2,3;
 4//1;
 5/5=2,38=5/2;
 8/6=4,10=90,11=11/1;
 11/6=1,8=1,9=11,15=111,16=1,31=1/1,2,10;
 10/6=1,13=1,31=1/2;
 6/7=2,8=2,9=2,10=2,28=1/1;
 7/10=1,18=20,25=1,30=1/1,2,3,16;
 1/10=4,14=-1,18=20,19=15,26=4/3(2);
 2/9=110,15=1/2;
 99//99;
 2/9=110,15=1/2;
 3/5=1,6=6,7=101,11=2,16=1,25=1,30=1,71=1,74=-5,75=-5,124=41/1,2,3;
 4/5=5,16=3,69=1/1;
 5/5=2,38=5/2;
 7/30=1/1,2,3,16;
 1/14=-1,18=20,19=15,26=4/3(-5);
 2/9=110,15=1/2;
 6/7=2,8=2,9=2,10=2,19=2,28=1/1;
 99/9=1/99;
 ------------------------------------------------------------
 Candidate Structure: Conf:342 OPT and FREQ calc in gas phase
 ------------------------------------------------------------
 Symbolic Z-matrix:
 Charge =  1 Multiplicity = 1
 O                     0.48802  -1.04421  -0.1281 
 C                     1.12385  -0.01749  -0.37361 
 N                     0.49047   1.13594  -0.6784 
 C                    -0.95233   1.1798   -0.7779 
 C                    -1.31346   2.46054  -1.51699 
 O                    -2.62801   2.61896  -1.77297 
 O                    -0.51      3.28466  -1.8519 
 C                    -1.63884   1.09438   0.62074 
 C                    -2.6427   -0.01018   0.70235 
 C                    -3.98987  -0.02168   0.90501 
 N                    -4.47679  -1.31734   0.86655 
 C                    -3.42519  -2.06674   0.63906 
 N                    -2.29364  -1.32744   0.53059 
 C                     2.63954   0.02136  -0.38261 
 C                     3.23439  -0.9979    0.57318 
 N                     4.72017  -1.02743   0.50222 
 H                     0.98137   1.94095  -1.03734 
 H                    -1.27896   0.34084  -1.40351 
 H                    -3.11555   1.84612  -1.4643 
 H                    -2.13152   2.03418   0.87054 
 H                    -0.86367   0.94257   1.36936 
 H                    -4.64492   0.82058   1.07669 
 H                    -3.41306  -3.13835   0.54534 
 H                    -1.35254  -1.64532   0.35214 
 H                     2.98248   1.02797  -0.1359 
 H                     2.97543  -0.20079  -1.39969 
 H                     2.83034  -1.97896   0.32785 
 H                     2.92493  -0.76764   1.59206 
 H                     5.03857  -1.26512  -0.43712 
 H                     5.12401  -0.12292   0.74615 
 H                     5.11721  -1.71841   1.14051 
 

 GradGradGradGradGradGradGradGradGradGradGradGradGradGradGradGradGradGrad
 Berny optimization.
 Initialization pass.
                           ----------------------------
                           !    Initial Parameters    !
                           ! (Angstroms and Degrees)  !
 --------------------------                            --------------------------
 ! Name  Definition              Value          Derivative Info.                !
 --------------------------------------------------------------------------------
 ! R1    R(1,2)                  1.2324         calculate D2E/DX2 analytically  !
 ! R2    R(2,3)                  1.3507         calculate D2E/DX2 analytically  !
 ! R3    R(2,14)                 1.5162         calculate D2E/DX2 analytically  !
 ! R4    R(3,4)                  1.4469         calculate D2E/DX2 analytically  !
 ! R5    R(3,17)                 1.0089         calculate D2E/DX2 analytically  !
 ! R6    R(4,5)                  1.5222         calculate D2E/DX2 analytically  !
 ! R7    R(4,8)                  1.5604         calculate D2E/DX2 analytically  !
 ! R8    R(4,18)                 1.0963         calculate D2E/DX2 analytically  !
 ! R9    R(5,6)                  1.3486         calculate D2E/DX2 analytically  !
 ! R10   R(5,7)                  1.1987         calculate D2E/DX2 analytically  !
 ! R11   R(6,19)                 0.9645         calculate D2E/DX2 analytically  !
 ! R12   R(8,9)                  1.4948         calculate D2E/DX2 analytically  !
 ! R13   R(8,20)                 1.0901         calculate D2E/DX2 analytically  !
 ! R14   R(8,21)                 1.0883         calculate D2E/DX2 analytically  !
 ! R15   R(9,10)                 1.3624         calculate D2E/DX2 analytically  !
 ! R16   R(9,13)                 1.3735         calculate D2E/DX2 analytically  !
 ! R17   R(10,11)                1.3847         calculate D2E/DX2 analytically  !
 ! R18   R(10,22)                1.0807         calculate D2E/DX2 analytically  !
 ! R19   R(11,12)                1.3112         calculate D2E/DX2 analytically  !
 ! R20   R(12,13)                1.356          calculate D2E/DX2 analytically  !
 ! R21   R(12,23)                1.0758         calculate D2E/DX2 analytically  !
 ! R22   R(13,24)                1.0092         calculate D2E/DX2 analytically  !
 ! R23   R(14,15)                1.5186         calculate D2E/DX2 analytically  !
 ! R24   R(14,25)                1.0917         calculate D2E/DX2 analytically  !
 ! R25   R(14,26)                1.0939         calculate D2E/DX2 analytically  !
 ! R26   R(15,16)                1.4878         calculate D2E/DX2 analytically  !
 ! R27   R(15,27)                1.089          calculate D2E/DX2 analytically  !
 ! R28   R(15,28)                1.0895         calculate D2E/DX2 analytically  !
 ! R29   R(16,29)                1.0199         calculate D2E/DX2 analytically  !
 ! R30   R(16,30)                1.0202         calculate D2E/DX2 analytically  !
 ! R31   R(16,31)                1.021          calculate D2E/DX2 analytically  !
 ! A1    A(1,2,3)              120.9619         calculate D2E/DX2 analytically  !
 ! A2    A(1,2,14)             122.5677         calculate D2E/DX2 analytically  !
 ! A3    A(3,2,14)             116.457          calculate D2E/DX2 analytically  !
 ! A4    A(2,3,4)              120.5963         calculate D2E/DX2 analytically  !
 ! A5    A(2,3,17)             122.2413         calculate D2E/DX2 analytically  !
 ! A6    A(4,3,17)             115.884          calculate D2E/DX2 analytically  !
 ! A7    A(3,4,5)              107.1857         calculate D2E/DX2 analytically  !
 ! A8    A(3,4,8)              112.0505         calculate D2E/DX2 analytically  !
 ! A9    A(3,4,18)             108.2482         calculate D2E/DX2 analytically  !
 ! A10   A(5,4,8)              112.142          calculate D2E/DX2 analytically  !
 ! A11   A(5,4,18)             107.2244         calculate D2E/DX2 analytically  !
 ! A12   A(8,4,18)             109.7869         calculate D2E/DX2 analytically  !
 ! A13   A(4,5,6)              114.9777         calculate D2E/DX2 analytically  !
 ! A14   A(4,5,7)              123.7188         calculate D2E/DX2 analytically  !
 ! A15   A(6,5,7)              121.3027         calculate D2E/DX2 analytically  !
 ! A16   A(5,6,19)             109.7462         calculate D2E/DX2 analytically  !
 ! A17   A(4,8,9)              112.6345         calculate D2E/DX2 analytically  !
 ! A18   A(4,8,20)             110.9184         calculate D2E/DX2 analytically  !
 ! A19   A(4,8,21)             108.1098         calculate D2E/DX2 analytically  !
 ! A20   A(9,8,20)             108.7249         calculate D2E/DX2 analytically  !
 ! A21   A(9,8,21)             109.7374         calculate D2E/DX2 analytically  !
 ! A22   A(20,8,21)            106.5321         calculate D2E/DX2 analytically  !
 ! A23   A(8,9,10)             132.7209         calculate D2E/DX2 analytically  !
 ! A24   A(8,9,13)             122.0847         calculate D2E/DX2 analytically  !
 ! A25   A(10,9,13)            105.1775         calculate D2E/DX2 analytically  !
 ! A26   A(9,10,11)            110.5788         calculate D2E/DX2 analytically  !
 ! A27   A(9,10,22)            128.0541         calculate D2E/DX2 analytically  !
 ! A28   A(11,10,22)           121.3671         calculate D2E/DX2 analytically  !
 ! A29   A(10,11,12)           104.9269         calculate D2E/DX2 analytically  !
 ! A30   A(11,12,13)           111.8108         calculate D2E/DX2 analytically  !
 ! A31   A(11,12,23)           126.4054         calculate D2E/DX2 analytically  !
 ! A32   A(13,12,23)           121.7836         calculate D2E/DX2 analytically  !
 ! A33   A(9,13,12)            107.5055         calculate D2E/DX2 analytically  !
 ! A34   A(9,13,24)            124.1364         calculate D2E/DX2 analytically  !
 ! A35   A(12,13,24)           128.3572         calculate D2E/DX2 analytically  !
 ! A36   A(2,14,15)            111.7542         calculate D2E/DX2 analytically  !
 ! A37   A(2,14,25)            109.6529         calculate D2E/DX2 analytically  !
 ! A38   A(2,14,26)            107.8944         calculate D2E/DX2 analytically  !
 ! A39   A(15,14,25)           110.7074         calculate D2E/DX2 analytically  !
 ! A40   A(15,14,26)           109.1835         calculate D2E/DX2 analytically  !
 ! A41   A(25,14,26)           107.513          calculate D2E/DX2 analytically  !
 ! A42   A(14,15,16)           111.9921         calculate D2E/DX2 analytically  !
 ! A43   A(14,15,27)           108.5138         calculate D2E/DX2 analytically  !
 ! A44   A(14,15,28)           109.6021         calculate D2E/DX2 analytically  !
 ! A45   A(16,15,27)           109.9929         calculate D2E/DX2 analytically  !
 ! A46   A(16,15,28)           109.4185         calculate D2E/DX2 analytically  !
 ! A47   A(27,15,28)           107.1997         calculate D2E/DX2 analytically  !
 ! A48   A(15,16,29)           111.1194         calculate D2E/DX2 analytically  !
 ! A49   A(15,16,30)           111.4892         calculate D2E/DX2 analytically  !
 ! A50   A(15,16,31)           111.8363         calculate D2E/DX2 analytically  !
 ! A51   A(29,16,30)           107.6538         calculate D2E/DX2 analytically  !
 ! A52   A(29,16,31)           107.2566         calculate D2E/DX2 analytically  !
 ! A53   A(30,16,31)           107.2547         calculate D2E/DX2 analytically  !
 ! D1    D(1,2,3,4)             -2.5603         calculate D2E/DX2 analytically  !
 ! D2    D(1,2,3,17)          -169.1118         calculate D2E/DX2 analytically  !
 ! D3    D(14,2,3,4)           176.1388         calculate D2E/DX2 analytically  !
 ! D4    D(14,2,3,17)            9.5873         calculate D2E/DX2 analytically  !
 ! D5    D(1,2,14,15)          -29.3941         calculate D2E/DX2 analytically  !
 ! D6    D(1,2,14,25)         -152.5395         calculate D2E/DX2 analytically  !
 ! D7    D(1,2,14,26)           90.647          calculate D2E/DX2 analytically  !
 ! D8    D(3,2,14,15)          151.9296         calculate D2E/DX2 analytically  !
 ! D9    D(3,2,14,25)           28.7842         calculate D2E/DX2 analytically  !
 ! D10   D(3,2,14,26)          -88.0293         calculate D2E/DX2 analytically  !
 ! D11   D(2,3,4,5)           -163.6093         calculate D2E/DX2 analytically  !
 ! D12   D(2,3,4,8)             72.96           calculate D2E/DX2 analytically  !
 ! D13   D(2,3,4,18)           -48.247          calculate D2E/DX2 analytically  !
 ! D14   D(17,3,4,5)             3.7612         calculate D2E/DX2 analytically  !
 ! D15   D(17,3,4,8)          -119.6694         calculate D2E/DX2 analytically  !
 ! D16   D(17,3,4,18)          119.1235         calculate D2E/DX2 analytically  !
 ! D17   D(3,4,5,6)            175.9687         calculate D2E/DX2 analytically  !
 ! D18   D(3,4,5,7)             -4.3549         calculate D2E/DX2 analytically  !
 ! D19   D(8,4,5,6)            -60.6569         calculate D2E/DX2 analytically  !
 ! D20   D(8,4,5,7)            119.0194         calculate D2E/DX2 analytically  !
 ! D21   D(18,4,5,6)            59.9261         calculate D2E/DX2 analytically  !
 ! D22   D(18,4,5,7)          -120.3976         calculate D2E/DX2 analytically  !
 ! D23   D(3,4,8,9)           -125.686          calculate D2E/DX2 analytically  !
 ! D24   D(3,4,8,20)           112.1914         calculate D2E/DX2 analytically  !
 ! D25   D(3,4,8,21)            -4.2648         calculate D2E/DX2 analytically  !
 ! D26   D(5,4,8,9)            113.7174         calculate D2E/DX2 analytically  !
 ! D27   D(5,4,8,20)            -8.4053         calculate D2E/DX2 analytically  !
 ! D28   D(5,4,8,21)          -124.8614         calculate D2E/DX2 analytically  !
 ! D29   D(18,4,8,9)            -5.37           calculate D2E/DX2 analytically  !
 ! D30   D(18,4,8,20)         -127.4926         calculate D2E/DX2 analytically  !
 ! D31   D(18,4,8,21)          116.0512         calculate D2E/DX2 analytically  !
 ! D32   D(4,5,6,19)            -2.5335         calculate D2E/DX2 analytically  !
 ! D33   D(7,5,6,19)           177.7816         calculate D2E/DX2 analytically  !
 ! D34   D(4,8,9,10)          -116.9921         calculate D2E/DX2 analytically  !
 ! D35   D(4,8,9,13)            61.2759         calculate D2E/DX2 analytically  !
 ! D36   D(20,8,9,10)            6.3605         calculate D2E/DX2 analytically  !
 ! D37   D(20,8,9,13)         -175.3716         calculate D2E/DX2 analytically  !
 ! D38   D(21,8,9,10)          122.517          calculate D2E/DX2 analytically  !
 ! D39   D(21,8,9,13)          -59.215          calculate D2E/DX2 analytically  !
 ! D40   D(8,9,10,11)          178.6945         calculate D2E/DX2 analytically  !
 ! D41   D(8,9,10,22)           -1.2916         calculate D2E/DX2 analytically  !
 ! D42   D(13,9,10,11)           0.2149         calculate D2E/DX2 analytically  !
 ! D43   D(13,9,10,22)        -179.7711         calculate D2E/DX2 analytically  !
 ! D44   D(8,9,13,12)         -178.8625         calculate D2E/DX2 analytically  !
 ! D45   D(8,9,13,24)            0.8159         calculate D2E/DX2 analytically  !
 ! D46   D(10,9,13,12)          -0.1809         calculate D2E/DX2 analytically  !
 ! D47   D(10,9,13,24)         179.4975         calculate D2E/DX2 analytically  !
 ! D48   D(9,10,11,12)          -0.1645         calculate D2E/DX2 analytically  !
 ! D49   D(22,10,11,12)        179.8226         calculate D2E/DX2 analytically  !
 ! D50   D(10,11,12,13)          0.0452         calculate D2E/DX2 analytically  !
 ! D51   D(10,11,12,23)        179.8721         calculate D2E/DX2 analytically  !
 ! D52   D(11,12,13,9)           0.0867         calculate D2E/DX2 analytically  !
 ! D53   D(11,12,13,24)       -179.5738         calculate D2E/DX2 analytically  !
 ! D54   D(23,12,13,9)        -179.7494         calculate D2E/DX2 analytically  !
 ! D55   D(23,12,13,24)          0.5901         calculate D2E/DX2 analytically  !
 ! D56   D(2,14,15,16)         176.1956         calculate D2E/DX2 analytically  !
 ! D57   D(2,14,15,27)          54.588          calculate D2E/DX2 analytically  !
 ! D58   D(2,14,15,28)         -62.1737         calculate D2E/DX2 analytically  !
 ! D59   D(25,14,15,16)        -61.2594         calculate D2E/DX2 analytically  !
 ! D60   D(25,14,15,27)        177.133          calculate D2E/DX2 analytically  !
 ! D61   D(25,14,15,28)         60.3713         calculate D2E/DX2 analytically  !
 ! D62   D(26,14,15,16)         56.9136         calculate D2E/DX2 analytically  !
 ! D63   D(26,14,15,27)        -64.694          calculate D2E/DX2 analytically  !
 ! D64   D(26,14,15,28)        178.5443         calculate D2E/DX2 analytically  !
 ! D65   D(14,15,16,29)        -59.739          calculate D2E/DX2 analytically  !
 ! D66   D(14,15,16,30)         60.3573         calculate D2E/DX2 analytically  !
 ! D67   D(14,15,16,31)       -179.565          calculate D2E/DX2 analytically  !
 ! D68   D(27,15,16,29)         61.0149         calculate D2E/DX2 analytically  !
 ! D69   D(27,15,16,30)       -178.8888         calculate D2E/DX2 analytically  !
 ! D70   D(27,15,16,31)        -58.8111         calculate D2E/DX2 analytically  !
 ! D71   D(28,15,16,29)        178.5249         calculate D2E/DX2 analytically  !
 ! D72   D(28,15,16,30)        -61.3788         calculate D2E/DX2 analytically  !
 ! D73   D(28,15,16,31)         58.6989         calculate D2E/DX2 analytically  !
 --------------------------------------------------------------------------------
 Trust Radius=3.00D-01 FncErr=1.00D-07 GrdErr=1.00D-06
 Number of steps in this run=    167 maximum allowed number of steps=    186.
 GradGradGradGradGradGradGradGradGradGradGradGradGradGradGradGradGradGrad

                          Input orientation:                          
 ---------------------------------------------------------------------
 Center     Atomic      Atomic             Coordinates (Angstroms)
 Number     Number       Type             X           Y           Z
 ---------------------------------------------------------------------
      1          8           0        0.488024   -1.044212   -0.128100
      2          6           0        1.123845   -0.017492   -0.373609
      3          7           0        0.490472    1.135943   -0.678403
      4          6           0       -0.952331    1.179802   -0.777899
      5          6           0       -1.313456    2.460537   -1.516985
      6          8           0       -2.628012    2.618957   -1.772967
      7          8           0       -0.510003    3.284664   -1.851898
      8          6           0       -1.638845    1.094382    0.620743
      9          6           0       -2.642701   -0.010178    0.702351
     10          6           0       -3.989868   -0.021681    0.905013
     11          7           0       -4.476793   -1.317343    0.866546
     12          6           0       -3.425194   -2.066739    0.639055
     13          7           0       -2.293636   -1.327439    0.530588
     14          6           0        2.639540    0.021364   -0.382610
     15          6           0        3.234388   -0.997902    0.573178
     16          7           0        4.720173   -1.027433    0.502220
     17          1           0        0.981373    1.940946   -1.037338
     18          1           0       -1.278962    0.340841   -1.403513
     19          1           0       -3.115548    1.846115   -1.464303
     20          1           0       -2.131516    2.034185    0.870539
     21          1           0       -0.863674    0.942566    1.369359
     22          1           0       -4.644919    0.820583    1.076687
     23          1           0       -3.413057   -3.138350    0.545338
     24          1           0       -1.352539   -1.645316    0.352137
     25          1           0        2.982476    1.027973   -0.135904
     26          1           0        2.975428   -0.200789   -1.399690
     27          1           0        2.830344   -1.978956    0.327855
     28          1           0        2.924933   -0.767636    1.592065
     29          1           0        5.038567   -1.265120   -0.437119
     30          1           0        5.124010   -0.122922    0.746146
     31          1           0        5.117207   -1.718407    1.140508
 ---------------------------------------------------------------------
                    Distance matrix (angstroms):
                    1          2          3          4          5
     1  O    0.000000
     2  C    1.232354   0.000000
     3  N    2.248537   1.350731   0.000000
     4  C    2.728204   2.430528   1.446894   0.000000
     5  C    4.178230   3.659013   2.389964   1.522151   0.000000
     6  O    5.082723   4.794319   3.622478   2.422651   1.348584
     7  O    4.765156   3.969765   2.644815   2.404075   1.198704
     8  C    3.107719   3.139658   2.494694   1.560384   2.557761
     9  C    3.400046   3.917220   3.610658   2.542547   3.577259
    10  C    4.707909   5.271143   4.890884   3.674559   4.380715
    11  N    5.070831   5.881729   5.751453   4.621879   5.473600
    12  C    4.116718   5.091037   5.227362   4.320050   5.440972
    13  N    2.872580   3.769975   3.909114   3.130095   4.416115
    14  C    2.414384   1.516220   2.438908   3.794702   4.781480
    15  C    2.834863   2.512369   3.694431   4.908809   6.083787
    16  N    4.278863   3.836747   4.895348   6.219959   7.255881
    17  H    3.159316   2.072755   1.008884   2.094244   2.401308
    18  H    2.582110   2.638672   2.070959   1.096328   2.123011
    19  H    4.808863   4.757636   3.758373   2.365298   1.904685
    20  H    4.163628   4.044089   3.175040   2.199499   2.559545
    21  H    2.831388   2.812451   2.462608   2.162142   3.292040
    22  H    5.592502   6.007027   5.436179   4.147739   4.529374
    23  H    4.478545   5.582804   5.916475   5.143206   6.325270
    24  H    1.994900   3.051065   3.492006   3.068947   4.511449
    25  H    3.242885   2.145696   2.552655   3.989726   4.734413
    26  H    2.918130   2.124806   2.912407   4.209506   5.048856
    27  H    2.562831   2.692866   4.023699   5.050650   6.346938
    28  H    2.995661   2.769568   3.834741   4.943927   6.168569
    29  H    4.566370   4.109216   5.148639   6.479555   7.442771
    30  H    4.806813   4.155272   5.008368   6.398572   7.296369
    31  H    4.846983   4.597021   5.732576   6.994225   8.116605
                    6          7          8          9         10
     6  O    0.000000
     7  O    2.221567   0.000000
     8  C    3.005433   3.490785   0.000000
     9  C    3.611062   4.682796   1.494804   0.000000
    10  C    3.999900   5.535516   2.617960   1.362374   0.000000
    11  N    5.087188   6.656113   3.732397   2.258215   1.384672
    12  C    5.330018   6.583366   3.630986   2.201305   2.138189
    13  N    4.581727   5.488997   2.510398   1.373509   2.173109
    14  C    6.035535   4.767343   4.523567   5.392607   6.753434
    15  C    7.276935   6.183997   5.303612   5.960910   7.297465
    16  N    8.512841   7.175709   6.704718   7.435508   8.777163
    17  H    3.745465   2.166400   3.214256   4.468480   5.686639
    18  H    2.673246   3.075458   2.189737   2.533310   3.579067
    19  H    0.964495   3.001420   2.663301   2.892023   3.141139
    20  H    2.752561   3.406562   1.090116   2.114005   2.771506
    21  H    3.974593   3.998376   1.088285   2.125455   3.304312
    22  H    3.927161   5.634345   3.052759   2.199811   1.080728
    23  H    6.255991   7.445105   4.590156   3.225455   3.189938
    24  H    4.932232   5.465559   2.767681   2.112070   3.146007
    25  H    6.057127   4.498300   4.683325   5.781267   7.127332
    26  H    6.284015   4.949859   5.201070   6.001524   7.338875
    27  H    7.439617   6.604161   5.431835   5.828426   7.118941
    28  H    7.323090   6.330940   5.023807   5.688926   6.988774
    29  H    8.697527   7.313601   7.160597   7.866076   9.211954
    30  H    8.599865   7.078388   6.872682   7.767653   9.115825
    31  H    9.342884   8.102513   7.336632   7.957776   9.266777
                   11         12         13         14         15
    11  N    0.000000
    12  C    1.311184   0.000000
    13  N    2.208878   1.356006   0.000000
    14  C    7.348110   6.494996   5.195135   0.000000
    15  C    7.723368   6.745130   5.538001   1.518643   0.000000
    16  N    9.208744   8.212544   7.020279   2.492375   1.487772
    17  H    6.635721   6.187864   4.885327   2.619729   4.038151
    18  H    4.257800   3.817700   2.748357   4.061892   5.105866
    19  H    4.158523   4.453136   3.837522   6.133581   7.249927
    20  H    4.090609   4.306363   3.382657   5.327739   6.170486
    21  H    4.291228   4.018786   2.810917   4.023744   4.603632
    22  H    2.154798   3.164787   3.231216   7.472058   8.102091
    23  H    2.133254   1.075771   2.129019   6.890487   6.983611
    24  H    3.183259   2.134436   1.009234   4.387980   4.637662
    25  H    7.883280   7.157936   5.816316   1.091664   2.161117
    26  H    7.868807   6.971816   5.723491   1.093903   2.143515
    27  H    7.356776   6.263889   5.169211   2.131302   1.088992
    28  H    7.457486   6.551336   5.354771   2.145533   1.089456
    29  H    9.604392   8.569481   7.396049   2.722746   2.084987
    30  H    9.675565   8.768055   7.517899   2.732673   2.089541
    31  H    9.606287   8.564194   7.446170   3.389031   2.094278
                   16         17         18         19         20
    16  N    0.000000
    17  H    5.015988   0.000000
    18  H    6.441554   2.793480   0.000000
    19  H    8.574556   4.120201   2.375414   0.000000
    20  H    7.513641   3.652227   2.960670   2.540704   0.000000
    21  H    5.984327   3.192671   2.867639   3.730547   1.745817
    22  H    9.562956   6.113876   4.208469   3.138044   2.798664
    23  H    8.402813   6.900372   4.522959   5.382570   5.338841
    24  H    6.105910   4.498784   2.651893   4.312510   3.796613
    25  H    2.766132   2.377082   4.498760   6.294434   5.308324
    26  H    2.710118   2.948658   4.288731   6.426040   6.019130
    27  H    2.123030   4.544015   5.026479   7.293602   6.404675
    28  H    2.116163   4.245892   5.279672   7.256755   5.825674
    29  H    1.019915   5.205761   6.589705   8.787746   8.000342
    30  H    1.020159   4.960021   6.770093   8.755199   7.570419
    31  H    1.021026   5.936245   7.184952   9.341794   8.166934
                   21         22         23         24         25
    21  H    0.000000
    22  H    3.794517   0.000000
    23  H    4.881828   4.180068   0.000000
    24  H    2.823271   4.176768   2.551904   0.000000
    25  H    4.131099   7.725966   7.663236   5.116348   0.000000
    26  H    4.869661   8.077459   7.295557   4.887418   1.762686
    27  H    4.823462   8.017339   6.353861   4.196238   3.046283
    28  H    4.162683   7.751820   6.847338   4.539219   2.492670
    29  H    6.555432  10.020563   8.712300   6.450869   3.094595
    30  H    6.113593   9.819951   9.056194   6.664730   2.586260
    31  H    6.550121  10.087104   8.668095   6.518013   3.705254
                   26         27         28         29         30
    26  H    0.000000
    27  H    2.483413   0.000000
    28  H    3.045401   1.753416   0.000000
    29  H    2.513143   2.443562   2.971957   0.000000
    30  H    3.037611   2.980057   2.442781   1.646825   0.000000
    31  H    3.652806   2.440909   2.431858   1.643339   1.643515
                   31
    31  H    0.000000
 Symmetry turned off by external request.
 Stoichiometry    C9H15N4O3(1+)
 Framework group  C1[X(C9H15N4O3)]
 Deg. of freedom    87
 Full point group                 C1      NOp   1
 Rotational constants (GHZ):      0.6579548      0.3092405      0.2195217
 Standard basis: 6-31G(d,p) (6D, 7F)
   315 basis functions,   553 primitive gaussians,   315 cartesian basis functions
    60 alpha electrons       60 beta electrons
       nuclear repulsion energy      1130.0178159133 Hartrees.
 NAtoms=   31 NActive=   31 NUniq=   31 SFac= 1.00D+00 NAtFMM=   60 NAOKFM=F Big=F
 Integral buffers will be    131072 words long.
 Raffenetti 2 integral format.
 Two-electron integral symmetry is turned off.
 Nuclear repulsion after empirical dispersion term =     1129.9621763981 Hartrees.
 One-electron integrals computed using PRISM.
 NBasis=   315 RedAO= T EigKep=  1.21D-03  NBF=   315
 NBsUse=   315 1.00D-06 EigRej= -1.00D+00 NBFU=   315
 ExpMin= 1.61D-01 ExpMax= 5.48D+03 ExpMxC= 8.25D+02 IAcc=3 IRadAn=         5 AccDes= 0.00D+00
 Harris functional with IExCor=  402 and IRadAn=       5 diagonalized for initial guess.
 HarFok:  IExCor=  402 AccDes= 0.00D+00 IRadAn=         5 IDoV= 1 UseB2=F ITyADJ=14
 ICtDFT=  3500011 ScaDFX=  1.000000  1.000000  1.000000  1.000000
 FoFCou: FMM=F IPFlag=           0 FMFlag=      100000 FMFlg1=           0
         NFxFlg=           0 DoJE=T BraDBF=F KetDBF=T FulRan=T
         wScrn=  0.000000 ICntrl=     500 IOpCl=  0 I1Cent=   200000004 NGrid=           0
         NMat0=    1 NMatS0=      1 NMatT0=    0 NMatD0=    1 NMtDS0=    0 NMtDT0=    0
 Symmetry not used in FoFCou.
 Requested convergence on RMS density matrix=1.00D-08 within 128 cycles.
 Requested convergence on MAX density matrix=1.00D-06.
 Requested convergence on             energy=1.00D-06.
 No special actions if energy rises.
 Integral accuracy reduced to 1.0D-05 until final iterations.
 EnCoef did     2 forward-backward iterations
 Initial convergence to 1.0D-05 achieved.  Increase integral accuracy.
 SCF Done:  E(RB3LYP) =  -796.523334121     A.U. after   17 cycles
            NFock= 17  Conv=0.33D-08     -V/T= 2.0089
 DoSCS=F DFT=T ScalE2(SS,OS)=  1.000000  1.000000
 Range of M.O.s used for correlation:     1   315
 NBasis=   315 NAE=    60 NBE=    60 NFC=     0 NFV=     0
 NROrb=    315 NOA=    60 NOB=    60 NVA=   255 NVB=   255
 Symmetrizing basis deriv contribution to polar:
 IMax=3 JMax=2 DiffMx= 0.00D+00
 G2DrvN: will do    32 centers at a time, making    1 passes.
 Calling FoFCou, ICntrl=  3107 FMM=F I1Cent=   0 AccDes= 0.00D+00.
 End of G2Drv F.D. properties file   721 does not exist.
 End of G2Drv F.D. properties file   722 does not exist.
 End of G2Drv F.D. properties file   788 does not exist.
          IDoAtm=1111111111111111111111111111111
          Differentiating once with respect to nuclear coordinates.
          There are    96 degrees of freedom in the 1st order CPHF.  IDoFFX=6 NUNeed=     0.
     90 vectors produced by pass  0 Test12= 1.59D-14 1.04D-09 XBig12= 1.74D-01 1.07D-01.
 AX will form    90 AO Fock derivatives at one time.
     90 vectors produced by pass  1 Test12= 1.59D-14 1.04D-09 XBig12= 3.86D-02 5.44D-02.
     90 vectors produced by pass  2 Test12= 1.59D-14 1.04D-09 XBig12= 3.07D-04 2.59D-03.
     90 vectors produced by pass  3 Test12= 1.59D-14 1.04D-09 XBig12= 1.14D-06 1.11D-04.
     90 vectors produced by pass  4 Test12= 1.59D-14 1.04D-09 XBig12= 1.80D-09 3.62D-06.
     73 vectors produced by pass  5 Test12= 1.59D-14 1.04D-09 XBig12= 1.65D-12 1.25D-07.
     16 vectors produced by pass  6 Test12= 1.59D-14 1.04D-09 XBig12= 1.39D-15 4.15D-09.
 InvSVY:  IOpt=1 It=  1 EMax= 6.11D-16
 Solved reduced A of dimension   539 with    96 vectors.
 End of Minotr F.D. properties file   721 does not exist.
 End of Minotr F.D. properties file   722 does not exist.
 End of Minotr F.D. properties file   788 does not exist.

 **********************************************************************

            Population analysis using the SCF density.

 **********************************************************************

 Alpha  occ. eigenvalues --  -19.29764 -19.26952 -19.24782 -14.68390 -14.50114
 Alpha  occ. eigenvalues --  -14.45860 -14.38073 -10.44688 -10.44589 -10.42921
 Alpha  occ. eigenvalues --  -10.38710 -10.36155 -10.31109 -10.30996 -10.29809
 Alpha  occ. eigenvalues --  -10.27251  -1.23064  -1.21069  -1.18947  -1.13335
 Alpha  occ. eigenvalues --   -1.09048  -1.06747  -0.98497  -0.94354  -0.90937
 Alpha  occ. eigenvalues --   -0.86740  -0.83205  -0.81129  -0.80310  -0.77177
 Alpha  occ. eigenvalues --   -0.73220  -0.71483  -0.71243  -0.69194  -0.67759
 Alpha  occ. eigenvalues --   -0.66678  -0.65948  -0.63665  -0.61414  -0.59856
 Alpha  occ. eigenvalues --   -0.58727  -0.58014  -0.56658  -0.55667  -0.54439
 Alpha  occ. eigenvalues --   -0.54064  -0.52416  -0.50594  -0.49715  -0.48956
 Alpha  occ. eigenvalues --   -0.48691  -0.48130  -0.47748  -0.42293  -0.41414
 Alpha  occ. eigenvalues --   -0.39967  -0.38635  -0.35066  -0.33413  -0.30577
 Alpha virt. eigenvalues --   -0.17926  -0.13718  -0.11346  -0.11092  -0.09713
 Alpha virt. eigenvalues --   -0.07762  -0.05568  -0.04057  -0.03450  -0.02839
 Alpha virt. eigenvalues --   -0.01839  -0.00718  -0.00331   0.00730   0.01416
 Alpha virt. eigenvalues --    0.02340   0.04139   0.04664   0.05634   0.07035
 Alpha virt. eigenvalues --    0.08698   0.09824   0.11680   0.12332   0.13584
 Alpha virt. eigenvalues --    0.15282   0.15736   0.19921   0.20559   0.22463
 Alpha virt. eigenvalues --    0.24070   0.26431   0.27254   0.30755   0.32026
 Alpha virt. eigenvalues --    0.32691   0.33569   0.36311   0.36497   0.40315
 Alpha virt. eigenvalues --    0.41998   0.42897   0.44273   0.45596   0.45791
 Alpha virt. eigenvalues --    0.46418   0.47284   0.47722   0.49281   0.49423
 Alpha virt. eigenvalues --    0.51228   0.51569   0.54130   0.54518   0.55783
 Alpha virt. eigenvalues --    0.56551   0.56728   0.57593   0.58191   0.58418
 Alpha virt. eigenvalues --    0.59084   0.59932   0.61693   0.62686   0.63745
 Alpha virt. eigenvalues --    0.64368   0.65845   0.66466   0.67349   0.68564
 Alpha virt. eigenvalues --    0.69440   0.70868   0.71364   0.71880   0.72687
 Alpha virt. eigenvalues --    0.73809   0.74438   0.74828   0.75688   0.76697
 Alpha virt. eigenvalues --    0.77008   0.78528   0.79191   0.79542   0.81836
 Alpha virt. eigenvalues --    0.84302   0.86504   0.87558   0.87877   0.90625
 Alpha virt. eigenvalues --    0.92413   0.93579   0.94398   0.96636   0.98331
 Alpha virt. eigenvalues --    0.98886   1.01501   1.03516   1.07122   1.07590
 Alpha virt. eigenvalues --    1.09195   1.12611   1.15140   1.18179   1.20717
 Alpha virt. eigenvalues --    1.22973   1.23904   1.25658   1.27215   1.28007
 Alpha virt. eigenvalues --    1.28484   1.30525   1.32526   1.33837   1.35295
 Alpha virt. eigenvalues --    1.36850   1.37416   1.38473   1.41659   1.43000
 Alpha virt. eigenvalues --    1.45104   1.45251   1.46362   1.49036   1.52983
 Alpha virt. eigenvalues --    1.54900   1.57364   1.59021   1.60673   1.62937
 Alpha virt. eigenvalues --    1.64236   1.65197   1.66685   1.67457   1.68710
 Alpha virt. eigenvalues --    1.69144   1.70363   1.71440   1.73089   1.73674
 Alpha virt. eigenvalues --    1.75544   1.76942   1.77475   1.79196   1.80038
 Alpha virt. eigenvalues --    1.81287   1.84050   1.84275   1.85861   1.86990
 Alpha virt. eigenvalues --    1.87451   1.89366   1.93104   1.93744   1.95321
 Alpha virt. eigenvalues --    1.96214   1.97122   1.98090   2.00402   2.01343
 Alpha virt. eigenvalues --    2.02407   2.03611   2.04886   2.05760   2.06940
 Alpha virt. eigenvalues --    2.07827   2.11506   2.12632   2.14513   2.15983
 Alpha virt. eigenvalues --    2.18147   2.18383   2.19486   2.22810   2.23236
 Alpha virt. eigenvalues --    2.24440   2.26811   2.27441   2.28689   2.32324
 Alpha virt. eigenvalues --    2.33506   2.34434   2.36848   2.37759   2.38575
 Alpha virt. eigenvalues --    2.40001   2.41130   2.44163   2.44759   2.46891
 Alpha virt. eigenvalues --    2.47610   2.49077   2.50459   2.51273   2.52785
 Alpha virt. eigenvalues --    2.53127   2.53356   2.54798   2.56054   2.57917
 Alpha virt. eigenvalues --    2.58493   2.62024   2.63088   2.64881   2.66002
 Alpha virt. eigenvalues --    2.66707   2.67679   2.68887   2.70532   2.71202
 Alpha virt. eigenvalues --    2.72979   2.74576   2.76752   2.78390   2.82602
 Alpha virt. eigenvalues --    2.85327   2.86993   2.89844   2.90814   2.93170
 Alpha virt. eigenvalues --    2.95339   2.96154   2.97541   3.07073   3.08740
 Alpha virt. eigenvalues --    3.10260   3.12182   3.17193   3.20404   3.21411
 Alpha virt. eigenvalues --    3.22999   3.25201   3.26771   3.35689   3.36995
 Alpha virt. eigenvalues --    3.39106   3.43893   3.49306   3.62766   3.84748
 Alpha virt. eigenvalues --    3.92273   3.93613   3.99913   4.03345   4.07896
 Alpha virt. eigenvalues --    4.13285   4.14471   4.16331   4.29456   4.34355
 Alpha virt. eigenvalues --    4.36236   4.41447   4.49721   4.61814   4.68347
          Condensed to atoms (all electrons):
               1          2          3          4          5          6
     1  O    8.138622   0.528110  -0.097373   0.005112   0.000486  -0.000001
     2  C    0.528110   4.326651   0.318951  -0.028361   0.005199  -0.000049
     3  N   -0.097373   0.318951   7.033085   0.187891  -0.018539   0.002646
     4  C    0.005112  -0.028361   0.187891   5.279978   0.275157  -0.098511
     5  C    0.000486   0.005199  -0.018539   0.275157   4.348882   0.281884
     6  O   -0.000001  -0.000049   0.002646  -0.098511   0.281884   8.066136
     7  O   -0.000006   0.000740  -0.014152  -0.089353   0.585604  -0.074562
     8  C    0.003196  -0.004416  -0.045133   0.280276  -0.022433   0.003563
     9  C   -0.003045   0.000091   0.002700  -0.034970  -0.001087  -0.002293
    10  C    0.000026   0.000006  -0.000047  -0.000385  -0.000132  -0.000512
    11  N   -0.000008   0.000000   0.000001  -0.000073  -0.000001   0.000001
    12  C    0.000313   0.000016  -0.000010   0.000227   0.000004   0.000005
    13  N   -0.012356   0.000767   0.000255  -0.004119   0.000204   0.000026
    14  C   -0.089107   0.300085  -0.114435   0.006668  -0.000128   0.000000
    15  C    0.002357  -0.019596   0.002770  -0.000109  -0.000001   0.000000
    16  N    0.000267   0.002102  -0.000027   0.000000   0.000000   0.000000
    17  H    0.002581  -0.020245   0.323170  -0.047192  -0.004173   0.000912
    18  H    0.005900  -0.002132  -0.047651   0.390108  -0.028050   0.000946
    19  H    0.000002  -0.000005   0.000450  -0.000566  -0.023821   0.276411
    20  H    0.000095   0.000177   0.002553  -0.044889  -0.003032   0.002919
    21  H    0.000453   0.003358  -0.006557  -0.050809   0.001273   0.000140
    22  H    0.000000   0.000000   0.000000  -0.000038  -0.000007  -0.000024
    23  H   -0.000009   0.000001   0.000000   0.000000   0.000000   0.000000
    24  H    0.031711  -0.002141  -0.000164   0.000293   0.000013   0.000000
    25  H    0.002121  -0.019933   0.004446   0.000157  -0.000020   0.000000
    26  H    0.000266  -0.015967  -0.002436  -0.000147   0.000002   0.000000
    27  H    0.013767   0.000300   0.000592  -0.000006   0.000000   0.000000
    28  H    0.001262  -0.000656   0.000304  -0.000018   0.000000   0.000000
    29  H    0.000019  -0.000004   0.000001   0.000000   0.000000   0.000000
    30  H    0.000002  -0.000046   0.000000   0.000000   0.000000   0.000000
    31  H    0.000011   0.000004   0.000001   0.000000   0.000000   0.000000
               7          8          9         10         11         12
     1  O   -0.000006   0.003196  -0.003045   0.000026  -0.000008   0.000313
     2  C    0.000740  -0.004416   0.000091   0.000006   0.000000   0.000016
     3  N   -0.014152  -0.045133   0.002700  -0.000047   0.000001  -0.000010
     4  C   -0.089353   0.280276  -0.034970  -0.000385  -0.000073   0.000227
     5  C    0.585604  -0.022433  -0.001087  -0.000132  -0.000001   0.000004
     6  O   -0.074562   0.003563  -0.002293  -0.000512   0.000001   0.000005
     7  O    7.987947   0.000306   0.000035   0.000000   0.000000   0.000000
     8  C    0.000306   5.150987   0.312979  -0.054297   0.006994   0.006669
     9  C    0.000035   0.312979   4.824129   0.560565  -0.049194  -0.094663
    10  C    0.000000  -0.054297   0.560565   4.872960   0.425953  -0.117661
    11  N    0.000000   0.006994  -0.049194   0.425953   6.669933   0.534409
    12  C    0.000000   0.006669  -0.094663  -0.117661   0.534409   4.667797
    13  N   -0.000001  -0.072426   0.361867  -0.076198  -0.085094   0.355376
    14  C   -0.000071  -0.000292   0.000002   0.000000   0.000000   0.000001
    15  C    0.000000   0.000040  -0.000002   0.000000   0.000000   0.000000
    16  N    0.000000   0.000000   0.000000   0.000000   0.000000   0.000000
    17  H    0.039246   0.003360  -0.000133   0.000002   0.000000   0.000000
    18  H    0.000876  -0.056069   0.000734   0.000400  -0.000131  -0.000096
    19  H    0.004166  -0.000706   0.010506   0.005629  -0.000078  -0.000169
    20  H    0.000080   0.384953  -0.030190  -0.002569   0.000011  -0.000052
    21  H   -0.000136   0.376378  -0.028049   0.000672  -0.000153   0.000179
    22  H    0.000000  -0.000935  -0.060390   0.394614  -0.038605   0.007165
    23  H    0.000000  -0.000187   0.003303   0.007361  -0.036510   0.393273
    24  H    0.000000  -0.003375  -0.028443   0.008399   0.004273  -0.020568
    25  H   -0.000010  -0.000009   0.000001   0.000000   0.000000   0.000000
    26  H    0.000000  -0.000011   0.000000   0.000000   0.000000   0.000000
    27  H    0.000000   0.000000   0.000001   0.000000   0.000000   0.000000
    28  H    0.000000  -0.000003   0.000000   0.000000   0.000000   0.000000
    29  H    0.000000   0.000000   0.000000   0.000000   0.000000   0.000000
    30  H    0.000000   0.000000   0.000000   0.000000   0.000000   0.000000
    31  H    0.000000   0.000000   0.000000   0.000000   0.000000   0.000000
              13         14         15         16         17         18
     1  O   -0.012356  -0.089107   0.002357   0.000267   0.002581   0.005900
     2  C    0.000767   0.300085  -0.019596   0.002102  -0.020245  -0.002132
     3  N    0.000255  -0.114435   0.002770  -0.000027   0.323170  -0.047651
     4  C   -0.004119   0.006668  -0.000109   0.000000  -0.047192   0.390108
     5  C    0.000204  -0.000128  -0.000001   0.000000  -0.004173  -0.028050
     6  O    0.000026   0.000000   0.000000   0.000000   0.000912   0.000946
     7  O   -0.000001  -0.000071   0.000000   0.000000   0.039246   0.000876
     8  C   -0.072426  -0.000292   0.000040   0.000000   0.003360  -0.056069
     9  C    0.361867   0.000002  -0.000002   0.000000  -0.000133   0.000734
    10  C   -0.076198   0.000000   0.000000   0.000000   0.000002   0.000400
    11  N   -0.085094   0.000000   0.000000   0.000000   0.000000  -0.000131
    12  C    0.355376   0.000001   0.000000   0.000000   0.000000  -0.000096
    13  N    6.784043  -0.000023  -0.000001   0.000000  -0.000002   0.004810
    14  C   -0.000023   5.260595   0.315924  -0.042771  -0.000640   0.000234
    15  C   -0.000001   0.315924   5.039533   0.162886   0.000023  -0.000024
    16  N    0.000000  -0.042771   0.162886   6.474455  -0.000005   0.000000
    17  H   -0.000002  -0.000640   0.000023  -0.000005   0.406630   0.004075
    18  H    0.004810   0.000234  -0.000024   0.000000   0.004075   0.549031
    19  H   -0.000289   0.000000   0.000000   0.000000  -0.000117   0.000701
    20  H    0.003515   0.000010   0.000000   0.000000   0.000075   0.003814
    21  H   -0.002881  -0.000324   0.000004   0.000000   0.000105   0.002423
    22  H    0.004603   0.000000   0.000000   0.000000   0.000000   0.000033
    23  H   -0.056873   0.000000   0.000000   0.000000   0.000000   0.000014
    24  H    0.321500   0.000286   0.000006   0.000000  -0.000015   0.000076
    25  H    0.000000   0.366553  -0.039979  -0.002298   0.000757   0.000010
    26  H    0.000000   0.374691  -0.040224  -0.002911   0.000299   0.000059
    27  H    0.000000  -0.040788   0.387899  -0.030132  -0.000017  -0.000002
    28  H    0.000000  -0.035344   0.395454  -0.032024  -0.000005   0.000002
    29  H    0.000000  -0.000724  -0.023460   0.333045   0.000000   0.000000
    30  H    0.000000  -0.001673  -0.019764   0.332572   0.000000   0.000000
    31  H    0.000000   0.003476  -0.021525   0.337410   0.000000   0.000000
              19         20         21         22         23         24
     1  O    0.000002   0.000095   0.000453   0.000000  -0.000009   0.031711
     2  C   -0.000005   0.000177   0.003358   0.000000   0.000001  -0.002141
     3  N    0.000450   0.002553  -0.006557   0.000000   0.000000  -0.000164
     4  C   -0.000566  -0.044889  -0.050809  -0.000038   0.000000   0.000293
     5  C   -0.023821  -0.003032   0.001273  -0.000007   0.000000   0.000013
     6  O    0.276411   0.002919   0.000140  -0.000024   0.000000   0.000000
     7  O    0.004166   0.000080  -0.000136   0.000000   0.000000   0.000000
     8  C   -0.000706   0.384953   0.376378  -0.000935  -0.000187  -0.003375
     9  C    0.010506  -0.030190  -0.028049  -0.060390   0.003303  -0.028443
    10  C    0.005629  -0.002569   0.000672   0.394614   0.007361   0.008399
    11  N   -0.000078   0.000011  -0.000153  -0.038605  -0.036510   0.004273
    12  C   -0.000169  -0.000052   0.000179   0.007165   0.393273  -0.020568
    13  N   -0.000289   0.003515  -0.002881   0.004603  -0.056873   0.321500
    14  C    0.000000   0.000010  -0.000324   0.000000   0.000000   0.000286
    15  C    0.000000   0.000000   0.000004   0.000000   0.000000   0.000006
    16  N    0.000000   0.000000   0.000000   0.000000   0.000000   0.000000
    17  H   -0.000117   0.000075   0.000105   0.000000   0.000000  -0.000015
    18  H    0.000701   0.003814   0.002423   0.000033   0.000014   0.000076
    19  H    0.393510  -0.000102   0.000366   0.000338   0.000000   0.000000
    20  H   -0.000102   0.548392  -0.023137   0.002597   0.000004  -0.000035
    21  H    0.000366  -0.023137   0.591967  -0.000035  -0.000003   0.000671
    22  H    0.000338   0.002597  -0.000035   0.586625  -0.000151  -0.000104
    23  H    0.000000   0.000004  -0.000003  -0.000151   0.565582   0.000208
    24  H    0.000000  -0.000035   0.000671  -0.000104   0.000208   0.400866
    25  H    0.000000  -0.000002   0.000007   0.000000   0.000000  -0.000006
    26  H    0.000000   0.000000   0.000006   0.000000   0.000000  -0.000004
    27  H    0.000000   0.000000   0.000000   0.000000   0.000000   0.000002
    28  H    0.000000   0.000000   0.000041   0.000000   0.000000   0.000000
    29  H    0.000000   0.000000   0.000000   0.000000   0.000000   0.000000
    30  H    0.000000   0.000000   0.000000   0.000000   0.000000   0.000000
    31  H    0.000000   0.000000   0.000000   0.000000   0.000000   0.000000
              25         26         27         28         29         30
     1  O    0.002121   0.000266   0.013767   0.001262   0.000019   0.000002
     2  C   -0.019933  -0.015967   0.000300  -0.000656  -0.000004  -0.000046
     3  N    0.004446  -0.002436   0.000592   0.000304   0.000001   0.000000
     4  C    0.000157  -0.000147  -0.000006  -0.000018   0.000000   0.000000
     5  C   -0.000020   0.000002   0.000000   0.000000   0.000000   0.000000
     6  O    0.000000   0.000000   0.000000   0.000000   0.000000   0.000000
     7  O   -0.000010   0.000000   0.000000   0.000000   0.000000   0.000000
     8  C   -0.000009  -0.000011   0.000000  -0.000003   0.000000   0.000000
     9  C    0.000001   0.000000   0.000001   0.000000   0.000000   0.000000
    10  C    0.000000   0.000000   0.000000   0.000000   0.000000   0.000000
    11  N    0.000000   0.000000   0.000000   0.000000   0.000000   0.000000
    12  C    0.000000   0.000000   0.000000   0.000000   0.000000   0.000000
    13  N    0.000000   0.000000   0.000000   0.000000   0.000000   0.000000
    14  C    0.366553   0.374691  -0.040788  -0.035344  -0.000724  -0.001673
    15  C   -0.039979  -0.040224   0.387899   0.395454  -0.023460  -0.019764
    16  N   -0.002298  -0.002911  -0.030132  -0.032024   0.333045   0.332572
    17  H    0.000757   0.000299  -0.000017  -0.000005   0.000000   0.000000
    18  H    0.000010   0.000059  -0.000002   0.000002   0.000000   0.000000
    19  H    0.000000   0.000000   0.000000   0.000000   0.000000   0.000000
    20  H   -0.000002   0.000000   0.000000   0.000000   0.000000   0.000000
    21  H    0.000007   0.000006   0.000000   0.000041   0.000000   0.000000
    22  H    0.000000   0.000000   0.000000   0.000000   0.000000   0.000000
    23  H    0.000000   0.000000   0.000000   0.000000   0.000000   0.000000
    24  H   -0.000006  -0.000004   0.000002   0.000000   0.000000   0.000000
    25  H    0.559854  -0.027180   0.004710  -0.004386  -0.000279   0.003945
    26  H   -0.027180   0.536664  -0.004068   0.004460   0.004983  -0.000441
    27  H    0.004710  -0.004068   0.470269  -0.022630  -0.002941   0.003525
    28  H   -0.004386   0.004460  -0.022630   0.489722   0.003893  -0.003316
    29  H   -0.000279   0.004983  -0.002941   0.003893   0.344509  -0.016360
    30  H    0.003945  -0.000441   0.003525  -0.003316  -0.016360   0.344847
    31  H   -0.000015  -0.000004  -0.001581  -0.002024  -0.014291  -0.015106
              31
     1  O    0.000011
     2  C    0.000004
     3  N    0.000001
     4  C    0.000000
     5  C    0.000000
     6  O    0.000000
     7  O    0.000000
     8  C    0.000000
     9  C    0.000000
    10  C    0.000000
    11  N    0.000000
    12  C    0.000000
    13  N    0.000000
    14  C    0.003476
    15  C   -0.021525
    16  N    0.337410
    17  H    0.000000
    18  H    0.000000
    19  H    0.000000
    20  H    0.000000
    21  H    0.000000
    22  H    0.000000
    23  H    0.000000
    24  H    0.000000
    25  H   -0.000015
    26  H   -0.000004
    27  H   -0.001581
    28  H   -0.002024
    29  H   -0.014291
    30  H   -0.015106
    31  H    0.334340
 Mulliken charges:
               1
     1  O   -0.534777
     2  C    0.626994
     3  N   -0.533294
     4  C   -0.026320
     5  C    0.602717
     6  O   -0.459637
     7  O   -0.440711
     8  C   -0.269410
     9  C    0.255545
    10  C   -0.024785
    11  N   -0.431729
    12  C    0.267784
    13  N   -0.526704
    14  C   -0.302204
    15  C   -0.142212
    16  N   -0.532569
    17  H    0.291309
    18  H    0.169911
    19  H    0.333774
    20  H    0.154813
    21  H    0.134042
    22  H    0.104314
    23  H    0.123988
    24  H    0.286549
    25  H    0.151556
    26  H    0.171963
    27  H    0.221098
    28  H    0.205268
    29  H    0.371610
    30  H    0.371814
    31  H    0.379303
 Sum of Mulliken charges =   1.00000
 Mulliken charges with hydrogens summed into heavy atoms:
               1
     1  O   -0.534777
     2  C    0.626994
     3  N   -0.241985
     4  C    0.143591
     5  C    0.602717
     6  O   -0.125863
     7  O   -0.440711
     8  C    0.019445
     9  C    0.255545
    10  C    0.079529
    11  N   -0.431729
    12  C    0.391772
    13  N   -0.240155
    14  C    0.021315
    15  C    0.284154
    16  N    0.590158
 APT charges:
               1
     1  O   -0.546118
     2  C    0.309639
     3  N   -0.727686
     4  C   -0.306724
     5  C   -0.446992
     6  O    0.089880
     7  O    0.255996
     8  C   -0.854590
     9  C   -0.603106
    10  C   -0.247472
    11  N    0.444802
    12  C   -0.546309
    13  N   -0.515277
    14  C   -0.794400
    15  C   -0.063160
    16  N   -1.955089
    17  H    0.654458
    18  H    0.316332
    19  H    0.275762
    20  H    0.594893
    21  H    0.202448
    22  H    0.776444
    23  H    0.684691
    24  H    0.073538
    25  H    0.406878
    26  H    0.493629
    27  H    0.266682
    28  H    0.223533
    29  H    0.748561
    30  H    0.713966
    31  H    1.074791
 Sum of APT charges =   1.00000
 APT charges with hydrogens summed into heavy atoms:
               1
     1  O   -0.546118
     2  C    0.309639
     3  N   -0.073228
     4  C    0.009608
     5  C   -0.446992
     6  O    0.365642
     7  O    0.255996
     8  C   -0.057248
     9  C   -0.603106
    10  C    0.528972
    11  N    0.444802
    12  C    0.138382
    13  N   -0.441739
    14  C    0.106107
    15  C    0.427056
    16  N    0.582228
 Electronic spatial extent (au):  <R**2>=           4905.4595
 Charge=              1.0000 electrons
 Dipole moment (field-independent basis, Debye):
    X=             22.4396    Y=             -4.2583    Z=              1.8942  Tot=             22.9185
 Quadrupole moment (field-independent basis, Debye-Ang):
   XX=             -2.0275   YY=            -91.3034   ZZ=            -90.3731
   XY=            -24.5461   XZ=             13.1390   YZ=              5.5039
 Traceless Quadrupole moment (field-independent basis, Debye-Ang):
   XX=             59.2071   YY=            -30.0688   ZZ=            -29.1384
   XY=            -24.5461   XZ=             13.1390   YZ=              5.5039
 Octapole moment (field-independent basis, Debye-Ang**2):
  XXX=            753.0695  YYY=           -136.4417  ZZZ=             35.6857  XYY=             93.7978
  XXY=            -79.0990  XXZ=             34.2673  XZZ=             86.1475  YZZ=            -37.2408
  YYZ=             46.3647  XYZ=            -26.2455
 Hexadecapole moment (field-independent basis, Debye-Ang**3):
 XXXX=          -2225.5115 YYYY=          -1515.9756 ZZZZ=           -590.5019 XXXY=           -614.5701
 XXXZ=            409.2449 YYYX=            163.8606 YYYZ=            418.8623 ZZZX=             75.6042
 ZZZY=            352.6356 XXYY=           -764.1384 XXZZ=           -727.4489 YYZZ=           -393.7551
 XXYZ=            106.6874 YYXZ=              2.4764 ZZXY=             21.4334
 N-N= 1.129962176398D+03 E-N=-4.101669181636D+03  KE= 7.895171725810D+02
  Exact polarizability:   0.000   0.000   0.000   0.000   0.000   0.000
 Approx polarizability: 211.616  11.963 205.175 -10.810 -13.402 122.092
 Calling FoFJK, ICntrl=    100147 FMM=F ISym2X=0 I1Cent= 0 IOpClX= 0 NMat=1 NMatS=1 NMatT=0.
 -------------------------------------------------------------------
 Center     Atomic                   Forces (Hartrees/Bohr)
 Number     Number              X              Y              Z
 -------------------------------------------------------------------
      1        8           0.013679541   -0.008950401    0.005204019
      2        6          -0.023644389    0.006562042   -0.004267142
      3        7           0.012905922   -0.006953702    0.001315330
      4        6           0.002012093   -0.000457404   -0.001968222
      5        6          -0.017566955   -0.002950680   -0.000632709
      6        8           0.009159446    0.000594137    0.001147342
      7        8           0.014027196    0.008653477   -0.002613457
      8        6          -0.007424491   -0.006801040    0.000978513
      9        6           0.010623529    0.011564287   -0.002900298
     10        6          -0.015767340   -0.003355627    0.000336088
     11        7          -0.005115701    0.005987607    0.000958285
     12        6          -0.002518021   -0.003102824    0.000596165
     13        7           0.009048974   -0.003897830   -0.001151114
     14        6           0.011918848    0.005022296   -0.003953940
     15        6          -0.029197738   -0.000350755    0.002134155
     16        7           0.004721082   -0.001525110    0.001175853
     17        1           0.001213500    0.007361837   -0.000977623
     18        1          -0.001005152   -0.001607702    0.002325667
     19        1          -0.007405103   -0.004931128    0.002453817
     20        1          -0.000470984    0.002131502    0.000011602
     21        1           0.004391440    0.000973982    0.001649121
     22        1          -0.000421800    0.000467656    0.000932805
     23        1          -0.001485948   -0.004082975   -0.000151505
     24        1           0.002103401   -0.000199155   -0.000855597
     25        1           0.000967639    0.002993560   -0.000201750
     26        1          -0.000247393    0.000761212   -0.003946679
     27        1           0.003810023   -0.003701467    0.000388463
     28        1           0.005432033   -0.000928889    0.003700273
     29        1           0.002398459   -0.000702607   -0.005523405
     30        1           0.002526666    0.004984780    0.000580401
     31        1           0.001331221   -0.003559078    0.003255543
 -------------------------------------------------------------------
 Cartesian Forces:  Max     0.029197738 RMS     0.006621962
 FormGI is forming the generalized inverse of G from B-inverse, IUseBI=4.

 GradGradGradGradGradGradGradGradGradGradGradGradGradGradGradGradGradGrad
 Berny optimization.
 Internal  Forces:  Max     0.023001179 RMS     0.004571065
 Search for a local minimum.
 Step number   1 out of a maximum of  167
 All quantities printed in internal units (Hartrees-Bohrs-Radians)
 Mixed Optimization -- RFO/linear search
 Second derivative matrix not updated -- analytic derivatives used.
 ITU=  0
     Eigenvalues ---    0.00042   0.00120   0.00172   0.00205   0.00373
     Eigenvalues ---    0.00473   0.00559   0.00808   0.01002   0.01245
     Eigenvalues ---    0.01637   0.02090   0.02347   0.02733   0.03308
     Eigenvalues ---    0.03799   0.03973   0.04102   0.04124   0.04209
     Eigenvalues ---    0.04351   0.04482   0.04975   0.05072   0.05270
     Eigenvalues ---    0.05406   0.06017   0.06140   0.06296   0.07448
     Eigenvalues ---    0.07928   0.08356   0.10590   0.10643   0.11077
     Eigenvalues ---    0.11365   0.11872   0.12496   0.13104   0.13312
     Eigenvalues ---    0.13716   0.15549   0.15769   0.16777   0.17244
     Eigenvalues ---    0.17992   0.19337   0.19908   0.20140   0.22423
     Eigenvalues ---    0.23182   0.23363   0.24031   0.24341   0.25523
     Eigenvalues ---    0.27312   0.29733   0.30210   0.31982   0.32723
     Eigenvalues ---    0.33408   0.34017   0.34604   0.34670   0.35078
     Eigenvalues ---    0.35100   0.35374   0.35825   0.35963   0.37391
     Eigenvalues ---    0.37614   0.38447   0.43022   0.44123   0.44314
     Eigenvalues ---    0.44839   0.45417   0.46059   0.47361   0.47461
     Eigenvalues ---    0.48633   0.50191   0.53127   0.60934   0.70198
     Eigenvalues ---    0.81931   0.95698
 RFO step:  Lambda=-1.12474378D-02 EMin= 4.21150746D-04
 Linear search not attempted -- first point.
 Iteration  1 RMS(Cart)=  0.09155766 RMS(Int)=  0.00260449
 Iteration  2 RMS(Cart)=  0.00436241 RMS(Int)=  0.00028178
 Iteration  3 RMS(Cart)=  0.00001274 RMS(Int)=  0.00028171
 Iteration  4 RMS(Cart)=  0.00000000 RMS(Int)=  0.00028171
 Variable       Old X    -DE/DX   Delta X   Delta X   Delta X     New X
                                 (Linear)    (Quad)   (Total)
    R1        2.32881   0.00144   0.00000   0.00503   0.00503   2.33384
    R2        2.55251  -0.00380   0.00000  -0.02401  -0.02401   2.52850
    R3        2.86524   0.00375   0.00000   0.03209   0.03209   2.89733
    R4        2.73423   0.00769   0.00000   0.00814   0.00814   2.74237
    R5        1.90651   0.00681   0.00000   0.01517   0.01517   1.92169
    R6        2.87645   0.00140   0.00000   0.00609   0.00609   2.88254
    R7        2.94870   0.00348   0.00000   0.00984   0.00984   2.95853
    R8        2.07176   0.00020   0.00000  -0.00073  -0.00073   2.07103
    R9        2.54845  -0.00290   0.00000  -0.02022  -0.02022   2.52823
   R10        2.26522   0.01608   0.00000   0.01915   0.01915   2.28437
   R11        1.82263   0.00848   0.00000   0.01675   0.01675   1.83938
   R12        2.82477  -0.00025   0.00000  -0.01410  -0.01410   2.81068
   R13        2.06002   0.00205   0.00000   0.00584   0.00584   2.06586
   R14        2.05656   0.00413   0.00000   0.01096   0.01096   2.06752
   R15        2.57451   0.01540   0.00000   0.02706   0.02707   2.60158
   R16        2.59556   0.00824   0.00000   0.01801   0.01804   2.61359
   R17        2.61665  -0.00299   0.00000  -0.01224  -0.01226   2.60439
   R18        2.04228   0.00077   0.00000   0.00238   0.00238   2.04466
   R19        2.47778   0.00668   0.00000   0.00895   0.00893   2.48671
   R20        2.56248   0.01063   0.00000   0.02118   0.02118   2.58366
   R21        2.03291   0.00406   0.00000   0.00947   0.00947   2.04238
   R22        1.90717   0.00218   0.00000   0.00798   0.00798   1.91516
   R23        2.86982   0.00396   0.00000   0.00553   0.00553   2.87535
   R24        2.06295   0.00302   0.00000   0.00615   0.00615   2.06910
   R25        2.06718   0.00344   0.00000   0.00755   0.00755   2.07473
   R26        2.81148   0.01100   0.00000   0.05581   0.05581   2.86729
   R27        2.05790   0.00183   0.00000   0.00206   0.00206   2.05996
   R28        2.05877   0.00172   0.00000   0.00308   0.00308   2.06186
   R29        1.92736   0.00600   0.00000   0.01164   0.01164   1.93900
   R30        1.92782   0.00556   0.00000   0.01065   0.01065   1.93847
   R31        1.92946   0.00496   0.00000   0.00937   0.00937   1.93883
    A1        2.11118   0.02300   0.00000   0.06349   0.06343   2.17461
    A2        2.13921  -0.01629   0.00000  -0.05919  -0.05925   2.07996
    A3        2.03256  -0.00669   0.00000  -0.00388  -0.00394   2.02861
    A4        2.10480   0.01253   0.00000   0.01116   0.01107   2.11587
    A5        2.13351  -0.00372   0.00000   0.01770   0.01766   2.15117
    A6        2.02256  -0.00860   0.00000  -0.02416  -0.02428   1.99828
    A7        1.87074  -0.00605   0.00000  -0.00225  -0.00218   1.86857
    A8        1.95565   0.00952   0.00000   0.02714   0.02724   1.98289
    A9        1.88929   0.00055   0.00000   0.00636   0.00653   1.89582
   A10        1.95725  -0.00403   0.00000  -0.01376  -0.01388   1.94337
   A11        1.87142   0.00300   0.00000   0.01172   0.01143   1.88284
   A12        1.91614  -0.00313   0.00000  -0.02849  -0.02854   1.88760
   A13        2.00674  -0.00099   0.00000   0.00321   0.00319   2.00993
   A14        2.15930  -0.00455   0.00000  -0.02229  -0.02230   2.13700
   A15        2.11713   0.00553   0.00000   0.01904   0.01903   2.13616
   A16        1.91543   0.00641   0.00000   0.03075   0.03075   1.94618
   A17        1.96584   0.00203   0.00000  -0.03505  -0.03510   1.93074
   A18        1.93589  -0.00120   0.00000  -0.00578  -0.00598   1.92992
   A19        1.88687  -0.00196   0.00000   0.00169   0.00205   1.88892
   A20        1.89761  -0.00302   0.00000   0.00482   0.00430   1.90191
   A21        1.91528   0.00385   0.00000   0.03591   0.03590   1.95118
   A22        1.85934   0.00032   0.00000   0.00103   0.00082   1.86016
   A23        2.31642  -0.00347   0.00000   0.01183   0.01173   2.32815
   A24        2.13078   0.00488   0.00000  -0.01022  -0.01030   2.12048
   A25        1.83569  -0.00141   0.00000  -0.00209  -0.00209   1.83360
   A26        1.92996   0.00134   0.00000   0.00141   0.00139   1.93136
   A27        2.23497  -0.00057   0.00000  -0.00397  -0.00401   2.23095
   A28        2.11826  -0.00077   0.00000   0.00256   0.00252   2.12078
   A29        1.83132   0.00147   0.00000   0.00724   0.00721   1.83853
   A30        1.95147   0.00144   0.00000   0.00078   0.00078   1.95225
   A31        2.20619  -0.00229   0.00000  -0.01131  -0.01131   2.19488
   A32        2.12552   0.00085   0.00000   0.01053   0.01053   2.13605
   A33        1.87633  -0.00283   0.00000  -0.00735  -0.00730   1.86903
   A34        2.16659   0.00097   0.00000  -0.00313  -0.00316   2.16343
   A35        2.24026   0.00186   0.00000   0.01050   0.01047   2.25073
   A36        1.95048  -0.01435   0.00000  -0.07921  -0.07918   1.87130
   A37        1.91380   0.00506   0.00000   0.03141   0.03174   1.94555
   A38        1.88311   0.00256   0.00000  -0.00026  -0.00048   1.88264
   A39        1.93221   0.00454   0.00000   0.02409   0.02426   1.95647
   A40        1.90561   0.00508   0.00000   0.02178   0.02082   1.92643
   A41        1.87646  -0.00251   0.00000   0.00468   0.00407   1.88053
   A42        1.95463  -0.00273   0.00000  -0.01067  -0.01032   1.94431
   A43        1.89392   0.00346   0.00000   0.02836   0.02767   1.92159
   A44        1.91292   0.00441   0.00000   0.04185   0.04124   1.95416
   A45        1.91974  -0.00234   0.00000  -0.03556  -0.03553   1.88421
   A46        1.90971  -0.00291   0.00000  -0.04183  -0.04170   1.86802
   A47        1.87099   0.00031   0.00000   0.02003   0.01792   1.88891
   A48        1.93940   0.00072   0.00000   0.00126   0.00126   1.94066
   A49        1.94585   0.00049   0.00000   0.00203   0.00203   1.94788
   A50        1.95191  -0.00095   0.00000  -0.00750  -0.00750   1.94442
   A51        1.87891  -0.00084   0.00000  -0.00506  -0.00506   1.87386
   A52        1.87198   0.00022   0.00000   0.00438   0.00438   1.87637
   A53        1.87195   0.00034   0.00000   0.00515   0.00516   1.87710
    D1       -0.04469  -0.00145   0.00000  -0.04619  -0.04649  -0.09117
    D2       -2.95156  -0.00147   0.00000  -0.06737  -0.06801  -3.01957
    D3        3.07420  -0.00085   0.00000  -0.02627  -0.02563   3.04857
    D4        0.16733  -0.00087   0.00000  -0.04745  -0.04715   0.12018
    D5       -0.51302   0.00092   0.00000   0.03065   0.02986  -0.48316
    D6       -2.66232   0.00139   0.00000   0.03201   0.03185  -2.63046
    D7        1.58209   0.00019   0.00000   0.00954   0.00950   1.59159
    D8        2.65167  -0.00025   0.00000   0.00863   0.00850   2.66018
    D9        0.50238   0.00022   0.00000   0.00999   0.01050   0.51288
   D10       -1.53640  -0.00098   0.00000  -0.01248  -0.01186  -1.54826
   D11       -2.85552  -0.00099   0.00000  -0.02791  -0.02773  -2.88325
   D12        1.27339   0.00215   0.00000  -0.02643  -0.02627   1.24713
   D13       -0.84207  -0.00031   0.00000  -0.01224  -0.01223  -0.85430
   D14        0.06565  -0.00056   0.00000  -0.00294  -0.00299   0.06266
   D15       -2.08863   0.00258   0.00000  -0.00145  -0.00152  -2.09015
   D16        2.07910   0.00012   0.00000   0.01274   0.01251   2.09161
   D17        3.07123  -0.00119   0.00000   0.02369   0.02370   3.09494
   D18       -0.07601  -0.00175   0.00000   0.01501   0.01508  -0.06093
   D19       -1.05866   0.00401   0.00000   0.04739   0.04743  -1.01123
   D20        2.07728   0.00344   0.00000   0.03871   0.03880   2.11609
   D21        1.04591  -0.00031   0.00000   0.01163   0.01149   1.05740
   D22       -2.10133  -0.00088   0.00000   0.00294   0.00286  -2.09847
   D23       -2.19363  -0.00768   0.00000  -0.07169  -0.07156  -2.26519
   D24        1.95811  -0.00433   0.00000  -0.04871  -0.04877   1.90934
   D25       -0.07443  -0.00290   0.00000  -0.04774  -0.04764  -0.12208
   D26        1.98474  -0.00378   0.00000  -0.07832  -0.07810   1.90664
   D27       -0.14670  -0.00043   0.00000  -0.05535  -0.05532  -0.20202
   D28       -2.17924   0.00100   0.00000  -0.05438  -0.05419  -2.23343
   D29       -0.09372  -0.00289   0.00000  -0.06528  -0.06541  -0.15913
   D30       -2.22517   0.00046   0.00000  -0.04231  -0.04262  -2.26779
   D31        2.02548   0.00189   0.00000  -0.04133  -0.04150   1.98398
   D32       -0.04422   0.00053   0.00000   0.02252   0.02244  -0.02178
   D33        3.10287   0.00111   0.00000   0.03112   0.03120   3.13408
   D34       -2.04190   0.00142   0.00000   0.04166   0.04151  -2.00038
   D35        1.06947   0.00124   0.00000   0.01731   0.01713   1.08660
   D36        0.11101  -0.00092   0.00000   0.01391   0.01383   0.12484
   D37       -3.06081  -0.00110   0.00000  -0.01044  -0.01055  -3.07136
   D38        2.13833  -0.00011   0.00000   0.03776   0.03802   2.17635
   D39       -1.03350  -0.00029   0.00000   0.01340   0.01364  -1.01985
   D40        3.11881   0.00001   0.00000  -0.02125  -0.02140   3.09740
   D41       -0.02254  -0.00048   0.00000  -0.03637  -0.03645  -0.05899
   D42        0.00375   0.00008   0.00000   0.00028   0.00027   0.00403
   D43       -3.13760  -0.00041   0.00000  -0.01484  -0.01477   3.13082
   D44       -3.12174   0.00008   0.00000   0.01667   0.01650  -3.10524
   D45        0.01424  -0.00007   0.00000   0.02006   0.01990   0.03414
   D46       -0.00316  -0.00013   0.00000  -0.00160  -0.00157  -0.00473
   D47        3.13282  -0.00027   0.00000   0.00179   0.00182   3.13464
   D48       -0.00287   0.00001   0.00000   0.00121   0.00120  -0.00167
   D49        3.13850   0.00046   0.00000   0.01515   0.01513  -3.12955
   D50        0.00079  -0.00010   0.00000  -0.00228  -0.00226  -0.00147
   D51        3.13936   0.00012   0.00000  -0.00145  -0.00149   3.13787
   D52        0.00151   0.00016   0.00000   0.00254   0.00250   0.00401
   D53       -3.13415   0.00031   0.00000  -0.00098  -0.00106  -3.13521
   D54       -3.13722  -0.00004   0.00000   0.00180   0.00180  -3.13542
   D55        0.01030   0.00011   0.00000  -0.00172  -0.00176   0.00854
   D56        3.07519  -0.00098   0.00000  -0.03778  -0.03775   3.03745
   D57        0.95274   0.00136   0.00000  -0.00559  -0.00510   0.94763
   D58       -1.08514  -0.00343   0.00000  -0.06890  -0.06940  -1.15453
   D59       -1.06918  -0.00132   0.00000  -0.03586  -0.03603  -1.10520
   D60        3.09155   0.00102   0.00000  -0.00368  -0.00338   3.08817
   D61        1.05368  -0.00376   0.00000  -0.06698  -0.06768   0.98600
   D62        0.99333   0.00145   0.00000  -0.00235  -0.00214   0.99119
   D63       -1.12912   0.00379   0.00000   0.02984   0.03050  -1.09862
   D64        3.11619  -0.00100   0.00000  -0.03347  -0.03379   3.08240
   D65       -1.04264   0.00039   0.00000   0.00625   0.00625  -1.03639
   D66        1.05343   0.00015   0.00000   0.00205   0.00205   1.05549
   D67       -3.13400   0.00027   0.00000   0.00488   0.00488  -3.12912
   D68        1.06491   0.00136   0.00000   0.01067   0.01051   1.07542
   D69       -3.12220   0.00111   0.00000   0.00647   0.00632  -3.11588
   D70       -1.02645   0.00123   0.00000   0.00930   0.00914  -1.01730
   D71        3.11585  -0.00137   0.00000  -0.01069  -0.01053   3.10532
   D72       -1.07126  -0.00162   0.00000  -0.01489  -0.01473  -1.08599
   D73        1.02449  -0.00150   0.00000  -0.01206  -0.01190   1.01259
         Item               Value     Threshold  Converged?
 Maximum Force            0.023001     0.000450     NO 
 RMS     Force            0.004571     0.000300     NO 
 Maximum Displacement     0.315019     0.001800     NO 
 RMS     Displacement     0.092969     0.001200     NO 
 Predicted change in Energy=-6.244660D-03
 GradGradGradGradGradGradGradGradGradGradGradGradGradGradGradGradGradGrad

                          Input orientation:                          
 ---------------------------------------------------------------------
 Center     Atomic      Atomic             Coordinates (Angstroms)
 Number     Number       Type             X           Y           Z
 ---------------------------------------------------------------------
      1          8           0        0.638063   -1.052708    0.038601
      2          6           0        1.170433   -0.001412   -0.331029
      3          7           0        0.505122    1.109490   -0.668032
      4          6           0       -0.944621    1.128667   -0.730137
      5          6           0       -1.343488    2.391847   -1.486478
      6          8           0       -2.657484    2.543589   -1.687270
      7          8           0       -0.532546    3.205020   -1.863844
      8          6           0       -1.633335    1.063960    0.674339
      9          6           0       -2.675474    0.003034    0.698398
     10          6           0       -4.045314    0.025753    0.833747
     11          7           0       -4.564939   -1.246812    0.733933
     12          6           0       -3.527325   -2.032196    0.538632
     13          7           0       -2.355580   -1.328527    0.504879
     14          6           0        2.699166    0.069757   -0.423877
     15          6           0        3.258371   -0.920117    0.587366
     16          7           0        4.767179   -1.034066    0.474517
     17          1           0        0.955074    1.929558   -1.066959
     18          1           0       -1.281279    0.265523   -1.315575
     19          1           0       -3.162616    1.794205   -1.325756
     20          1           0       -2.096951    2.023165    0.919468
     21          1           0       -0.859047    0.889933    1.427478
     22          1           0       -4.680577    0.883841    1.009304
     23          1           0       -3.561617   -3.105674    0.417965
     24          1           0       -1.411350   -1.669449    0.365963
     25          1           0        3.064338    1.087176   -0.249649
     26          1           0        2.988609   -0.219816   -1.442580
     27          1           0        2.833008   -1.909371    0.417882
     28          1           0        3.036141   -0.624367    1.613826
     29          1           0        5.046643   -1.344359   -0.462740
     30          1           0        5.228031   -0.134433    0.649244
     31          1           0        5.143092   -1.710270    1.148373
 ---------------------------------------------------------------------
                    Distance matrix (angstroms):
                    1          2          3          4          5
     1  O    0.000000
     2  C    1.235017   0.000000
     3  N    2.278618   1.338026   0.000000
     4  C    2.802542   2.431012   1.451199   0.000000
     5  C    4.256451   3.658217   2.394088   1.525376   0.000000
     6  O    5.174226   4.792638   3.619056   2.419093   1.337882
     7  O    4.808105   3.940923   2.626399   2.401321   1.208835
     8  C    3.169179   3.163369   2.525279   1.565588   2.552729
     9  C    3.539696   3.981299   3.634221   2.510699   3.500614
    10  C    4.871278   5.344293   4.912870   3.643686   4.275712
    11  N    5.252846   5.964869   5.763956   4.570898   5.343016
    12  C    4.308118   5.191274   5.252319   4.274481   5.333139
    13  N    3.042267   3.859112   3.937418   3.090933   4.339472
    14  C    2.392062   1.533202   2.440181   3.806871   4.781660
    15  C    2.680436   2.459055   3.643584   4.857826   6.037139
    16  N    4.152104   3.827774   4.905648   6.225212   7.274795
    17  H    3.196353   2.077648   1.016913   2.088951   2.381826
    18  H    2.693585   2.655462   2.079139   1.095944   2.134088
    19  H    4.940803   4.794688   3.788632   2.391067   1.921518
    20  H    4.209183   4.042086   3.182097   2.202087   2.547982
    21  H    2.818540   2.829423   2.510045   2.172468   3.313845
    22  H    5.742857   6.067494   5.454892   4.128312   4.431611
    23  H    4.689978   5.708742   5.956959   5.108468   6.226535
    24  H    2.165094   3.151786   3.530512   3.041172   4.464333
    25  H    3.247922   2.185983   2.593285   4.037864   4.760341
    26  H    2.900461   2.142197   2.921418   4.218564   5.058634
    27  H    2.386527   2.639191   3.963809   4.981777   6.290484
    28  H    2.900963   2.766116   3.823505   4.941028   6.155533
    29  H    4.446570   4.104370   5.166133   6.487110   7.472687
    30  H    4.720585   4.176449   5.058500   6.449786   7.357191
    31  H    4.686072   4.570650   5.723734   6.974856   8.114526
                    6          7          8          9         10
     6  O    0.000000
     7  O    2.232494   0.000000
     8  C    2.969071   3.498321   0.000000
     9  C    3.485133   4.627088   1.487345   0.000000
    10  C    3.823754   5.451998   2.630766   1.376699   0.000000
    11  N    4.885463   6.544269   3.733299   2.265714   1.378185
    12  C    5.162274   6.493768   3.632051   2.212089   2.142560
    13  N    4.459814   5.430225   2.504865   1.383053   2.190304
    14  C    6.034046   4.727298   4.578765   5.490966   6.860872
    15  C    7.222781   6.115247   5.279481   6.006251   7.368799
    16  N    8.520479   7.178083   6.738563   7.517897   8.883259
    17  H    3.716504   2.115383   3.237475   4.473126   5.678119
    18  H    2.687319   3.082506   2.172833   2.463487   3.509554
    19  H    0.973359   3.032690   2.621514   2.746415   2.927461
    20  H    2.716638   3.404552   1.093207   2.112933   2.791616
    21  H    3.958612   4.037206   1.094086   2.148849   3.354343
    22  H    3.757550   5.554189   3.070884   2.211995   1.081986
    23  H    6.096200   7.362526   4.601071   3.244682   3.195728
    24  H    4.849568   5.431831   2.759692   2.122668   3.167064
    25  H    6.076771   4.475318   4.787737   5.917735   7.269630
    26  H    6.290838   4.930061   5.243262   6.059313   7.397164
    27  H    7.376044   6.533776   5.371656   5.837752   7.157441
    28  H    7.304146   6.284420   5.053424   5.818435   7.153893
    29  H    8.716031   7.333982   7.191318   7.924316   9.285568
    30  H    8.649419   7.117008   6.965280   7.904853   9.276564
    31  H    9.326585   8.089895   7.337645   8.016724   9.356259
                   11         12         13         14         15
    11  N    0.000000
    12  C    1.315908   0.000000
    13  N    2.222704   1.367215   0.000000
    14  C    7.472691   6.641823   5.326184   0.000000
    15  C    7.831500   6.876392   5.629391   1.521569   0.000000
    16  N    9.338147   8.354589   7.128907   2.510421   1.517307
    17  H    6.618390   6.193974   4.903694   2.629500   4.020275
    18  H    4.155727   3.709760   2.647484   4.083796   5.063136
    19  H    3.931490   4.272037   3.708636   6.176373   7.228876
    20  H    4.100992   4.317054   3.387124   5.350058   6.119859
    21  H    4.333626   4.055686   2.830612   4.094031   4.575500
    22  H    2.151484   3.170930   3.248789   7.561570   8.152251
    23  H    2.135851   1.080783   2.149496   7.070323   7.163630
    24  H    3.202990   2.153775   1.013457   4.532663   4.734640
    25  H    8.038706   7.334977   5.981675   1.094918   2.183452
[...]
 -0.00000210,-0.00002128,0.00000683,0.00000072,-0.00001631,-0.00002319,
 -0.00001248,-0.00000004,0.00000441,0.00000148,0.00000157,-0.00001718,0
 .00000885,0.00000338,-0.01390072,-0.05729463,-0.06293951,0.00512762,0.
 02316455,0.00419034,0.00062382,-0.00038494,0.00028569,-0.00076650,0.00
 001827,0.00022654,-0.00001549,0.00001624,-0.00001976,0.00000611,-0.000
 01831,0.00002594,0.00001297,-0.00000916,0.00000242,0.00001141,0.000033
 21,-0.00002242,0.00000199,-0.00000091,0.00000422,-0.00000071,0.0000001
 7,-0.00000045,0.00001061,0.00000911,-0.00000176,0.01454120,0.05789144,
 0.06452904,-0.00155214,-0.00149990,-0.00401415,-0.00887318,0.00578854,
 0.03323700,-0.00108001,-0.00033704,-0.00164398,-0.00002354,-0.00037964
 ,-0.00137999,-0.00010883,-0.00048690,0.00020954,-0.00015801,0.00017975
 ,-0.00006587,0.00002743,0.00018974,-0.00023159,0.00024502,0.00006029,-
 0.00014908,0.00002718,0.00002251,0.00000933,0.00003997,-0.00001904,-0.
 00000718,-0.00005627,-0.00004778,-0.00001225,-0.00001931,0.00000530,0.
 00000254,-0.00002250,0.00002206,0.00000646,-0.06339612,0.01414151,0.07
 120943,0.00254686,-0.00258414,-0.01971055,0.00194842,-0.00115889,-0.00
 070936,-0.00044914,0.00028491,0.00061976,-0.00038677,0.00015489,-0.000
 01712,0.00006658,0.00000744,0.00000296,-0.00000124,-0.00000427,0.00001
 822,0.00004870,0.00000697,-0.00003357,0.00000584,-0.00000293,0.0000002
 0,-0.00000340,-0.00000072,0.00000119,0.00003369,0.00003813,-0.00000214
 ,0.00160627,-0.00097187,-0.00624081,0.07087643,-0.00105519,-0.00051707
 ,-0.00155827,-0.00264942,-0.00047502,0.00656240,0.00119615,0.00039895,
 0.00025420,-0.00022180,0.00001075,0.00006474,0.00003366,0.00021752,-0.
 00014800,0.00002852,-0.00007283,0.00004018,-0.00003966,-0.00010473,0.0
 0014457,0.00004621,-0.00004512,0.00007157,-0.00000132,-0.00000836,-0.0
 0002809,-0.00002087,0.00000881,0.00000442,0.00002580,0.00002547,0.0000
 0825,0.00001373,0.00000419,-0.00000005,0.00001425,-0.00001510,-0.00001
 045,0.01401684,-0.05743604,-0.04291161,-0.00605226,0.00387571,0.021820
 05,-0.00092992,0.00102796,-0.00030573,0.00016257,-0.00005606,-0.000555
 63,0.00013223,0.00000807,0.00004004,-0.00002447,0.00000435,-0.00000872
 ,-0.00001646,0.00000754,-0.00001441,-0.00000068,-0.00002130,0.00000952
 ,-0.00000370,0.00000145,-0.00000155,0.00000051,-0.00000008,0.00000117,
 0.00000558,-0.00000944,0.00001015,0.00942894,-0.00367681,-0.02961919,-
 0.01628396,0.05781452,0.00011426,-0.00033606,0.00074464,0.00255941,0.0
 0022543,-0.00098552,-0.00043333,0.00065422,0.00037255,0.00029261,0.000
 02927,0.00010669,0.00002493,-0.00002166,-0.00000073,-0.00001923,0.0000
 0889,-0.00000103,-0.00001983,0.00000647,-0.00001187,-0.00008978,-0.000
 02351,-0.00003197,-0.00000653,0.00001198,0.00002836,0.00000163,-0.0000
 0711,0.00000038,-0.00000505,-0.00000470,-0.00000204,-0.00000672,-0.000
 00081,-0.00000068,0.00000051,0.00000465,0.00000473,0.06377096,-0.04347
 833,-0.27766141,0.00500507,-0.00328337,-0.02085832,0.00078544,-0.00105
 718,0.00200448,-0.00001265,-0.00015276,-0.00020513,-0.00001132,-0.0000
 4661,-0.00003364,0.00000355,0.00000091,-0.00000075,-0.00000109,0.00000
 978,-0.00000390,0.00000068,-0.00000400,-0.00001989,0.00000009,0.000000
 06,-0.00000080,-0.00000021,0.00000003,-0.00000094,-0.00000178,0.000000
 32,-0.00000642,0.00163293,-0.00089857,-0.00530527,-0.06990155,0.044627
 38,0.30240560,-0.00275031,-0.00372537,0.00039040,0.00172649,0.00656182
 ,-0.00184935,0.00037134,-0.00307025,0.00072470,-0.00051134,-0.00000984
 ,-0.00002004,-0.00016391,0.00021561,-0.00017303,0.00012287,-0.00007311
 ,0.00005513,0.00009294,-0.00021034,0.00014971,-0.00001271,0.00000569,-
 0.00001815,-0.00001537,0.00002451,-0.00002257,-0.00002049,0.00001615,0
 .00001533,0.00008470,0.00001255,-0.00000067,-0.00005044,-0.00001513,-0
 .00000306,0.00005132,-0.00002713,-0.00002082,0.00675895,0.01468987,0.0
 0373112,-0.06987599,-0.07619666,-0.00851741,-0.02183666,-0.03248059,-0
 .00314019,0.00058371,0.00009159,0.00009944,-0.00002990,0.00007015,-0.0
 0003894,-0.00003825,0.00000825,-0.00000997,0.00003875,-0.00002936,0.00
 001413,-0.00003758,0.00003711,0.00013639,-0.00000375,0.00000157,0.0000
 0093,-0.00000082,-0.00000103,0.00000280,-0.00008565,-0.00003334,0.0000
 1366,-0.00261144,0.00185952,-0.00279879,0.00041104,-0.00039159,-0.0001
 9893,0.08838866,-0.00258803,0.00218448,-0.00131140,-0.00175176,-0.0035
 8490,0.00083721,-0.00009005,0.00049411,0.00004716,0.00007354,0.0000282
 5,-0.00001058,0.00003108,-0.00006211,0.00006486,-0.00003252,0.00001528
 ,-0.00001632,-0.00000617,0.00005813,-0.00003575,0.00001134,0.00000639,
 -0.00000500,0.00000914,0.00001559,0.00000664,0.00001222,-0.00000755,-0
 .00000295,-0.00001348,-0.00001929,-0.00000158,-0.00001157,0.00000440,0
 .00000060,-0.00000464,-0.00000223,0.00000580,-0.00173086,-0.01959223,-
 0.00148107,-0.08729931,-0.30189655,-0.03510514,0.00431405,0.00750301,0
 .00075767,-0.00006646,0.00003981,-0.00008650,0.00002095,0.00000536,0.0
 0001245,0.00001261,0.00000369,-0.00000207,-0.00001204,0.00000538,-0.00
 000189,0.00002016,-0.00000897,-0.00003822,0.00000153,-0.00000121,-0.00
 000062,-0.00000277,0.00000028,-0.00000126,0.00000902,0.00002992,-0.000
 00571,0.00133774,-0.00065142,0.00300638,-0.00019080,0.00079422,0.00004
 405,0.08853116,0.31829077,0.00038161,-0.00151870,-0.00143481,0.0002093
 8,0.00177150,0.00038399,0.00022192,-0.00034232,0.00025213,-0.00011404,
 -0.00007705,0.00001547,-0.00003803,0.00007027,-0.00005616,0.00006200,-
 0.00002393,0.00001357,0.00003253,-0.00005732,0.00002752,-0.00000888,-0
 .00002341,0.00000375,-0.00000356,-0.00000393,-0.00001470,-0.00001396,0
 .00000687,-0.00000207,0.00001675,0.00001428,-0.00000227,0.00000537,-0.
 00000023,0.00000129,0.00000766,-0.00000219,-0.00002355,0.00557298,0.02
 088846,0.00313584,-0.01195986,-0.03768406,-0.05817696,0.00572642,0.009
 14622,-0.00031927,0.00020217,0.00008931,0.00014619,-0.00001885,-0.0000
 1355,0.00000186,-0.00002326,-0.00000778,0.00001673,0.00000789,-0.00000
 249,-0.00000142,-0.00001129,0.00000067,0.00004453,-0.00000207,0.000000
 63,0.00000304,0.00000054,-0.00000064,0.00000474,-0.00001222,-0.0000182
 8,0.00003768,-0.00249603,0.00219910,-0.00209886,0.00086623,-0.00013384
 ,0.00065030,0.01067269,0.03348294,0.05830312,-0.00063475,-0.00036523,0
 .00093196,0.00211337,0.00053850,-0.00091886,-0.00063607,0.00027687,0.0
 0024180,0.00016644,0.00001330,-0.00007138,0.00008780,0.00001516,-0.000
 00501,-0.00009910,0.00000562,0.00000493,-0.00008325,-0.00001914,0.0000
 2388,-0.00003907,0.00002579,-0.00005058,-0.00000985,-0.00000908,0.0000
 4978,0.00000394,-0.00000527,0.00001628,0.00000224,0.00000373,-0.000000
 23,-0.00000003,-0.00000118,-0.00000278,0.00000352,-0.00000022,0.000018
 88,0.00331885,-0.00525255,-0.01599520,-0.05053195,0.00204640,0.0131700
 2,-0.01518818,0.01170584,0.03891612,0.00009137,-0.00011298,-0.00004252
 ,-0.00001742,-0.00000777,-0.00000389,0.00002505,0.00001677,-0.00003637
 ,-0.00001590,0.00001418,-0.00000032,-0.00001118,-0.00003422,-0.0000230
 9,-0.00000021,0.00000059,-0.00000579,0.00000068,0.00000042,-0.00000281
 ,0.00000372,0.00000324,-0.00003040,0.00038603,-0.00005967,0.00073554,-
 0.00172558,0.00241469,-0.00182464,0.00331317,-0.00166761,-0.01056180,0
 .06394639,-0.00015994,0.00027761,0.00074039,-0.00065749,0.00043025,-0.
 00006800,0.00004279,-0.00032858,-0.00034683,-0.00001428,-0.00001069,-0
 .00000024,0.00000376,0.00001314,0.00001155,-0.00001326,-0.00000455,-0.
 00000171,-0.00000335,-0.00002189,-0.00001783,0.00000224,0.00002058,0.0
 0000195,0.00000383,0.00001379,-0.00000358,0.00000816,0.00000032,0.0000
 0206,0.00000025,-0.00001508,-0.00000096,-0.00001734,-0.00000249,-0.000
 00060,0.00000257,-0.00000692,0.00000613,-0.00231810,0.00625032,0.02166
 716,0.00731614,-0.07401219,-0.07646043,-0.00101557,-0.00030208,0.00188
 104,-0.00000525,0.00005482,0.00011231,-0.00001054,0.00000315,-0.000002
 14,0.00000537,0.00000765,-0.00000277,0.00001353,-0.00001207,0.00000373
 ,0.00000497,0.00002319,-0.00000613,0.00000202,-0.00000054,-0.00000039,
 -0.00000135,-0.00000024,-0.00000164,-0.00000574,0.00000788,-0.00001477
 ,-0.00102092,0.00104684,-0.00019937,0.00286671,-0.00199591,0.00295282,
 0.00445255,-0.00525103,-0.02836181,-0.00958682,0.07291107,-0.00025085,
 -0.00055497,0.00066150,0.00079966,0.00099478,-0.00045429,-0.00024275,-
 0.00006497,0.00013526,-0.00000018,0.00000929,-0.00001716,0.00001450,0.
 00000144,-0.00000986,-0.00002048,0.00000088,0.00000211,-0.00001692,-0.
 00000330,0.00001938,-0.00000776,0.00000627,-0.00001955,-0.00000253,-0.
 00000360,0.00001310,0.00000066,-0.00000012,0.00000351,0.00000455,0.000
 00124,-0.00000101,-0.00000175,-0.00000049,-0.00000039,0.00000274,0.000
 00062,0.00000188,0.00037427,-0.00421518,-0.01650103,0.02532379,-0.0747
 7463,-0.30664218,0.00122261,-0.00083191,-0.00229647,0.00003611,-0.0000
 7375,-0.00008246,-0.00001335,0.00001619,-0.00000762,0.00000482,0.00000
 319,-0.00000900,-0.00000278,0.00000101,0.00000270,-0.00001377,-0.00000
 750,0.00001257,-0.00000006,-0.00000019,-0.00000072,0.00000024,0.000000
 18,-0.00000019,-0.00000474,-0.00000030,-0.00000390,0.00046255,-0.00011
 839,0.00114348,-0.00210470,0.00221349,-0.00057516,-0.00019746,-0.00008
 748,-0.00148122,-0.02598002,0.07727609,0.32484862,0.00052311,0.0002172
 0,-0.00031914,-0.00114394,-0.00071755,-0.00009366,0.00073297,-0.000163
 41,0.00000295,-0.00023979,-0.00008226,0.00008993,-0.00017999,0.0001362
 2,-0.00010492,0.00019747,-0.00005431,0.00004097,0.00012718,-0.00007352
 ,0.00005421,0.00000725,-0.00001117,0.00005328,-0.00000053,0.00000601,-
 0.00004497,-0.00003191,0.00001658,-0.00000129,0.00005596,0.00002470,0.
 00000325,-0.00001362,-0.00000325,0.00000114,0.00003152,-0.00002442,-0.
 00002166,0.00203445,0.00013240,0.00121261,-0.00413066,0.01082055,0.034
 03306,-0.06607040,0.01863091,0.05786729,-0.00005015,0.00017553,-0.0000
 4456,0.00003941,0.00000465,0.00000323,-0.00005353,-0.00001618,0.000022
 31,0.00000881,-0.00000580,-0.00000515,-0.00000819,0.00000889,0.0000377
 0,-0.00000613,0.00000230,0.00000404,-0.00000108,-0.00000073,0.00000298
 ,-0.00003180,-0.00002281,0.00002130,0.00008611,-0.00008760,-0.00030010
 ,-0.00026879,0.00050528,-0.00172952,0.00111068,-0.00064721,0.00000513,
 -0.00717334,-0.00048489,-0.00022300,0.06786994,-0.00045608,-0.00066612
 ,0.00001420,0.00112909,0.00067029,0.00019295,-0.00043858,0.00000061,0.
 00001525,0.00015547,0.00005664,-0.00003027,0.00016811,-0.00001793,0.00
 003752,-0.00016136,0.00001071,-0.00002241,-0.00011941,-0.00000850,-0.0
 0001363,-0.00000179,0.00000066,-0.00002921,0.00000343,0.00002196,0.000
 03205,0.00002986,-0.00001296,0.00000372,-0.00002939,-0.00003848,-0.000
 00588,-0.00001907,0.00000545,-0.00000057,-0.00001003,0.00000339,0.0000
 0504,-0.00070787,-0.00062803,-0.00093095,0.00110098,0.00092819,0.00151
 293,0.01579193,-0.09408972,-0.09515260,0.00007337,-0.00008459,0.000035
 35,-0.00003511,-0.00000582,-0.00000048,0.00003880,0.00002557,-0.000019
 44,-0.00000074,-0.00000096,0.00000086,0.00000670,0.00000207,-0.0000186
 6,0.00000540,-0.00000270,-0.00000348,-0.00000315,0.00000020,-0.0000007
 4,0.00001023,0.00003390,-0.00000126,0.00016315,-0.00016706,-0.00007417
 ,0.00031428,0.00031113,0.00065357,-0.00078931,0.00020269,0.00091908,-0
 .00054159,0.00058481,0.00023789,-0.01722609,0.09037704,-0.00021296,0.0
 0029568,-0.00027850,-0.00006736,-0.00002570,-0.00023535,-0.00034664,0.
 00006423,-0.00008105,0.00008495,0.00011088,0.00003175,-0.00000593,-0.0
 0008453,0.00007892,-0.00002544,0.00002812,-0.00003791,-0.00000111,0.00
 004527,-0.00006842,-0.00001314,-0.00001067,0.00000522,0.00000621,0.000
 00364,0.00000116,0.00000738,-0.00000084,-0.00000779,-0.00001861,-0.000
 01153,-0.00000695,0.00000143,0.00000294,0.00000225,-0.00000856,0.00000
 618,-0.00000941,-0.00108491,-0.00046818,0.00306002,0.00585237,-0.00029
 226,-0.00326568,0.04746646,-0.09546192,-0.36677783,0.00000793,-0.00003
 498,0.00008517,-0.00000538,-0.00002188,0.00000893,0.00000591,-0.000002
 72,0.00002105,0.00000283,-0.00000192,-0.00000126,0.00000674,0.00000508
 ,-0.00001519,0.00000202,-0.00000123,0.00000336,-0.00000060,-0.00000061
 ,0.00000315,0.00001155,0.00000638,0.00001736,0.00004194,0.00002969,-0.
 00032686,0.00033301,-0.00038890,-0.00052149,-0.00032515,0.00047935,0.0
 0042371,0.00010861,0.00071217,0.00142159,-0.05657608,0.10291939,0.3859
 5678,0.00003581,0.00140104,-0.00071848,-0.00218053,-0.00148936,0.00084
 959,0.00075617,0.00013564,-0.00000771,-0.00021185,-0.00011613,0.000016
 21,-0.00017433,0.00010540,-0.00008901,0.00018754,-0.00004383,0.0000419
 6,0.00012442,-0.00004574,0.00004998,0.00001724,0.00000007,0.00003229,-
 0.00000310,-0.00000702,-0.00003696,-0.00003425,0.00001653,0.00000094,0
 .00005261,0.00003233,0.00000486,-0.00000192,-0.00000199,0.00000086,0.0
 0002786,-0.00002130,-0.00001342,0.00281409,-0.00079428,-0.00040898,-0.
 01228954,-0.03190020,-0.00442715,-0.10936985,-0.12850008,-0.01851766,-
 0.00009963,0.00015712,-0.00010090,0.00004077,0.00001616,0.00000463,-0.
 00004827,-0.00001725,0.00001459,-0.00000054,0.00000080,-0.00000395,-0.
 00000657,-0.00000670,0.00002790,-0.00000697,0.00000278,0.00000287,0.00
 000002,-0.00000033,0.00000187,-0.00002281,-0.00002561,0.00000938,-0.00
 046476,0.00110708,-0.00014621,-0.00021143,0.00011812,-0.00019610,-0.00
 564988,0.00251702,0.00208693,0.00151191,0.00004397,0.00034722,0.002784
 84,0.00769785,0.00014057,0.11335408,0.00036777,-0.00051891,0.00028966,
 -0.00005157,0.00010099,-0.00007823,0.00038966,-0.00030920,0.00003116,-
 0.00008865,-0.00006701,0.00001251,0.00003474,0.00014896,-0.00008114,0.
 00000256,-0.00005005,0.00002637,-0.00002180,-0.00011469,0.00004777,0.0
 0000623,0.00001010,0.00001035,0.00000036,0.00001300,-0.00000619,-0.000
 00230,0.00000591,0.00000746,0.00002259,-0.00000648,-0.00000010,-0.0000
 2012,-0.00000159,-0.00000084,0.00001511,-0.00001711,-0.00000554,0.0004
 4898,0.00266660,-0.00034256,-0.00325755,0.00598544,0.00209325,-0.11787
 691,-0.35014565,-0.03736550,0.00007781,0.00011103,0.00002411,-0.000002
 83,0.00000388,-0.00000437,-0.00000709,0.00001459,-0.00000953,0.0000105
 6,-0.00000643,-0.00000236,-0.00000899,0.00000532,0.00002305,0.00000037
 ,0.00000011,-0.00000130,-0.00000178,-0.00000034,0.00000018,-0.00001975
 ,0.00000185,0.00000129,-0.00008462,-0.00069932,-0.00042973,-0.00007857
 ,0.00000069,-0.00007582,0.00145378,0.00087120,0.00004022,0.00040339,0.
 00035242,0.00015530,-0.00310658,-0.00754667,0.00047625,0.13108626,0.36
 799667,0.00047920,0.00012615,-0.00000472,-0.00069726,0.00023495,-0.000
 22932,0.00025271,-0.00018095,-0.00003168,-0.00011785,-0.00001350,0.000
 03760,-0.00011936,0.00001204,-0.00001408,0.00011097,-0.00000989,0.0000
 0274,0.00008727,-0.00000362,-0.00001098,0.00000097,-0.00000009,0.00002
 850,0.00000424,0.00000167,-0.00002816,-0.00001403,0.00001106,-0.000005
 83,0.00002116,0.00000850,-0.00000293,-0.00000412,-0.00000132,0.0000022
 5,0.00001091,-0.00000900,-0.00001517,-0.00001255,-0.00059019,-0.000141
 05,0.00213699,0.00780780,0.00167298,-0.01659228,-0.03534793,-0.0687367
 0,-0.00005119,0.00006436,0.00002238,0.00001409,0.00000369,-0.00000411,
 -0.00002749,-0.00001391,0.00002571,0.00001097,-0.00000908,0.00000190,-
 0.00000540,0.00001379,0.00002309,-0.00000172,0.00000040,0.00000544,-0.
 00000016,-0.00000060,0.00000317,-0.00001504,-0.00001220,0.00001647,-0.
 00004905,0.00009550,0.00048126,-0.00023579,-0.00029755,-0.00036417,0.0
 0168971,-0.00044485,0.00002841,0.00054109,0.00077945,-0.00026653,-0.01
 602511,-0.03521365,-0.00087227,0.01661615,0.04000582,0.06368393,0.0004
 4218,-0.00093469,0.00058230,0.00067612,0.00319258,-0.00163877,-0.00083
 540,-0.00056297,0.00010710,0.00004529,0.00020488,-0.00000780,-0.000099
 65,-0.00005607,0.00002544,-0.00000249,0.00002123,-0.00001196,0.0000270
 1,0.00000769,-0.00000176,-0.00003098,0.00000049,-0.00002734,-0.0000092
 8,0.00002054,0.00002089,0.00000362,-0.00000321,0.00000788,0.00001896,-
 0.00000930,-0.00000302,-0.00002913,-0.00000110,-0.00000146,0.00001846,
 -0.00000891,0.00000324,-0.00696873,-0.00222371,0.00302784,-0.01329236,
 0.02005805,-0.02045907,-0.13558391,0.10693267,-0.10663414,0.00002086,-
 0.00005970,0.00001130,-0.00000429,-0.00000123,-0.00000250,0.00000728,0
 .00000728,-0.00001014,-0.00000333,0.00000110,0.00000257,-0.00000560,0.
 00000067,0.00000561,-0.00000140,0.00000021,-0.00000152,-0.00000234,-0.
 00000018,-0.00000072,-0.00001790,0.00000630,-0.00000775,0.00009716,0.0
 0008374,0.00021259,0.00045281,-0.00045180,0.00026620,0.00063989,-0.000
 78628,-0.00081435,0.00119138,0.00054599,0.00048938,0.00379413,-0.00614
 908,0.00461194,0.00906887,-0.00969106,0.01199199,0.14038275,-0.0002671
 6,0.00008135,-0.00012802,-0.00015132,0.00005581,0.00012994,-0.00025024
 ,0.00002182,-0.00002095,0.00007831,0.00002390,-0.00000078,0.00012744,0
 .00000034,0.00002471,-0.00010908,0.00000204,-0.00001281,-0.00008150,-0
 .00000890,-0.00001311,-0.00000132,0.00000594,-0.00002261,0.00000338,0.
 00001740,0.00002087,0.00002320,-0.00000819,0.00000243,-0.00002086,-0.0
 0003199,-0.00000359,-0.00001718,0.00000412,-0.00000053,-0.00000685,0.0
 0000064,0.00000694,-0.00011790,0.00030653,0.00015361,0.00125225,0.0025
 9941,-0.00373017,0.10012371,-0.19979369,0.13321807,0.00005351,-0.00006
 646,0.00004426,-0.00001709,-0.00000394,-0.00000366,0.00002667,0.000018
 96,-0.00001465,0.00000340,-0.00000442,0.00000236,0.00000924,0.00000543
 ,-0.00001028,0.00000442,-0.00000212,-0.00000237,-0.00000261,0.00000038
 ,-0.00000183,0.00000524,0.00002702,-0.00000723,-0.00026514,0.00016085,
 -0.00000723,-0.00003656,-0.00007746,0.00016066,-0.00097884,0.00052453,
 -0.00035803,0.00017882,-0.00003359,-0.00018108,-0.00795344,0.01003423,
 -0.00837737,0.01853164,-0.01880530,0.02298314,-0.11014415,0.20494535,0
 .00027104,-0.00012534,-0.00007621,-0.00011069,-0.00008145,0.00070629,0
 .00044275,-0.00009593,-0.00002330,-0.00010916,-0.00007624,-0.00003759,
 -0.00011395,0.00003817,-0.00004333,0.00011553,-0.00001762,0.00001338,0
 .00008122,-0.00002014,0.00001287,0.00002146,-0.00000589,0.00004213,0.0
 0000521,-0.00000258,-0.00003326,-0.00001925,0.00001202,-0.00000537,0.0
 0002626,0.00001593,-0.00000176,0.00000110,-0.00000038,0.00000250,0.000
 01250,-0.00001030,-0.00001958,0.00187089,0.00065434,-0.00098747,0.0015
 1650,-0.00760442,0.00786870,-0.09884243,0.13152666,-0.19319921,-0.0000
 4497,0.00010894,-0.00000926,0.00000455,0.00001047,-0.00000046,-0.00003
 053,-0.00001423,0.00002323,0.00000634,-0.00000578,-0.00000098,-0.00001
 033,0.00000746,0.00002598,-0.00000281,0.00000064,0.00000509,0.,-0.0000
 0060,0.00000439,-0.00001431,-0.00001456,0.00002307,-0.00016339,0.00010
 994,0.00000263,-0.00005621,0.00010986,0.00027341,-0.00036159,-0.000106
 73,0.00011742,0.00079675,-0.00065763,0.00010301,-0.01796623,0.02493761
 ,-0.01861448,0.00441773,-0.00484155,0.00469188,0.10825602,-0.14385070,
 0.19913628\\-0.00000148,0.00000191,-0.00000026,0.00000245,0.00000188,0
 .00000201,-0.00000208,-0.00000031,-0.00000244,0.00000030,0.00000171,0.
 00000397,0.00000136,0.00000010,0.00000134,0.00000211,-0.00000015,-0.00
 000320,-0.00000202,-0.00000134,0.00000070,0.00000245,0.,-0.00000247,0.
 00000012,-0.00000087,0.00000030,0.00000175,-0.00000039,-0.00000016,0.0
 0000070,-0.00000139,0.00000110,-0.00000005,-0.00000047,-0.00000070,-0.
 00000036,0.00000320,0.00000007,-0.00000304,-0.00000328,0.00000097,0.00
 000336,0.00000080,-0.00000125,0.00000219,-0.00000041,-0.00000062,-0.00
 000047,-0.00000167,0.00000101,-0.00000263,-0.00000075,0.00000029,-0.00
 000015,0.00000170,0.00000206,0.00000013,0.00000083,-0.00000040,-0.0000
 0054,-0.00000035,-0.00000133,0.00000033,0.00000013,-0.00000095,0.00000
 050,0.00000079,0.,-0.00000122,-0.00000084,-0.00000034,0.00000020,-0.00
 000059,-0.00000032,0.00000027,0.00000026,0.00000077,-0.00000123,0.0000
 0050,-0.00000034,-0.00000227,-0.00000014,-0.00000038,-0.00000021,-0.00
 000020,0.00000102,-0.00000044,-0.00000102,0.00000015,-0.00000003,0.000
 00034,-0.00000060\\\@


 The best way to pay for a lovely moment is to enjoy it.
 -- Richard Bach
 Job cpu time:       0 days  1 hours 18 minutes 25.1 seconds.
 File lengths (MBytes):  RWF=    349 Int=      0 D2E=      0 Chk=     10 Scr=      1
 Normal termination of Gaussian 09 at Sat Jul 24 01:34:16 2021.
