 Entering Gaussian System, Link 0=g09
 Input=opt_freq-conf-862.com
 Output=opt_freq-conf-862.log
 Initial command:
 /aerosol/software/g09/l1.exe "/scratch/nicole/10475/Gau-72707.inp" -scrdir="/scratch/nicole/10475/"
 Entering Link 1 = /aerosol/software/g09/l1.exe PID=     72713.
  
 Copyright (c) 1988,1990,1992,1993,1995,1998,2003,2009,2013,
            Gaussian, Inc.  All Rights Reserved.
  
 This is part of the Gaussian(R) 09 program.  It is based on
 the Gaussian(R) 03 system (copyright 2003, Gaussian, Inc.),
 the Gaussian(R) 98 system (copyright 1998, Gaussian, Inc.),
 the Gaussian(R) 94 system (copyright 1995, Gaussian, Inc.),
 the Gaussian 92(TM) system (copyright 1992, Gaussian, Inc.),
 the Gaussian 90(TM) system (copyright 1990, Gaussian, Inc.),
 the Gaussian 88(TM) system (copyright 1988, Gaussian, Inc.),
 the Gaussian 86(TM) system (copyright 1986, Carnegie Mellon
 University), and the Gaussian 82(TM) system (copyright 1983,
 Carnegie Mellon University). Gaussian is a federally registered
 trademark of Gaussian, Inc.
  
 This software contains proprietary and confidential information,
 including trade secrets, belonging to Gaussian, Inc.
  
 This software is provided under written license and may be
 used, copied, transmitted, or stored only in accord with that
 written license.
  
 The following legend is applicable only to US Government
 contracts under FAR:
  
                    RESTRICTED RIGHTS LEGEND
  
 Use, reproduction and disclosure by the US Government is
 subject to restrictions as set forth in subparagraphs (a)
 and (c) of the Commercial Computer Software - Restricted
 Rights clause in FAR 52.227-19.
  
 Gaussian, Inc.
 340 Quinnipiac St., Bldg. 40, Wallingford CT 06492
  
  
 ---------------------------------------------------------------
 Warning -- This program may not be used in any manner that
 competes with the business of Gaussian, Inc. or will provide
 assistance to any competitor of Gaussian, Inc.  The licensee
 of this program is prohibited from giving any competitor of
 Gaussian, Inc. access to this program.  By using this program,
 the user acknowledges that Gaussian, Inc. is engaged in the
 business of creating and licensing software in the field of
 computational chemistry and represents and warrants to the
 licensee that it is not a competitor of Gaussian, Inc. and that
 it will not use this program in any manner prohibited above.
 ---------------------------------------------------------------
  

 Cite this work as:
 Gaussian 09, Revision D.01,
 M. J. Frisch, G. W. Trucks, H. B. Schlegel, G. E. Scuseria, 
 M. A. Robb, J. R. Cheeseman, G. Scalmani, V. Barone, B. Mennucci, 
 G. A. Petersson, H. Nakatsuji, M. Caricato, X. Li, H. P. Hratchian, 
 A. F. Izmaylov, J. Bloino, G. Zheng, J. L. Sonnenberg, M. Hada, 
 M. Ehara, K. Toyota, R. Fukuda, J. Hasegawa, M. Ishida, T. Nakajima, 
 Y. Honda, O. Kitao, H. Nakai, T. Vreven, J. A. Montgomery, Jr., 
 J. E. Peralta, F. Ogliaro, M. Bearpark, J. J. Heyd, E. Brothers, 
 K. N. Kudin, V. N. Staroverov, T. Keith, R. Kobayashi, J. Normand, 
 K. Raghavachari, A. Rendell, J. C. Burant, S. S. Iyengar, J. Tomasi, 
 M. Cossi, N. Rega, J. M. Millam, M. Klene, J. E. Knox, J. B. Cross, 
 V. Bakken, C. Adamo, J. Jaramillo, R. Gomperts, R. E. Stratmann, 
 O. Yazyev, A. J. Austin, R. Cammi, C. Pomelli, J. W. Ochterski, 
 R. L. Martin, K. Morokuma, V. G. Zakrzewski, G. A. Voth, 
 P. Salvador, J. J. Dannenberg, S. Dapprich, A. D. Daniels, 
 O. Farkas, J. B. Foresman, J. V. Ortiz, J. Cioslowski, 
 and D. J. Fox, Gaussian, Inc., Wallingford CT, 2013.
 
 ******************************************
 Gaussian 09:  ES64L-G09RevD.01 24-Apr-2013
                24-Jul-2021 
 ******************************************
 %mem=2gb
 %nproc=4
 Will use up to    4 processors via shared memory.
 %chk=conf-862.chk
 ----------------------------------------------------------------------
 # B3LYP/6-31G(d,p) EmpiricalDispersion=GD3BJ opt=calcfc freq=noraman n
 osymm integral(ultrafinegrid)
 ----------------------------------------------------------------------
 1/10=4,14=-1,18=20,19=15,26=4,38=1/1,3;
 2/9=110,12=2,15=1,17=6,18=5,40=1/2;
 3/5=1,6=6,7=101,11=2,16=1,25=1,30=1,71=2,74=-5,75=-5,124=41,140=1/1,2,3;
 4//1;
 5/5=2,38=5/2;
 8/6=4,10=90,11=11/1;
 11/6=1,8=1,9=11,15=111,16=1,31=1/1,2,10;
 10/6=1,13=1,31=1/2;
 6/7=2,8=2,9=2,10=2,28=1/1;
 7/10=1,18=20,25=1,30=1/1,2,3,16;
 1/10=4,14=-1,18=20,19=15,26=4/3(2);
 2/9=110,15=1/2;
 99//99;
 2/9=110,15=1/2;
 3/5=1,6=6,7=101,11=2,16=1,25=1,30=1,71=1,74=-5,75=-5,124=41/1,2,3;
 4/5=5,16=3,69=1/1;
 5/5=2,38=5/2;
 7/30=1/1,2,3,16;
 1/14=-1,18=20,19=15,26=4/3(-5);
 2/9=110,15=1/2;
 6/7=2,8=2,9=2,10=2,19=2,28=1/1;
 99/9=1/99;
 ------------------------------------------------------------
 Candidate Structure: Conf:862 OPT and FREQ calc in gas phase
 ------------------------------------------------------------
 Symbolic Z-matrix:
 Charge =  1 Multiplicity = 1
 O                    -0.64382   1.8692   -0.02147 
 C                     0.40427   1.2806    0.22981 
 N                     0.59079   0.64882   1.42117 
 C                    -0.55934   0.17793   2.1589 
 C                    -0.26682   0.28216   3.63838 
 O                    -1.39388   0.18172   4.37067 
 O                     0.82812   0.40151   4.11882 
 C                    -0.95329  -1.29804   1.8377 
 C                    -0.88358  -1.61865   0.37492 
 C                    -1.65877  -1.27871  -0.69283 
 N                    -1.04311  -1.62859  -1.87774 
 C                     0.06046  -2.24305  -1.5287 
 N                     0.21252  -2.25603  -0.18544 
 C                     1.55492   1.16443  -0.75258 
 C                     1.27168   1.77315  -2.11516 
 N                     0.01421   1.25406  -2.69256 
 H                     1.48274   0.25027   1.65622 
 H                    -1.39309   0.82491   1.88935 
 H                    -1.11634   0.23657   5.29364 
 H                    -1.96103  -1.45781   2.21287 
 H                    -0.29261  -1.98659   2.36159 
 H                    -2.59999  -0.7413   -0.67729 
 H                     0.78342  -2.65745  -2.21707 
 H                     0.96095  -2.69677   0.32238 
 H                     1.7852    0.09784  -0.87003 
 H                     2.44008   1.62365  -0.30631 
 H                     2.10403   1.55295  -2.78582 
 H                     1.19989   2.85621  -2.01733 
 H                    -0.03434   0.22637  -2.64484 
 H                    -0.1372    1.56364  -3.65237 
 H                    -0.75596   1.59722  -2.11067 
 

 GradGradGradGradGradGradGradGradGradGradGradGradGradGradGradGradGradGrad
 Berny optimization.
 Initialization pass.
                           ----------------------------
                           !    Initial Parameters    !
                           ! (Angstroms and Degrees)  !
 --------------------------                            --------------------------
 ! Name  Definition              Value          Derivative Info.                !
 --------------------------------------------------------------------------------
 ! R1    R(1,2)                  1.228          calculate D2E/DX2 analytically  !
 ! R2    R(2,3)                  1.3614         calculate D2E/DX2 analytically  !
 ! R3    R(2,14)                 1.5174         calculate D2E/DX2 analytically  !
 ! R4    R(3,4)                  1.4453         calculate D2E/DX2 analytically  !
 ! R5    R(3,17)                 1.0048         calculate D2E/DX2 analytically  !
 ! R6    R(4,5)                  1.5117         calculate D2E/DX2 analytically  !
 ! R7    R(4,8)                  1.561          calculate D2E/DX2 analytically  !
 ! R8    R(4,18)                 1.0892         calculate D2E/DX2 analytically  !
 ! R9    R(5,6)                  1.3478         calculate D2E/DX2 analytically  !
 ! R10   R(5,7)                  1.2017         calculate D2E/DX2 analytically  !
 ! R11   R(6,19)                 0.9654         calculate D2E/DX2 analytically  !
 ! R12   R(8,9)                  1.4991         calculate D2E/DX2 analytically  !
 ! R13   R(8,20)                 1.0871         calculate D2E/DX2 analytically  !
 ! R14   R(8,21)                 1.0886         calculate D2E/DX2 analytically  !
 ! R15   R(9,10)                 1.3626         calculate D2E/DX2 analytically  !
 ! R16   R(9,13)                 1.3862         calculate D2E/DX2 analytically  !
 ! R17   R(10,11)                1.3804         calculate D2E/DX2 analytically  !
 ! R18   R(10,22)                1.084          calculate D2E/DX2 analytically  !
 ! R19   R(11,12)                1.3104         calculate D2E/DX2 analytically  !
 ! R20   R(12,13)                1.3519         calculate D2E/DX2 analytically  !
 ! R21   R(12,23)                1.0809         calculate D2E/DX2 analytically  !
 ! R22   R(13,24)                1.0061         calculate D2E/DX2 analytically  !
 ! R23   R(14,15)                1.519          calculate D2E/DX2 analytically  !
 ! R24   R(14,25)                1.0975         calculate D2E/DX2 analytically  !
 ! R25   R(14,26)                1.0925         calculate D2E/DX2 analytically  !
 ! R26   R(15,16)                1.4779         calculate D2E/DX2 analytically  !
 ! R27   R(15,27)                1.0914         calculate D2E/DX2 analytically  !
 ! R28   R(15,28)                1.0898         calculate D2E/DX2 analytically  !
 ! R29   R(16,29)                1.0299         calculate D2E/DX2 analytically  !
 ! R30   R(16,30)                1.0198         calculate D2E/DX2 analytically  !
 ! R31   R(16,31)                1.0245         calculate D2E/DX2 analytically  !
 ! A1    A(1,2,3)              121.2279         calculate D2E/DX2 analytically  !
 ! A2    A(1,2,14)             123.4631         calculate D2E/DX2 analytically  !
 ! A3    A(3,2,14)             115.2858         calculate D2E/DX2 analytically  !
 ! A4    A(2,3,4)              119.2668         calculate D2E/DX2 analytically  !
 ! A5    A(2,3,17)             120.6914         calculate D2E/DX2 analytically  !
 ! A6    A(4,3,17)             117.2427         calculate D2E/DX2 analytically  !
 ! A7    A(3,4,5)              108.8511         calculate D2E/DX2 analytically  !
 ! A8    A(3,4,8)              113.8197         calculate D2E/DX2 analytically  !
 ! A9    A(3,4,18)             106.8155         calculate D2E/DX2 analytically  !
 ! A10   A(5,4,8)              108.3846         calculate D2E/DX2 analytically  !
 ! A11   A(5,4,18)             110.4487         calculate D2E/DX2 analytically  !
 ! A12   A(8,4,18)             108.5132         calculate D2E/DX2 analytically  !
 ! A13   A(4,5,6)              111.3941         calculate D2E/DX2 analytically  !
 ! A14   A(4,5,7)              125.0616         calculate D2E/DX2 analytically  !
 ! A15   A(6,5,7)              123.5135         calculate D2E/DX2 analytically  !
 ! A16   A(5,6,19)             105.9508         calculate D2E/DX2 analytically  !
 ! A17   A(4,8,9)              113.0321         calculate D2E/DX2 analytically  !
 ! A18   A(4,8,20)             107.5711         calculate D2E/DX2 analytically  !
 ! A19   A(4,8,21)             110.2341         calculate D2E/DX2 analytically  !
 ! A20   A(9,8,20)             110.39           calculate D2E/DX2 analytically  !
 ! A21   A(9,8,21)             107.8233         calculate D2E/DX2 analytically  !
 ! A22   A(20,8,21)            107.6714         calculate D2E/DX2 analytically  !
 ! A23   A(8,9,10)             133.2221         calculate D2E/DX2 analytically  !
 ! A24   A(8,9,13)             121.9732         calculate D2E/DX2 analytically  !
 ! A25   A(10,9,13)            104.3467         calculate D2E/DX2 analytically  !
 ! A26   A(9,10,11)            110.8357         calculate D2E/DX2 analytically  !
 ! A27   A(9,10,22)            127.3342         calculate D2E/DX2 analytically  !
 ! A28   A(11,10,22)           121.6851         calculate D2E/DX2 analytically  !
 ! A29   A(10,11,12)           105.4148         calculate D2E/DX2 analytically  !
 ! A30   A(11,12,13)           111.3386         calculate D2E/DX2 analytically  !
 ! A31   A(11,12,23)           124.9889         calculate D2E/DX2 analytically  !
 ! A32   A(13,12,23)           123.6344         calculate D2E/DX2 analytically  !
 ! A33   A(9,13,12)            107.9562         calculate D2E/DX2 analytically  !
 ! A34   A(9,13,24)            125.8434         calculate D2E/DX2 analytically  !
 ! A35   A(12,13,24)           126.1128         calculate D2E/DX2 analytically  !
 ! A36   A(2,14,15)            114.1209         calculate D2E/DX2 analytically  !
 ! A37   A(2,14,25)            107.6262         calculate D2E/DX2 analytically  !
 ! A38   A(2,14,26)            108.5269         calculate D2E/DX2 analytically  !
 ! A39   A(15,14,25)           109.4253         calculate D2E/DX2 analytically  !
 ! A40   A(15,14,26)           110.4291         calculate D2E/DX2 analytically  !
 ! A41   A(25,14,26)           106.3929         calculate D2E/DX2 analytically  !
 ! A42   A(14,15,16)           111.6146         calculate D2E/DX2 analytically  !
 ! A43   A(14,15,27)           109.1577         calculate D2E/DX2 analytically  !
 ! A44   A(14,15,28)           109.2687         calculate D2E/DX2 analytically  !
 ! A45   A(16,15,27)           109.7541         calculate D2E/DX2 analytically  !
 ! A46   A(16,15,28)           109.1524         calculate D2E/DX2 analytically  !
 ! A47   A(27,15,28)           107.8129         calculate D2E/DX2 analytically  !
 ! A48   A(15,16,29)           111.8689         calculate D2E/DX2 analytically  !
 ! A49   A(15,16,30)           112.7938         calculate D2E/DX2 analytically  !
 ! A50   A(15,16,31)           107.4641         calculate D2E/DX2 analytically  !
 ! A51   A(29,16,30)           109.8469         calculate D2E/DX2 analytically  !
 ! A52   A(29,16,31)           105.8119         calculate D2E/DX2 analytically  !
 ! A53   A(30,16,31)           108.7401         calculate D2E/DX2 analytically  !
 ! D1    D(1,2,3,4)             25.7252         calculate D2E/DX2 analytically  !
 ! D2    D(1,2,3,17)          -173.7386         calculate D2E/DX2 analytically  !
 ! D3    D(14,2,3,4)          -152.579          calculate D2E/DX2 analytically  !
 ! D4    D(14,2,3,17)            7.9572         calculate D2E/DX2 analytically  !
 ! D5    D(1,2,14,15)           -3.3576         calculate D2E/DX2 analytically  !
 ! D6    D(1,2,14,25)         -124.9995         calculate D2E/DX2 analytically  !
 ! D7    D(1,2,14,26)          120.2427         calculate D2E/DX2 analytically  !
 ! D8    D(3,2,14,15)          174.9041         calculate D2E/DX2 analytically  !
 ! D9    D(3,2,14,25)           53.2623         calculate D2E/DX2 analytically  !
 ! D10   D(3,2,14,26)          -61.4956         calculate D2E/DX2 analytically  !
 ! D11   D(2,3,4,5)           -147.0829         calculate D2E/DX2 analytically  !
 ! D12   D(2,3,4,8)             91.9178         calculate D2E/DX2 analytically  !
 ! D13   D(2,3,4,18)           -27.8184         calculate D2E/DX2 analytically  !
 ! D14   D(17,3,4,5)            51.7184         calculate D2E/DX2 analytically  !
 ! D15   D(17,3,4,8)           -69.2808         calculate D2E/DX2 analytically  !
 ! D16   D(17,3,4,18)          170.983          calculate D2E/DX2 analytically  !
 ! D17   D(3,4,5,6)            164.5244         calculate D2E/DX2 analytically  !
 ! D18   D(3,4,5,7)            -17.4413         calculate D2E/DX2 analytically  !
 ! D19   D(8,4,5,6)            -71.1998         calculate D2E/DX2 analytically  !
 ! D20   D(8,4,5,7)            106.8345         calculate D2E/DX2 analytically  !
 ! D21   D(18,4,5,6)            47.5527         calculate D2E/DX2 analytically  !
 ! D22   D(18,4,5,7)          -134.413          calculate D2E/DX2 analytically  !
 ! D23   D(3,4,8,9)            -42.2279         calculate D2E/DX2 analytically  !
 ! D24   D(3,4,8,20)          -164.3511         calculate D2E/DX2 analytically  !
 ! D25   D(3,4,8,21)            78.5144         calculate D2E/DX2 analytically  !
 ! D26   D(5,4,8,9)           -163.4874         calculate D2E/DX2 analytically  !
 ! D27   D(5,4,8,20)            74.3894         calculate D2E/DX2 analytically  !
 ! D28   D(5,4,8,21)           -42.7451         calculate D2E/DX2 analytically  !
 ! D29   D(18,4,8,9)            76.543          calculate D2E/DX2 analytically  !
 ! D30   D(18,4,8,20)          -45.5802         calculate D2E/DX2 analytically  !
 ! D31   D(18,4,8,21)         -162.7147         calculate D2E/DX2 analytically  !
 ! D32   D(4,5,6,19)           178.6815         calculate D2E/DX2 analytically  !
 ! D33   D(7,5,6,19)             0.6113         calculate D2E/DX2 analytically  !
 ! D34   D(4,8,9,10)           -72.7374         calculate D2E/DX2 analytically  !
 ! D35   D(4,8,9,13)            98.1881         calculate D2E/DX2 analytically  !
 ! D36   D(20,8,9,10)           47.7926         calculate D2E/DX2 analytically  !
 ! D37   D(20,8,9,13)         -141.2819         calculate D2E/DX2 analytically  !
 ! D38   D(21,8,9,10)          165.1592         calculate D2E/DX2 analytically  !
 ! D39   D(21,8,9,13)          -23.9152         calculate D2E/DX2 analytically  !
 ! D40   D(8,9,10,11)          169.1789         calculate D2E/DX2 analytically  !
 ! D41   D(8,9,10,22)           -6.4597         calculate D2E/DX2 analytically  !
 ! D42   D(13,9,10,11)          -2.8833         calculate D2E/DX2 analytically  !
 ! D43   D(13,9,10,22)        -178.5219         calculate D2E/DX2 analytically  !
 ! D44   D(8,9,13,12)         -171.9316         calculate D2E/DX2 analytically  !
 ! D45   D(8,9,13,24)           11.3113         calculate D2E/DX2 analytically  !
 ! D46   D(10,9,13,12)           1.2554         calculate D2E/DX2 analytically  !
 ! D47   D(10,9,13,24)        -175.5017         calculate D2E/DX2 analytically  !
 ! D48   D(9,10,11,12)           3.4378         calculate D2E/DX2 analytically  !
 ! D49   D(22,10,11,12)        179.363          calculate D2E/DX2 analytically  !
 ! D50   D(10,11,12,13)         -2.5847         calculate D2E/DX2 analytically  !
 ! D51   D(10,11,12,23)        179.5966         calculate D2E/DX2 analytically  !
 ! D52   D(11,12,13,9)           0.8704         calculate D2E/DX2 analytically  !
 ! D53   D(11,12,13,24)        177.6164         calculate D2E/DX2 analytically  !
 ! D54   D(23,12,13,9)         178.7241         calculate D2E/DX2 analytically  !
 ! D55   D(23,12,13,24)         -4.53           calculate D2E/DX2 analytically  !
 ! D56   D(2,14,15,16)         -52.5526         calculate D2E/DX2 analytically  !
 ! D57   D(2,14,15,27)        -174.0535         calculate D2E/DX2 analytically  !
 ! D58   D(2,14,15,28)          68.2679         calculate D2E/DX2 analytically  !
 ! D59   D(25,14,15,16)         68.0915         calculate D2E/DX2 analytically  !
 ! D60   D(25,14,15,27)        -53.4095         calculate D2E/DX2 analytically  !
 ! D61   D(25,14,15,28)       -171.088          calculate D2E/DX2 analytically  !
 ! D62   D(26,14,15,16)       -175.1202         calculate D2E/DX2 analytically  !
 ! D63   D(26,14,15,27)         63.3789         calculate D2E/DX2 analytically  !
 ! D64   D(26,14,15,28)        -54.2996         calculate D2E/DX2 analytically  !
 ! D65   D(14,15,16,29)        -48.6653         calculate D2E/DX2 analytically  !
 ! D66   D(14,15,16,30)       -173.1017         calculate D2E/DX2 analytically  !
 ! D67   D(14,15,16,31)         67.0609         calculate D2E/DX2 analytically  !
 ! D68   D(27,15,16,29)         72.4895         calculate D2E/DX2 analytically  !
 ! D69   D(27,15,16,30)        -51.9468         calculate D2E/DX2 analytically  !
 ! D70   D(27,15,16,31)       -171.7843         calculate D2E/DX2 analytically  !
 ! D71   D(28,15,16,29)       -169.5537         calculate D2E/DX2 analytically  !
 ! D72   D(28,15,16,30)         66.01           calculate D2E/DX2 analytically  !
 ! D73   D(28,15,16,31)        -53.8275         calculate D2E/DX2 analytically  !
 --------------------------------------------------------------------------------
 Trust Radius=3.00D-01 FncErr=1.00D-07 GrdErr=1.00D-06
 Number of steps in this run=    167 maximum allowed number of steps=    186.
 GradGradGradGradGradGradGradGradGradGradGradGradGradGradGradGradGradGrad

                          Input orientation:                          
 ---------------------------------------------------------------------
 Center     Atomic      Atomic             Coordinates (Angstroms)
 Number     Number       Type             X           Y           Z
 ---------------------------------------------------------------------
      1          8           0       -0.643820    1.869198   -0.021474
      2          6           0        0.404266    1.280600    0.229807
      3          7           0        0.590795    0.648822    1.421167
      4          6           0       -0.559341    0.177930    2.158903
      5          6           0       -0.266819    0.282156    3.638378
      6          8           0       -1.393883    0.181715    4.370668
      7          8           0        0.828125    0.401514    4.118816
      8          6           0       -0.953291   -1.298035    1.837704
      9          6           0       -0.883583   -1.618648    0.374916
     10          6           0       -1.658771   -1.278714   -0.692833
     11          7           0       -1.043111   -1.628594   -1.877743
     12          6           0        0.060456   -2.243054   -1.528696
     13          7           0        0.212517   -2.256029   -0.185437
     14          6           0        1.554917    1.164428   -0.752576
     15          6           0        1.271682    1.773146   -2.115165
     16          7           0        0.014210    1.254061   -2.692555
     17          1           0        1.482741    0.250266    1.656218
     18          1           0       -1.393087    0.824910    1.889346
     19          1           0       -1.116339    0.236566    5.293643
     20          1           0       -1.961030   -1.457807    2.212870
     21          1           0       -0.292610   -1.986586    2.361586
     22          1           0       -2.599988   -0.741296   -0.677291
     23          1           0        0.783419   -2.657445   -2.217071
     24          1           0        0.960952   -2.696775    0.322385
     25          1           0        1.785198    0.097843   -0.870031
     26          1           0        2.440079    1.623648   -0.306310
     27          1           0        2.104031    1.552949   -2.785819
     28          1           0        1.199893    2.856212   -2.017332
     29          1           0       -0.034340    0.226369   -2.644843
     30          1           0       -0.137203    1.563644   -3.652367
     31          1           0       -0.755962    1.597218   -2.110667
 ---------------------------------------------------------------------
                    Distance matrix (angstroms):
                    1          2          3          4          5
     1  O    0.000000
     2  C    1.228037   0.000000
     3  N    2.257168   1.361351   0.000000
     4  C    2.760719   2.421948   1.445270   0.000000
     5  C    4.006912   3.614637   2.405404   1.511713   0.000000
     6  O    4.764568   4.646248   3.585623   2.363975   1.347817
     7  O    4.632788   4.009594   2.719338   2.411703   1.201653
     8  C    3.685605   3.328311   2.519515   1.561038   2.492123
     9  C    3.518477   3.175728   2.899974   2.552535   3.826701
    10  C    3.374937   3.414304   3.639359   3.385699   4.809702
    11  N    3.979915   3.872993   4.328866   4.448829   5.889073
    12  C    4.436027   3.953058   4.164840   4.454627   5.760421
    13  N    4.216360   3.566081   3.341022   3.466389   4.614510
    14  C    2.421911   1.517421   2.433216   3.730948   4.835039
    15  C    2.839351   2.548313   3.772712   4.915792   6.139486
    16  N    2.818878   2.948398   4.197794   5.002367   6.411263
    17  H    3.155607   2.063818   1.004820   2.104287   2.644038
    18  H    2.302862   2.488414   2.045968   1.089209   2.149924
    19  H    5.580253   5.389312   4.252097   3.184380   1.861093
    20  H    4.218566   4.126262   3.402424   2.154827   2.816007
    21  H    4.546361   3.962906   2.934308   2.190287   2.603470
    22  H    3.327367   3.733153   4.064117   3.612924   5.011600
    23  H    5.229547   4.651791   4.919886   5.384376   6.635551
    24  H    4.851973   4.017210   3.540812   3.734704   4.623555
    25  H    3.123760   2.124978   2.641925   3.831151   4.956864
    26  H    3.106744   2.132987   2.711884   4.142933   4.968647
    27  H    3.910538   3.472373   4.561367   5.782258   6.964636
    28  H    2.890834   2.857482   4.131204   5.263937   6.384673
    29  H    3.154745   3.093119   4.135420   4.832593   6.287768
    30  H    3.678778   3.929958   5.206498   5.989095   7.403645
    31  H    2.109805   2.631386   3.897058   4.503584   5.917784
                    6          7          8          9         10
     6  O    0.000000
     7  O    2.247011   0.000000
     8  C    2.966427   3.356395   0.000000
     9  C    4.412227   4.585607   1.499133   0.000000
    10  C    5.276558   5.670960   2.627108   1.362556   0.000000
    11  N    6.514822   6.601635   3.731204   2.258322   1.380385
    12  C    6.541949   6.283108   3.640521   2.214685   2.141111
    13  N    5.411212   5.095891   2.523878   1.386248   2.171246
    14  C    5.992393   4.984047   4.366278   3.868207   4.037363
    15  C    7.190543   6.398487   5.477940   4.727571   4.463678
    16  N    7.281605   6.912603   5.288904   4.297426   3.634928
    17  H    3.955743   2.552605   2.892132   3.276287   4.210097
    18  H    2.563329   3.175466   2.168636   2.919600   3.341178
    19  H    0.965361   2.277798   3.784851   5.262116   6.199048
    20  H    2.768715   3.856046   1.087112   2.136548   2.926866
    21  H    3.154480   3.169689   1.088601   2.105109   3.420081
    22  H    5.271483   6.005050   3.057249   2.196118   1.083951
    23  H    7.496651   7.035815   4.615773   3.252136   3.191941
    24  H    5.497231   4.902033   2.813715   2.137153   3.147143
    25  H    6.130132   5.088891   4.096295   3.408610   3.713115
    26  H    6.217118   4.865568   4.964674   4.692896   5.037228
    27  H    8.082759   7.115317   6.233161   5.382853   5.153405
    28  H    7.395076   6.619370   6.062613   5.485261   5.198448
    29  H    7.146170   6.820675   4.823019   3.639264   2.952015
    30  H    8.237600   7.916672   6.244685   5.186817   4.376414
    31  H    6.664705   6.538004   4.900109   4.066473   3.331111
                   11         12         13         14         15
    11  N    0.000000
    12  C    1.310440   0.000000
    13  N    2.198675   1.351901   0.000000
    14  C    3.977024   3.800882   3.717957   0.000000
    15  C    4.121464   4.235666   4.591288   1.519015   0.000000
    16  N    3.176720   3.685989   4.318066   2.478978   1.477858
    17  H    4.732750   4.287565   3.359564   2.577438   4.072718
    18  H    4.509227   4.817489   4.046587   3.973129   4.902678
    19  H    7.410328   7.353752   6.164349   6.674826   7.934365
    20  H    4.195814   4.324619   3.333667   5.294513   6.294550
    21  H    4.320106   3.914681   2.610571   4.800026   6.051767
    22  H    2.156907   3.171455   3.232107   4.571727   4.835258
    23  H    2.123650   1.080859   2.148162   4.164933   4.458578
    24  H    3.161936   2.107903   1.006129   4.051817   5.100822
    25  H    3.463437   2.981337   2.912508   1.097465   2.149581
    26  H    5.017877   4.701937   4.475325   1.092496   2.158578
    27  H    4.566325   4.490679   4.984790   2.141624   1.091361
    28  H    5.016377   5.247817   5.519579   2.141910   1.089843
    29  H    2.246542   2.711609   3.503129   2.643173   2.092551
    30  H    3.763023   4.363484   5.170281   3.381040   2.095671
    31  H    3.246933   3.968994   4.414971   2.715120   2.035266
                   16         17         18         19         20
    16  N    0.000000
    17  H    4.698512   0.000000
    18  H    4.812326   2.941930   0.000000
    19  H    8.129748   4.470600   3.465829   0.000000
    20  H    5.942979   3.884190   2.374452   3.616015   0.000000
    21  H    6.011678   2.941585   3.055907   3.770662   1.756516
    22  H    3.857042   4.805948   3.239944   6.229726   3.045437
    23  H    4.014679   4.893485   5.807464   8.270139   5.347476
    24  H    5.059178   3.276648   4.516539   6.134577   3.694178
    25  H    2.791923   2.548852   4.271333   6.813886   5.094953
    26  H    3.422806   2.579571   4.489103   6.777284   5.933918
    27  H    2.113146   4.670618   5.883626   8.796667   7.111699
    28  H    2.104438   4.512862   5.109977   8.104185   6.818856
    29  H    1.029944   4.560837   4.771092   8.011890   5.490533
    30  H    1.019806   5.703530   5.730057   9.096753   6.845181
    31  H    1.024459   4.584265   4.123408   7.536912   5.429396
                   21         22         23         24         25
    21  H    0.000000
    22  H    4.013666   0.000000
    23  H    4.750999   4.182104   0.000000
    24  H    2.496823   4.183723   2.545957   0.000000
    25  H    4.370982   4.468910   3.226405   3.148193   0.000000
    26  H    5.255383   5.579683   4.972252   4.609677   1.753492
    27  H    6.690888   5.642450   4.449148   5.387737   2.426774
    28  H    6.697401   5.401562   5.532970   6.030507   3.044253
    29  H    5.479800   3.374935   3.027888   4.282501   2.545033
    30  H    6.985407   4.497680   4.552496   5.929229   3.685864
    31  H    5.749730   3.305094   4.525834   5.225505   3.200749
                   26         27         28         29         30
    26  H    0.000000
    27  H    2.503176   0.000000
    28  H    2.446399   1.762535   0.000000
    29  H    3.680200   2.520381   2.972066   0.000000
    30  H    4.223988   2.402946   2.476267   1.677495   0.000000
    31  H    3.670297   2.938937   2.327906   1.638691   1.661574
                   31
    31  H    0.000000
 Symmetry turned off by external request.
 Stoichiometry    C9H15N4O3(1+)
 Framework group  C1[X(C9H15N4O3)]
 Deg. of freedom    87
 Full point group                 C1      NOp   1
 Rotational constants (GHZ):      0.7898144      0.3929674      0.3096722
 Standard basis: 6-31G(d,p) (6D, 7F)
   315 basis functions,   553 primitive gaussians,   315 cartesian basis functions
    60 alpha electrons       60 beta electrons
       nuclear repulsion energy      1193.3746060359 Hartrees.
 NAtoms=   31 NActive=   31 NUniq=   31 SFac= 1.00D+00 NAtFMM=   60 NAOKFM=F Big=F
 Integral buffers will be    131072 words long.
 Raffenetti 2 integral format.
 Two-electron integral symmetry is turned off.
 Nuclear repulsion after empirical dispersion term =     1193.3130169520 Hartrees.
 One-electron integrals computed using PRISM.
 NBasis=   315 RedAO= T EigKep=  1.17D-03  NBF=   315
 NBsUse=   315 1.00D-06 EigRej= -1.00D+00 NBFU=   315
 ExpMin= 1.61D-01 ExpMax= 5.48D+03 ExpMxC= 8.25D+02 IAcc=3 IRadAn=         5 AccDes= 0.00D+00
 Harris functional with IExCor=  402 and IRadAn=       5 diagonalized for initial guess.
 HarFok:  IExCor=  402 AccDes= 0.00D+00 IRadAn=         5 IDoV= 1 UseB2=F ITyADJ=14
 ICtDFT=  3500011 ScaDFX=  1.000000  1.000000  1.000000  1.000000
 FoFCou: FMM=F IPFlag=           0 FMFlag=      100000 FMFlg1=           0
         NFxFlg=           0 DoJE=T BraDBF=F KetDBF=T FulRan=T
         wScrn=  0.000000 ICntrl=     500 IOpCl=  0 I1Cent=   200000004 NGrid=           0
         NMat0=    1 NMatS0=      1 NMatT0=    0 NMatD0=    1 NMtDS0=    0 NMtDT0=    0
 Symmetry not used in FoFCou.
 Requested convergence on RMS density matrix=1.00D-08 within 128 cycles.
 Requested convergence on MAX density matrix=1.00D-06.
 Requested convergence on             energy=1.00D-06.
 No special actions if energy rises.
 Integral accuracy reduced to 1.0D-05 until final iterations.
 Initial convergence to 1.0D-05 achieved.  Increase integral accuracy.
 SCF Done:  E(RB3LYP) =  -796.566160220     A.U. after   14 cycles
            NFock= 14  Conv=0.77D-08     -V/T= 2.0089
 DoSCS=F DFT=T ScalE2(SS,OS)=  1.000000  1.000000
 Range of M.O.s used for correlation:     1   315
 NBasis=   315 NAE=    60 NBE=    60 NFC=     0 NFV=     0
 NROrb=    315 NOA=    60 NOB=    60 NVA=   255 NVB=   255
 Symmetrizing basis deriv contribution to polar:
 IMax=3 JMax=2 DiffMx= 0.00D+00
 G2DrvN: will do    32 centers at a time, making    1 passes.
 Calling FoFCou, ICntrl=  3107 FMM=F I1Cent=   0 AccDes= 0.00D+00.
 End of G2Drv F.D. properties file   721 does not exist.
 End of G2Drv F.D. properties file   722 does not exist.
 End of G2Drv F.D. properties file   788 does not exist.
          IDoAtm=1111111111111111111111111111111
          Differentiating once with respect to nuclear coordinates.
          There are    96 degrees of freedom in the 1st order CPHF.  IDoFFX=6 NUNeed=     0.
     90 vectors produced by pass  0 Test12= 1.59D-14 1.04D-09 XBig12= 2.07D-01 9.45D-02.
 AX will form    90 AO Fock derivatives at one time.
     90 vectors produced by pass  1 Test12= 1.59D-14 1.04D-09 XBig12= 4.03D-02 4.29D-02.
     90 vectors produced by pass  2 Test12= 1.59D-14 1.04D-09 XBig12= 3.06D-04 2.77D-03.
     90 vectors produced by pass  3 Test12= 1.59D-14 1.04D-09 XBig12= 1.07D-06 9.66D-05.
     90 vectors produced by pass  4 Test12= 1.59D-14 1.04D-09 XBig12= 1.82D-09 3.80D-06.
     70 vectors produced by pass  5 Test12= 1.59D-14 1.04D-09 XBig12= 1.54D-12 1.05D-07.
     13 vectors produced by pass  6 Test12= 1.59D-14 1.04D-09 XBig12= 1.13D-15 3.21D-09.
 InvSVY:  IOpt=1 It=  1 EMax= 6.66D-16
 Solved reduced A of dimension   533 with    96 vectors.
 End of Minotr F.D. properties file   721 does not exist.
 End of Minotr F.D. properties file   722 does not exist.
 End of Minotr F.D. properties file   788 does not exist.

 **********************************************************************

            Population analysis using the SCF density.

 **********************************************************************

 Alpha  occ. eigenvalues --  -19.30599 -19.27011 -19.25523 -14.61830 -14.52642
 Alpha  occ. eigenvalues --  -14.49894 -14.45203 -10.44181 -10.43467 -10.41538
 Alpha  occ. eigenvalues --  -10.37505 -10.36720 -10.36587 -10.35211 -10.33415
 Alpha  occ. eigenvalues --  -10.32639  -1.22227  -1.19274  -1.16993  -1.15392
 Alpha  occ. eigenvalues --   -1.13404  -1.06963  -1.00758  -0.95790  -0.92714
 Alpha  occ. eigenvalues --   -0.87869  -0.83630  -0.80085  -0.75830  -0.75022
 Alpha  occ. eigenvalues --   -0.74797  -0.73582  -0.72702  -0.71758  -0.68023
 Alpha  occ. eigenvalues --   -0.66872  -0.64891  -0.62066  -0.61431  -0.60745
 Alpha  occ. eigenvalues --   -0.59227  -0.58702  -0.57651  -0.56657  -0.56464
 Alpha  occ. eigenvalues --   -0.55710  -0.54223  -0.53785  -0.53393  -0.52744
 Alpha  occ. eigenvalues --   -0.51868  -0.49978  -0.49423  -0.43188  -0.42365
 Alpha  occ. eigenvalues --   -0.41261  -0.40570  -0.39804  -0.39233  -0.35826
 Alpha virt. eigenvalues --   -0.13597  -0.11567  -0.11506  -0.09990  -0.07221
 Alpha virt. eigenvalues --   -0.06302  -0.04803  -0.04417  -0.03315  -0.02848
 Alpha virt. eigenvalues --   -0.01769  -0.00421  -0.00245   0.00334   0.00844
 Alpha virt. eigenvalues --    0.01472   0.02613   0.03934   0.04542   0.05379
 Alpha virt. eigenvalues --    0.06176   0.08031   0.09921   0.10599   0.11079
 Alpha virt. eigenvalues --    0.12461   0.14578   0.15805   0.18338   0.19544
 Alpha virt. eigenvalues --    0.21329   0.24547   0.25175   0.26495   0.31666
 Alpha virt. eigenvalues --    0.32928   0.34155   0.34623   0.37061   0.38653
 Alpha virt. eigenvalues --    0.39400   0.41029   0.42263   0.42972   0.43748
 Alpha virt. eigenvalues --    0.45128   0.46614   0.46902   0.48233   0.48873
 Alpha virt. eigenvalues --    0.49246   0.50670   0.51187   0.52271   0.53574
 Alpha virt. eigenvalues --    0.55096   0.56246   0.57452   0.57919   0.59265
 Alpha virt. eigenvalues --    0.60513   0.61611   0.62644   0.63687   0.64812
 Alpha virt. eigenvalues --    0.65527   0.66146   0.66986   0.68028   0.68909
 Alpha virt. eigenvalues --    0.69757   0.70433   0.71318   0.71773   0.72439
 Alpha virt. eigenvalues --    0.73497   0.73841   0.74048   0.75095   0.76077
 Alpha virt. eigenvalues --    0.76541   0.78240   0.79237   0.80150   0.81700
 Alpha virt. eigenvalues --    0.82681   0.84418   0.87212   0.88268   0.89257
 Alpha virt. eigenvalues --    0.91535   0.93418   0.94230   0.96609   0.98888
 Alpha virt. eigenvalues --    1.00022   1.01644   1.02518   1.06533   1.07882
 Alpha virt. eigenvalues --    1.10226   1.11569   1.14000   1.14844   1.15668
 Alpha virt. eigenvalues --    1.17972   1.20111   1.22599   1.25200   1.26771
 Alpha virt. eigenvalues --    1.27293   1.29526   1.30710   1.31743   1.31915
 Alpha virt. eigenvalues --    1.34538   1.35657   1.37087   1.39129   1.42345
 Alpha virt. eigenvalues --    1.45721   1.46827   1.48190   1.50038   1.51015
 Alpha virt. eigenvalues --    1.56098   1.58345   1.59238   1.59920   1.61410
 Alpha virt. eigenvalues --    1.62903   1.63322   1.65588   1.67012   1.67178
 Alpha virt. eigenvalues --    1.67540   1.70592   1.71733   1.73297   1.74344
 Alpha virt. eigenvalues --    1.75099   1.76958   1.77593   1.77703   1.80974
 Alpha virt. eigenvalues --    1.81763   1.82111   1.84261   1.86163   1.87678
 Alpha virt. eigenvalues --    1.90248   1.91563   1.92129   1.94191   1.95439
 Alpha virt. eigenvalues --    1.96274   1.97186   1.98192   1.99131   2.00453
 Alpha virt. eigenvalues --    2.02863   2.03352   2.05191   2.05853   2.07354
 Alpha virt. eigenvalues --    2.08489   2.09310   2.11288   2.12540   2.14437
 Alpha virt. eigenvalues --    2.15650   2.18196   2.19427   2.20602   2.21994
 Alpha virt. eigenvalues --    2.24388   2.25307   2.26996   2.28919   2.29221
 Alpha virt. eigenvalues --    2.31472   2.33251   2.33938   2.34460   2.35610
 Alpha virt. eigenvalues --    2.36834   2.40290   2.42522   2.44615   2.45306
 Alpha virt. eigenvalues --    2.45860   2.45972   2.48309   2.49231   2.51107
 Alpha virt. eigenvalues --    2.52331   2.53376   2.55468   2.55708   2.56792
 Alpha virt. eigenvalues --    2.57832   2.60530   2.62043   2.62597   2.65238
 Alpha virt. eigenvalues --    2.66494   2.67520   2.70861   2.71148   2.72317
 Alpha virt. eigenvalues --    2.73968   2.76721   2.76961   2.78802   2.78905
 Alpha virt. eigenvalues --    2.81468   2.84041   2.85100   2.88950   2.91326
 Alpha virt. eigenvalues --    2.94323   2.96421   3.02721   3.09214   3.10052
 Alpha virt. eigenvalues --    3.11410   3.13160   3.15164   3.17216   3.20888
 Alpha virt. eigenvalues --    3.23312   3.28492   3.32072   3.34247   3.37158
 Alpha virt. eigenvalues --    3.38309   3.40377   3.43452   3.55709   3.87273
 Alpha virt. eigenvalues --    3.89957   3.93177   3.98150   4.02122   4.08002
 Alpha virt. eigenvalues --    4.12659   4.15976   4.21588   4.30114   4.32326
 Alpha virt. eigenvalues --    4.34936   4.40854   4.52544   4.59609   4.66558
          Condensed to atoms (all electrons):
               1          2          3          4          5          6
     1  O    8.127097   0.530814  -0.092482  -0.004956   0.000008   0.000000
     2  C    0.530814   4.371101   0.300551  -0.026010   0.003606  -0.000002
     3  N   -0.092482   0.300551   6.981759   0.242166  -0.038914   0.002084
     4  C   -0.004956  -0.026010   0.242166   5.130345   0.291491  -0.104145
     5  C    0.000008   0.003606  -0.038914   0.291491   4.366288   0.272669
     6  O    0.000000  -0.000002   0.002084  -0.104145   0.272669   8.095030
     7  O   -0.000002   0.000636  -0.001961  -0.083306   0.591877  -0.084113
     8  C    0.000453  -0.004183  -0.057151   0.331540  -0.040390   0.006672
     9  C   -0.003359   0.005127  -0.006639  -0.048891   0.002860   0.000304
    10  C    0.000736   0.006709  -0.005062  -0.001612   0.000023   0.000002
    11  N   -0.000359  -0.000363   0.000110   0.000084   0.000000   0.000000
    12  C    0.000152  -0.000369   0.000131   0.000228  -0.000002   0.000000
    13  N    0.000047   0.000561   0.000788  -0.002799  -0.000081   0.000000
    14  C   -0.092890   0.307764  -0.120542   0.006070  -0.000263   0.000000
    15  C    0.011058  -0.032760   0.005675  -0.000194   0.000002   0.000000
    16  N   -0.020170  -0.004981  -0.000369  -0.000001   0.000000   0.000000
    17  H    0.002843  -0.025401   0.338799  -0.034850  -0.001804   0.000247
    18  H    0.016727  -0.002684  -0.044738   0.376918  -0.020198   0.002742
    19  H    0.000000   0.000000  -0.000256   0.010474  -0.011845   0.278896
    20  H   -0.000074   0.000148   0.004396  -0.031430  -0.001274   0.003253
    21  H   -0.000029  -0.000109  -0.001276  -0.042220  -0.003216  -0.000225
    22  H    0.000846  -0.000058  -0.000076   0.000138  -0.000002   0.000000
    23  H    0.000000   0.000004  -0.000001   0.000000   0.000000   0.000000
    24  H   -0.000003  -0.000009   0.000210   0.000030  -0.000015   0.000000
    25  H    0.001629  -0.030485  -0.000812  -0.000561  -0.000017   0.000000
    26  H    0.001080  -0.017394   0.000155   0.000038   0.000007   0.000000
    27  H    0.000301   0.003631  -0.000045   0.000001   0.000000   0.000000
    28  H    0.003106  -0.003621   0.000086  -0.000004   0.000000   0.000000
    29  H    0.000383  -0.001169  -0.000024   0.000028   0.000000   0.000000
    30  H    0.000452   0.000349   0.000003   0.000000   0.000000   0.000000
    31  H    0.046552   0.002484   0.000652   0.000042   0.000000   0.000000
               7          8          9         10         11         12
     1  O   -0.000002   0.000453  -0.003359   0.000736  -0.000359   0.000152
     2  C    0.000636  -0.004183   0.005127   0.006709  -0.000363  -0.000369
     3  N   -0.001961  -0.057151  -0.006639  -0.005062   0.000110   0.000131
     4  C   -0.083306   0.331540  -0.048891  -0.001612   0.000084   0.000228
     5  C    0.591877  -0.040390   0.002860   0.000023   0.000000  -0.000002
     6  O   -0.084113   0.006672   0.000304   0.000002   0.000000   0.000000
     7  O    8.001989  -0.002953  -0.000188  -0.000001   0.000000   0.000000
     8  C   -0.002953   5.067424   0.346510  -0.060757   0.005999   0.007398
     9  C   -0.000188   0.346510   4.799726   0.562089  -0.042719  -0.095686
    10  C   -0.000001  -0.060757   0.562089   4.892777   0.400044  -0.120214
    11  N    0.000000   0.005999  -0.042719   0.400044   6.744447   0.498300
    12  C    0.000000   0.007398  -0.095686  -0.120214   0.498300   4.736167
    13  N    0.000001  -0.057506   0.336847  -0.071589  -0.091172   0.344362
    14  C   -0.000035  -0.000122  -0.000264   0.001334   0.000106  -0.001488
    15  C    0.000000   0.000006   0.000066  -0.000369   0.000166   0.000078
    16  N    0.000000   0.000008   0.000136   0.000733  -0.015568  -0.002282
    17  H    0.013565   0.000259  -0.000990   0.000012  -0.000009   0.000011
    18  H    0.001632  -0.029139  -0.006078   0.001733  -0.000024   0.000006
    19  H    0.007871  -0.000276   0.000009   0.000000   0.000000   0.000000
    20  H    0.000069   0.378026  -0.023487  -0.003684   0.000020  -0.000104
    21  H    0.001910   0.368365  -0.030678   0.004552  -0.000207  -0.000028
    22  H    0.000000  -0.000817  -0.051290   0.398209  -0.041183   0.006966
    23  H    0.000000  -0.000131   0.002924   0.006618  -0.039020   0.395920
    24  H   -0.000001  -0.003362  -0.027511   0.008469   0.004772  -0.025062
    25  H    0.000001   0.000325  -0.000631  -0.001637  -0.000395   0.005104
    26  H   -0.000001  -0.000019  -0.000003   0.000014   0.000004   0.000019
    27  H    0.000000   0.000000  -0.000002  -0.000005  -0.000008   0.000015
    28  H    0.000000   0.000001   0.000000  -0.000003  -0.000007  -0.000002
    29  H    0.000000  -0.000056  -0.000339  -0.003485   0.051716   0.008737
    30  H    0.000000   0.000000  -0.000004   0.000063   0.000311   0.000034
    31  H    0.000000  -0.000001   0.000000   0.001405   0.000339  -0.000040
              13         14         15         16         17         18
     1  O    0.000047  -0.092890   0.011058  -0.020170   0.002843   0.016727
     2  C    0.000561   0.307764  -0.032760  -0.004981  -0.025401  -0.002684
     3  N    0.000788  -0.120542   0.005675  -0.000369   0.338799  -0.044738
     4  C   -0.002799   0.006070  -0.000194  -0.000001  -0.034850   0.376918
     5  C   -0.000081  -0.000263   0.000002   0.000000  -0.001804  -0.020198
     6  O    0.000000   0.000000   0.000000   0.000000   0.000247   0.002742
     7  O    0.000001  -0.000035   0.000000   0.000000   0.013565   0.001632
     8  C   -0.057506  -0.000122   0.000006   0.000008   0.000259  -0.029139
     9  C    0.336847  -0.000264   0.000066   0.000136  -0.000990  -0.006078
    10  C   -0.071589   0.001334  -0.000369   0.000733   0.000012   0.001733
    11  N   -0.091172   0.000106   0.000166  -0.015568  -0.000009  -0.000024
    12  C    0.344362  -0.001488   0.000078  -0.002282   0.000011   0.000006
    13  N    6.763204  -0.002633   0.000035  -0.000002   0.000610  -0.000079
    14  C   -0.002633   5.266328   0.326202  -0.039992   0.000122   0.001239
    15  C    0.000035   0.326202   4.928160   0.212734   0.000048  -0.000008
    16  N   -0.000002  -0.039992   0.212734   6.563183   0.000016   0.000011
    17  H    0.000610   0.000122   0.000048   0.000016   0.419472   0.004919
    18  H   -0.000079   0.001239  -0.000008   0.000011   0.004919   0.507799
    19  H    0.000000   0.000000   0.000000   0.000000  -0.000023  -0.000315
    20  H    0.002644   0.000002   0.000000   0.000000  -0.000087  -0.004365
    21  H   -0.007296   0.000015   0.000000   0.000000   0.002096   0.004761
    22  H    0.004472   0.000044  -0.000016   0.000110  -0.000001   0.000065
    23  H   -0.050986  -0.000024  -0.000004   0.000116  -0.000001   0.000000
    24  H    0.343393   0.000029  -0.000001   0.000006   0.000183   0.000010
    25  H    0.005359   0.362915  -0.035235  -0.003687   0.000627  -0.000053
    26  H    0.000034   0.370864  -0.022834   0.003117   0.000889  -0.000024
    27  H    0.000003  -0.031351   0.395023  -0.034450  -0.000008   0.000000
    28  H   -0.000001  -0.034080   0.396862  -0.032928  -0.000005  -0.000003
    29  H    0.000024  -0.002093  -0.019345   0.273983  -0.000005  -0.000001
    30  H   -0.000002   0.003599  -0.021144   0.332398   0.000000   0.000000
    31  H   -0.000027  -0.011165  -0.019072   0.297114  -0.000038  -0.000067
              19         20         21         22         23         24
     1  O    0.000000  -0.000074  -0.000029   0.000846   0.000000  -0.000003
     2  C    0.000000   0.000148  -0.000109  -0.000058   0.000004  -0.000009
     3  N   -0.000256   0.004396  -0.001276  -0.000076  -0.000001   0.000210
     4  C    0.010474  -0.031430  -0.042220   0.000138   0.000000   0.000030
     5  C   -0.011845  -0.001274  -0.003216  -0.000002   0.000000  -0.000015
     6  O    0.278896   0.003253  -0.000225   0.000000   0.000000   0.000000
     7  O    0.007871   0.000069   0.001910   0.000000   0.000000  -0.000001
     8  C   -0.000276   0.378026   0.368365  -0.000817  -0.000131  -0.003362
     9  C    0.000009  -0.023487  -0.030678  -0.051290   0.002924  -0.027511
    10  C    0.000000  -0.003684   0.004552   0.398209   0.006618   0.008469
    11  N    0.000000   0.000020  -0.000207  -0.041183  -0.039020   0.004772
    12  C    0.000000  -0.000104  -0.000028   0.006966   0.395920  -0.025062
    13  N    0.000000   0.002644  -0.007296   0.004472  -0.050986   0.343393
    14  C    0.000000   0.000002   0.000015   0.000044  -0.000024   0.000029
    15  C    0.000000   0.000000   0.000000  -0.000016  -0.000004  -0.000001
    16  N    0.000000   0.000000   0.000000   0.000110   0.000116   0.000006
    17  H   -0.000023  -0.000087   0.002096  -0.000001  -0.000001   0.000183
    18  H   -0.000315  -0.004365   0.004761   0.000065   0.000000   0.000010
    19  H    0.371889  -0.000044  -0.000125   0.000000   0.000000   0.000000
    20  H   -0.000044   0.520428  -0.024153   0.000966   0.000003  -0.000060
    21  H   -0.000125  -0.024153   0.596614  -0.000030  -0.000010   0.003707
    22  H    0.000000   0.000966  -0.000030   0.557372  -0.000135  -0.000096
    23  H    0.000000   0.000003  -0.000010  -0.000135   0.540627  -0.000110
    24  H    0.000000  -0.000060   0.003707  -0.000096  -0.000110   0.411363
    25  H    0.000000  -0.000001  -0.000010  -0.000018   0.000162   0.000139
    26  H    0.000000   0.000000   0.000000   0.000000   0.000000   0.000000
    27  H    0.000000   0.000000   0.000000   0.000000   0.000003   0.000000
    28  H    0.000000   0.000000   0.000000   0.000000   0.000000   0.000000
    29  H    0.000000  -0.000002   0.000001  -0.000491  -0.000571  -0.000067
    30  H    0.000000   0.000000   0.000000   0.000001  -0.000001   0.000000
    31  H    0.000000  -0.000001   0.000000   0.000242   0.000001  -0.000001
              25         26         27         28         29         30
     1  O    0.001629   0.001080   0.000301   0.003106   0.000383   0.000452
     2  C   -0.030485  -0.017394   0.003631  -0.003621  -0.001169   0.000349
     3  N   -0.000812   0.000155  -0.000045   0.000086  -0.000024   0.000003
     4  C   -0.000561   0.000038   0.000001  -0.000004   0.000028   0.000000
     5  C   -0.000017   0.000007   0.000000   0.000000   0.000000   0.000000
     6  O    0.000000   0.000000   0.000000   0.000000   0.000000   0.000000
     7  O    0.000001  -0.000001   0.000000   0.000000   0.000000   0.000000
     8  C    0.000325  -0.000019   0.000000   0.000001  -0.000056   0.000000
     9  C   -0.000631  -0.000003  -0.000002   0.000000  -0.000339  -0.000004
    10  C   -0.001637   0.000014  -0.000005  -0.000003  -0.003485   0.000063
    11  N   -0.000395   0.000004  -0.000008  -0.000007   0.051716   0.000311
    12  C    0.005104   0.000019   0.000015  -0.000002   0.008737   0.000034
    13  N    0.005359   0.000034   0.000003  -0.000001   0.000024  -0.000002
    14  C    0.362915   0.370864  -0.031351  -0.034080  -0.002093   0.003599
    15  C   -0.035235  -0.022834   0.395023   0.396862  -0.019345  -0.021144
    16  N   -0.003687   0.003117  -0.034450  -0.032928   0.273983   0.332398
    17  H    0.000627   0.000889  -0.000008  -0.000005  -0.000005   0.000000
    18  H   -0.000053  -0.000024   0.000000  -0.000003  -0.000001   0.000000
    19  H    0.000000   0.000000   0.000000   0.000000   0.000000   0.000000
    20  H   -0.000001   0.000000   0.000000   0.000000  -0.000002   0.000000
    21  H   -0.000010   0.000000   0.000000   0.000000   0.000001   0.000000
    22  H   -0.000018   0.000000   0.000000   0.000000  -0.000491   0.000001
    23  H    0.000162   0.000000   0.000003   0.000000  -0.000571  -0.000001
    24  H    0.000139   0.000000   0.000000   0.000000  -0.000067   0.000000
    25  H    0.564353  -0.021546  -0.003495   0.004616   0.004061  -0.000107
    26  H   -0.021546   0.499267  -0.001401  -0.003464  -0.000002  -0.000079
    27  H   -0.003495  -0.001401   0.517596  -0.025805  -0.002320  -0.003150
    28  H    0.004616  -0.003464  -0.025805   0.498418   0.003268  -0.001499
    29  H    0.004061  -0.000002  -0.002320   0.003268   0.361918  -0.011552
    30  H   -0.000107  -0.000079  -0.003150  -0.001499  -0.011552   0.352511
    31  H   -0.000177   0.000156   0.003944  -0.003825  -0.013244  -0.010019
              31
     1  O    0.046552
     2  C    0.002484
     3  N    0.000652
     4  C    0.000042
     5  C    0.000000
     6  O    0.000000
     7  O    0.000000
     8  C   -0.000001
     9  C    0.000000
    10  C    0.001405
    11  N    0.000339
    12  C   -0.000040
    13  N   -0.000027
    14  C   -0.011165
    15  C   -0.019072
    16  N    0.297114
    17  H   -0.000038
    18  H   -0.000067
    19  H    0.000000
    20  H   -0.000001
    21  H    0.000000
    22  H    0.000242
    23  H    0.000001
    24  H   -0.000001
    25  H   -0.000177
    26  H    0.000156
    27  H    0.003944
    28  H   -0.003825
    29  H   -0.013244
    30  H   -0.010019
    31  H    0.337605
 Mulliken charges:
               1
     1  O   -0.529961
     2  C    0.616113
     3  N   -0.507218
     4  C   -0.008617
     5  C    0.589190
     6  O   -0.473412
     7  O   -0.446989
     8  C   -0.256123
     9  C    0.282160
    10  C   -0.017104
    11  N   -0.475383
    12  C    0.241648
    13  N   -0.518213
    14  C   -0.309691
    15  C   -0.125134
    16  N   -0.529237
    17  H    0.278501
    18  H    0.189213
    19  H    0.343746
    20  H    0.178811
    21  H    0.127590
    22  H    0.124780
    23  H    0.144614
    24  H    0.283985
    25  H    0.149579
    26  H    0.191123
    27  H    0.181522
    28  H    0.198888
    29  H    0.350645
    30  H    0.357836
    31  H    0.367139
 Sum of Mulliken charges =   1.00000
 Mulliken charges with hydrogens summed into heavy atoms:
               1
     1  O   -0.529961
     2  C    0.616113
     3  N   -0.228717
     4  C    0.180596
     5  C    0.589190
     6  O   -0.129666
     7  O   -0.446989
     8  C    0.050278
     9  C    0.282160
    10  C    0.107676
    11  N   -0.475383
    12  C    0.386262
    13  N   -0.234228
    14  C    0.031010
    15  C    0.255277
    16  N    0.546383
 APT charges:
               1
     1  O   -0.292851
     2  C    0.078449
     3  N   -0.482911
     4  C   -0.429118
     5  C   -0.391358
     6  O   -0.983355
     7  O    0.271093
     8  C   -1.011671
     9  C   -0.057867
    10  C   -0.298341
    11  N   -0.389009
    12  C   -0.197164
    13  N   -0.815705
    14  C   -0.657291
    15  C   -1.120813
    16  N   -0.935450
    17  H    0.540297
    18  H    0.356575
    19  H    1.291162
    20  H    0.604213
    21  H    0.457921
    22  H    0.467824
    23  H    0.671911
    24  H    0.661258
    25  H    0.216286
    26  H    0.579439
    27  H    0.660734
    28  H    0.605422
    29  H    0.203559
    30  H    1.083849
    31  H    0.312911
 Sum of APT charges =   1.00000
 APT charges with hydrogens summed into heavy atoms:
               1
     1  O   -0.292851
     2  C    0.078449
     3  N    0.057386
     4  C   -0.072543
     5  C   -0.391358
     6  O    0.307807
     7  O    0.271093
     8  C    0.050463
     9  C   -0.057867
    10  C    0.169484
    11  N   -0.389009
    12  C    0.474747
    13  N   -0.154447
    14  C    0.138434
    15  C    0.145343
    16  N    0.664870
 Electronic spatial extent (au):  <R**2>=           3746.6263
 Charge=              1.0000 electrons
 Dipole moment (field-independent basis, Debye):
    X=              3.5068    Y=              1.0884    Z=             -5.0449  Tot=              6.2397
 Quadrupole moment (field-independent basis, Debye-Ang):
   XX=            -82.7028   YY=            -77.0994   ZZ=            -51.4820
   XY=             -1.3610   XZ=            -13.1612   YZ=            -18.6686
 Traceless Quadrupole moment (field-independent basis, Debye-Ang):
   XX=            -12.2747   YY=             -6.6713   ZZ=             18.9461
   XY=             -1.3610   XZ=            -13.1612   YZ=            -18.6686
 Octapole moment (field-independent basis, Debye-Ang**2):
  XXX=             44.2854  YYY=             10.2817  ZZZ=           -120.1856  XYY=             39.5019
  XXY=             11.6670  XXZ=            -49.8371  XZZ=            -16.0789  YZZ=             48.6919
  YYZ=            -60.7088  XYZ=              1.7812
 Hexadecapole moment (field-independent basis, Debye-Ang**3):
 XXXX=           -576.4049 YYYY=          -1084.2736 ZZZZ=          -1912.0794 XXXY=           -149.4266
 XXXZ=            132.8909 YYYX=           -186.6996 YYYZ=            -52.1028 ZZZX=           -122.2221
 ZZZY=           -146.4288 XXYY=           -278.8095 XXZZ=           -582.5857 YYZZ=           -575.2187
 XXYZ=            -26.1559 YYXZ=             19.5216 ZZXY=            -91.9416
 N-N= 1.193313016952D+03 E-N=-4.226902145514D+03  KE= 7.895327552906D+02
  Exact polarizability:   0.000   0.000   0.000   0.000   0.000   0.000
 Approx polarizability: 192.878 -21.434 143.403   7.205  -7.757 203.722
 Calling FoFJK, ICntrl=    100147 FMM=F ISym2X=0 I1Cent= 0 IOpClX= 0 NMat=1 NMatS=1 NMatT=0.
 -------------------------------------------------------------------
 Center     Atomic                   Forces (Hartrees/Bohr)
 Number     Number              X              Y              Z
 -------------------------------------------------------------------
      1        8          -0.005424308    0.001991141   -0.018121946
      2        6           0.000953944   -0.003443978    0.015743711
      3        7          -0.004109207   -0.003036598   -0.011704176
      4        6          -0.001325971    0.001424828    0.004134328
      5        6          -0.015305628    0.002677941    0.005592147
      6        8           0.000193300   -0.000558192   -0.010150796
      7        8           0.014455933    0.000107318    0.000533686
      8        6           0.000241123   -0.002955071   -0.010293717
      9        6           0.003198603   -0.001512778    0.012082694
     10        6          -0.008220478    0.013619218   -0.005110300
     11        7          -0.009241186    0.007489070   -0.008740642
     12        6           0.013070156   -0.003230276   -0.009089184
     13        7           0.003181163    0.001229511    0.007787946
     14        6           0.000107953   -0.008817128    0.001731248
     15        6           0.021095365    0.011947757    0.009338806
     16        7          -0.006332355   -0.000891900   -0.001914836
     17        1           0.005338313   -0.002074969    0.001819261
     18        1          -0.000415400    0.001007645    0.001531635
     19        1          -0.000093574   -0.000265990    0.008727338
     20        1          -0.002476072   -0.001354985    0.002566625
     21        1           0.002118629   -0.001540152    0.005366201
     22        1           0.001883828   -0.001364543   -0.000503141
     23        1           0.000459522   -0.002704740    0.001263651
     24        1           0.002096341   -0.002603130    0.002249897
     25        1           0.000538118    0.000142914    0.000947321
     26        1           0.002738663    0.002131310   -0.003174970
     27        1          -0.002661651   -0.001040548   -0.002765071
     28        1          -0.004930965    0.001205615   -0.003516970
     29        1          -0.006334799   -0.007921697   -0.002024217
     30        1           0.000364161   -0.001018934   -0.003208132
     31        1          -0.005163521    0.001361340    0.008901602
 -------------------------------------------------------------------
 Cartesian Forces:  Max     0.021095365 RMS     0.006391475
 FormGI is forming the generalized inverse of G from B-inverse, IUseBI=4.

 GradGradGradGradGradGradGradGradGradGradGradGradGradGradGradGradGradGrad
 Berny optimization.
 Internal  Forces:  Max     0.042413426 RMS     0.008289529
 Search for a local minimum.
 Step number   1 out of a maximum of  167
 All quantities printed in internal units (Hartrees-Bohrs-Radians)
 Mixed Optimization -- RFO/linear search
 Second derivative matrix not updated -- analytic derivatives used.
 ITU=  0
     Eigenvalues ---   -0.00202   0.00166   0.00200   0.00286   0.00412
     Eigenvalues ---    0.00471   0.00675   0.00921   0.01121   0.01953
     Eigenvalues ---    0.01990   0.02098   0.02212   0.02718   0.03488
     Eigenvalues ---    0.03828   0.03926   0.04058   0.04088   0.04334
     Eigenvalues ---    0.04474   0.04868   0.05094   0.05194   0.05484
     Eigenvalues ---    0.05815   0.05863   0.06369   0.06627   0.07990
     Eigenvalues ---    0.08300   0.08562   0.10399   0.11172   0.11350
     Eigenvalues ---    0.11852   0.11980   0.12166   0.12639   0.13770
     Eigenvalues ---    0.15022   0.15324   0.15569   0.16459   0.17409
     Eigenvalues ---    0.18370   0.20161   0.21075   0.22401   0.22982
     Eigenvalues ---    0.24036   0.24582   0.24975   0.25552   0.26338
     Eigenvalues ---    0.28866   0.32333   0.32978   0.33323   0.34215
     Eigenvalues ---    0.34480   0.34650   0.34661   0.34782   0.35065
     Eigenvalues ---    0.35505   0.35753   0.36181   0.36908   0.37400
     Eigenvalues ---    0.37613   0.41188   0.42501   0.43128   0.43609
     Eigenvalues ---    0.44624   0.46270   0.47518   0.48758   0.48809
     Eigenvalues ---    0.50246   0.50492   0.53892   0.61416   0.82624
     Eigenvalues ---    0.83636   0.94484
 RFO step:  Lambda=-3.13166809D-02 EMin=-2.02497960D-03
 Linear search not attempted -- first point.
 Iteration  1 RMS(Cart)=  0.33490382 RMS(Int)=  0.04636214
 Iteration  2 RMS(Cart)=  0.18229351 RMS(Int)=  0.01042244
 Iteration  3 RMS(Cart)=  0.01576509 RMS(Int)=  0.00141081
 Iteration  4 RMS(Cart)=  0.00013082 RMS(Int)=  0.00140826
 Iteration  5 RMS(Cart)=  0.00000056 RMS(Int)=  0.00140826
 Variable       Old X    -DE/DX   Delta X   Delta X   Delta X     New X
                                 (Linear)    (Quad)   (Total)
    R1        2.32065   0.00929   0.00000   0.00928   0.00928   2.32993
    R2        2.57258  -0.00302   0.00000   0.01823   0.01823   2.59081
    R3        2.86751  -0.00301   0.00000   0.01154   0.01154   2.87905
    R4        2.73116  -0.00207   0.00000   0.01350   0.01350   2.74467
    R5        1.89883   0.00599   0.00000   0.01004   0.01004   1.90888
    R6        2.85672   0.00459   0.00000   0.00750   0.00750   2.86422
    R7        2.94993  -0.00589   0.00000   0.03383   0.03383   2.98377
    R8        2.05831   0.00054   0.00000   0.00129   0.00129   2.05960
    R9        2.54701  -0.00080   0.00000  -0.00510  -0.00510   2.54191
   R10        2.27079   0.01340   0.00000   0.00943   0.00943   2.28022
   R11        1.82427   0.00830   0.00000   0.01438   0.01438   1.83865
   R12        2.83295  -0.00198   0.00000  -0.00243  -0.00243   2.83052
   R13        2.05434   0.00338   0.00000   0.00816   0.00816   2.06251
   R14        2.05716   0.00484   0.00000   0.00986   0.00986   2.06702
   R15        2.57486   0.01341   0.00000   0.01409   0.01461   2.58946
   R16        2.61963   0.00432   0.00000   0.00322   0.00373   2.62336
   R17        2.60855   0.00711   0.00000   0.02933   0.02905   2.63760
   R18        2.04837  -0.00232   0.00000  -0.00828  -0.00828   2.04009
   R19        2.47637   0.01556   0.00000   0.03544   0.03484   2.51121
   R20        2.55472   0.01043   0.00000  -0.00571  -0.00587   2.54885
   R21        2.04253   0.00054   0.00000  -0.00352  -0.00352   2.03901
   R22        1.90131   0.00384   0.00000   0.01023   0.01023   1.91154
   R23        2.87052  -0.00212   0.00000   0.01903   0.01903   2.88955
   R24        2.07391  -0.00013   0.00000  -0.00801  -0.00801   2.06590
   R25        2.06452   0.00182   0.00000   0.00555   0.00555   2.07007
   R26        2.79275   0.01715   0.00000   0.04264   0.04264   2.83539
   R27        2.06237  -0.00012   0.00000  -0.00069  -0.00069   2.06168
   R28        2.05950   0.00121   0.00000   0.00292   0.00292   2.06242
   R29        1.94631   0.00811   0.00000   0.10244   0.10244   2.04875
   R30        1.92715   0.00266   0.00000   0.00069   0.00069   1.92784
   R31        1.93595   0.00939   0.00000   0.00611   0.00611   1.94205
    A1        2.11583   0.01199   0.00000   0.01936   0.01877   2.13459
    A2        2.15484  -0.02284   0.00000  -0.04079  -0.04124   2.11360
    A3        2.01212   0.01059   0.00000   0.01983   0.01931   2.03143
    A4        2.08160  -0.01957   0.00000  -0.04944  -0.05711   2.02449
    A5        2.10646   0.00800   0.00000  -0.02579  -0.03341   2.07306
    A6        2.04627   0.00866   0.00000   0.00889  -0.00007   2.04620
    A7        1.89981   0.01370   0.00000   0.06000   0.06080   1.96061
    A8        1.98653  -0.02962   0.00000  -0.05210  -0.05360   1.93293
    A9        1.86428   0.00383   0.00000  -0.03091  -0.03186   1.83243
   A10        1.89167   0.01528   0.00000   0.03122   0.03185   1.92352
   A11        1.92769  -0.00601   0.00000  -0.00794  -0.00752   1.92018
   A12        1.89391   0.00244   0.00000  -0.00141  -0.00283   1.89108
   A13        1.94419  -0.00129   0.00000  -0.01484  -0.01489   1.92930
   A14        2.18274  -0.00543   0.00000  -0.01268  -0.01272   2.17002
   A15        2.15572   0.00668   0.00000   0.02699   0.02694   2.18265
   A16        1.84919   0.00485   0.00000   0.02491   0.02491   1.87410
   A17        1.97278  -0.04241   0.00000  -0.10346  -0.10315   1.86964
   A18        1.87747   0.00962   0.00000   0.00434   0.00580   1.88327
   A19        1.92395   0.01211   0.00000   0.03123   0.03036   1.95431
   A20        1.92667   0.01696   0.00000   0.06855   0.06803   1.99470
   A21        1.88187   0.01137   0.00000   0.00660   0.00602   1.88789
   A22        1.87922  -0.00619   0.00000  -0.00247  -0.00344   1.87578
   A23        2.32516   0.00167   0.00000  -0.03460  -0.03734   2.28783
   A24        2.12883  -0.00395   0.00000   0.01653   0.01204   2.14087
   A25        1.82119   0.00183   0.00000   0.00171   0.00030   1.82150
   A26        1.93445  -0.00087   0.00000  -0.01272  -0.01226   1.92218
   A27        2.22240   0.00095   0.00000   0.00608   0.00489   2.22729
   A28        2.12381  -0.00016   0.00000   0.00232   0.00132   2.12512
   A29        1.83984  -0.00033   0.00000   0.00540   0.00520   1.84503
   A30        1.94323  -0.00143   0.00000  -0.01699  -0.01731   1.92591
   A31        2.18147   0.00277   0.00000   0.01318   0.01284   2.19431
   A32        2.15783  -0.00130   0.00000   0.00225   0.00196   2.15979
   A33        1.88419   0.00081   0.00000   0.02035   0.02112   1.90531
   A34        2.19638  -0.00081   0.00000  -0.00578  -0.00655   2.18983
   A35        2.20108  -0.00001   0.00000  -0.01244  -0.01318   2.18791
   A36        1.99179  -0.03154   0.00000  -0.02623  -0.02621   1.96557
   A37        1.87843   0.00691   0.00000  -0.00721  -0.00734   1.87109
   A38        1.89415   0.01551   0.00000   0.04665   0.04655   1.94070
   A39        1.90983   0.00795   0.00000   0.00914   0.00900   1.91883
   A40        1.92735   0.00674   0.00000  -0.02068  -0.02039   1.90696
   A41        1.85691  -0.00386   0.00000   0.00047   0.00039   1.85729
   A42        1.94804  -0.01809   0.00000   0.02043   0.02053   1.96857
   A43        1.90516   0.00745   0.00000   0.00632   0.00633   1.91150
   A44        1.90710   0.00855   0.00000   0.01947   0.01971   1.92681
   A45        1.91557   0.00560   0.00000  -0.01073  -0.01100   1.90457
   A46        1.90507  -0.00094   0.00000  -0.04116  -0.04135   1.86371
   A47        1.88169  -0.00203   0.00000   0.00537   0.00478   1.88647
   A48        1.95248   0.00882   0.00000   0.10845   0.10884   2.06132
   A49        1.96862  -0.00043   0.00000  -0.03378  -0.03470   1.93392
   A50        1.87560  -0.00466   0.00000  -0.04461  -0.04447   1.83113
   A51        1.91719  -0.00411   0.00000  -0.01125  -0.01168   1.90551
   A52        1.84677  -0.00272   0.00000  -0.03748  -0.03598   1.81079
   A53        1.89787   0.00284   0.00000   0.01541   0.01394   1.91182
    D1        0.44899   0.00152   0.00000   0.15399   0.15127   0.60026
    D2       -3.03231  -0.00667   0.00000  -0.06756  -0.06613  -3.09845
    D3       -2.66301   0.01142   0.00000   0.21291   0.21148  -2.45152
    D4        0.13888   0.00324   0.00000  -0.00865  -0.00593   0.13295
    D5       -0.05860   0.00161   0.00000   0.00162   0.00141  -0.05719
    D6       -2.18165   0.00697   0.00000   0.01220   0.01173  -2.16993
    D7        2.09863   0.00009   0.00000  -0.00816  -0.00884   2.08979
    D8        3.05265  -0.00787   0.00000  -0.05760  -0.05690   2.99575
    D9        0.92960  -0.00250   0.00000  -0.04701  -0.04658   0.88302
   D10       -1.07330  -0.00938   0.00000  -0.06738  -0.06714  -1.14044
   D11       -2.56708  -0.00596   0.00000  -0.00462  -0.00480  -2.57188
   D12        1.60427  -0.01571   0.00000  -0.05317  -0.05214   1.55212
   D13       -0.48552  -0.00357   0.00000   0.00090   0.00012  -0.48541
   D14        0.90266   0.00183   0.00000   0.21558   0.21536   1.11801
   D15       -1.20918  -0.00792   0.00000   0.16703   0.16801  -1.04116
   D16        2.98422   0.00421   0.00000   0.22110   0.22027  -3.07869
   D17        2.87149   0.00963   0.00000   0.00083   0.00006   2.87156
   D18       -0.30441   0.00843   0.00000  -0.01563  -0.01628  -0.32069
   D19       -1.24267  -0.00841   0.00000  -0.00534  -0.00454  -1.24721
   D20        1.86461  -0.00961   0.00000  -0.02180  -0.02088   1.84373
   D21        0.82995   0.00033   0.00000   0.00728   0.00707   0.83702
   D22       -2.34595  -0.00088   0.00000  -0.00918  -0.00927  -2.35522
   D23       -0.73702   0.01252   0.00000   0.20828   0.20827  -0.52875
   D24       -2.86847   0.01157   0.00000   0.18506   0.18438  -2.68409
   D25        1.37033   0.00683   0.00000   0.16850   0.16796   1.53829
   D26       -2.85339   0.00352   0.00000   0.14357   0.14431  -2.70909
   D27        1.29834   0.00257   0.00000   0.12035   0.12042   1.41876
   D28       -0.74604  -0.00216   0.00000   0.10379   0.10400  -0.64204
   D29        1.33593   0.00051   0.00000   0.13587   0.13635   1.47227
   D30       -0.79552  -0.00044   0.00000   0.11265   0.11246  -0.68307
   D31       -2.83991  -0.00517   0.00000   0.09610   0.09604  -2.74387
   D32        3.11858  -0.00116   0.00000  -0.01104  -0.01122   3.10736
   D33        0.01067   0.00030   0.00000   0.00602   0.00620   0.01687
   D34       -1.26951   0.00536   0.00000   0.38067   0.38150  -0.88801
   D35        1.71371   0.00095   0.00000   0.22020   0.22184   1.93555
   D36        0.83414   0.00085   0.00000   0.36451   0.36295   1.19708
   D37       -2.46583  -0.00356   0.00000   0.20404   0.20329  -2.26254
   D38        2.88257   0.00947   0.00000   0.40341   0.40293  -2.99769
   D39       -0.41740   0.00505   0.00000   0.24294   0.24327  -0.17413
   D40        2.95273  -0.00414   0.00000  -0.17094  -0.16863   2.78410
   D41       -0.11274  -0.00284   0.00000  -0.10618  -0.10471  -0.21745
   D42       -0.05032   0.00012   0.00000  -0.03223  -0.03197  -0.08229
   D43       -3.11579   0.00142   0.00000   0.03254   0.03195  -3.08384
   D44       -3.00077   0.00281   0.00000   0.14136   0.14409  -2.85668
   D45        0.19742   0.00308   0.00000   0.10230   0.10438   0.30180
   D46        0.02191  -0.00036   0.00000   0.01739   0.01723   0.03914
   D47       -3.06308  -0.00009   0.00000  -0.02167  -0.02249  -3.08557
   D48        0.06000   0.00001   0.00000   0.03545   0.03558   0.09558
   D49        3.13048  -0.00115   0.00000  -0.02481  -0.02372   3.10676
   D50       -0.04511  -0.00032   0.00000  -0.02389  -0.02423  -0.06934
   D51        3.13455  -0.00122   0.00000   0.02066   0.02105  -3.12758
   D52        0.01519   0.00039   0.00000   0.00436   0.00471   0.01991
   D53        3.09999   0.00009   0.00000   0.04383   0.04465  -3.13855
   D54        3.11932   0.00138   0.00000  -0.03919  -0.03920   3.08012
   D55       -0.07906   0.00108   0.00000   0.00028   0.00073  -0.07833
   D56       -0.91722   0.00736   0.00000   0.06075   0.06083  -0.85639
   D57       -3.03781   0.00704   0.00000   0.05668   0.05675  -2.98106
   D58        1.19150   0.00026   0.00000   0.03535   0.03545   1.22695
   D59        1.18842   0.00076   0.00000   0.04044   0.04043   1.22885
   D60       -0.93217   0.00044   0.00000   0.03636   0.03635  -0.89582
   D61       -2.98605  -0.00634   0.00000   0.01503   0.01505  -2.97099
   D62       -3.05642   0.00473   0.00000   0.03439   0.03429  -3.02213
   D63        1.10617   0.00441   0.00000   0.03031   0.03022   1.13639
   D64       -0.94771  -0.00237   0.00000   0.00899   0.00892  -0.93879
   D65       -0.84937  -0.00039   0.00000   0.07421   0.07464  -0.77473
   D66       -3.02119  -0.00150   0.00000   0.03027   0.03052  -2.99067
   D67        1.17043  -0.00167   0.00000   0.06120   0.06032   1.23075
   D68        1.26518   0.00090   0.00000   0.08834   0.08866   1.35385
   D69       -0.90664  -0.00022   0.00000   0.04441   0.04455  -0.86210
   D70       -2.99820  -0.00038   0.00000   0.07533   0.07434  -2.92386
   D71       -2.95927   0.00115   0.00000   0.06427   0.06501  -2.89426
   D72        1.15209   0.00004   0.00000   0.02034   0.02090   1.17299
   D73       -0.93947  -0.00013   0.00000   0.05126   0.05069  -0.88877
         Item               Value     Threshold  Converged?
 Maximum Force            0.042413     0.000450     NO 
 RMS     Force            0.008290     0.000300     NO 
 Maximum Displacement     2.138219     0.001800     NO 
 RMS     Displacement     0.495136     0.001200     NO 
 Predicted change in Energy=-2.779810D-02
 GradGradGradGradGradGradGradGradGradGradGradGradGradGradGradGradGradGrad

                          Input orientation:                          
 ---------------------------------------------------------------------
 Center     Atomic      Atomic             Coordinates (Angstroms)
 Number     Number       Type             X           Y           Z
 ---------------------------------------------------------------------
      1          8           0       -0.523907    1.985200    0.081244
      2          6           0        0.428553    1.222540    0.258245
      3          7           0        0.640137    0.578959    1.450163
      4          6           0       -0.551460    0.182185    2.179668
      5          6           0       -0.350487    0.230839    3.681179
      6          8           0       -1.534940    0.190897    4.317436
      7          8           0        0.727365    0.245839    4.223392
      8          6           0       -1.023316   -1.258700    1.738918
      9          6           0       -0.623496   -1.434608    0.306177
     10          6           0       -0.830173   -0.639486   -0.790521
     11          7           0        0.088386   -0.955278   -1.792851
     12          6           0        0.759280   -2.011868   -1.346271
     13          7           0        0.371626   -2.317293   -0.091010
     14          6           0        1.365573    0.855089   -0.885480
     15          6           0        0.931748    1.463245   -2.219664
     16          7           0       -0.520391    1.232715   -2.518686
     17          1           0        1.458574   -0.004787    1.549030
     18          1           0       -1.316092    0.899603    1.882158
     19          1           0       -1.351717    0.192676    5.272998
     20          1           0       -2.097824   -1.328975    1.917020
     21          1           0       -0.540850   -2.044979    2.326654
     22          1           0       -1.493930    0.207780   -0.874437
     23          1           0        1.559995   -2.515293   -1.865551
     24          1           0        0.737299   -3.078628    0.465650
     25          1           0        1.374699   -0.235667   -0.958334
     26          1           0        2.395041    1.159398   -0.667379
     27          1           0        1.533992    1.041329   -3.025618
     28          1           0        1.084367    2.543883   -2.212670
     29          1           0       -0.927486    0.243579   -2.341855
     30          1           0       -0.744667    1.522102   -3.470894
     31          1           0       -1.025798    1.827914   -1.850517
 ---------------------------------------------------------------------
                    Distance matrix (angstroms):
                    1          2          3          4          5
     1  O    0.000000
     2  C    1.232948   0.000000
     3  N    2.281765   1.370998   0.000000
     4  C    2.766769   2.394709   1.452415   0.000000
     5  C    4.008414   3.647856   2.465756   1.515682   0.000000
     6  O    4.710311   4.625649   3.619780   2.353160   1.345120
     7  O    4.663523   4.094585   2.794525   2.411690   1.206641
     8  C    3.676980   3.233708   2.495485   1.578942   2.538465
     9  C    3.428644   2.858240   2.638166   2.475717   3.773444
    10  C    2.782580   2.480209   2.943991   3.094325   4.580793
    11  N    3.540275   3.010913   3.629801   4.181403   5.618228
    12  C    4.434064   3.625637   3.814004   4.354785   5.615743
    13  N    4.398079   3.557476   3.291746   3.500779   4.609103
    14  C    2.404546   1.523526   2.461247   3.677356   4.918223
    15  C    2.772282   2.539916   3.786110   4.816134   6.163026
    16  N    2.706637   2.934611   4.186405   4.814469   6.282591
    17  H    3.169334   2.057523   1.010135   2.114922   2.806114
    18  H    2.247080   2.405238   2.028858   1.089892   2.148514
    19  H    5.554523   5.420123   4.327905   3.195186   1.880906
    20  H    4.102566   3.955293   3.369658   2.178034   2.932314
    21  H    4.613513   3.986821   3.007992   2.232034   2.655245
    22  H    2.239083   2.451254   3.177386   3.196321   4.696981
    23  H    5.327954   4.445453   4.627579   5.300794   6.477452
    24  H    5.232663   4.317219   3.789017   3.902775   4.740831
    25  H    3.101238   2.121703   2.646518   3.705637   4.971818
    26  H    3.124522   2.174359   2.810797   4.212183   5.225906
    27  H    3.844273   3.469667   4.587525   5.672940   7.013507
    28  H    2.856696   2.877752   4.180265   5.248446   6.492028
    29  H    3.011234   3.091557   4.116956   4.537548   6.050622
    30  H    3.588995   3.920799   5.198462   5.810471   7.278385
    31  H    2.002083   2.632203   3.902527   4.379020   5.797099
                    6          7          8          9         10
     6  O    0.000000
     7  O    2.264925   0.000000
     8  C    3.001974   3.391331   0.000000
     9  C    4.423030   4.471386   1.497847   0.000000
    10  C    5.222782   5.324382   2.611282   1.370285   0.000000
    11  N    6.425302   6.168156   3.715016   2.267697   1.395758
    12  C    6.495629   6.009942   3.641882   2.230669   2.172246
    13  N    5.418525   5.030930   2.532809   1.388221   2.179145
    14  C    5.993702   5.184502   4.130661   3.258704   2.657832
    15  C    7.101908   6.560245   5.186678   4.146831   3.093265
    16  N    6.989082   6.927224   4.958556   3.886527   2.566643
    17  H    4.082094   2.783826   2.787137   2.814975   3.333872
    18  H    2.545729   3.175610   2.182775   2.900335   3.122198
    19  H    0.972971   2.329610   3.834588   5.277089   6.142537
    20  H    2.896351   3.972541   1.091433   2.186234   3.068080
    21  H    3.154453   3.233238   1.093820   2.112276   3.431603
    22  H    5.192063   5.560886   3.033425   2.202032   1.079572
    23  H    7.425053   6.737383   4.609199   3.263727   3.222924
    24  H    5.539776   5.017250   2.834275   2.140092   3.159802
    25  H    6.040009   5.244155   3.751299   2.651269   2.247819
    26  H    6.421146   5.247415   4.829351   4.097345   3.695017
    27  H    8.003876   7.337002   5.876289   4.678235   3.661977
    28  H    7.418868   6.843343   5.875119   5.008970   3.977664
    29  H    6.687147   6.770598   4.349567   3.149729   1.787711
    30  H    7.940701   7.937113   5.912077   4.798238   3.444441
    31  H    6.401773   6.516817   4.734051   3.931568   2.692568
                   11         12         13         14         15
    11  N    0.000000
    12  C    1.328877   0.000000
    13  N    2.198084   1.348793   0.000000
    14  C    2.394151   2.966372   3.418059   0.000000
    15  C    2.596667   3.587334   4.374628   1.529086   0.000000
    16  N    2.384273   3.679597   4.392251   2.523257   1.500422
    17  H    3.734839   3.591679   3.036259   2.583578   4.078691
    18  H    4.349578   4.817321   4.134030   3.853976   4.711202
    19  H    7.301912   7.289105   6.167855   6.763824   7.935272
    20  H    4.322303   4.390724   3.332738   4.961780   5.838403
    21  H    4.307402   3.896385   2.598435   4.728917   5.928338
    22  H    2.167928   3.197877   3.235746   2.931874   3.044625
    23  H    2.145825   1.078996   2.144859   3.515368   4.043371
    24  H    3.167101   2.102741   1.011542   4.206473   5.279898
[...]
 0.00048037,-0.00053557,0.00003558,0.00009328,0.00021755,-0.00023735,0.
 00090528,-0.00059022,-0.00004027,-0.00019931,0.00640093,-0.02387796,-0
 .05228062,-0.00817232,0.03335291,0.00104739,0.00056396,-0.00066986,0.0
 0132751,0.00039577,-0.00032882,-0.00109819,-0.00002368,-0.00010403,0.0
 0015536,0.00000166,0.00000213,0.00001259,0.00001835,0.00011585,0.00001
 750,0.00001639,0.00006450,-0.00001781,-0.00003818,-0.00000402,-0.00006
 011,-0.00005153,-0.00019443,-0.00004653,0.00013480,0.00021302,-0.00000
 059,-0.00870051,0.01981766,0.05868384,-0.00171028,0.00195537,0.0036070
 9,-0.01988856,-0.01254687,-0.01188180,0.00149251,0.00127851,0.00036921
 ,-0.00020362,0.00042214,0.00074201,-0.00021091,-0.00001274,0.00002293,
 0.00003086,-0.00000201,0.00004356,0.00004419,0.00004025,0.00000276,0.0
 0020300,0.00011190,-0.00003469,0.00001750,-0.00000387,-0.00007048,-0.0
 0004755,0.00000991,0.00002073,0.00000152,0.00012209,0.00002705,0.00015
 992,0.00001447,0.00001840,0.00001517,0.00002413,0.00005815,-0.20367522
 ,-0.10997276,-0.07890427,-0.00546511,-0.00297349,-0.00290994,0.0011013
 7,0.00066770,-0.00101008,-0.00004621,-0.00079357,0.00018559,0.00006932
 ,0.00001300,-0.00003945,-0.00001096,-0.00001358,0.00001485,0.00000684,
 0.00003650,0.00001057,-0.00000366,-0.00000654,-0.00000254,0.00002088,0
 .00001196,-0.00000028,-0.00000397,-0.00003292,-0.00001315,0.00000924,-
 0.00000710,0.00000073,0.00880922,0.00515393,0.00425564,0.21875361,0.00
 129057,-0.00146622,-0.00097266,0.00347249,0.00165523,0.00207598,-0.000
 45473,0.00069319,0.00083518,0.00016259,-0.00015804,0.00007667,-0.00017
 600,0.00002895,-0.00004892,0.00007214,-0.00000568,-0.00001416,0.000129
 65,-0.00003221,0.00000814,-0.00000489,-0.00004154,-0.00010714,-0.00004
 771,0.00007406,0.00003017,0.00018437,-0.00001974,-0.00004915,-0.000050
 42,-0.00024009,-0.00007192,-0.00041114,0.00007913,-0.00002970,0.000085
 44,-0.00003048,-0.00016512,-0.10890821,-0.11681646,-0.05297953,0.01071
 586,0.00612246,0.00430306,0.00188001,-0.00024520,0.00393463,-0.0004322
 9,-0.00030830,0.00045222,0.00004078,0.00001435,-0.00001571,-0.00000833
 ,0.00000603,0.00000613,-0.00000088,0.00000817,0.00000960,-0.00000325,-
 0.00000660,0.00001369,-0.00002597,-0.00000526,0.00001377,0.00000633,0.
 00006679,0.00003347,-0.00006236,-0.00000624,-0.00002931,-0.02460231,-0
 .01511211,-0.01188464,0.11632124,0.12500721,0.00196329,-0.00239238,-0.
 00214347,0.01424724,0.01330735,0.01326579,-0.00072936,-0.00102582,-0.0
 0237182,-0.00041293,-0.00011679,0.00010291,0.00027921,0.00000420,0.000
 16634,-0.00003818,0.00001192,-0.00013146,-0.00011997,-0.00003701,-0.00
 010533,0.00004283,-0.00007272,-0.00009493,-0.00002799,-0.00007165,0.00
 001760,0.00006504,0.00001184,-0.00008499,-0.00000029,-0.00034521,0.000
 14554,-0.00022834,0.00007525,-0.00011812,0.00009004,-0.00003622,0.0001
 4715,-0.07393968,-0.04928465,-0.08476224,-0.02264501,-0.01602523,-0.00
 927934,-0.00149705,0.00268095,-0.00641014,0.00037248,0.00034822,-0.000
 32738,-0.00004966,-0.00003403,0.00004732,0.00001746,0.00001040,-0.0000
 1176,0.00000849,0.00005206,0.00000247,0.00000806,0.00003422,0.00000773
 ,-0.00001095,-0.00000381,-0.00002194,-0.00000134,0.00000722,0.00000408
 ,0.00000404,-0.00000400,0.00000729,-0.00176406,-0.00139568,-0.00106969
 ,0.08461847,0.05459833,0.09242691,0.00102870,-0.00007947,0.00071568,-0
 .00168277,0.00122263,-0.00192253,0.00097120,0.00007451,-0.00040548,-0.
 00019058,0.00003453,-0.00011795,0.00006258,0.00003620,0.00007670,0.000
 01817,0.00000047,-0.00008277,-0.00000066,0.00000324,-0.00004304,0.0000
 2469,-0.00002947,-0.00005365,-0.00000437,-0.00004156,-0.00005271,-0.00
 002636,0.00003777,-0.00008572,-0.00000703,-0.00031229,0.00009936,-0.00
 009624,0.00002790,0.00000778,0.00012103,-0.00003398,0.00013970,0.00857
 081,-0.00209804,-0.00537235,-0.18385482,0.04847552,0.12486873,-0.02859
 904,0.00584006,0.01799020,0.00003402,-0.00003043,0.00006243,0.00000183
 ,0.00000087,0.00000086,0.00000152,-0.00000504,0.00000061,0.00000432,0.
 00002211,0.00000499,0.00000233,0.00001052,0.00000781,0.00004853,0.0000
 1329,-0.00004171,0.00000514,-0.00004627,0.00000933,0.00000294,-0.00000
 340,0.00000090,0.00044159,-0.00014268,0.00008513,0.00011847,-0.0003098
 2,0.00061228,0.20560095,0.00000473,0.00078224,-0.00071923,0.00246813,-
 0.00084039,0.00286759,-0.00093298,-0.00025968,0.00046452,0.00014500,-0
 .00013562,0.00003132,-0.00004708,-0.00003598,-0.00002449,0.00000123,0.
 00000291,0.00003407,0.00000569,-0.00000096,0.00001335,-0.00005059,0.00
 001375,0.00006335,0.00005325,-0.00001935,-0.00003550,-0.00005171,0.000
 06511,-0.00007241,0.00008006,-0.00004815,-0.00003710,0.00006180,0.0000
 1790,0.00004858,0.00002062,-0.00000306,0.00006488,-0.00990962,0.002846
 08,0.01116970,0.05431030,-0.07299294,-0.05169627,-0.01446707,0.0033690
 8,0.00965126,-0.00003592,0.00005436,-0.00001169,-0.00000680,0.00000408
 ,-0.00000600,-0.00000330,0.00000423,0.00000560,-0.00000305,-0.00002497
 ,-0.00001370,-0.00000172,-0.00000669,-0.00000491,0.00004051,0.00000153
 ,-0.00001879,-0.00001972,-0.00008300,0.00000256,-0.00000832,-0.0000061
 3,0.00001799,-0.00072937,0.00060470,-0.00024058,0.00014639,0.00020305,
 -0.00047789,-0.05231297,0.07173116,0.00042239,-0.00012583,0.00103322,-
 0.00475014,0.00222259,-0.00337042,0.00209610,0.00034082,-0.00109187,-0
 .00051566,0.00007686,-0.00012942,0.00014849,0.00008289,0.00020858,0.00
 003651,0.00000183,-0.00019192,-0.00001889,0.00000776,-0.00011473,0.000
 06770,-0.00004405,-0.00010443,-0.00003779,-0.00002917,-0.00003998,0.00
 002478,0.00000762,-0.00004099,-0.00004954,-0.00017600,0.00011605,-0.00
 010425,0.00004253,-0.00007285,0.00009561,-0.00002466,0.00009652,0.0203
 7614,-0.00700256,-0.01848780,0.13391006,-0.04960745,-0.17486530,-0.015
 40029,0.00371100,0.01083430,0.00010658,-0.00012482,0.00012300,0.000002
 11,0.00000504,0.00001185,0.00000355,-0.00001068,0.00000597,0.00000987,
 0.00005270,0.00001802,0.00000346,0.00002664,0.00001442,-0.00000010,0.0
 0000646,-0.00002642,0.00001375,0.00003744,0.00000938,0.00001232,-0.000
 01347,-0.00001547,0.00019476,0.00015516,0.00135646,-0.00015162,-0.0003
 9085,0.00038127,-0.13444973,0.05110564,0.18467785,0.00043126,0.0006725
 6,0.00015946,-0.00046324,-0.00058069,0.00049751,0.00008086,0.00015534,
 -0.00054118,-0.00019792,-0.00007524,0.00012597,-0.00002774,0.00003647,
 0.00010340,0.00004111,0.00000560,-0.00008588,0.00002767,-0.00000365,-0
 .00007456,0.00006582,-0.00005051,-0.00006812,0.00002177,-0.00008511,0.
 00004897,0.00023654,-0.00011557,-0.00028862,0.00001080,-0.00149123,0.0
 0057125,-0.00051487,0.00025476,-0.00016357,0.00026224,-0.00001176,0.00
 054107,-0.00092122,0.00722262,-0.00048858,-0.05306419,0.03494731,0.004
 40448,-0.00791931,-0.04173036,-0.00445407,0.00005350,0.00000209,0.0000
 9401,0.00001678,-0.00000071,0.00001552,-0.00000314,-0.00000434,0.00000
 939,0.00000736,0.00003297,0.00001312,-0.00000440,0.00001735,0.00002074
 ,-0.00001386,0.00000054,-0.00003700,-0.00001877,-0.00009460,-0.0000096
 8,-0.00002594,-0.00001147,0.00003771,0.00059619,0.00041828,-0.00182002
 ,0.00038391,0.00050330,-0.00024181,0.00035582,0.02296906,-0.00032463,0
 .06273764,-0.00035492,0.00101998,-0.00047874,0.00117877,-0.00057966,0.
 00016123,-0.00018531,0.00013691,-0.00015049,-0.00001724,0.00003813,0.0
 0004460,-0.00000283,0.00000558,-0.00000536,-0.00000136,0.00000303,0.00
 000287,0.00000415,0.00000625,-0.00000194,0.00001780,-0.00001268,-0.000
 03986,-0.00000012,-0.00001346,0.00000923,0.00005639,0.00000850,-0.0000
 3182,0.00003301,-0.00026632,0.00007265,-0.00011339,0.00006005,0.000012
 50,0.00004124,-0.00002668,0.00003528,0.00251239,-0.00925460,0.00128500
 ,0.02384937,-0.32375925,-0.01039685,-0.00317228,-0.01055033,-0.0017942
 7,-0.00001944,-0.00005990,-0.00011316,-0.00002090,0.00000235,0.0000051
 8,0.00000067,-0.00000302,-0.00000097,0.00000119,0.00001153,0.00000571,
 0.00000240,0.00000780,0.00000540,-0.00000636,-0.00000335,-0.00001124,0
 .00000153,0.00001129,0.00000611,0.00000133,0.00001525,-0.00000125,0.00
 034876,0.00086943,0.00175699,0.00004409,0.00073704,0.00004185,0.000879
 98,-0.00523309,0.00023635,-0.02389883,0.34547356,0.00112860,-0.0011353
 7,0.00051513,-0.00198226,0.00163448,0.00051397,0.00046890,-0.00050971,
 -0.00012527,0.00000367,-0.00016476,-0.00003260,-0.00000550,0.00001720,
 -0.00003063,0.00000752,-0.00000738,-0.00000628,0.00002447,-0.00001941,
 0.00001150,-0.00000355,0.00000570,0.00001946,-0.00002498,-0.00002352,0
 .00007518,0.00004640,-0.00005381,-0.00014195,-0.00003950,-0.00057966,0
 .00021780,-0.00008871,0.00009918,-0.00021650,0.00013510,0.00002759,0.0
 0033647,-0.00436227,0.03139641,0.00047034,0.00291705,-0.00825427,-0.05
 166047,-0.00303439,-0.01464672,-0.00100343,-0.00002196,0.00012452,0.00
 031686,0.00004889,0.00003015,-0.00004745,0.00000108,0.00000611,-0.0000
 0651,-0.00000104,-0.00000642,-0.00000186,-0.00000326,-0.00000784,0.000
 00672,0.00001684,0.00000422,-0.00000565,-0.00001603,-0.00003996,-0.000
 02628,-0.00003492,-0.00002949,0.00002128,-0.00064817,0.00192396,-0.005
 65105,0.00009886,-0.00022003,0.00149687,0.00099385,-0.02150357,0.00037
 383,0.00521560,0.01086450,0.05518171,-0.00033529,-0.00106423,0.0013165
 7,0.00064345,0.00061565,-0.00122651,-0.00011417,-0.00055832,0.00064906
 ,0.00029250,0.00009798,-0.00017387,0.00011055,-0.00004328,0.00008108,-
 0.00005000,-0.00002516,0.00003299,-0.00012654,-0.00001494,-0.00000496,
 -0.00001351,0.00030034,0.00018300,-0.00007729,0.00031005,0.00066043,-0
 .00101298,-0.00231575,0.00302146,-0.00875129,0.00499620,0.00207527,0.0
 0225396,0.00053034,-0.00308100,-0.00193561,0.00147369,-0.00211391,0.00
 169620,0.00037816,0.00055376,0.00046246,-0.03102159,0.00020481,-0.0634
 3713,-0.00997841,-0.00299067,-0.00001036,0.00006579,-0.00004434,-0.000
 01077,0.00001998,-0.00001574,0.00000047,0.00002317,0.00001271,-0.00000
 457,-0.00008591,-0.00003161,0.00000391,-0.00004662,-0.00006545,-0.0002
 1911,-0.00010855,0.00030077,-0.00005108,0.00039458,-0.00002863,0.00006
 414,-0.00017064,-0.00033117,-0.00041361,0.00054643,-0.00049953,0.00004
 789,0.00010715,0.00053003,0.00053593,-0.00015589,0.00074223,-0.0052240
 2,-0.00111611,-0.00176583,0.07245163,0.00205273,-0.00219618,0.00604181
 ,-0.00182064,0.00475052,-0.00593012,-0.00039817,-0.00337196,0.00347179
 ,0.00133823,0.00056393,-0.00149186,0.00039842,-0.00041310,0.00077264,-
 0.00007234,-0.00011798,-0.00006764,-0.00058684,-0.00005482,-0.00017293
 ,-0.00106527,0.00059346,0.00106357,-0.00187226,0.00158951,-0.00333264,
 -0.00668701,0.00339227,0.00526352,0.00511305,0.01323560,-0.00182962,0.
 00978348,-0.00744388,0.00423608,-0.00173008,0.00044260,-0.00913514,0.0
 0016258,0.00219582,-0.00067908,-0.01024975,-0.00169826,-0.00511797,-0.
 00705937,-0.29135433,0.00178854,-0.00004548,0.00048776,0.00002262,-0.0
 0006920,0.00005764,-0.00011963,-0.00002380,0.00013939,0.00009688,-0.00
 001117,-0.00042280,-0.00022864,-0.00000289,-0.00023957,-0.00036904,0.0
 0157726,0.00067988,-0.00040773,0.00030690,0.00113433,-0.00007048,0.000
 46519,-0.00056359,-0.00049118,0.00045325,-0.00015529,0.00034494,0.0002
 1884,-0.00061075,0.00085504,0.00112466,0.00058072,0.00064754,0.0023583
 6,0.00176329,0.00128832,0.00295238,0.28986430,-0.00013837,0.00146849,-
 0.00172646,-0.00006023,-0.00140055,-0.00037200,0.00002141,0.00075827,-
 0.00046986,-0.00011167,-0.00013269,0.00025468,-0.00007409,0.00011231,-
 0.00057092,-0.00007655,0.00002759,0.00023312,0.00016439,0.00000141,0.0
 0023305,0.00006588,-0.00007050,-0.00046916,0.00109825,-0.00064548,-0.0
 0052563,0.00198506,0.00203221,-0.00515028,0.00054214,-0.00601344,-0.00
 408046,-0.00333693,0.00204501,-0.00275119,0.00088753,0.00019538,0.0031
 1155,0.00021144,-0.00122116,0.00032947,0.00297199,-0.01118896,0.000508
 57,-0.00314619,-0.00623731,-0.06771775,-0.00008808,-0.00012725,-0.0001
 0742,0.00001443,-0.00001895,0.00001230,0.00002078,-0.00003825,-0.00006
 318,-0.00001867,0.00009980,0.00011142,0.00001325,0.00001366,0.00003374
 ,-0.00001411,-0.00012586,0.00011337,-0.00021844,-0.00045935,0.00015919
 ,-0.00009059,0.00044824,-0.00009145,-0.00060306,0.00028945,-0.00017946
 ,0.00001225,0.00035395,-0.00013851,0.00037581,0.00076563,0.00007187,-0
 .00291616,-0.00085450,-0.00064948,0.00379033,0.01018736,0.07213690,0.0
 0137135,0.00058683,0.00394871,-0.00256245,0.00123229,-0.00000630,0.000
 31729,-0.00053081,0.00046554,0.00015369,0.00000655,-0.00005395,0.00003
 258,-0.00000945,-0.00015186,-0.00004470,0.00000194,0.00008668,-0.00000
 311,0.00000257,0.00007776,-0.00000327,0.00001812,-0.00000279,-0.000122
 85,0.00003476,-0.00000948,0.00014322,-0.00030480,0.00002624,-0.0003802
 2,-0.00059132,0.00013407,-0.00012025,0.00007413,-0.00017087,0.00006800
 ,0.00002921,0.00011139,-0.00581839,-0.00400385,-0.00088415,-0.00418596
 ,0.01355074,-0.02904384,-0.07293686,0.02730171,-0.06896659,-0.00005339
 ,-0.00009348,0.00005933,0.00002992,0.00002334,-0.00003778,0.00000750,-
 0.00000313,-0.00001200,-0.00000746,-0.00001423,0.00000863,-0.00000226,
 -0.00000597,0.00000336,0.00010310,0.00003574,0.00010742,-0.00000460,0.
 00001836,-0.00001970,-0.00000049,0.00003560,-0.00000544,0.00004519,-0.
 00000435,0.00022406,-0.00018321,0.00083541,-0.00170661,0.00021445,0.00
 102094,0.00035472,0.00132671,-0.00020347,0.00026751,-0.00019223,0.0011
 5342,0.00205121,0.07203941,-0.00003253,-0.00042872,-0.00235967,0.00042
 939,-0.00068686,0.00063907,0.00003918,0.00032028,-0.00036706,-0.000148
 57,-0.00000973,0.00007068,-0.00003599,0.00002387,0.00012487,0.00004409
 ,-0.00000702,-0.00008406,0.00001831,-0.00000427,-0.00007012,0.00003314
 ,-0.00001433,-0.00002668,0.00015370,-0.00003142,-0.00009112,0.00015760
 ,-0.00012682,-0.00040743,-0.00086300,-0.00277530,0.00003238,-0.0005478
 8,0.00019276,-0.00044696,0.00013471,0.00009194,0.00047937,-0.00211419,
 -0.00114510,-0.00051847,-0.00096274,0.00551349,-0.01288681,0.02755581,
 -0.10623313,0.11965193,-0.00000139,-0.00001231,0.00005238,-0.00000357,
 -0.00000099,0.00002298,-0.00000534,0.00000524,0.00001101,0.00000264,0.
 00002175,0.00000789,-0.00000299,0.00000893,0.00000226,-0.00004507,0.00
 001006,0.00006687,-0.00002156,-0.00007849,0.00003159,0.00000620,0.0000
 5662,0.00000132,-0.00017027,0.00001486,-0.00007207,-0.00022031,0.00042
 520,-0.00059480,0.00043690,0.00035189,0.00033785,-0.00008983,-0.000162
 97,-0.00083414,0.00858215,-0.00223560,0.03356704,-0.02589409,0.1012596
 3,-0.00023656,-0.00056563,-0.00177542,0.00121526,-0.00063777,0.0000803
 5,-0.00017144,0.00019940,0.00009400,0.00005268,0.00001939,0.00004992,-
 0.00000844,0.00001343,-0.00017717,-0.00004034,-0.00000145,0.00010114,0
 .00001783,-0.00000967,0.00008643,0.00003706,-0.00000412,-0.00004331,0.
 00006631,-0.00004010,0.00002764,0.00006456,-0.00002710,-0.00017885,-0.
 00036662,-0.00121959,0.00017777,-0.00037141,0.00023683,-0.00014427,0.0
 0013062,-0.00006426,0.00031931,-0.00061032,-0.00089138,0.00097693,-0.0
 0188105,0.00122640,-0.00516730,-0.06753522,0.11646181,-0.35887487,-0.0
 0005422,0.00000849,-0.00004289,-0.00000875,-0.00000766,-0.00000199,0.0
 0000797,-0.00000048,-0.00002251,-0.00000172,0.00001319,0.00000950,0.00
 000498,-0.00000369,0.00001476,0.00002318,0.00000558,-0.00004488,0.0000
 0052,-0.00001625,0.00003154,-0.00001472,0.00005496,0.00000467,-0.00013
 013,-0.00004086,0.00008145,0.00019877,0.00023326,-0.00005749,0.0007048
 5,0.00015623,0.00092644,0.00039499,-0.00023661,0.00015834,0.00226721,0
 .00079000,0.00332123,0.07524871,-0.12613616,0.37551338,-0.00882839,0.0
 0089374,0.00418517,0.00187148,-0.00039401,-0.00562312,-0.00134348,0.00
 060415,-0.00029183,0.00002178,-0.00008835,0.00017452,0.00008355,-0.000
 01320,0.00002881,-0.00004612,0.00000977,0.00001512,-0.00006946,0.00000
 057,-0.00003141,0.00008731,-0.00003147,-0.00002188,-0.00002963,0.00004
 365,0.00036610,0.00115422,-0.00085546,-0.00028872,-0.00066245,-0.00137
 490,0.00046559,-0.00081835,0.00049515,-0.00037216,-0.00019079,0.000130
 54,0.00036726,-0.00007096,0.00135112,0.00015200,-0.03219019,0.00760426
 ,0.01754525,-0.18606095,0.06795434,0.12951206,0.00018029,0.00025117,-0
 .00009028,0.00007828,0.00002157,-0.00002979,0.00000669,-0.00000211,0.0
 0000385,-0.00000144,-0.00000035,0.00003413,-0.00002105,0.00001047,-0.0
 0000060,-0.00046871,-0.00059237,0.00035132,-0.00002167,0.00003638,-0.0
 0002516,-0.00001319,0.00005749,0.00004349,-0.00006477,-0.00008336,0.00
 023314,0.00016384,-0.00030904,0.00055427,-0.00370316,-0.00259162,-0.00
 281850,0.00174264,0.00013949,0.00065802,0.00341648,0.00223553,-0.00333
 300,0.01076929,-0.00643451,-0.00900456,0.21502890,0.00404311,-0.007425
 84,0.00201302,-0.00481863,0.00290555,0.00173968,0.00199722,-0.00130392
 ,0.00118290,0.00028185,0.00016546,-0.00039895,0.00011945,-0.00010844,0
 .00000381,-0.00004665,-0.00003803,0.00004897,-0.00010496,-0.00000669,0
 .00009757,-0.00010549,0.00019655,0.00044424,0.00044881,0.00019612,0.00
 068041,0.00019378,-0.00057131,0.00056882,-0.00085377,0.00084374,-0.000
 07051,0.00056147,-0.00022124,-0.00002898,-0.00107260,0.00038191,-0.000
 69345,0.00156538,-0.00051224,-0.00029233,-0.01009049,0.00563391,0.0089
 9112,0.07058541,-0.09426501,-0.06139701,-0.00005995,-0.00002191,0.0004
 1073,0.00006391,0.00005051,-0.00012768,0.00000060,0.00003685,0.0000008
 9,-0.00001830,-0.00010118,-0.00005886,-0.00000973,-0.00005899,-0.00007
 947,-0.00088955,-0.00034867,0.00037942,-0.00000978,0.00008967,-0.00003
 069,0.00003370,-0.00003023,0.00007334,0.00040039,-0.00006545,0.0000357
 8,-0.00000667,-0.00001595,-0.00012096,-0.00279574,-0.00094277,-0.00155
 518,-0.00135272,-0.00024466,0.00061373,0.02531136,-0.01059289,-0.02383
 154,-0.01430273,0.00565651,0.01048381,-0.06906866,0.10071866,0.0197388
 5,-0.00519020,0.00986116,-0.02642307,0.01548968,-0.00949391,0.00553379
 ,-0.00710735,0.00707968,0.00210577,0.00041109,-0.00174409,0.00038660,-
 0.00031435,-0.00173031,-0.00049387,-0.00004417,0.00106621,-0.00011161,
 -0.00002529,0.00106420,-0.00066780,0.00055947,0.00083933,-0.00001835,0
 .00053500,-0.00023045,-0.00098580,0.00031891,0.00079924,0.00033834,0.0
 0360595,-0.00164833,0.00197250,-0.00101102,0.00098740,-0.00066504,0.00
 004088,-0.00179787,0.00132199,-0.00058333,0.00061996,-0.00215863,0.005
 97264,0.01403886,0.12280612,-0.05368578,-0.17705161,-0.00086819,-0.000
 52723,0.00044942,0.00015341,0.00019248,-0.00047666,0.00005864,0.000035
 82,-0.00015053,-0.00011238,-0.00038476,-0.00012430,0.00002211,-0.00019
 584,-0.00011406,0.00057351,0.00044582,0.00038771,0.00001090,0.00003489
 ,0.00004479,0.00002046,0.00013163,-0.00001046,0.00053130,0.00003656,-0
 .00055236,0.00071070,0.00000058,-0.00109065,-0.00412935,-0.00160015,-0
 .00170746,-0.00073931,-0.00042838,-0.00011009,-0.00404851,-0.00742697,
 0.00443275,0.01789602,-0.01020395,-0.01544386,-0.13275909,0.06091739,0
 .17180628\\-0.00001053,-0.00001259,0.00000700,0.00001539,0.00001450,0.
 00001473,-0.00000050,-0.00000494,-0.00001413,-0.00000516,0.00001490,-0
 .00000563,0.00001427,-0.00000363,-0.00000451,-0.00000126,-0.00000213,0
 .00000608,-0.00000935,0.00000156,-0.00000068,0.00000088,-0.00001013,0.
 00000165,-0.00000938,-0.00000742,-0.00000318,0.00000372,-0.00001060,0.
 00000752,0.00000765,-0.00001479,0.00000752,-0.00000637,0.00000621,-0.0
 0000062,0.00000012,0.00000877,-0.00000026,0.00000405,-0.00001339,0.000
 00087,0.00000764,0.00001614,0.00000977,0.00000450,-0.00002002,-0.00001
 719,-0.00000759,0.00000437,0.00000475,0.00000132,0.00000023,-0.0000025
 0,-0.00000163,-0.00000215,-0.00000428,0.00000242,0.00000105,-0.0000017
 4,0.00000417,0.00000124,-0.00000486,-0.00000018,-0.00000418,0.00000168
 ,-0.00000102,-0.00000207,-0.00000125,-0.00000293,0.00000002,-0.0000021
 6,-0.00000289,0.00000105,-0.00000476,-0.00000252,0.00000277,0.00000107
 ,-0.00000169,-0.00000354,0.00000081,-0.00000123,0.00000023,-0.00000098
 ,-0.00000448,0.00002590,-0.00000359,0.00000031,0.00000443,0.00000388,0
 .00000229,0.00000820,0.00000498\\\@


 THERE ARE PEOPLE SO ADDICTED TO EXAGERATING THEY
 CAN'T TELL THE TRUTH WITHOUT LYING. -- FORTUNE COOKIE
 Job cpu time:       0 days  1 hours 38 minutes 34.0 seconds.
 File lengths (MBytes):  RWF=    349 Int=      0 D2E=      0 Chk=     10 Scr=      1
 Normal termination of Gaussian 09 at Sat Jul 24 01:55:20 2021.
