 Entering Gaussian System, Link 0=g09
 Input=opt_freq-conf-214.com
 Output=opt_freq-conf-214.log
 Initial command:
 /aerosol/software/g09/l1.exe "/scratch/nicole/10467/Gau-72217.inp" -scrdir="/scratch/nicole/10467/"
 Entering Link 1 = /aerosol/software/g09/l1.exe PID=     72222.
  
 Copyright (c) 1988,1990,1992,1993,1995,1998,2003,2009,2013,
            Gaussian, Inc.  All Rights Reserved.
  
 This is part of the Gaussian(R) 09 program.  It is based on
 the Gaussian(R) 03 system (copyright 2003, Gaussian, Inc.),
 the Gaussian(R) 98 system (copyright 1998, Gaussian, Inc.),
 the Gaussian(R) 94 system (copyright 1995, Gaussian, Inc.),
 the Gaussian 92(TM) system (copyright 1992, Gaussian, Inc.),
 the Gaussian 90(TM) system (copyright 1990, Gaussian, Inc.),
 the Gaussian 88(TM) system (copyright 1988, Gaussian, Inc.),
 the Gaussian 86(TM) system (copyright 1986, Carnegie Mellon
 University), and the Gaussian 82(TM) system (copyright 1983,
 Carnegie Mellon University). Gaussian is a federally registered
 trademark of Gaussian, Inc.
  
 This software contains proprietary and confidential information,
 including trade secrets, belonging to Gaussian, Inc.
  
 This software is provided under written license and may be
 used, copied, transmitted, or stored only in accord with that
 written license.
  
 The following legend is applicable only to US Government
 contracts under FAR:
  
                    RESTRICTED RIGHTS LEGEND
  
 Use, reproduction and disclosure by the US Government is
 subject to restrictions as set forth in subparagraphs (a)
 and (c) of the Commercial Computer Software - Restricted
 Rights clause in FAR 52.227-19.
  
 Gaussian, Inc.
 340 Quinnipiac St., Bldg. 40, Wallingford CT 06492
  
  
 ---------------------------------------------------------------
 Warning -- This program may not be used in any manner that
 competes with the business of Gaussian, Inc. or will provide
 assistance to any competitor of Gaussian, Inc.  The licensee
 of this program is prohibited from giving any competitor of
 Gaussian, Inc. access to this program.  By using this program,
 the user acknowledges that Gaussian, Inc. is engaged in the
 business of creating and licensing software in the field of
 computational chemistry and represents and warrants to the
 licensee that it is not a competitor of Gaussian, Inc. and that
 it will not use this program in any manner prohibited above.
 ---------------------------------------------------------------
  

 Cite this work as:
 Gaussian 09, Revision D.01,
 M. J. Frisch, G. W. Trucks, H. B. Schlegel, G. E. Scuseria, 
 M. A. Robb, J. R. Cheeseman, G. Scalmani, V. Barone, B. Mennucci, 
 G. A. Petersson, H. Nakatsuji, M. Caricato, X. Li, H. P. Hratchian, 
 A. F. Izmaylov, J. Bloino, G. Zheng, J. L. Sonnenberg, M. Hada, 
 M. Ehara, K. Toyota, R. Fukuda, J. Hasegawa, M. Ishida, T. Nakajima, 
 Y. Honda, O. Kitao, H. Nakai, T. Vreven, J. A. Montgomery, Jr., 
 J. E. Peralta, F. Ogliaro, M. Bearpark, J. J. Heyd, E. Brothers, 
 K. N. Kudin, V. N. Staroverov, T. Keith, R. Kobayashi, J. Normand, 
 K. Raghavachari, A. Rendell, J. C. Burant, S. S. Iyengar, J. Tomasi, 
 M. Cossi, N. Rega, J. M. Millam, M. Klene, J. E. Knox, J. B. Cross, 
 V. Bakken, C. Adamo, J. Jaramillo, R. Gomperts, R. E. Stratmann, 
 O. Yazyev, A. J. Austin, R. Cammi, C. Pomelli, J. W. Ochterski, 
 R. L. Martin, K. Morokuma, V. G. Zakrzewski, G. A. Voth, 
 P. Salvador, J. J. Dannenberg, S. Dapprich, A. D. Daniels, 
 O. Farkas, J. B. Foresman, J. V. Ortiz, J. Cioslowski, 
 and D. J. Fox, Gaussian, Inc., Wallingford CT, 2013.
 
 ******************************************
 Gaussian 09:  ES64L-G09RevD.01 24-Apr-2013
                24-Jul-2021 
 ******************************************
 %mem=2gb
 %nproc=4
 Will use up to    4 processors via shared memory.
 %chk=conf-214.chk
 ----------------------------------------------------------------------
 # B3LYP/6-31G(d,p) EmpiricalDispersion=GD3BJ opt=calcfc freq=noraman n
 osymm integral(ultrafinegrid)
 ----------------------------------------------------------------------
 1/10=4,14=-1,18=20,19=15,26=4,38=1/1,3;
 2/9=110,12=2,15=1,17=6,18=5,40=1/2;
 3/5=1,6=6,7=101,11=2,16=1,25=1,30=1,71=2,74=-5,75=-5,124=41,140=1/1,2,3;
 4//1;
 5/5=2,38=5/2;
 8/6=4,10=90,11=11/1;
 11/6=1,8=1,9=11,15=111,16=1,31=1/1,2,10;
 10/6=1,13=1,31=1/2;
 6/7=2,8=2,9=2,10=2,28=1/1;
 7/10=1,18=20,25=1,30=1/1,2,3,16;
 1/10=4,14=-1,18=20,19=15,26=4/3(2);
 2/9=110,15=1/2;
 99//99;
 2/9=110,15=1/2;
 3/5=1,6=6,7=101,11=2,16=1,25=1,30=1,71=1,74=-5,75=-5,124=41/1,2,3;
 4/5=5,16=3,69=1/1;
 5/5=2,38=5/2;
 7/30=1/1,2,3,16;
 1/14=-1,18=20,19=15,26=4/3(-5);
 2/9=110,15=1/2;
 6/7=2,8=2,9=2,10=2,19=2,28=1/1;
 99/9=1/99;
 ------------------------------------------------------------
 Candidate Structure: Conf:214 OPT and FREQ calc in gas phase
 ------------------------------------------------------------
 Symbolic Z-matrix:
 Charge =  1 Multiplicity = 1
 O                    -1.0496   -0.53171  -1.26429 
 C                    -1.10935  -0.17362  -0.09274 
 N                    -0.07815  -0.35767   0.78573 
 C                     1.02197  -1.24123   0.46697 
 C                     0.99565  -2.41586   1.43875 
 O                     1.65977  -3.52102   1.03213 
 O                     0.4677   -2.37978   2.51493 
 C                     2.39123  -0.554     0.56355 
 C                     2.65125   0.44626  -0.52716 
 C                     1.96614   0.8207   -1.6442 
 N                     2.65836   1.78482  -2.35484 
 C                     3.75716   1.98695  -1.66937 
 N                     3.80598   1.20777  -0.55842 
 C                    -2.2992    0.57826   0.4719 
 C                    -3.58898   0.26692  -0.27238 
 N                    -4.74081   1.0379    0.26778 
 H                    -0.28411  -0.2903    1.77378 
 H                     0.86987  -1.58714  -0.55552 
 H                     1.993    -3.39268   0.13839 
 H                     2.48575  -0.07101   1.5373 
 H                     3.17116  -1.32253   0.52594 
 H                     0.99862   0.45657  -1.9497 
 H                     4.54429   2.67546  -1.92422 
 H                     4.54554   1.18272   0.12319 
 H                    -2.08898   1.64809   0.38756 
 H                    -2.4075    0.3501    1.53438 
 H                    -3.79994  -0.79962  -0.20382 
 H                    -3.44895   0.49931  -1.32737 
 H                    -4.57879   2.04215   0.19387 
 H                    -5.60488   0.83192  -0.23548 
 H                    -4.90422   0.82239   1.25117 
 

 GradGradGradGradGradGradGradGradGradGradGradGradGradGradGradGradGradGrad
 Berny optimization.
 Initialization pass.
                           ----------------------------
                           !    Initial Parameters    !
                           ! (Angstroms and Degrees)  !
 --------------------------                            --------------------------
 ! Name  Definition              Value          Derivative Info.                !
 --------------------------------------------------------------------------------
 ! R1    R(1,2)                  1.2265         calculate D2E/DX2 analytically  !
 ! R2    R(2,3)                  1.3671         calculate D2E/DX2 analytically  !
 ! R3    R(2,14)                 1.5165         calculate D2E/DX2 analytically  !
 ! R4    R(3,4)                  1.4466         calculate D2E/DX2 analytically  !
 ! R5    R(3,17)                 1.0115         calculate D2E/DX2 analytically  !
 ! R6    R(4,5)                  1.5247         calculate D2E/DX2 analytically  !
 ! R7    R(4,8)                  1.5351         calculate D2E/DX2 analytically  !
 ! R8    R(4,18)                 1.0901         calculate D2E/DX2 analytically  !
 ! R9    R(5,6)                  1.3519         calculate D2E/DX2 analytically  !
 ! R10   R(5,7)                  1.1993         calculate D2E/DX2 analytically  !
 ! R11   R(6,19)                 0.9624         calculate D2E/DX2 analytically  !
 ! R12   R(8,9)                  1.5026         calculate D2E/DX2 analytically  !
 ! R13   R(8,20)                 1.0911         calculate D2E/DX2 analytically  !
 ! R14   R(8,21)                 1.0956         calculate D2E/DX2 analytically  !
 ! R15   R(9,10)                 1.3628         calculate D2E/DX2 analytically  !
 ! R16   R(9,13)                 1.3836         calculate D2E/DX2 analytically  !
 ! R17   R(10,11)                1.3834         calculate D2E/DX2 analytically  !
 ! R18   R(10,22)                1.078          calculate D2E/DX2 analytically  !
 ! R19   R(11,12)                1.3108         calculate D2E/DX2 analytically  !
 ! R20   R(12,13)                1.3578         calculate D2E/DX2 analytically  !
 ! R21   R(12,23)                1.0764         calculate D2E/DX2 analytically  !
 ! R22   R(13,24)                1.0061         calculate D2E/DX2 analytically  !
 ! R23   R(14,15)                1.5213         calculate D2E/DX2 analytically  !
 ! R24   R(14,25)                1.0935         calculate D2E/DX2 analytically  !
 ! R25   R(14,26)                1.0921         calculate D2E/DX2 analytically  !
 ! R26   R(15,16)                1.4876         calculate D2E/DX2 analytically  !
 ! R27   R(15,27)                1.0894         calculate D2E/DX2 analytically  !
 ! R28   R(15,28)                1.0893         calculate D2E/DX2 analytically  !
 ! R29   R(16,29)                1.0199         calculate D2E/DX2 analytically  !
 ! R30   R(16,30)                1.0209         calculate D2E/DX2 analytically  !
 ! R31   R(16,31)                1.0199         calculate D2E/DX2 analytically  !
 ! A1    A(1,2,3)              122.5296         calculate D2E/DX2 analytically  !
 ! A2    A(1,2,14)             122.5885         calculate D2E/DX2 analytically  !
 ! A3    A(3,2,14)             114.7914         calculate D2E/DX2 analytically  !
 ! A4    A(2,3,4)              120.9497         calculate D2E/DX2 analytically  !
 ! A5    A(2,3,17)             117.7175         calculate D2E/DX2 analytically  !
 ! A6    A(4,3,17)             114.253          calculate D2E/DX2 analytically  !
 ! A7    A(3,4,5)              108.4804         calculate D2E/DX2 analytically  !
 ! A8    A(3,4,8)              113.0197         calculate D2E/DX2 analytically  !
 ! A9    A(3,4,18)             107.1214         calculate D2E/DX2 analytically  !
 ! A10   A(5,4,8)              108.6745         calculate D2E/DX2 analytically  !
 ! A11   A(5,4,18)             110.5452         calculate D2E/DX2 analytically  !
 ! A12   A(8,4,18)             108.9981         calculate D2E/DX2 analytically  !
 ! A13   A(4,5,6)              115.4415         calculate D2E/DX2 analytically  !
 ! A14   A(4,5,7)              123.8043         calculate D2E/DX2 analytically  !
 ! A15   A(6,5,7)              120.7138         calculate D2E/DX2 analytically  !
 ! A16   A(5,6,19)             109.8994         calculate D2E/DX2 analytically  !
 ! A17   A(4,8,9)              113.9978         calculate D2E/DX2 analytically  !
 ! A18   A(4,8,20)             109.366          calculate D2E/DX2 analytically  !
 ! A19   A(4,8,21)             108.5884         calculate D2E/DX2 analytically  !
 ! A20   A(9,8,20)             109.7652         calculate D2E/DX2 analytically  !
 ! A21   A(9,8,21)             108.5944         calculate D2E/DX2 analytically  !
 ! A22   A(20,8,21)            106.2301         calculate D2E/DX2 analytically  !
 ! A23   A(8,9,10)             133.699          calculate D2E/DX2 analytically  !
 ! A24   A(8,9,13)             121.8173         calculate D2E/DX2 analytically  !
 ! A25   A(10,9,13)            104.467          calculate D2E/DX2 analytically  !
 ! A26   A(9,10,11)            111.1605         calculate D2E/DX2 analytically  !
 ! A27   A(9,10,22)            126.2051         calculate D2E/DX2 analytically  !
 ! A28   A(11,10,22)           122.6126         calculate D2E/DX2 analytically  !
 ! A29   A(10,11,12)           104.9693         calculate D2E/DX2 analytically  !
 ! A30   A(11,12,13)           111.6857         calculate D2E/DX2 analytically  !
 ! A31   A(11,12,23)           126.0041         calculate D2E/DX2 analytically  !
 ! A32   A(13,12,23)           122.3101         calculate D2E/DX2 analytically  !
 ! A33   A(9,13,12)            107.7173         calculate D2E/DX2 analytically  !
 ! A34   A(9,13,24)            125.7679         calculate D2E/DX2 analytically  !
 ! A35   A(12,13,24)           126.5148         calculate D2E/DX2 analytically  !
 ! A36   A(2,14,15)            112.4305         calculate D2E/DX2 analytically  !
 ! A37   A(2,14,25)            107.7876         calculate D2E/DX2 analytically  !
 ! A38   A(2,14,26)            109.6605         calculate D2E/DX2 analytically  !
 ! A39   A(15,14,25)           108.9935         calculate D2E/DX2 analytically  !
 ! A40   A(15,14,26)           110.4352         calculate D2E/DX2 analytically  !
 ! A41   A(25,14,26)           107.3665         calculate D2E/DX2 analytically  !
 ! A42   A(14,15,16)           111.8848         calculate D2E/DX2 analytically  !
 ! A43   A(14,15,27)           109.4968         calculate D2E/DX2 analytically  !
 ! A44   A(14,15,28)           108.734          calculate D2E/DX2 analytically  !
 ! A45   A(16,15,27)           109.5496         calculate D2E/DX2 analytically  !
 ! A46   A(16,15,28)           109.9155         calculate D2E/DX2 analytically  !
 ! A47   A(27,15,28)           107.1398         calculate D2E/DX2 analytically  !
 ! A48   A(15,16,29)           111.1616         calculate D2E/DX2 analytically  !
 ! A49   A(15,16,30)           111.825          calculate D2E/DX2 analytically  !
 ! A50   A(15,16,31)           111.386          calculate D2E/DX2 analytically  !
 ! A51   A(29,16,30)           107.301          calculate D2E/DX2 analytically  !
 ! A52   A(29,16,31)           107.6609         calculate D2E/DX2 analytically  !
 ! A53   A(30,16,31)           107.2807         calculate D2E/DX2 analytically  !
 ! D1    D(1,2,3,4)            -13.7324         calculate D2E/DX2 analytically  !
 ! D2    D(1,2,3,17)          -162.6151         calculate D2E/DX2 analytically  !
 ! D3    D(14,2,3,4)           169.6455         calculate D2E/DX2 analytically  !
 ! D4    D(14,2,3,17)           20.7628         calculate D2E/DX2 analytically  !
 ! D5    D(1,2,14,15)           27.4281         calculate D2E/DX2 analytically  !
 ! D6    D(1,2,14,25)          -92.7184         calculate D2E/DX2 analytically  !
 ! D7    D(1,2,14,26)          150.6984         calculate D2E/DX2 analytically  !
 ! D8    D(3,2,14,15)         -155.952          calculate D2E/DX2 analytically  !
 ! D9    D(3,2,14,25)           83.9015         calculate D2E/DX2 analytically  !
 ! D10   D(3,2,14,26)          -32.6817         calculate D2E/DX2 analytically  !
 ! D11   D(2,3,4,5)           -114.4931         calculate D2E/DX2 analytically  !
 ! D12   D(2,3,4,8)            124.9223         calculate D2E/DX2 analytically  !
 ! D13   D(2,3,4,18)             4.8568         calculate D2E/DX2 analytically  !
 ! D14   D(17,3,4,5)            35.3894         calculate D2E/DX2 analytically  !
 ! D15   D(17,3,4,8)           -85.1953         calculate D2E/DX2 analytically  !
 ! D16   D(17,3,4,18)          154.7393         calculate D2E/DX2 analytically  !
 ! D17   D(3,4,5,6)            159.6472         calculate D2E/DX2 analytically  !
 ! D18   D(3,4,5,7)            -22.6568         calculate D2E/DX2 analytically  !
 ! D19   D(8,4,5,6)            -77.1104         calculate D2E/DX2 analytically  !
 ! D20   D(8,4,5,7)            100.5856         calculate D2E/DX2 analytically  !
 ! D21   D(18,4,5,6)            42.4697         calculate D2E/DX2 analytically  !
 ! D22   D(18,4,5,7)          -139.8342         calculate D2E/DX2 analytically  !
 ! D23   D(3,4,8,9)            -70.9751         calculate D2E/DX2 analytically  !
 ! D24   D(3,4,8,20)            52.3124         calculate D2E/DX2 analytically  !
 ! D25   D(3,4,8,21)           167.8289         calculate D2E/DX2 analytically  !
 ! D26   D(5,4,8,9)            168.5509         calculate D2E/DX2 analytically  !
 ! D27   D(5,4,8,20)           -68.1617         calculate D2E/DX2 analytically  !
 ! D28   D(5,4,8,21)            47.3549         calculate D2E/DX2 analytically  !
 ! D29   D(18,4,8,9)            48.0098         calculate D2E/DX2 analytically  !
 ! D30   D(18,4,8,20)          171.2972         calculate D2E/DX2 analytically  !
 ! D31   D(18,4,8,21)          -73.1862         calculate D2E/DX2 analytically  !
 ! D32   D(4,5,6,19)            -4.2457         calculate D2E/DX2 analytically  !
 ! D33   D(7,5,6,19)           177.9811         calculate D2E/DX2 analytically  !
 ! D34   D(4,8,9,10)            -5.0285         calculate D2E/DX2 analytically  !
 ! D35   D(4,8,9,13)           176.7125         calculate D2E/DX2 analytically  !
 ! D36   D(20,8,9,10)         -128.0989         calculate D2E/DX2 analytically  !
 ! D37   D(20,8,9,13)           53.642          calculate D2E/DX2 analytically  !
 ! D38   D(21,8,9,10)          116.1642         calculate D2E/DX2 analytically  !
 ! D39   D(21,8,9,13)          -62.0949         calculate D2E/DX2 analytically  !
 ! D40   D(8,9,10,11)         -178.6068         calculate D2E/DX2 analytically  !
 ! D41   D(8,9,10,22)            3.0695         calculate D2E/DX2 analytically  !
 ! D42   D(13,9,10,11)          -0.1345         calculate D2E/DX2 analytically  !
 ! D43   D(13,9,10,22)        -178.4582         calculate D2E/DX2 analytically  !
 ! D44   D(8,9,13,12)          178.7672         calculate D2E/DX2 analytically  !
 ! D45   D(8,9,13,24)           -1.1857         calculate D2E/DX2 analytically  !
 ! D46   D(10,9,13,12)           0.067          calculate D2E/DX2 analytically  !
 ! D47   D(10,9,13,24)        -179.8859         calculate D2E/DX2 analytically  !
 ! D48   D(9,10,11,12)           0.1507         calculate D2E/DX2 analytically  !
 ! D49   D(22,10,11,12)        178.5449         calculate D2E/DX2 analytically  !
 ! D50   D(10,11,12,13)         -0.1052         calculate D2E/DX2 analytically  !
 ! D51   D(10,11,12,23)        179.8774         calculate D2E/DX2 analytically  !
 ! D52   D(11,12,13,9)           0.0256         calculate D2E/DX2 analytically  !
 ! D53   D(11,12,13,24)        179.978          calculate D2E/DX2 analytically  !
 ! D54   D(23,12,13,9)        -179.9578         calculate D2E/DX2 analytically  !
 ! D55   D(23,12,13,24)         -0.0055         calculate D2E/DX2 analytically  !
 ! D56   D(2,14,15,16)        -178.4771         calculate D2E/DX2 analytically  !
 ! D57   D(2,14,15,27)          59.8705         calculate D2E/DX2 analytically  !
 ! D58   D(2,14,15,28)         -56.8858         calculate D2E/DX2 analytically  !
 ! D59   D(25,14,15,16)        -59.0308         calculate D2E/DX2 analytically  !
 ! D60   D(25,14,15,27)        179.3167         calculate D2E/DX2 analytically  !
 ! D61   D(25,14,15,28)         62.5605         calculate D2E/DX2 analytically  !
 ! D62   D(26,14,15,16)         58.687          calculate D2E/DX2 analytically  !
 ! D63   D(26,14,15,27)        -62.9654         calculate D2E/DX2 analytically  !
 ! D64   D(26,14,15,28)       -179.7217         calculate D2E/DX2 analytically  !
 ! D65   D(14,15,16,29)         59.7998         calculate D2E/DX2 analytically  !
 ! D66   D(14,15,16,30)        179.7036         calculate D2E/DX2 analytically  !
 ! D67   D(14,15,16,31)        -60.2646         calculate D2E/DX2 analytically  !
 ! D68   D(27,15,16,29)       -178.5782         calculate D2E/DX2 analytically  !
 ! D69   D(27,15,16,30)        -58.6744         calculate D2E/DX2 analytically  !
 ! D70   D(27,15,16,31)         61.3575         calculate D2E/DX2 analytically  !
 ! D71   D(28,15,16,29)        -61.1086         calculate D2E/DX2 analytically  !
 ! D72   D(28,15,16,30)         58.7951         calculate D2E/DX2 analytically  !
 ! D73   D(28,15,16,31)        178.827          calculate D2E/DX2 analytically  !
 --------------------------------------------------------------------------------
 Trust Radius=3.00D-01 FncErr=1.00D-07 GrdErr=1.00D-06
 Number of steps in this run=    167 maximum allowed number of steps=    186.
 GradGradGradGradGradGradGradGradGradGradGradGradGradGradGradGradGradGrad

                          Input orientation:                          
 ---------------------------------------------------------------------
 Center     Atomic      Atomic             Coordinates (Angstroms)
 Number     Number       Type             X           Y           Z
 ---------------------------------------------------------------------
      1          8           0       -1.049596   -0.531706   -1.264292
      2          6           0       -1.109346   -0.173623   -0.092736
      3          7           0       -0.078151   -0.357673    0.785728
      4          6           0        1.021972   -1.241229    0.466970
      5          6           0        0.995651   -2.415864    1.438746
      6          8           0        1.659768   -3.521016    1.032134
      7          8           0        0.467700   -2.379782    2.514929
      8          6           0        2.391234   -0.553995    0.563546
      9          6           0        2.651246    0.446263   -0.527163
     10          6           0        1.966139    0.820698   -1.644203
     11          7           0        2.658360    1.784824   -2.354840
     12          6           0        3.757165    1.986952   -1.669368
     13          7           0        3.805978    1.207767   -0.558422
     14          6           0       -2.299205    0.578256    0.471900
     15          6           0       -3.588979    0.266920   -0.272377
     16          7           0       -4.740810    1.037903    0.267777
     17          1           0       -0.284107   -0.290299    1.773778
     18          1           0        0.869867   -1.587145   -0.555517
     19          1           0        1.992998   -3.392677    0.138393
     20          1           0        2.485753   -0.071009    1.537297
     21          1           0        3.171155   -1.322535    0.525938
     22          1           0        0.998621    0.456573   -1.949698
     23          1           0        4.544285    2.675463   -1.924222
     24          1           0        4.545540    1.182715    0.123195
     25          1           0       -2.088981    1.648089    0.387562
     26          1           0       -2.407496    0.350098    1.534384
     27          1           0       -3.799939   -0.799621   -0.203819
     28          1           0       -3.448949    0.499307   -1.327374
     29          1           0       -4.578785    2.042150    0.193870
     30          1           0       -5.604884    0.831919   -0.235479
     31          1           0       -4.904217    0.822388    1.251171
 ---------------------------------------------------------------------
                    Distance matrix (angstroms):
                    1          2          3          4          5
     1  O    0.000000
     2  C    1.226515   0.000000
     3  N    2.275209   1.367090   0.000000
     4  C    2.791431   2.448585   1.446564   0.000000
     5  C    3.878080   3.435709   2.411563   1.524733   0.000000
     6  O    4.642219   4.487579   3.617709   2.433849   1.351941
     7  O    4.472145   3.762197   2.716066   2.407832   1.199251
     8  C    3.896254   3.581822   2.487120   1.535088   2.485998
     9  C    3.898207   3.836019   3.133624   2.547639   3.846761
    10  C    3.326858   3.585294   3.387070   3.098394   4.574031
    11  N    4.506056   4.811262   4.684223   4.449424   5.899295
    12  C    5.441752   5.553087   5.121953   4.739870   6.055669
    13  N    5.205825   5.126940   4.398158   3.847037   5.001732
    14  C    2.409959   1.516542   2.430541   3.786920   4.555834
    15  C    2.840804   2.524862   3.719626   4.907343   5.580690
    16  N    4.293713   3.845165   4.894517   6.200304   6.797548
    17  H    3.142311   2.044140   1.011534   2.077945   2.503608
    18  H    2.302314   2.475782   2.051652   1.090080   2.163258
    19  H    4.405684   4.476635   3.730945   2.383187   1.907821
    20  H    4.534295   3.948705   2.687124   2.158163   2.780011
    21  H    4.652427   4.474980   3.399476   2.151529   2.600271
    22  H    2.375220   2.879060   3.050408   2.953534   4.442124
    23  H    6.481739   6.590537   6.157163   5.784892   7.058610
    24  H    6.014142   5.819280   4.918360   4.290597   5.223233
    25  H    2.925825   2.123442   2.867936   4.246469   5.209190
    26  H    3.233275   2.146392   2.547013   3.928479   4.386468
    27  H    2.959860   2.764689   3.876368   4.888334   5.320522
    28  H    2.612253   2.729635   4.069631   5.122331   5.992004
    29  H    4.605014   4.126597   5.134701   6.497972   7.245546
    30  H    4.865036   4.608834   5.744804   6.979011   7.544414
    31  H    4.797836   4.147188   4.989999   6.324018   6.732748
                    6          7          8          9         10
     6  O    0.000000
     7  O    2.218586   0.000000
     8  C    3.091574   3.292624   0.000000
     9  C    4.376498   4.691346   1.502588   0.000000
    10  C    5.109513   5.457726   2.635269   1.362847   0.000000
    11  N    6.373438   6.771823   3.749454   2.265436   1.383370
    12  C    6.483432   6.884568   3.648025   2.213913   2.137418
    13  N    5.431157   5.784470   2.522720   1.383571   2.171117
    14  C    5.726373   4.536487   4.826034   5.051981   4.767581
    15  C    6.602995   5.588448   6.093899   6.247999   5.748731
    16  N    7.895276   6.622600   7.313526   7.458181   6.977536
    17  H    3.842683   2.341037   2.948159   3.801730   4.240344
    18  H    2.623821   3.196506   2.152732   2.703491   2.860901
    19  H    0.962438   3.000069   2.897837   3.951420   4.575030
    20  H    3.583293   3.218499   1.091055   2.134702   3.344710
    21  H    2.715482   3.518882   1.095603   2.123199   3.279485
    22  H    5.014943   5.315984   3.045819   2.180569   1.077963
    23  H    7.446935   7.866392   4.610209   3.241096   3.188323
    24  H    5.592758   5.919507   2.801983   2.133934   3.147708
    25  H    6.417807   5.223606   4.995245   4.975024   4.610493
    26  H    5.637412   4.084172   4.978727   5.463524   5.427114
    27  H    6.224305   5.301061   6.243381   6.578341   6.160178
    28  H    6.915870   6.196175   6.228384   6.152685   5.433862
    29  H    8.400657   7.099845   7.446999   7.439093   6.906989
    30  H    8.563296   7.399732   8.154575   8.270278   7.700975
    31  H    7.873946   6.380318   7.455927   7.771033   7.455533
                   11         12         13         14         15
    11  N    0.000000
    12  C    1.310762   0.000000
    13  N    2.208424   1.357834   0.000000
    14  C    5.832985   6.576402   6.223432   0.000000
    15  C    6.757953   7.673064   7.460053   1.521313   0.000000
    16  N    7.885666   8.767485   8.588308   2.492865   1.487580
    17  H    5.478114   5.776937   4.940865   2.551449   3.926757
    18  H    4.219768   4.727718   4.053675   3.973356   4.837255
    19  H    5.784931   5.943121   4.993649   5.856836   6.687290
    20  H    4.315395   4.016764   2.787526   4.944940   6.347557
    21  H    4.268198   4.014408   2.825113   5.791439   6.990213
    22  H    2.164053   3.167050   3.221986   4.093239   4.888297
    23  H    2.129644   1.076363   2.136502   7.548048   8.641739
    24  H    3.172481   2.116982   1.006073   6.880225   8.195459
    25  H    5.484224   6.206706   5.986594   1.093550   2.143161
    26  H    6.545793   7.137672   6.612314   1.092088   2.160372
    27  H    7.281200   8.186736   7.874346   2.146472   1.089364
    28  H    6.325146   7.366012   7.329882   2.136710   1.089325
    29  H    7.677136   8.541825   8.459692   2.723375   2.085316
    30  H    8.583759   9.541388   9.423899   3.390021   2.093910
    31  H    8.433396   9.214406   8.904528   2.730009   2.087964
                   16         17         18         19         20
    16  N    0.000000
    17  H    4.888186   0.000000
    18  H    6.248871   2.905009   0.000000
    19  H    8.061696   4.181439   2.236712   0.000000
    20  H    7.420551   2.788572   3.047888   3.637749   0.000000
    21  H    8.260599   3.815947   2.556460   2.413241   1.748983
    22  H    6.180308   4.008427   2.477317   4.490616   3.827406
    23  H    9.679848   6.766411   5.791764   6.898244   4.874708
    24  H    9.288604   5.312220   4.652241   5.239267   2.795395
    25  H    2.723761   2.989401   4.484520   6.491068   5.020496
    26  H    2.742576   2.230740   4.343007   5.943190   4.911337
    27  H    2.117577   4.065880   4.748787   6.356034   6.562948
    28  H    2.122144   4.500761   4.858109   6.849146   6.614551
    29  H    1.019914   5.136213   6.589474   8.528115   7.495194
    30  H    1.020940   5.797168   6.919299   8.701425   8.331651
    31  H    1.019908   4.780858   6.512297   8.159449   7.449273
                   21         22         23         24         25
    21  H    0.000000
    22  H    3.743515   0.000000
    23  H    4.885976   4.182805   0.000000
    24  H    2.885726   4.171906   2.533814   0.000000
    25  H    6.042581   4.051640   7.099300   6.656075   0.000000
    26  H    5.910670   4.873583   8.105341   7.143488   1.761089
    27  H    7.028666   5.258545   9.201200   8.583916   3.044404
    28  H    7.111937   4.491102   8.305642   8.153714   2.471886
    29  H    8.455350   6.181942   9.387109   9.164984   2.528226
    30  H    9.068643   6.832694  10.452566  10.162815   3.662770
    31  H    8.386792   6.724796  10.138599   9.523658   3.058293
                   26         27         28         29         30
    26  H    0.000000
    27  H    2.506413   0.000000
    28  H    3.049024   1.752935   0.000000
    29  H    3.061783   2.973284   2.443579   0.000000
    30  H    3.686171   2.433259   2.439450   1.643739   0.000000
    31  H    2.556732   2.442814   2.978435   1.646696   1.643518
                   31
    31  H    0.000000
 Symmetry turned off by external request.
 Stoichiometry    C9H15N4O3(1+)
 Framework group  C1[X(C9H15N4O3)]
 Deg. of freedom    87
 Full point group                 C1      NOp   1
 Rotational constants (GHZ):      0.5724950      0.3213214      0.2246511
 Standard basis: 6-31G(d,p) (6D, 7F)
   315 basis functions,   553 primitive gaussians,   315 cartesian basis functions
    60 alpha electrons       60 beta electrons
       nuclear repulsion energy      1121.2879976823 Hartrees.
 NAtoms=   31 NActive=   31 NUniq=   31 SFac= 1.00D+00 NAtFMM=   60 NAOKFM=F Big=F
 Integral buffers will be    131072 words long.
 Raffenetti 2 integral format.
 Two-electron integral symmetry is turned off.
 Nuclear repulsion after empirical dispersion term =     1121.2332339254 Hartrees.
 One-electron integrals computed using PRISM.
 NBasis=   315 RedAO= T EigKep=  1.13D-03  NBF=   315
 NBsUse=   315 1.00D-06 EigRej= -1.00D+00 NBFU=   315
 ExpMin= 1.61D-01 ExpMax= 5.48D+03 ExpMxC= 8.25D+02 IAcc=3 IRadAn=         5 AccDes= 0.00D+00
 Harris functional with IExCor=  402 and IRadAn=       5 diagonalized for initial guess.
 HarFok:  IExCor=  402 AccDes= 0.00D+00 IRadAn=         5 IDoV= 1 UseB2=F ITyADJ=14
 ICtDFT=  3500011 ScaDFX=  1.000000  1.000000  1.000000  1.000000
 FoFCou: FMM=F IPFlag=           0 FMFlag=      100000 FMFlg1=           0
         NFxFlg=           0 DoJE=T BraDBF=F KetDBF=T FulRan=T
         wScrn=  0.000000 ICntrl=     500 IOpCl=  0 I1Cent=   200000004 NGrid=           0
         NMat0=    1 NMatS0=      1 NMatT0=    0 NMatD0=    1 NMtDS0=    0 NMtDT0=    0
 Symmetry not used in FoFCou.
 Requested convergence on RMS density matrix=1.00D-08 within 128 cycles.
 Requested convergence on MAX density matrix=1.00D-06.
 Requested convergence on             energy=1.00D-06.
 No special actions if energy rises.
 Integral accuracy reduced to 1.0D-05 until final iterations.
 Initial convergence to 1.0D-05 achieved.  Increase integral accuracy.
 SCF Done:  E(RB3LYP) =  -796.518631503     A.U. after   14 cycles
            NFock= 14  Conv=0.83D-08     -V/T= 2.0089
 DoSCS=F DFT=T ScalE2(SS,OS)=  1.000000  1.000000
 Range of M.O.s used for correlation:     1   315
 NBasis=   315 NAE=    60 NBE=    60 NFC=     0 NFV=     0
 NROrb=    315 NOA=    60 NOB=    60 NVA=   255 NVB=   255
 Symmetrizing basis deriv contribution to polar:
 IMax=3 JMax=2 DiffMx= 0.00D+00
 G2DrvN: will do    32 centers at a time, making    1 passes.
 Calling FoFCou, ICntrl=  3107 FMM=F I1Cent=   0 AccDes= 0.00D+00.
 End of G2Drv F.D. properties file   721 does not exist.
 End of G2Drv F.D. properties file   722 does not exist.
 End of G2Drv F.D. properties file   788 does not exist.
          IDoAtm=1111111111111111111111111111111
          Differentiating once with respect to nuclear coordinates.
          There are    96 degrees of freedom in the 1st order CPHF.  IDoFFX=6 NUNeed=     0.
     90 vectors produced by pass  0 Test12= 1.59D-14 1.04D-09 XBig12= 1.52D-01 8.59D-02.
 AX will form    90 AO Fock derivatives at one time.
     90 vectors produced by pass  1 Test12= 1.59D-14 1.04D-09 XBig12= 1.34D-02 3.43D-02.
     90 vectors produced by pass  2 Test12= 1.59D-14 1.04D-09 XBig12= 1.22D-04 2.20D-03.
     90 vectors produced by pass  3 Test12= 1.59D-14 1.04D-09 XBig12= 5.00D-07 8.17D-05.
     90 vectors produced by pass  4 Test12= 1.59D-14 1.04D-09 XBig12= 7.28D-10 3.87D-06.
     73 vectors produced by pass  5 Test12= 1.59D-14 1.04D-09 XBig12= 6.26D-13 8.64D-08.
     14 vectors produced by pass  6 Test12= 1.59D-14 1.04D-09 XBig12= 4.84D-16 2.33D-09.
 InvSVY:  IOpt=1 It=  1 EMax= 6.66D-16
 Solved reduced A of dimension   537 with    96 vectors.
 End of Minotr F.D. properties file   721 does not exist.
 End of Minotr F.D. properties file   722 does not exist.
 End of Minotr F.D. properties file   788 does not exist.

 **********************************************************************

            Population analysis using the SCF density.

 **********************************************************************

 Alpha  occ. eigenvalues --  -19.29973 -19.25588 -19.24588 -14.67519 -14.49147
 Alpha  occ. eigenvalues --  -14.46612 -14.38188 -10.43543 -10.43445 -10.42679
 Alpha  occ. eigenvalues --  -10.37585 -10.35791 -10.31298 -10.31075 -10.30023
 Alpha  occ. eigenvalues --  -10.26861  -1.22184  -1.21026  -1.17545  -1.13160
 Alpha  occ. eigenvalues --   -1.09023  -1.05916  -0.97361  -0.94378  -0.91122
 Alpha  occ. eigenvalues --   -0.85875  -0.82644  -0.80256  -0.79572  -0.76516
 Alpha  occ. eigenvalues --   -0.72823  -0.71285  -0.70301  -0.68876  -0.67676
 Alpha  occ. eigenvalues --   -0.66484  -0.64927  -0.61878  -0.61584  -0.59744
 Alpha  occ. eigenvalues --   -0.58168  -0.56444  -0.55837  -0.54705  -0.54289
 Alpha  occ. eigenvalues --   -0.53208  -0.51629  -0.51213  -0.50374  -0.48982
 Alpha  occ. eigenvalues --   -0.48672  -0.48175  -0.47107  -0.42273  -0.39829
 Alpha  occ. eigenvalues --   -0.39508  -0.37798  -0.35198  -0.33649  -0.30307
 Alpha virt. eigenvalues --   -0.17109  -0.12642  -0.10594  -0.10196  -0.09756
 Alpha virt. eigenvalues --   -0.07086  -0.04994  -0.04156  -0.03041  -0.02731
 Alpha virt. eigenvalues --   -0.01828  -0.00371   0.00014   0.01023   0.02117
 Alpha virt. eigenvalues --    0.03206   0.03892   0.05442   0.06680   0.06901
 Alpha virt. eigenvalues --    0.08854   0.10107   0.10894   0.11651   0.13535
 Alpha virt. eigenvalues --    0.15054   0.16594   0.20601   0.20721   0.23983
 Alpha virt. eigenvalues --    0.24193   0.26398   0.27480   0.31295   0.33154
 Alpha virt. eigenvalues --    0.33517   0.34229   0.35550   0.37598   0.38185
 Alpha virt. eigenvalues --    0.41108   0.42482   0.43966   0.45867   0.46723
 Alpha virt. eigenvalues --    0.47783   0.47979   0.48384   0.49522   0.50475
 Alpha virt. eigenvalues --    0.51750   0.53009   0.54549   0.55099   0.56117
 Alpha virt. eigenvalues --    0.56410   0.57536   0.58066   0.58531   0.58662
 Alpha virt. eigenvalues --    0.59881   0.60210   0.61143   0.63302   0.63919
 Alpha virt. eigenvalues --    0.65237   0.67489   0.68495   0.69304   0.70153
 Alpha virt. eigenvalues --    0.71158   0.71911   0.71942   0.73161   0.73500
 Alpha virt. eigenvalues --    0.74350   0.74850   0.75832   0.76706   0.77381
 Alpha virt. eigenvalues --    0.77865   0.78218   0.79453   0.81429   0.82181
 Alpha virt. eigenvalues --    0.83785   0.84419   0.86126   0.88179   0.92072
 Alpha virt. eigenvalues --    0.92642   0.94126   0.94760   0.96103   0.97731
 Alpha virt. eigenvalues --    1.00565   1.02480   1.05202   1.05925   1.08160
 Alpha virt. eigenvalues --    1.10088   1.11918   1.12860   1.17499   1.19401
 Alpha virt. eigenvalues --    1.20098   1.22274   1.24153   1.27330   1.27818
 Alpha virt. eigenvalues --    1.28978   1.30615   1.34102   1.34919   1.36345
 Alpha virt. eigenvalues --    1.37767   1.39549   1.40277   1.41262   1.43699
 Alpha virt. eigenvalues --    1.44640   1.46652   1.47420   1.48997   1.51278
 Alpha virt. eigenvalues --    1.55087   1.55967   1.59942   1.60795   1.62460
 Alpha virt. eigenvalues --    1.64258   1.65363   1.67222   1.67937   1.69076
 Alpha virt. eigenvalues --    1.69748   1.70688   1.71162   1.73066   1.76600
 Alpha virt. eigenvalues --    1.76856   1.77230   1.78209   1.78578   1.82006
 Alpha virt. eigenvalues --    1.82451   1.85211   1.85713   1.87175   1.88671
 Alpha virt. eigenvalues --    1.89915   1.90938   1.92226   1.94321   1.96061
 Alpha virt. eigenvalues --    1.96875   1.97121   1.97768   1.99124   2.00316
 Alpha virt. eigenvalues --    2.01935   2.03691   2.04062   2.05326   2.07629
 Alpha virt. eigenvalues --    2.08511   2.10042   2.11606   2.13331   2.14724
 Alpha virt. eigenvalues --    2.17515   2.19141   2.20043   2.21319   2.22097
 Alpha virt. eigenvalues --    2.24346   2.25677   2.27560   2.29371   2.31766
 Alpha virt. eigenvalues --    2.32813   2.37086   2.37543   2.38270   2.39360
 Alpha virt. eigenvalues --    2.40429   2.41768   2.43147   2.45950   2.46843
 Alpha virt. eigenvalues --    2.48812   2.49296   2.51592   2.52192   2.52737
 Alpha virt. eigenvalues --    2.53442   2.54139   2.55304   2.56894   2.58439
 Alpha virt. eigenvalues --    2.61110   2.61985   2.63235   2.64248   2.65513
 Alpha virt. eigenvalues --    2.66573   2.68882   2.70429   2.71432   2.72089
 Alpha virt. eigenvalues --    2.73873   2.75262   2.76552   2.77644   2.83298
 Alpha virt. eigenvalues --    2.84805   2.85757   2.90003   2.90884   2.93746
 Alpha virt. eigenvalues --    2.94884   2.96526   2.99105   3.07548   3.09374
 Alpha virt. eigenvalues --    3.09795   3.13125   3.14578   3.19782   3.21928
 Alpha virt. eigenvalues --    3.23139   3.26192   3.27831   3.35326   3.36955
 Alpha virt. eigenvalues --    3.39795   3.41628   3.49516   3.60401   3.84641
 Alpha virt. eigenvalues --    3.90411   3.93095   3.98050   4.04516   4.08954
 Alpha virt. eigenvalues --    4.10023   4.17663   4.20018   4.24254   4.32622
 Alpha virt. eigenvalues --    4.35999   4.40067   4.49298   4.55817   4.72366
          Condensed to atoms (all electrons):
               1          2          3          4          5          6
     1  O    8.100445   0.535409  -0.092092  -0.005497   0.000156  -0.000004
     2  C    0.535409   4.344864   0.302053  -0.028462   0.002849   0.000046
     3  N   -0.092092   0.302053   6.993557   0.229797  -0.037292   0.003025
     4  C   -0.005497  -0.028462   0.229797   5.214563   0.278390  -0.096565
     5  C    0.000156   0.002849  -0.037292   0.278390   4.376358   0.264987
     6  O   -0.000004   0.000046   0.003025  -0.096565   0.264987   8.074229
     7  O   -0.000001   0.001202  -0.010400  -0.084957   0.593602  -0.076713
     8  C    0.000450   0.002281  -0.051431   0.324974  -0.034793  -0.001467
     9  C   -0.000654   0.000667  -0.002260  -0.027120   0.002488   0.000065
    10  C   -0.007196   0.002519   0.001653  -0.004879   0.000192   0.000004
    11  N    0.000043  -0.000013  -0.000005  -0.000113  -0.000001   0.000000
    12  C   -0.000003  -0.000004   0.000021  -0.000084   0.000002   0.000000
    13  N   -0.000001  -0.000016  -0.000087   0.002739  -0.000082   0.000000
    14  C   -0.089970   0.289498  -0.115088   0.006746  -0.000297   0.000000
    15  C    0.003901  -0.019749   0.003097  -0.000096   0.000005   0.000000
    16  N    0.000264   0.002168  -0.000023   0.000000   0.000000   0.000000
    17  H    0.002849  -0.017455   0.325909  -0.044527  -0.003681   0.000597
    18  H    0.018098  -0.004485  -0.047475   0.376639  -0.028623   0.001032
    19  H   -0.000016  -0.000013   0.000227   0.004930  -0.022233   0.282377
    20  H   -0.000015  -0.000184  -0.004874  -0.026356  -0.003665   0.000091
    21  H   -0.000008   0.000011   0.004739  -0.040227  -0.000216   0.005634
    22  H    0.016985  -0.000024  -0.003346   0.001175   0.000011   0.000001
    23  H    0.000000   0.000000   0.000000   0.000002   0.000000   0.000000
    24  H    0.000000   0.000000  -0.000001  -0.000054  -0.000002   0.000000
    25  H   -0.000363  -0.015161  -0.002149  -0.000098  -0.000003   0.000000
    26  H    0.002386  -0.017923   0.002705  -0.000178   0.000031   0.000000
    27  H    0.001593  -0.000327   0.000268  -0.000009   0.000000   0.000000
    28  H    0.011653   0.000368   0.000473  -0.000001   0.000000   0.000000
    29  H    0.000017   0.000015   0.000002   0.000000   0.000000   0.000000
    30  H    0.000012   0.000009   0.000001   0.000000   0.000000   0.000000
    31  H    0.000003  -0.000056   0.000000   0.000000   0.000000   0.000000
               7          8          9         10         11         12
     1  O   -0.000001   0.000450  -0.000654  -0.007196   0.000043  -0.000003
     2  C    0.001202   0.002281   0.000667   0.002519  -0.000013  -0.000004
     3  N   -0.010400  -0.051431  -0.002260   0.001653  -0.000005   0.000021
     4  C   -0.084957   0.324974  -0.027120  -0.004879  -0.000113  -0.000084
     5  C    0.593602  -0.034793   0.002488   0.000192  -0.000001   0.000002
     6  O   -0.076713  -0.001467   0.000065   0.000004   0.000000   0.000000
     7  O    7.984590  -0.002059  -0.000016  -0.000001   0.000000   0.000000
     8  C   -0.002059   5.113187   0.313761  -0.065669   0.007937   0.006761
     9  C   -0.000016   0.313761   4.807694   0.581014  -0.048637  -0.088241
    10  C   -0.000001  -0.065669   0.581014   4.894976   0.418224  -0.120855
    11  N    0.000000   0.007937  -0.048637   0.418224   6.680047   0.540854
    12  C    0.000000   0.006761  -0.088241  -0.120855   0.540854   4.661289
    13  N    0.000000  -0.060337   0.334030  -0.072417  -0.083757   0.350200
    14  C   -0.000142  -0.000302  -0.000027  -0.000207   0.000001   0.000000
    15  C    0.000001  -0.000001   0.000000   0.000005   0.000000   0.000000
    16  N    0.000000   0.000000   0.000000   0.000000   0.000000   0.000000
    17  H    0.027137   0.000132  -0.000116   0.000035   0.000001   0.000000
    18  H    0.001871  -0.041833  -0.002768   0.001856  -0.000052  -0.000024
    19  H    0.004800  -0.000826  -0.000195  -0.000017   0.000000   0.000000
    20  H    0.001506   0.361737  -0.031270   0.001130  -0.000122   0.000174
    21  H   -0.000184   0.363908  -0.033811   0.001056  -0.000094   0.000230
    22  H    0.000000  -0.001850  -0.059871   0.384981  -0.036621   0.006546
    23  H    0.000000  -0.000116   0.003177   0.006815  -0.035796   0.393990
    24  H    0.000000  -0.002818  -0.032426   0.008929   0.005256  -0.023549
    25  H    0.000000   0.000026   0.000016   0.000079   0.000000   0.000000
    26  H    0.000012  -0.000001   0.000000   0.000001   0.000000   0.000000
    27  H    0.000000   0.000000   0.000000   0.000000   0.000000   0.000000
    28  H    0.000000   0.000000   0.000000  -0.000001   0.000000   0.000000
    29  H    0.000000   0.000000   0.000000   0.000000   0.000000   0.000000
    30  H    0.000000   0.000000   0.000000   0.000000   0.000000   0.000000
    31  H    0.000000   0.000000   0.000000   0.000000   0.000000   0.000000
              13         14         15         16         17         18
     1  O   -0.000001  -0.089970   0.003901   0.000264   0.002849   0.018098
     2  C   -0.000016   0.289498  -0.019749   0.002168  -0.017455  -0.004485
     3  N   -0.000087  -0.115088   0.003097  -0.000023   0.325909  -0.047475
     4  C    0.002739   0.006746  -0.000096   0.000000  -0.044527   0.376639
     5  C   -0.000082  -0.000297   0.000005   0.000000  -0.003681  -0.028623
     6  O    0.000000   0.000000   0.000000   0.000000   0.000597   0.001032
     7  O    0.000000  -0.000142   0.000001   0.000000   0.027137   0.001871
     8  C   -0.060337  -0.000302  -0.000001   0.000000   0.000132  -0.041833
     9  C    0.334030  -0.000027   0.000000   0.000000  -0.000116  -0.002768
    10  C   -0.072417  -0.000207   0.000005   0.000000   0.000035   0.001856
    11  N   -0.083757   0.000001   0.000000   0.000000   0.000001  -0.000052
    12  C    0.350200   0.000000   0.000000   0.000000   0.000000  -0.000024
    13  N    6.782353   0.000000   0.000000   0.000000   0.000004   0.000123
    14  C    0.000000   5.272537   0.314790  -0.042903  -0.002264   0.001374
    15  C    0.000000   0.314790   5.041487   0.160844  -0.000101   0.000015
    16  N    0.000000  -0.042903   0.160844   6.476654  -0.000011   0.000000
    17  H    0.000004  -0.002264  -0.000101  -0.000011   0.422436   0.005347
    18  H    0.000123   0.001374   0.000015   0.000000   0.005347   0.550239
    19  H   -0.000001   0.000000   0.000000   0.000000  -0.000068   0.001320
    20  H   -0.002111  -0.000002   0.000000   0.000000   0.002108   0.005903
    21  H   -0.002435   0.000005   0.000000   0.000000  -0.000063  -0.003635
    22  H    0.004899   0.000401  -0.000018   0.000000  -0.000007  -0.000102
    23  H   -0.055317   0.000000   0.000000   0.000000   0.000000   0.000000
    24  H    0.340164   0.000000   0.000000   0.000000   0.000000   0.000003
    25  H    0.000000   0.375249  -0.038967  -0.002588   0.000284  -0.000026
    26  H    0.000000   0.361720  -0.041665  -0.002336   0.002064  -0.000062
    27  H    0.000000  -0.035970   0.395989  -0.031910  -0.000005  -0.000005
    28  H    0.000000  -0.038389   0.388936  -0.030305  -0.000018  -0.000011
    29  H    0.000000  -0.000568  -0.023375   0.332721   0.000000   0.000000
    30  H    0.000000   0.003508  -0.022034   0.337653   0.000000   0.000000
    31  H    0.000000  -0.001655  -0.020184   0.332471  -0.000001   0.000000
              19         20         21         22         23         24
     1  O   -0.000016  -0.000015  -0.000008   0.016985   0.000000   0.000000
     2  C   -0.000013  -0.000184   0.000011  -0.000024   0.000000   0.000000
     3  N    0.000227  -0.004874   0.004739  -0.003346   0.000000  -0.000001
     4  C    0.004930  -0.026356  -0.040227   0.001175   0.000002  -0.000054
     5  C   -0.022233  -0.003665  -0.000216   0.000011   0.000000  -0.000002
     6  O    0.282377   0.000091   0.005634   0.000001   0.000000   0.000000
     7  O    0.004800   0.001506  -0.000184   0.000000   0.000000   0.000000
     8  C   -0.000826   0.361737   0.363908  -0.001850  -0.000116  -0.002818
     9  C   -0.000195  -0.031270  -0.033811  -0.059871   0.003177  -0.032426
    10  C   -0.000017   0.001130   0.001056   0.384981   0.006815   0.008929
    11  N    0.000000  -0.000122  -0.000094  -0.036621  -0.035796   0.005256
    12  C    0.000000   0.000174   0.000230   0.006546   0.393990  -0.023549
    13  N   -0.000001  -0.002111  -0.002435   0.004899  -0.055317   0.340164
    14  C    0.000000  -0.000002   0.000005   0.000401   0.000000   0.000000
    15  C    0.000000   0.000000   0.000000  -0.000018   0.000000   0.000000
    16  N    0.000000   0.000000   0.000000   0.000000   0.000000   0.000000
    17  H   -0.000068   0.002108  -0.000063  -0.000007   0.000000   0.000000
    18  H    0.001320   0.005903  -0.003635  -0.000102   0.000000   0.000003
    19  H    0.392711  -0.000060   0.002193  -0.000007   0.000000   0.000000
    20  H   -0.000060   0.598519  -0.037285  -0.000096  -0.000002   0.001218
    21  H    0.002193  -0.037285   0.609470  -0.000063   0.000000   0.000795
    22  H   -0.000007  -0.000096  -0.000063   0.582685  -0.000145  -0.000097
    23  H    0.000000  -0.000002   0.000000  -0.000145   0.556927   0.000235
    24  H    0.000000   0.001218   0.000795  -0.000097   0.000235   0.433267
    25  H    0.000000  -0.000004   0.000000   0.000004   0.000000   0.000000
    26  H    0.000000   0.000001   0.000000  -0.000004   0.000000   0.000000
    27  H    0.000000   0.000000   0.000000   0.000000   0.000000   0.000000
    28  H    0.000000   0.000000   0.000000   0.000003   0.000000   0.000000
    29  H    0.000000   0.000000   0.000000   0.000000   0.000000   0.000000
    30  H    0.000000   0.000000   0.000000   0.000000   0.000000   0.000000
    31  H    0.000000   0.000000   0.000000   0.000000   0.000000   0.000000
              25         26         27         28         29         30
     1  O   -0.000363   0.002386   0.001593   0.011653   0.000017   0.000012
     2  C   -0.015161  -0.017923  -0.000327   0.000368   0.000015   0.000009
     3  N   -0.002149   0.002705   0.000268   0.000473   0.000002   0.000001
     4  C   -0.000098  -0.000178  -0.000009  -0.000001   0.000000   0.000000
     5  C   -0.000003   0.000031   0.000000   0.000000   0.000000   0.000000
     6  O    0.000000   0.000000   0.000000   0.000000   0.000000   0.000000
     7  O    0.000000   0.000012   0.000000   0.000000   0.000000   0.000000
     8  C    0.000026  -0.000001   0.000000   0.000000   0.000000   0.000000
     9  C    0.000016   0.000000   0.000000   0.000000   0.000000   0.000000
    10  C    0.000079   0.000001   0.000000  -0.000001   0.000000   0.000000
    11  N    0.000000   0.000000   0.000000   0.000000   0.000000   0.000000
    12  C    0.000000   0.000000   0.000000   0.000000   0.000000   0.000000
    13  N    0.000000   0.000000   0.000000   0.000000   0.000000   0.000000
    14  C    0.375249   0.361720  -0.035970  -0.038389  -0.000568   0.003508
    15  C   -0.038967  -0.041665   0.395989   0.388936  -0.023375  -0.022034
    16  N   -0.002588  -0.002336  -0.031910  -0.030305   0.332721   0.337653
    17  H    0.000284   0.002064  -0.000005  -0.000018   0.000000   0.000000
    18  H   -0.000026  -0.000062  -0.000005  -0.000011   0.000000   0.000000
    19  H    0.000000   0.000000   0.000000   0.000000   0.000000   0.000000
    20  H   -0.000004   0.000001   0.000000   0.000000   0.000000   0.000000
    21  H    0.000000   0.000000   0.000000   0.000000   0.000000   0.000000
    22  H    0.000004  -0.000004   0.000000   0.000003   0.000000   0.000000
    23  H    0.000000   0.000000   0.000000   0.000000   0.000000   0.000000
    24  H    0.000000   0.000000   0.000000   0.000000   0.000000   0.000000
    25  H    0.532567  -0.028645   0.004431  -0.004434   0.004881  -0.000014
    26  H   -0.028645   0.576989  -0.004309   0.004784  -0.000270   0.000008
    27  H    0.004431  -0.004309   0.488465  -0.022609   0.003910  -0.002060
    28  H   -0.004434   0.004784  -0.022609   0.466907  -0.002958  -0.001572
    29  H    0.004881  -0.000270   0.003910  -0.002958   0.345731  -0.014427
    30  H   -0.000014   0.000008  -0.002060  -0.001572  -0.014427   0.335914
    31  H   -0.000427   0.004372  -0.003330   0.003565  -0.016511  -0.015127
              31
     1  O    0.000003
     2  C   -0.000056
     3  N    0.000000
     4  C    0.000000
     5  C    0.000000
     6  O    0.000000
     7  O    0.000000
     8  C    0.000000
     9  C    0.000000
    10  C    0.000000
    11  N    0.000000
    12  C    0.000000
    13  N    0.000000
    14  C   -0.001655
    15  C   -0.020184
    16  N    0.332471
    17  H   -0.000001
    18  H    0.000000
    19  H    0.000000
    20  H    0.000000
    21  H    0.000000
    22  H    0.000000
    23  H    0.000000
    24  H    0.000000
    25  H   -0.000427
    26  H    0.004372
    27  H   -0.003330
    28  H    0.003565
    29  H   -0.016511
    30  H   -0.015127
    31  H    0.346629
 Mulliken charges:
               1
     1  O   -0.498442
     2  C    0.619914
     3  N   -0.501003
     4  C   -0.080732
     5  C    0.611815
     6  O   -0.457340
     7  O   -0.440247
     8  C   -0.231649
     9  C    0.284500
    10  C   -0.032222
    11  N   -0.447150
    12  C    0.272693
    13  N   -0.537951
    14  C   -0.298045
    15  C   -0.142879
    16  N   -0.532700
    17  H    0.279416
    18  H    0.165281
    19  H    0.334877
    20  H    0.133657
    21  H    0.129982
    22  H    0.104560
    23  H    0.130230
    24  H    0.269077
    25  H    0.175344
    26  H    0.140319
    27  H    0.205877
    28  H    0.223608
    29  H    0.370832
    30  H    0.378128
    31  H    0.370250
 Sum of Mulliken charges =   1.00000
 Mulliken charges with hydrogens summed into heavy atoms:
               1
     1  O   -0.498442
     2  C    0.619914
     3  N   -0.221587
     4  C    0.084549
     5  C    0.611815
     6  O   -0.122463
     7  O   -0.440247
     8  C    0.031990
     9  C    0.284500
    10  C    0.072337
    11  N   -0.447150
    12  C    0.402923
    13  N   -0.268875
    14  C    0.017619
    15  C    0.286606
    16  N    0.586511
 APT charges:
               1
     1  O   -0.306527
     2  C    0.097346
     3  N   -0.596013
     4  C   -0.358463
     5  C   -0.327313
     6  O   -0.022993
     7  O    0.109816
     8  C   -0.948900
     9  C   -0.114122
    10  C   -0.306843
    11  N   -0.397827
    12  C   -0.250246
    13  N   -0.928896
    14  C   -0.568552
    15  C   -0.305611
    16  N   -1.863955
    17  H    0.538903
    18  H    0.300830
    19  H    0.382847
    20  H    0.376041
    21  H    0.576828
    22  H    0.033588
    23  H    1.095895
    24  H    0.923674
    25  H    0.342090
    26  H    0.368116
    27  H    0.379704
    28  H    0.311960
    29  H    0.558151
    30  H    1.237692
    31  H    0.662780
 Sum of APT charges =   1.00000
 APT charges with hydrogens summed into heavy atoms:
               1
     1  O   -0.306527
     2  C    0.097346
     3  N   -0.057111
     4  C   -0.057633
     5  C   -0.327313
     6  O    0.359855
     7  O    0.109816
     8  C    0.003969
     9  C   -0.114122
    10  C   -0.273256
    11  N   -0.397827
    12  C    0.845650
    13  N   -0.005222
    14  C    0.141655
    15  C    0.386052
    16  N    0.594668
 Electronic spatial extent (au):  <R**2>=           4826.6130
 Charge=              1.0000 electrons
 Dipole moment (field-independent basis, Debye):
    X=            -15.8371    Y=              4.3719    Z=              3.6666  Tot=             16.8336
 Quadrupole moment (field-independent basis, Debye-Ang):
   XX=             34.2141   YY=            -87.0127   ZZ=           -104.9940
   XY=            -22.0851   XZ=             -2.5107   YZ=             14.5878
 Traceless Quadrupole moment (field-independent basis, Debye-Ang):
   XX=             86.8116   YY=            -34.4152   ZZ=            -52.3964
   XY=            -22.0851   XZ=             -2.5107   YZ=             14.5878
 Octapole moment (field-independent basis, Debye-Ang**2):
  XXX=           -504.2629  YYY=             67.2719  ZZZ=             28.8034  XYY=            -61.3484
  XXY=            140.1363  XXZ=             41.9356  XZZ=            -76.7527  YZZ=             27.7305
  YYZ=            -19.4157  XYZ=             10.1043
 Hexadecapole moment (field-independent basis, Debye-Ang**3):
 XXXX=           -604.6419 YYYY=          -1395.9017 ZZZZ=          -1063.9566 XXXY=           -321.2488
 XXXZ=            119.1998 YYYX=            -56.9810 YYYZ=            492.2023 ZZZX=            262.4482
 ZZZY=            482.0362 XXYY=           -583.2874 XXZZ=           -738.9572 YYZZ=           -476.5073
 XXYZ=            142.7657 YYXZ=             32.1654 ZZXY=            -25.3018
 N-N= 1.121233233925D+03 E-N=-4.084692678132D+03  KE= 7.894610924048D+02
  Exact polarizability:   0.000   0.000   0.000   0.000   0.000   0.000
 Approx polarizability: 180.503   3.937 152.819   8.678 -15.191 200.830
 Calling FoFJK, ICntrl=    100147 FMM=F ISym2X=0 I1Cent= 0 IOpClX= 0 NMat=1 NMatS=1 NMatT=0.
 -------------------------------------------------------------------
 Center     Atomic                   Forces (Hartrees/Bohr)
 Number     Number              X              Y              Z
 -------------------------------------------------------------------
      1        8          -0.011564420    0.003439416    0.000857039
      2        6           0.019658274   -0.009315320   -0.005355992
      3        7          -0.013643162    0.003455696   -0.000955324
      4        6           0.003660196    0.002523546   -0.001920281
      5        6           0.007034409   -0.012205686   -0.007645603
      6        8          -0.002995375    0.004447360    0.005244662
      7        8          -0.008291482    0.005242773    0.010114897
      8        6           0.007447461    0.006839233   -0.007685786
      9        6           0.001984298   -0.004325052    0.009052855
     10        6          -0.007262264    0.002518037   -0.006982968
     11        7          -0.005566009   -0.001744359   -0.001392154
     12        6           0.000533915    0.003661377   -0.004924188
     13        7           0.001784587   -0.004986486    0.009229894
     14        6          -0.008153596    0.009683735    0.008882022
     15        6           0.024329836   -0.016311425   -0.011802162
     16        7          -0.004825502    0.001562469    0.000468424
     17        1           0.002145605   -0.000355640    0.003065843
     18        1          -0.001461145   -0.001102075   -0.002132595
     19        1           0.003267131   -0.002090294   -0.006383852
     20        1          -0.000946353   -0.000283706    0.005253366
     21        1           0.000343576   -0.002676221    0.001809434
     22        1          -0.000984675    0.000363705   -0.003999315
     23        1           0.002534390    0.002166934   -0.000946105
     24        1           0.002798019    0.000392546    0.001351895
     25        1           0.002951956    0.003080433    0.000926016
     26        1          -0.000258462    0.000119108    0.003399217
     27        1          -0.006742129   -0.000373008    0.001125860
     28        1          -0.004124625    0.002119491   -0.001670834
     29        1           0.000895502    0.005898001    0.000291340
     30        1          -0.003775178   -0.001343632   -0.002911586
     31        1          -0.000774779   -0.000400957    0.005635985
 -------------------------------------------------------------------
 Cartesian Forces:  Max     0.024329836 RMS     0.006183672
 FormGI is forming the generalized inverse of G from B-inverse, IUseBI=4.
 GSVD:  received Info=                   1 from GESDD.

 GradGradGradGradGradGradGradGradGradGradGradGradGradGradGradGradGradGrad
 Berny optimization.
 Internal  Forces:  Max     0.018053982 RMS     0.003765144
 Search for a local minimum.
 Step number   1 out of a maximum of  167
 All quantities printed in internal units (Hartrees-Bohrs-Radians)
 Mixed Optimization -- RFO/linear search
 Second derivative matrix not updated -- analytic derivatives used.
 ITU=  0
     Eigenvalues ---    0.00001   0.00076   0.00151   0.00203   0.00285
     Eigenvalues ---    0.00412   0.00478   0.00544   0.00792   0.00877
     Eigenvalues ---    0.01132   0.01560   0.02152   0.02711   0.03217
     Eigenvalues ---    0.03727   0.03821   0.03967   0.04085   0.04242
     Eigenvalues ---    0.04322   0.04469   0.04969   0.05068   0.05155
     Eigenvalues ---    0.05210   0.05524   0.05828   0.06218   0.07409
     Eigenvalues ---    0.08398   0.08449   0.10500   0.10617   0.11326
     Eigenvalues ---    0.11735   0.12064   0.12312   0.13075   0.13413
     Eigenvalues ---    0.13648   0.15538   0.15698   0.16346   0.16772
     Eigenvalues ---    0.17588   0.18341   0.19921   0.20797   0.22004
     Eigenvalues ---    0.23149   0.23389   0.23686   0.24248   0.24932
     Eigenvalues ---    0.26956   0.29741   0.29913   0.31795   0.33153
     Eigenvalues ---    0.33178   0.33858   0.34210   0.34462   0.34655
     Eigenvalues ---    0.34762   0.35066   0.35267   0.35776   0.36849
     Eigenvalues ---    0.38123   0.38365   0.40899   0.43033   0.44024
     Eigenvalues ---    0.44150   0.44345   0.44864   0.46242   0.46670
     Eigenvalues ---    0.48164   0.48854   0.50188   0.54306   0.60666
     Eigenvalues ---    0.82477   0.95297
 RFO step:  Lambda=-1.07139533D-02 EMin= 1.15675920D-05
 Linear search not attempted -- first point.
 Iteration  1 RMS(Cart)=  0.12948837 RMS(Int)=  0.00338338
 Iteration  2 RMS(Cart)=  0.00822426 RMS(Int)=  0.00034553
 Iteration  3 RMS(Cart)=  0.00002239 RMS(Int)=  0.00034530
 Iteration  4 RMS(Cart)=  0.00000001 RMS(Int)=  0.00034530
 Variable       Old X    -DE/DX   Delta X   Delta X   Delta X     New X
                                 (Linear)    (Quad)   (Total)
    R1        2.31778  -0.00239   0.00000   0.00124   0.00124   2.31901
    R2        2.58343  -0.00590   0.00000  -0.03372  -0.03372   2.54970
    R3        2.86585   0.00399   0.00000   0.03090   0.03090   2.89675
    R4        2.73361   0.00415   0.00000   0.01446   0.01446   2.74807
    R5        1.91152   0.00253   0.00000   0.00517   0.00517   1.91669
    R6        2.88133   0.00441   0.00000   0.01760   0.01760   2.89892
    R7        2.90090   0.00329   0.00000   0.01446   0.01446   2.91535
    R8        2.05995   0.00255   0.00000   0.00698   0.00698   2.06693
    R9        2.55480  -0.00145   0.00000  -0.01800  -0.01800   2.53680
   R10        2.26626   0.01289   0.00000   0.01572   0.01572   2.28197
   R11        1.81874   0.00678   0.00000   0.01213   0.01213   1.83088
   R12        2.83948  -0.00303   0.00000  -0.01381  -0.01381   2.82567
   R13        2.06179   0.00448   0.00000   0.01339   0.01339   2.07519
   R14        2.07039   0.00206   0.00000   0.00613   0.00613   2.07651
   R15        2.57541   0.01320   0.00000   0.02482   0.02483   2.60024
   R16        2.61457   0.00256   0.00000   0.00228   0.00228   2.61685
   R17        2.61419  -0.00158   0.00000  -0.00701  -0.00700   2.60719
   R18        2.03705   0.00189   0.00000   0.00382   0.00382   2.04087
   R19        2.47698   0.00543   0.00000   0.00602   0.00602   2.48300
   R20        2.56593   0.00975   0.00000   0.02020   0.02019   2.58612
   R21        2.03403   0.00346   0.00000   0.00825   0.00825   2.04229
   R22        1.90120   0.00296   0.00000   0.00568   0.00568   1.90688
   R23        2.87487   0.00192   0.00000  -0.00022  -0.00022   2.87464
   R24        2.06651   0.00351   0.00000   0.00768   0.00768   2.07419
   R25        2.06375   0.00331   0.00000   0.00668   0.00668   2.07043
   R26        2.81112   0.01079   0.00000   0.05632   0.05632   2.86744
   R27        2.05860   0.00174   0.00000   0.00283   0.00283   2.06143
   R28        2.05853   0.00154   0.00000   0.00138   0.00138   2.05990
   R29        1.92736   0.00593   0.00000   0.01142   0.01142   1.93878
   R30        1.92930   0.00490   0.00000   0.00918   0.00918   1.93848
   R31        1.92735   0.00564   0.00000   0.01060   0.01060   1.93794
    A1        2.13854   0.01342   0.00000   0.04802   0.04803   2.18657
    A2        2.13957  -0.01371   0.00000  -0.06347  -0.06348   2.07609
    A3        2.00349   0.00029   0.00000   0.01571   0.01570   2.01919
    A4        2.11097   0.00248   0.00000   0.01867   0.01805   2.12902
    A5        2.05456   0.00118   0.00000   0.02190   0.02141   2.07596
    A6        1.99409  -0.00289   0.00000  -0.01090  -0.01170   1.98239
    A7        1.89334  -0.00270   0.00000  -0.02199  -0.02196   1.87138
    A8        1.97257  -0.00226   0.00000  -0.01935  -0.01930   1.95327
    A9        1.86962   0.00135   0.00000   0.00365   0.00380   1.87342
   A10        1.89673   0.00369   0.00000   0.01467   0.01427   1.91100
   A11        1.92938  -0.00028   0.00000   0.00816   0.00792   1.93730
   A12        1.90238   0.00014   0.00000   0.01488   0.01473   1.91711
   A13        2.01483   0.00435   0.00000   0.02295   0.02295   2.03778
   A14        2.16079  -0.00848   0.00000  -0.03722  -0.03722   2.12357
   A15        2.10685   0.00413   0.00000   0.01408   0.01407   2.12093
   A16        1.91811   0.00566   0.00000   0.02791   0.02791   1.94602
   A17        1.98964  -0.00551   0.00000  -0.02161  -0.02161   1.96803
   A18        1.90880  -0.00069   0.00000  -0.02581  -0.02584   1.88296
   A19        1.89523   0.00058   0.00000  -0.00095  -0.00076   1.89446
   A20        1.91576   0.00315   0.00000   0.01753   0.01693   1.93269
   A21        1.89533   0.00374   0.00000   0.03806   0.03796   1.93328
   A22        1.85406  -0.00097   0.00000  -0.00590  -0.00642   1.84764
   A23        2.33349  -0.00089   0.00000  -0.00471  -0.00475   2.32874
   A24        2.12611  -0.00052   0.00000   0.00214   0.00210   2.12821
   A25        1.82329   0.00141   0.00000   0.00287   0.00287   1.82616
   A26        1.94012  -0.00136   0.00000  -0.00454  -0.00457   1.93555
   A27        2.20269   0.00415   0.00000   0.02787   0.02780   2.23049
   A28        2.13999  -0.00277   0.00000  -0.02281  -0.02289   2.11710
   A29        1.83206   0.00190   0.00000   0.00787   0.00789   1.83995
   A30        1.94928   0.00068   0.00000  -0.00189  -0.00189   1.94739
   A31        2.19919  -0.00043   0.00000   0.00218   0.00218   2.20137
   A32        2.13471  -0.00025   0.00000  -0.00029  -0.00029   2.13442
   A33        1.88002  -0.00263   0.00000  -0.00431  -0.00430   1.87572
   A34        2.19506   0.00224   0.00000   0.00921   0.00921   2.20427
   A35        2.20810   0.00039   0.00000  -0.00491  -0.00492   2.20318
   A36        1.96228  -0.01805   0.00000  -0.10624  -0.10622   1.85606
   A37        1.88125   0.00322   0.00000  -0.00206  -0.00263   1.87862
   A38        1.91394   0.00671   0.00000   0.04301   0.04371   1.95765
   A39        1.90230   0.00632   0.00000   0.02730   0.02540   1.92770
   A40        1.92746   0.00541   0.00000   0.03410   0.03447   1.96193
   A41        1.87390  -0.00304   0.00000   0.00783   0.00677   1.88067
   A42        1.95276  -0.00292   0.00000  -0.00768  -0.00736   1.94540
   A43        1.91108   0.00465   0.00000   0.04413   0.04367   1.95474
   A44        1.89777   0.00327   0.00000   0.02311   0.02249   1.92026
   A45        1.91200  -0.00294   0.00000  -0.04189  -0.04182   1.87018
   A46        1.91839  -0.00212   0.00000  -0.03495  -0.03499   1.88340
   A47        1.86994   0.00027   0.00000   0.01922   0.01722   1.88716
   A48        1.94014   0.00045   0.00000  -0.00090  -0.00090   1.93924
   A49        1.95171  -0.00099   0.00000  -0.00804  -0.00803   1.94368
   A50        1.94405   0.00059   0.00000   0.00364   0.00364   1.94769
   A51        1.87276   0.00031   0.00000   0.00417   0.00416   1.87692
   A52        1.87904  -0.00074   0.00000  -0.00418  -0.00418   1.87486
   A53        1.87240   0.00037   0.00000   0.00564   0.00565   1.87805
    D1       -0.23967   0.00105   0.00000   0.06934   0.06982  -0.16986
    D2       -2.83817   0.00037   0.00000   0.01266   0.01241  -2.82576
    D3        2.96087   0.00162   0.00000   0.06688   0.06713   3.02801
    D4        0.36238   0.00094   0.00000   0.01020   0.00972   0.37210
    D5        0.47871  -0.00084   0.00000  -0.04798  -0.04701   0.43170
    D6       -1.61824   0.00020   0.00000  -0.01565  -0.01614  -1.63438
    D7        2.63018  -0.00159   0.00000  -0.04693  -0.04716   2.58302
    D8       -2.72188  -0.00038   0.00000  -0.04132  -0.04051  -2.76239
    D9        1.46436   0.00066   0.00000  -0.00899  -0.00964   1.45472
   D10       -0.57040  -0.00113   0.00000  -0.04027  -0.04067  -0.61107
   D11       -1.99828   0.00003   0.00000  -0.03899  -0.03866  -2.03695
   D12        2.18030  -0.00131   0.00000  -0.02992  -0.02990   2.15041
   D13        0.08477  -0.00102   0.00000  -0.03919  -0.03904   0.04573
   D14        0.61766   0.00180   0.00000   0.02500   0.02499   0.64265
   D15       -1.48694   0.00046   0.00000   0.03407   0.03376  -1.45318
   D16        2.70071   0.00075   0.00000   0.02480   0.02462   2.72533
   D17        2.78637   0.00118   0.00000   0.04073   0.04074   2.82711
   D18       -0.39544   0.00135   0.00000   0.03586   0.03592  -0.35952
   D19       -1.34583  -0.00098   0.00000   0.01243   0.01234  -1.33349
   D20        1.75555  -0.00081   0.00000   0.00757   0.00751   1.76306
   D21        0.74124   0.00131   0.00000   0.04471   0.04474   0.78597
   D22       -2.44057   0.00149   0.00000   0.03985   0.03991  -2.40066
   D23       -1.23875   0.00015   0.00000   0.03659   0.03643  -1.20232
   D24        0.91302  -0.00019   0.00000   0.02438   0.02450   0.93752
   D25        2.92917  -0.00140   0.00000   0.00290   0.00291   2.93207
   D26        2.94177   0.00246   0.00000   0.06662   0.06658   3.00835
   D27       -1.18965   0.00212   0.00000   0.05442   0.05465  -1.13500
   D28        0.82650   0.00091   0.00000   0.03293   0.03306   0.85956
   D29        0.83793   0.00051   0.00000   0.03906   0.03882   0.87675
   D30        2.98970   0.00017   0.00000   0.02686   0.02689   3.01659
   D31       -1.27734  -0.00104   0.00000   0.00537   0.00530  -1.27204
   D32       -0.07410  -0.00039   0.00000  -0.01557  -0.01563  -0.08973
   D33        3.10636  -0.00024   0.00000  -0.00958  -0.00952   3.09683
   D34       -0.08776  -0.00090   0.00000  -0.03274  -0.03281  -0.12058
   D35        3.08421  -0.00104   0.00000  -0.04842  -0.04843   3.03578
   D36       -2.23575   0.00156   0.00000   0.00317   0.00344  -2.23231
   D37        0.93623   0.00141   0.00000  -0.01252  -0.01218   0.92405
   D38        2.02745  -0.00110   0.00000  -0.02072  -0.02101   2.00643
   D39       -1.08376  -0.00125   0.00000  -0.03640  -0.03663  -1.12039
   D40       -3.11728  -0.00026   0.00000  -0.01520  -0.01515  -3.13242
   D41        0.05357  -0.00082   0.00000  -0.03452  -0.03468   0.01889
   D42       -0.00235  -0.00015   0.00000  -0.00143  -0.00143  -0.00378
   D43       -3.11468  -0.00071   0.00000  -0.02075  -0.02097  -3.13565
   D44        3.12008   0.00018   0.00000   0.01191   0.01188   3.13196
   D45       -0.02069   0.00023   0.00000   0.01606   0.01610  -0.00460
   D46        0.00117   0.00009   0.00000   0.00032   0.00028   0.00145
   D47       -3.13960   0.00015   0.00000   0.00448   0.00449  -3.13511
   D48        0.00263   0.00015   0.00000   0.00200   0.00204   0.00467
   D49        3.11620   0.00082   0.00000   0.02149   0.02108   3.13728
   D50       -0.00184  -0.00009   0.00000  -0.00178  -0.00186  -0.00370
   D51        3.13945  -0.00014   0.00000  -0.00288  -0.00290   3.13656
   D52        0.00045  -0.00001   0.00000   0.00095   0.00101   0.00146
   D53        3.14121  -0.00006   0.00000  -0.00324  -0.00319   3.13802
   D54       -3.14086   0.00004   0.00000   0.00200   0.00200  -3.13886
   D55       -0.00010  -0.00001   0.00000  -0.00219  -0.00220  -0.00230
   D56       -3.11501   0.00134   0.00000   0.05881   0.05872  -3.05630
   D57        1.04494   0.00380   0.00000   0.08646   0.08682   1.13176
   D58       -0.99284  -0.00098   0.00000   0.02568   0.02517  -0.96768
   D59       -1.03028  -0.00175   0.00000   0.00773   0.00744  -1.02284
   D60        3.12967   0.00071   0.00000   0.03538   0.03554  -3.11798
   D61        1.09189  -0.00407   0.00000  -0.02540  -0.02611   1.06578
   D62        1.02428   0.00152   0.00000   0.05362   0.05397   1.07825
   D63       -1.09895   0.00397   0.00000   0.08128   0.08207  -1.01688
   D64       -3.13674  -0.00081   0.00000   0.02049   0.02042  -3.11631
   D65        1.04370  -0.00049   0.00000  -0.00877  -0.00874   1.03496
   D66        3.13642  -0.00045   0.00000  -0.00952  -0.00949   3.12693
   D67       -1.05181  -0.00025   0.00000  -0.00532  -0.00529  -1.05710
   D68       -3.11678   0.00142   0.00000   0.01308   0.01287  -3.10391
   D69       -1.02406   0.00146   0.00000   0.01232   0.01213  -1.01194
   D70        1.07089   0.00166   0.00000   0.01653   0.01632   1.08721
   D71       -1.06655  -0.00124   0.00000  -0.00897  -0.00880  -1.07535
   D72        1.02617  -0.00120   0.00000  -0.00972  -0.00954   1.01663
   D73        3.12112  -0.00100   0.00000  -0.00552  -0.00535   3.11577
         Item               Value     Threshold  Converged?
 Maximum Force            0.018054     0.000450     NO 
 RMS     Force            0.003765     0.000300     NO 
 Maximum Displacement     0.538277     0.001800     NO 
 RMS     Displacement     0.134078     0.001200     NO 
 Predicted change in Energy=-6.013707D-03
 GradGradGradGradGradGradGradGradGradGradGradGradGradGradGradGradGradGrad

                          Input orientation:                          
 ---------------------------------------------------------------------
 Center     Atomic      Atomic             Coordinates (Angstroms)
 Number     Number       Type             X           Y           Z
 ---------------------------------------------------------------------
      1          8           0       -1.136465   -0.568834   -1.187305
      2          6           0       -1.081448   -0.219313   -0.012251
      3          7           0       -0.045415   -0.448271    0.821222
      4          6           0        1.053333   -1.329842    0.460205
      5          6           0        1.039064   -2.502058    1.449649
      6          8           0        1.712997   -3.605601    1.088973
      7          8           0        0.489236   -2.420240    2.521663
      8          6           0        2.416327   -0.610875    0.533525
      9          6           0        2.578982    0.430235   -0.527368
     10          6           0        1.824085    0.794862   -1.618476
     11          7           0        2.422347    1.829890   -2.307151
     12          6           0        3.530344    2.091641   -1.651191
     13          7           0        3.675993    1.274573   -0.563062
     14          6           0       -2.233074    0.607589    0.570639
     15          6           0       -3.458553    0.288592   -0.272259
     16          7           0       -4.647529    1.140249    0.132049
     17          1           0       -0.194832   -0.374859    1.821737
     18          1           0        0.870979   -1.676640   -0.560979
     19          1           0        2.061319   -3.530344    0.188031
     20          1           0        2.509315   -0.165399    1.532936
     21          1           0        3.213098   -1.364506    0.465305
     22          1           0        0.881995    0.376833   -1.941088
     23          1           0        4.259441    2.847003   -1.907755
     24          1           0        4.444721    1.283083    0.090559
     25          1           0       -1.964880    1.667326    0.471718
     26          1           0       -2.392798    0.401305    1.634747
     27          1           0       -3.761808   -0.754653   -0.173986
     28          1           0       -3.249009    0.483208   -1.324131
     29          1           0       -4.439009    2.139340    0.027503
     30          1           0       -5.469090    0.933734   -0.446446
     31          1           0       -4.909682    0.982081    1.110794
 ---------------------------------------------------------------------
                    Distance matrix (angstroms):
                    1          2          3          4          5
     1  O    0.000000
     2  C    1.227170   0.000000
     3  N    2.288910   1.349245   0.000000
     4  C    2.844053   2.452301   1.454217   0.000000
     5  C    3.927315   3.441605   2.406045   1.534045   0.000000
     6  O    4.745822   4.526429   3.623870   2.451445   1.342416
     7  O    4.452758   3.705651   2.658197   2.399330   1.207568
     8  C    3.947829   3.561687   2.483823   1.542738   2.512510
     9  C    3.903614   3.753133   3.078624   2.529975   3.857238
    10  C    3.287923   3.471402   3.315499   3.070724   4.571579
    11  N    4.435435   4.662873   4.589835   4.417733   5.898542
    12  C    5.391885   5.412509   5.034881   4.722300   6.076492
    13  N    5.191106   5.016805   4.328199   3.835153   5.026664
    14  C    2.382622   1.532896   2.442025   3.816583   4.598853
    15  C    2.639050   2.444627   3.658987   4.849015   5.566080
    16  N    4.121800   3.819184   4.917094   6.221645   6.880393
    17  H    3.158897   2.042986   1.014271   2.079345   2.487151
    18  H    2.376836   2.497374   2.063770   1.093773   2.179953
    19  H    4.570329   4.569466   3.786611   2.435636   1.921992
    20  H    4.566638   3.909487   2.667058   2.150944   2.761983
    21  H    4.720477   4.470195   3.403537   2.160048   2.643744
    22  H    2.353010   2.816188   3.028406   2.950984   4.450818
    23  H    6.426725   6.443627   6.069426   5.773422   7.089108
    24  H    6.017655   5.727679   4.867522   4.297153   5.270002
    25  H    2.905003   2.138711   2.877890   4.253559   5.231041
    26  H    3.237827   2.194860   2.625607   4.031407   4.499050
    27  H    2.820243   2.738079   3.859519   4.890667   5.360782
    28  H    2.363971   2.629237   3.966511   4.998115   5.915508
    29  H    4.440356   4.103418   5.160367   6.510628   7.319450
    30  H    4.645237   4.557351   5.738744   6.963318   7.599731
    31  H    4.682282   4.166528   5.078470   6.428515   6.902291
                    6          7          8          9         10
     6  O    0.000000
     7  O    2.226044   0.000000
     8  C    3.125952   3.307593   0.000000
     9  C    4.432883   4.667851   1.495280   0.000000
    10  C    5.167852   5.409201   2.637794   1.375986   0.000000
    11  N    6.448364   6.716991   3.745239   2.269625   1.379664
    12  C    6.577979   6.856976   3.649331   2.219986   2.143367
    13  N    5.513499   5.772573   2.518766   1.384780   2.184853
    14  C    5.795784   4.514999   4.806553   4.938922   4.613874
    15  C    6.615332   5.543357   5.997711   6.044582   5.474932
    16  N    7.993440   6.691315   7.288736   7.291188   6.713079
    17  H    3.822884   2.267472   2.921188   3.722971   4.156842
    18  H    2.674365   3.193956   2.172992   2.712438   2.852198
    19  H    0.968859   3.024833   2.961198   4.057826   4.693310
    20  H    3.558962   3.184746   1.098143   2.145807   3.364973
    21  H    2.767990   3.572479   1.098844   2.146765   3.306716
    22  H    5.072634   5.281480   3.074647   2.209348   1.079982
    23  H    7.556511   7.847168   4.616692   3.251182   3.197800
    24  H    5.688442   5.938916   2.810281   2.142468   3.166527
    25  H    6.458447   5.189716   4.938521   4.814068   4.414336
    26  H    5.762874   4.129631   5.036356   5.421640   5.340455
    27  H    6.300512   5.302082   6.220176   6.460221   5.974090
    28  H    6.867527   6.098739   6.061678   5.882442   5.091175
    29  H    8.483999   7.162276   7.403740   7.244385   6.613865
    30  H    8.633971   7.453889   8.094811   8.064213   7.388055
    31  H    8.056499   6.535645   7.519385   7.685584   7.268259
                   11         12         13         14         15
    11  N    0.000000
    12  C    1.313946   0.000000
    13  N    2.218525   1.368517   0.000000
    14  C    5.607908   6.352631   6.053694   0.000000
    15  C    6.411035   7.348274   7.208223   1.521196   0.000000
    16  N    7.510556   8.423936   8.353577   2.511112   1.517382
    17  H    5.362673   5.658779   4.836443   2.585514   3.934065
    18  H    4.213266   4.739274   4.071580   4.016641   4.763438
    19  H    5.923545   6.094873   5.124309   5.975842   6.727936
    20  H    4.328396   4.034278   2.797832   4.900386   6.251423
    21  H    4.303019   4.065114   2.869939   5.793189   6.912862
    22  H    2.148968   3.168337   3.242116   4.008201   4.651144
    23  H    2.137510   1.080731   2.149686   7.301381   8.293838
    24  H    3.184024   2.126863   1.009077   6.729020   7.973857
[...]
 04099,-0.00020256,-0.00006179,-0.00005514,0.00003793,0.00002833,0.0002
 2356,0.00021518,-0.00001590,-0.00017090,0.00019863,-0.06620508,-0.1124
 9245,-0.18153663,-0.00875379,-0.01777660,-0.02132579,0.00011281,-0.000
 08230,0.00103185,-0.00012957,0.00030767,0.00116369,-0.00012488,0.00010
 112,0.00002074,0.00001194,-0.00002019,0.00000963,0.00000337,0.00003153
 ,-0.00000289,-0.00003266,0.00001251,0.00000978,-0.00005612,0.00002838,
 0.00007229,0.00007577,0.00004560,-0.00002144,0.00006828,-0.00001096,0.
 00002281,0.07529635,0.12152282,0.19837263,0.00269898,0.00098914,-0.001
 75249,-0.02095628,-0.00904100,0.00597514,-0.00051557,0.00257883,0.0002
 3699,0.00012487,0.00090917,-0.00067496,0.00019208,0.00008072,0.0003078
 1,-0.00024033,0.00011974,-0.00015822,-0.00011672,0.00001132,-0.0001325
 1,0.00017653,-0.00002817,-0.00020547,0.00003836,-0.00002157,-0.0000054
 5,-0.00004528,0.00002733,-0.00004655,0.00008172,-0.00005780,0.00004367
 ,-0.00000476,0.00006741,-0.00004609,0.00000871,-0.00003599,0.00011365,
 -0.23667280,-0.09681296,0.07039598,0.00587770,0.00452891,-0.00292585,0
 .00215644,0.00005210,-0.00030643,-0.00006611,-0.00034426,0.00095110,-0
 .00035576,0.00011561,-0.00002681,0.00004526,-0.00007912,0.00002030,-0.
 00000960,0.00001011,0.00003133,-0.00002106,0.00000166,0.00003726,-0.00
 000476,0.00000548,0.00000725,0.00001068,0.00001031,-0.00000154,0.00006
 312,0.00001860,0.00000241,-0.00830984,-0.00327452,0.00343116,0.2549515
 3,-0.00184619,-0.00154717,0.00188356,0.02231241,0.01187393,-0.00970890
 ,0.00056865,-0.00199545,0.00067967,-0.00008083,-0.00065291,0.00054820,
 -0.00010052,-0.00018424,-0.00021000,0.00015011,-0.00003571,0.00011174,
 0.00008034,0.00007419,0.00008150,-0.00012607,-0.00008026,0.00017913,-0
 .00004310,-0.00002234,0.00001165,0.00006982,-0.00010587,-0.00003234,-0
 .00026972,-0.00000196,-0.00002246,0.00007714,0.00005198,0.00016757,-0.
 00009600,0.00004777,-0.00011522,-0.09278408,-0.09075473,0.03068233,-0.
 01451490,-0.00976136,0.00743834,-0.00119803,0.00110264,-0.00125327,0.0
 0027123,-0.00000779,-0.00036301,0.00022129,-0.00006141,0.00001896,-0.0
 0002905,0.00004721,-0.00000821,0.00001303,0.00001496,-0.00003506,-0.00
 000494,0.00001260,-0.00001135,0.00000794,-0.00001629,0.00000591,0.0000
 1247,0.00001488,-0.00000793,0.00001842,-0.00002479,0.00001163,-0.01595
 567,-0.00744289,0.00673394,0.10032916,0.09979183,-0.00066673,-0.001003
 92,0.00079948,0.00438923,0.00087990,-0.00213401,-0.00047342,0.00064538
 ,-0.00062291,0.00037739,0.00009034,-0.00010271,0.00009895,-0.00009162,
 0.00008432,-0.00006912,0.00006006,-0.00004417,-0.00008300,0.00003951,-
 0.00003533,-0.00002131,0.00001625,-0.00000105,0.00000124,0.00000313,-0
 .00005482,-0.00001932,0.00010561,-0.00004170,0.00042659,0.00002867,0.0
 0009682,-0.00010122,0.00006127,-0.00020817,0.00006446,-0.00014534,0.00
 026629,0.06769540,0.03313139,-0.07460008,0.02681529,0.01406503,-0.0112
 8702,0.00046194,-0.00123129,0.00200437,-0.00002405,-0.00026987,0.00055
 508,-0.00014177,0.00008720,0.00004805,0.00001935,-0.00001801,0.0000100
 2,-0.00000865,-0.00001362,0.00002388,-0.00000313,0.00000043,0.00000409
 ,-0.00003835,0.00002522,0.00004944,0.00004040,0.00002294,-0.00001162,0
 .00004482,0.00000438,-0.00002702,-0.02041034,-0.00862710,0.00876321,-0
 .07503346,-0.04027777,0.07959259,-0.00066213,0.00059755,0.00235225,-0.
 00027658,-0.00222699,-0.00387899,0.00060137,0.00068245,0.00088123,-0.0
 0004265,0.00011644,-0.00007015,-0.00006085,-0.00002912,-0.00006985,0.0
 0000842,0.00000677,0.00001981,0.00004148,0.00005261,0.00006870,0.00000
 711,-0.00004678,-0.00001777,-0.00007559,0.00014170,-0.00024597,0.00011
 527,-0.00042362,-0.00043241,-0.00079456,-0.00013660,0.00026760,0.00027
 054,-0.00005113,0.00059207,0.00003126,0.00032639,0.00011195,-0.0013563
 4,-0.00271016,-0.00272134,-0.06954075,-0.05402135,-0.05493688,0.000013
 70,0.02691985,0.02448814,0.00025976,-0.00007099,-0.00002764,-0.0000291
 7,0.00000344,-0.00002410,-0.00000818,0.00000950,-0.00001185,0.00001753
 ,0.00000853,0.00000222,-0.00004121,0.00003637,0.00001407,-0.00033822,0
 .00007125,0.00034611,0.00002172,0.00001980,0.00001643,0.00002177,0.000
 02889,0.00000083,0.00074827,0.00109598,-0.00097931,0.00040005,0.000728
 78,0.00019711,0.07432394,-0.00041457,-0.00222528,-0.00181106,0.0016958
 9,0.00278007,0.00374062,-0.00109719,-0.00074809,-0.00167827,0.00023817
 ,-0.00030108,0.00000237,0.00010506,0.00003276,0.00016299,-0.00006208,0
 .00001336,-0.00005553,-0.00011942,-0.00008032,-0.00010005,-0.00002155,
 0.00017978,-0.00002613,0.00000463,0.00009672,-0.00013609,0.00001226,-0
 .00009045,-0.00013228,-0.00007450,-0.00009586,0.00016604,0.00003262,-0
 .00009724,-0.00000649,0.00008940,0.00003713,0.00022461,0.00392761,0.01
 271734,0.01200486,-0.04445858,-0.16118362,-0.12961473,-0.00057322,-0.0
 1686608,-0.01378139,-0.00045025,0.00032164,0.00005541,0.00002468,-0.00
 000595,0.00005558,0.00003187,-0.00001641,0.00000956,-0.00002882,-0.000
 05010,0.00002367,0.00006239,-0.00001918,-0.00005118,-0.00004293,0.0001
 6683,0.00009851,0.00000319,-0.00000219,0.00001271,-0.00000348,0.000046
 34,-0.00001503,0.00142797,-0.00225372,0.00335570,-0.00039874,0.0006718
 8,-0.00032174,0.04045342,0.17552152,0.00231698,-0.00031081,0.00264157,
 -0.00067413,-0.00341917,-0.00336963,0.00028235,0.00019051,0.00066218,-
 0.00008867,0.00009961,0.00003744,-0.00006435,-0.00001270,-0.00011209,0
 .00003854,-0.00001307,0.00003141,0.00004894,0.00004450,0.00007167,-0.0
 0000002,-0.00004141,0.00002469,0.00000587,-0.00007905,0.00006006,-0.00
 001479,0.00012371,0.00011645,0.00017422,0.00005011,-0.00016430,-0.0000
 3986,0.00004987,-0.00010931,-0.00004446,-0.00007609,-0.00004585,-0.009
 67304,-0.01514390,-0.02227597,-0.04737935,-0.13193167,-0.19933742,0.00
 065506,0.00130000,0.00083239,0.00024885,-0.00004237,0.00003819,-0.0000
 2464,0.00002243,-0.00000923,-0.00001753,0.00001358,-0.00000460,0.00001
 479,0.00001086,-0.00000396,-0.00003315,-0.00000012,0.00003979,0.000156
 58,-0.00000851,0.00000481,0.00000107,0.00000251,-0.00001334,0.00000119
 ,-0.00002487,-0.00001021,-0.00016492,0.00340923,-0.00354449,0.00052809
 ,-0.00037131,0.00091990,0.05274559,0.13928658,0.21408315,-0.00117064,0
 .00037573,0.00016265,0.00368933,-0.00140797,0.00006903,-0.00161177,0.0
 0017624,-0.00029916,0.00044917,-0.00044505,-0.00008670,-0.00021065,0.0
 0030278,0.00002731,0.00006573,-0.00014238,-0.00001074,-0.00018359,-0.0
 0027793,0.00013575,-0.00007890,0.00065128,-0.00006415,0.00023844,-0.00
 011174,0.00080933,-0.00375085,0.00359445,0.00170486,0.00002701,0.00041
 318,0.00039355,-0.00200854,-0.00021838,-0.00316939,0.00100160,-0.00167
 108,0.00144468,0.00909574,0.00424803,-0.00102835,-0.21467330,-0.117825
 87,0.05279176,-0.02543602,-0.00761432,0.00550930,0.00030655,0.00017288
 ,-0.00009665,-0.00008275,-0.00001469,0.00014681,0.00002805,0.00006779,
 -0.00004902,0.00000102,-0.00021227,0.00014581,0.00004425,-0.00009124,-
 0.00000716,0.00009757,-0.00007852,-0.00032885,0.00032910,0.00005224,-0
 .00002848,-0.00018655,-0.00004168,-0.00031760,0.00028812,-0.00002610,-
 0.00012732,0.00024773,0.00170728,-0.00266210,-0.00145332,-0.00270313,0
 .00099370,0.23628689,0.00060897,-0.00027720,-0.00055720,-0.00115433,0.
 00055482,0.00080404,0.00028238,-0.00014735,0.00003733,-0.00001652,-0.0
 0007176,0.00009707,-0.00002314,0.00004771,0.00000881,0.00002685,-0.000
 03060,0.00000062,-0.00001414,-0.00004370,-0.00000344,-0.00007916,0.000
 04737,0.00010399,0.00094297,-0.00061670,0.00158149,-0.00050740,0.00109
 056,0.00016295,0.00123067,0.00116747,-0.00024516,-0.00098075,-0.000062
 34,-0.00160835,0.00008802,-0.00142808,-0.00022399,-0.01097395,-0.00759
 455,0.00389143,-0.13053219,-0.14435929,0.03880805,0.03067030,0.0108176
 5,-0.00783604,-0.00002588,-0.00001374,0.00003831,-0.00000844,0.0000092
 5,-0.00000473,-0.00000312,0.00000561,0.00000138,-0.00001211,0.00002754
 ,-0.00000282,0.00000980,-0.00003102,-0.00000258,0.00053724,-0.00021502
 ,-0.00068397,0.00008568,0.00003814,-0.00004990,0.00000897,-0.00015684,
 0.00000066,0.00064592,0.00083662,-0.00046780,0.00122913,-0.00029067,0.
 00223929,-0.01475585,-0.00776825,0.00648386,0.11849866,0.14948376,0.00
 049698,0.00004571,0.00036120,0.00071409,-0.00063712,-0.00011835,-0.000
 08012,-0.00020174,0.00009835,-0.00011736,0.00009553,-0.00001913,-0.000
 02003,0.00002229,-0.00001318,0.00002056,-0.00001739,0.00000493,0.00004
 518,0.00000232,-0.00001969,0.00000312,-0.00004681,0.00002373,-0.000155
 48,-0.00023796,0.00009027,0.00166094,-0.00043354,0.00023402,0.00048223
 ,-0.00095469,-0.00115339,-0.00063945,0.00059194,-0.00040514,-0.0006776
 6,0.00020855,-0.00077449,0.02137868,0.01649258,-0.00775843,0.05136317,
 0.03633003,-0.07122536,0.00194204,-0.00018397,-0.00088418,-0.00003784,
 0.00009993,-0.00010697,0.00001806,-0.00000765,-0.00002764,-0.00000693,
 0.00000050,0.00000279,0.00001322,0.00001964,-0.00001888,-0.00000444,-0
 .00001581,0.00001740,0.00036039,-0.00029512,-0.00025114,-0.00015401,-0
 .00008467,0.00001746,0.00006134,0.00006721,-0.00002522,0.00064638,-0.0
 0087435,0.00123690,-0.00151488,0.00312040,-0.00399425,-0.01983466,-0.0
 1149076,0.00833081,-0.05610957,-0.04174973,0.07568644,-0.00026524,-0.0
 0007636,-0.00102288,-0.00027843,0.00067690,0.00103149,-0.00007509,-0.0
 0018643,-0.00017958,0.00002103,-0.00000429,0.00002504,-0.00009243,0.00
 012534,-0.00001880,0.00007624,-0.00008540,0.00002409,0.00001677,-0.000
 09727,0.00000799,0.00000027,0.00007382,0.00000102,0.00001251,-0.000116
 46,0.00001764,0.00006360,0.00015037,0.00016928,0.00034338,-0.00011676,
 -0.00010239,-0.00013270,0.00005813,-0.00032358,0.00005880,-0.00008868,
 0.00001529,0.00151383,-0.00057501,0.00102832,0.00843276,0.01866576,0.0
 2144246,-0.06984649,-0.04279399,-0.04051429,-0.00004576,0.00007459,-0.
 00005780,0.00000573,-0.00001826,0.00001084,-0.00000884,0.00002856,-0.0
 0000989,0.00000924,-0.00002392,0.00001369,0.00000362,-0.00001173,0.000
 00192,0.00003078,-0.00002669,-0.00006117,-0.00009646,-0.00003184,0.000
 00419,-0.00004489,0.00001783,-0.00002491,-0.00031966,-0.00006216,-0.00
 098756,-0.00016867,-0.00022275,-0.00019246,-0.00503944,0.00300561,-0.0
 0059603,0.00039320,-0.00018454,0.00065390,0.07056595,-0.00024280,0.000
 58804,0.00089430,0.00134296,-0.00142066,-0.00090064,-0.00067794,0.0004
 1806,-0.00004585,0.00013527,-0.00018910,-0.00010688,0.00016516,-0.0000
 1329,0.00019022,-0.00014060,0.00007795,-0.00008494,-0.00013373,-0.0000
 2049,-0.00007304,-0.00005205,0.00009190,-0.00004197,0.00005861,-0.0000
 6536,0.00004067,-0.00009196,-0.00004113,0.00002511,-0.00006910,-0.0001
 3205,0.00001054,-0.00000365,0.00014287,-0.00000926,-0.00004438,-0.0000
 7154,-0.00000607,-0.00183136,0.00131059,0.00014661,-0.00182589,-0.0146
 7895,-0.01444067,-0.05020080,-0.22130290,-0.16910576,0.00013545,0.0000
 4393,0.00011484,-0.00003760,0.00002648,0.00002465,0.00004287,-0.000039
 18,0.00000863,-0.00002703,-0.00002215,0.00002878,0.00002908,-0.0000167
 3,-0.00001743,0.00002620,-0.00000056,-0.00003849,-0.00004577,0.0000121
 9,-0.00001344,0.00005253,0.00004297,-0.00001059,0.00049325,-0.00009113
 ,0.00065679,-0.00002990,-0.00042612,0.00014701,0.00380463,-0.00077284,
 0.00081504,-0.00047464,0.00165481,0.00034365,0.04662447,0.22939725,-0.
 00004134,-0.00012038,-0.00047665,-0.00022018,0.00036413,-0.00017856,-0
 .00007095,0.00005465,-0.00010957,-0.00006514,-0.00001496,-0.00000363,0
 .00002198,0.00006871,0.00008837,0.00000812,-0.00002096,-0.00002164,0.0
 0001778,-0.00004516,-0.00008365,-0.00001593,-0.00004709,0.00000740,0.0
 0001026,0.00001527,0.00004350,-0.00005317,-0.00014489,-0.00000685,-0.0
 0033618,0.00007821,-0.00003282,0.00015549,0.00000313,0.00021402,-0.000
 09965,0.00010670,-0.00021928,0.00069772,0.00127625,0.00234416,0.003480
 80,-0.00188099,0.00075088,-0.04713925,-0.16374404,-0.23735270,-0.00009
 930,0.00004186,0.00004947,0.00001650,-0.00000299,-0.00001183,-0.000002
 74,-0.00000754,0.00001442,-0.00000408,0.00001706,-0.00000811,0.0000027
 8,0.00000217,-0.00000450,0.00002327,-0.00002055,-0.00001867,-0.0000326
 9,-0.00002150,0.00002366,-0.00000831,0.00000810,0.00004813,-0.00057421
 ,-0.00068309,-0.00030653,0.00007736,0.00011064,0.00000556,0.00005934,0
 .00069425,0.00085911,0.00036036,0.00020426,-0.00025461,0.04823981,0.17
 973645,0.24601286,-0.00007557,0.00000861,0.00063956,0.00080355,-0.0002
 7640,-0.00225222,-0.00058568,0.00041855,0.00021328,0.00004120,-0.00017
 818,-0.00008648,-0.00005934,0.00011052,0.00005556,0.00000329,-0.000034
 16,-0.00001891,-0.00003539,-0.00007800,0.00000994,-0.00003815,0.000146
 50,-0.00002923,0.00001086,-0.00002717,-0.00005324,0.00003589,0.0002106
 6,0.00002703,0.00053258,-0.00012890,0.00010075,-0.00019661,-0.00001926
 ,-0.00035339,0.00017852,-0.00016247,0.00031712,-0.00469228,0.00369720,
 0.00264744,-0.00192121,0.01117361,-0.02353046,-0.06574020,0.02016047,-
 0.04589242,0.00006665,0.00006506,0.00000091,-0.00001193,-0.00000157,0.
 00002932,0.00000711,0.00001132,-0.00001046,-0.00000150,-0.00004921,0.0
 0003955,0.00000747,-0.00000981,-0.00000651,-0.00004249,0.00005554,0.00
 001143,-0.00000591,0.00000608,-0.00000461,-0.00001671,0.00001915,-0.00
 005207,0.00012670,-0.00029311,0.00020166,0.00034582,-0.00007918,0.0002
 7721,0.00126758,-0.00029568,0.00028246,-0.00049953,-0.00049520,-0.0005
 5777,-0.00150006,0.00415573,-0.00594987,0.06393055,-0.00030348,0.00000
 900,-0.00069975,0.00024351,0.00071766,0.00218453,0.00021462,-0.0003970
 7,-0.00035751,0.00004064,0.00002921,0.00009197,0.00006230,-0.00005474,
 -0.00000560,-0.00001501,0.00001600,0.00000477,-0.00002597,0.00001371,-
 0.00001270,0.00000812,-0.00002055,0.00001361,0.00004870,-0.00006179,0.
 00008699,-0.00006784,0.00000413,0.00009351,-0.00014937,-0.00009524,0.0
 0002638,-0.00001579,0.00006234,0.00002179,-0.00004776,-0.00005551,-0.0
 0011327,0.00354677,-0.00274379,-0.00196039,0.00231043,-0.00970891,0.01
 718271,0.01698909,-0.14057707,0.14801047,-0.00001286,-0.00001494,-0.00
 000657,0.00000571,-0.00000058,-0.00000004,0.00000795,-0.00000234,0.000
 00370,-0.00000561,0.00001034,-0.00000850,0.00001008,-0.00000403,-0.000
 00187,0.00005684,-0.00001998,-0.00006003,-0.00001800,0.00001215,-0.000
 02101,0.00002730,-0.00000129,0.00000662,0.00018588,0.00013640,0.000051
 31,-0.00007834,0.00034583,-0.00049423,-0.00066495,-0.00052849,-0.00002
 987,-0.00037503,0.00143934,-0.00026481,-0.00340606,0.01684214,-0.02498
 793,-0.02322459,0.14283585,0.00026236,-0.00016831,0.00005837,-0.000229
 45,-0.00014313,0.00029326,0.00033681,-0.00020886,0.00002081,-0.0000567
 2,0.00011390,0.00002260,-0.00011008,0.00008824,-0.00006672,0.00009781,
 -0.00007720,0.00003895,0.00007473,-0.00004180,0.00001263,0.00002666,-0
 .00002390,0.00002876,-0.00003358,-0.00002377,-0.00005651,0.00016154,0.
 00007829,0.00008326,0.00016606,0.00001427,-0.00018550,-0.00001792,0.00
 000437,-0.00006106,-0.00001524,0.00002369,-0.00004045,0.00092200,-0.00
 062950,-0.00008446,-0.00249865,-0.00112328,0.00797602,-0.03822644,0.14
 121515,-0.32194858,-0.00009190,-0.00000838,-0.00005013,0.00001440,-0.0
 0001661,-0.00000620,-0.00002613,0.00002675,-0.00000030,0.00001738,0.00
 000268,-0.00001189,-0.00001490,0.00000115,0.00001065,-0.00000227,-0.00
 005103,0.00005430,-0.00002640,-0.00001221,0.00000537,-0.00004721,-0.00
 000987,0.00000909,0.00011594,-0.00006287,0.00008783,-0.00001674,-0.000
 00839,-0.00010361,0.00041306,-0.00060030,0.00059454,-0.00017452,-0.000
 41842,0.00044138,-0.00256811,0.01480833,-0.02076211,0.04313566,-0.1541
 9124,0.33820449,0.00031258,-0.00045524,-0.00017912,-0.00059529,0.00085
 038,0.00070370,0.00066618,-0.00046711,0.00007241,-0.00012171,0.0001654
 4,0.00014030,-0.00016730,0.00006049,-0.00017283,0.00015267,-0.00010712
 ,0.00008811,0.00011878,-0.00002246,0.00005687,0.00001755,-0.00006147,0
 .00004057,0.00006057,-0.00004606,0.00013206,-0.00018514,-0.00007546,-0
 .00001904,-0.00011871,0.00003506,0.00002283,-0.00001040,0.00002797,0.0
 0004000,-0.00001675,-0.00002033,-0.00014802,0.00187061,-0.00141219,-0.
 00096388,-0.02253445,-0.01003596,0.00627965,-0.30390341,-0.15020829,0.
 06681567,-0.00009779,-0.00001143,-0.00011433,0.00003920,-0.00002956,-0
 .00002103,-0.00003764,0.00004821,-0.00001168,0.00002463,0.00001835,-0.
 00002558,-0.00002730,0.00001370,0.00001235,0.00000884,0.00000387,-0.00
 001027,-0.00002734,-0.00000912,0.00000075,-0.00002976,-0.00001991,0.00
 001187,-0.00006142,0.00002477,0.00000855,0.00006796,0.00078297,-0.0009
 6097,0.00156920,-0.00037064,0.00032067,-0.00124309,0.00490116,0.000049
 94,-0.00363355,-0.00113700,0.00154142,0.00806479,0.00465271,-0.0015881
 4,0.31983748,-0.00037097,-0.00000848,0.00005507,0.00025598,-0.00043684
 ,0.00007906,-0.00035644,0.00015936,-0.00015860,0.00013147,-0.00004549,
 -0.00007173,0.00002627,0.00004790,0.00006575,-0.00003231,-0.00000457,-
 0.00002369,-0.00006230,-0.00005338,-0.00001313,0.00000538,0.00009250,-
 0.00002230,-0.00007722,0.00003658,-0.00015713,0.00021562,0.00021323,0.
 00001808,0.00046742,-0.00007279,-0.00003541,-0.00010426,-0.00002144,-0
 .00025460,0.00011091,-0.00005991,0.00027623,0.00077111,0.00175983,-0.0
 0132999,0.01884043,0.01709966,-0.00558716,-0.13869443,-0.14128671,0.03
 741248,0.00004902,0.00004914,0.00003598,-0.00003068,0.00000342,0.00002
 350,0.00002074,0.00000056,-0.00000498,-0.00000382,-0.00003554,0.000026
 33,0.00001222,-0.00000826,-0.00000396,-0.00003644,0.00001498,0.0000461
 5,0.00001192,0.00000462,0.00000374,-0.00001215,0.00002656,-0.00003661,
 -0.00040516,-0.00017526,0.00010162,-0.00088236,-0.00063775,0.00084151,
 0.00003319,0.00051982,-0.00039746,0.00347148,-0.00411354,0.00005581,-0
 .02137277,-0.01134501,0.00896023,-0.01488612,-0.00818777,0.00144225,0.
 15290426,0.14646457,-0.00001921,-0.00040985,-0.00052543,-0.00021254,0.
 00114130,0.00020915,0.00018955,-0.00017211,-0.00005504,-0.00009029,0.0
 0002493,0.00005566,-0.00005499,0.00004136,-0.00002337,0.00006019,-0.00
 004028,0.00001918,0.00005286,-0.00001877,-0.00001373,0.00000582,-0.000
 03199,0.00002173,0.00000465,0.00000766,0.00000918,0.00003451,0.0000208
 3,0.00002649,-0.00000580,0.00003754,-0.00003076,0.00001156,-0.00002727
 ,0.00001730,-0.00001541,0.00000613,-0.00005828,-0.00158226,-0.00152688
 ,0.00090329,0.00310157,0.00003738,-0.00052612,0.06477268,0.03991218,-0
 .08264575,-0.00007371,-0.00001759,-0.00002373,0.00002957,-0.00001065,-
 0.00000533,-0.00001879,0.00001375,0.00000616,0.00000726,0.00001085,-0.
 00001070,-0.00000627,0.00000499,0.00000367,0.00000807,-0.00000766,0.00
 001143,0.00000403,-0.00000243,0.00000427,-0.00001906,-0.00001516,0.000
 01909,-0.00006969,0.00007020,-0.00019143,0.00068796,0.00064006,0.00004
 538,0.00067442,-0.00007244,-0.00034774,-0.00013510,-0.00060944,0.00050
 437,-0.02602752,-0.01309658,0.00939014,0.03080876,0.01543695,-0.004564
 80,-0.07212280,-0.04134703,0.07777574\\-0.00000938,0.00000523,-0.00000
 460,0.00005942,-0.00000976,0.00002723,-0.00003141,0.00001102,-0.000026
 90,-0.00003090,0.00004330,0.00000717,0.00001240,-0.00001543,-0.0000216
 1,-0.00001105,0.00000850,0.00000424,0.00000623,0.00000575,0.00001712,0
 .00000633,0.00001015,0.00000230,0.00002458,0.00000993,0.00000626,0.000
 00034,-0.00001519,-0.00000377,-0.00000545,0.00000803,0.00000501,0.0000
 0225,-0.00000416,-0.00001052,-0.00000983,0.00000042,-0.00000748,-0.000
 01513,-0.00001745,0.00001079,-0.00000071,-0.00001306,0.00001760,0.0000
 0468,0.00000554,-0.00000985,-0.00000459,-0.00002086,-0.00001302,-0.000
 00609,-0.00000649,0.00000692,-0.00000136,-0.00000294,0.00000371,0.0000
 0013,-0.00000011,-0.00000567,-0.00001156,-0.00002207,0.00000287,0.0000
 0525,0.00000407,-0.00000037,0.00000013,-0.00000059,0.00000048,0.000003
 37,-0.00000400,0.00000764,0.00000586,0.00000614,-0.00000954,-0.0000032
 7,0.00000740,-0.00000806,-0.00000252,-0.00001038,0.00000161,0.00001003
 ,0.00001516,0.00000409,0.00000153,0.00000174,-0.00000020,-0.00000021,0
 .00000178,-0.00000307,0.00000092,-0.00000166,-0.00000039\\\@


 THE LENGTH OF A MEETING IS PROPORTIONAL TO THE
 SQUARE OF THE PARTICIPANTS.
 Job cpu time:       0 days  1 hours 35 minutes 12.3 seconds.
 File lengths (MBytes):  RWF=    349 Int=      0 D2E=      0 Chk=     10 Scr=      1
 Normal termination of Gaussian 09 at Sat Jul 24 02:24:51 2021.
