 Entering Gaussian System, Link 0=g09
 Input=opt_freq-conf-318.com
 Output=opt_freq-conf-318.log
 Initial command:
 /aerosol/software/g09/l1.exe "/scratch/nicole/10468/Gau-72219.inp" -scrdir="/scratch/nicole/10468/"
 Entering Link 1 = /aerosol/software/g09/l1.exe PID=     72224.
  
 Copyright (c) 1988,1990,1992,1993,1995,1998,2003,2009,2013,
            Gaussian, Inc.  All Rights Reserved.
  
 This is part of the Gaussian(R) 09 program.  It is based on
 the Gaussian(R) 03 system (copyright 2003, Gaussian, Inc.),
 the Gaussian(R) 98 system (copyright 1998, Gaussian, Inc.),
 the Gaussian(R) 94 system (copyright 1995, Gaussian, Inc.),
 the Gaussian 92(TM) system (copyright 1992, Gaussian, Inc.),
 the Gaussian 90(TM) system (copyright 1990, Gaussian, Inc.),
 the Gaussian 88(TM) system (copyright 1988, Gaussian, Inc.),
 the Gaussian 86(TM) system (copyright 1986, Carnegie Mellon
 University), and the Gaussian 82(TM) system (copyright 1983,
 Carnegie Mellon University). Gaussian is a federally registered
 trademark of Gaussian, Inc.
  
 This software contains proprietary and confidential information,
 including trade secrets, belonging to Gaussian, Inc.
  
 This software is provided under written license and may be
 used, copied, transmitted, or stored only in accord with that
 written license.
  
 The following legend is applicable only to US Government
 contracts under FAR:
  
                    RESTRICTED RIGHTS LEGEND
  
 Use, reproduction and disclosure by the US Government is
 subject to restrictions as set forth in subparagraphs (a)
 and (c) of the Commercial Computer Software - Restricted
 Rights clause in FAR 52.227-19.
  
 Gaussian, Inc.
 340 Quinnipiac St., Bldg. 40, Wallingford CT 06492
  
  
 ---------------------------------------------------------------
 Warning -- This program may not be used in any manner that
 competes with the business of Gaussian, Inc. or will provide
 assistance to any competitor of Gaussian, Inc.  The licensee
 of this program is prohibited from giving any competitor of
 Gaussian, Inc. access to this program.  By using this program,
 the user acknowledges that Gaussian, Inc. is engaged in the
 business of creating and licensing software in the field of
 computational chemistry and represents and warrants to the
 licensee that it is not a competitor of Gaussian, Inc. and that
 it will not use this program in any manner prohibited above.
 ---------------------------------------------------------------
  

 Cite this work as:
 Gaussian 09, Revision D.01,
 M. J. Frisch, G. W. Trucks, H. B. Schlegel, G. E. Scuseria, 
 M. A. Robb, J. R. Cheeseman, G. Scalmani, V. Barone, B. Mennucci, 
 G. A. Petersson, H. Nakatsuji, M. Caricato, X. Li, H. P. Hratchian, 
 A. F. Izmaylov, J. Bloino, G. Zheng, J. L. Sonnenberg, M. Hada, 
 M. Ehara, K. Toyota, R. Fukuda, J. Hasegawa, M. Ishida, T. Nakajima, 
 Y. Honda, O. Kitao, H. Nakai, T. Vreven, J. A. Montgomery, Jr., 
 J. E. Peralta, F. Ogliaro, M. Bearpark, J. J. Heyd, E. Brothers, 
 K. N. Kudin, V. N. Staroverov, T. Keith, R. Kobayashi, J. Normand, 
 K. Raghavachari, A. Rendell, J. C. Burant, S. S. Iyengar, J. Tomasi, 
 M. Cossi, N. Rega, J. M. Millam, M. Klene, J. E. Knox, J. B. Cross, 
 V. Bakken, C. Adamo, J. Jaramillo, R. Gomperts, R. E. Stratmann, 
 O. Yazyev, A. J. Austin, R. Cammi, C. Pomelli, J. W. Ochterski, 
 R. L. Martin, K. Morokuma, V. G. Zakrzewski, G. A. Voth, 
 P. Salvador, J. J. Dannenberg, S. Dapprich, A. D. Daniels, 
 O. Farkas, J. B. Foresman, J. V. Ortiz, J. Cioslowski, 
 and D. J. Fox, Gaussian, Inc., Wallingford CT, 2013.
 
 ******************************************
 Gaussian 09:  ES64L-G09RevD.01 24-Apr-2013
                24-Jul-2021 
 ******************************************
 %mem=2gb
 %nproc=4
 Will use up to    4 processors via shared memory.
 %chk=conf-318.chk
 ----------------------------------------------------------------------
 # B3LYP/6-31G(d,p) EmpiricalDispersion=GD3BJ opt=calcfc freq=noraman n
 osymm integral(ultrafinegrid)
 ----------------------------------------------------------------------
 1/10=4,14=-1,18=20,19=15,26=4,38=1/1,3;
 2/9=110,12=2,15=1,17=6,18=5,40=1/2;
 3/5=1,6=6,7=101,11=2,16=1,25=1,30=1,71=2,74=-5,75=-5,124=41,140=1/1,2,3;
 4//1;
 5/5=2,38=5/2;
 8/6=4,10=90,11=11/1;
 11/6=1,8=1,9=11,15=111,16=1,31=1/1,2,10;
 10/6=1,13=1,31=1/2;
 6/7=2,8=2,9=2,10=2,28=1/1;
 7/10=1,18=20,25=1,30=1/1,2,3,16;
 1/10=4,14=-1,18=20,19=15,26=4/3(2);
 2/9=110,15=1/2;
 99//99;
 2/9=110,15=1/2;
 3/5=1,6=6,7=101,11=2,16=1,25=1,30=1,71=1,74=-5,75=-5,124=41/1,2,3;
 4/5=5,16=3,69=1/1;
 5/5=2,38=5/2;
 7/30=1/1,2,3,16;
 1/14=-1,18=20,19=15,26=4/3(-5);
 2/9=110,15=1/2;
 6/7=2,8=2,9=2,10=2,19=2,28=1/1;
 99/9=1/99;
 ------------------------------------------------------------
 Candidate Structure: Conf:318 OPT and FREQ calc in gas phase
 ------------------------------------------------------------
 Symbolic Z-matrix:
 Charge =  1 Multiplicity = 1
 O                     1.13479   0.36017   1.71301 
 C                     1.16226  -0.2433    0.64574 
 N                     0.11396  -1.00733   0.23996 
 C                    -1.06936  -1.15699   1.0577 
 C                    -1.84054  -2.36383   0.54088 
 O                    -2.80523  -2.83052   1.35604 
 O                    -1.63337  -2.87104  -0.528 
 C                    -1.9416    0.10927   1.09446 
 C                    -2.42059   0.64013  -0.22615 
 C                    -2.81335   0.0844   -1.40888 
 N                    -3.21509   1.05471  -2.30737 
 C                    -3.07245   2.19143  -1.6678 
 N                    -2.59722   2.00042  -0.41027 
 C                     2.34258  -0.20625  -0.31324 
 C                     3.52376   0.56524   0.25722 
 N                     4.66863   0.61098  -0.69028 
 H                     0.14741  -1.55596  -0.606 
 H                    -0.76096  -1.33802   2.09037 
 H                    -2.82173  -2.33987   2.18352 
 H                    -2.80031  -0.07852   1.7472 
 H                    -1.35361   0.88582   1.58118 
 H                    -2.82341  -0.96002  -1.66902 
 H                    -3.29495   3.16978  -2.05629 
 H                    -2.40028   2.71256   0.27365 
 H                     2.02064   0.25342  -1.25462 
 H                     2.64528  -1.23191  -0.54929 
 H                     3.83569   0.10072   1.19197 
 H                     3.20224   1.57712   0.49941 
 H                     5.00063  -0.32667  -0.91571 
 H                     5.45977   1.12826  -0.30455 
 H                     4.40638   1.06602  -1.56461 
 

 GradGradGradGradGradGradGradGradGradGradGradGradGradGradGradGradGradGrad
 Berny optimization.
 Initialization pass.
                           ----------------------------
                           !    Initial Parameters    !
                           ! (Angstroms and Degrees)  !
 --------------------------                            --------------------------
 ! Name  Definition              Value          Derivative Info.                !
 --------------------------------------------------------------------------------
 ! R1    R(1,2)                  1.2264         calculate D2E/DX2 analytically  !
 ! R2    R(2,3)                  1.3592         calculate D2E/DX2 analytically  !
 ! R3    R(2,14)                 1.5212         calculate D2E/DX2 analytically  !
 ! R4    R(3,4)                  1.4461         calculate D2E/DX2 analytically  !
 ! R5    R(3,17)                 1.0088         calculate D2E/DX2 analytically  !
 ! R6    R(4,5)                  1.5226         calculate D2E/DX2 analytically  !
 ! R7    R(4,8)                  1.538          calculate D2E/DX2 analytically  !
 ! R8    R(4,18)                 1.0928         calculate D2E/DX2 analytically  !
 ! R9    R(5,6)                  1.3464         calculate D2E/DX2 analytically  !
 ! R10   R(5,7)                  1.2011         calculate D2E/DX2 analytically  !
 ! R11   R(6,19)                 0.9622         calculate D2E/DX2 analytically  !
 ! R12   R(8,9)                  1.5018         calculate D2E/DX2 analytically  !
 ! R13   R(8,20)                 1.0949         calculate D2E/DX2 analytically  !
 ! R14   R(8,21)                 1.0889         calculate D2E/DX2 analytically  !
 ! R15   R(9,10)                 1.3645         calculate D2E/DX2 analytically  !
 ! R16   R(9,13)                 1.384          calculate D2E/DX2 analytically  !
 ! R17   R(10,11)                1.3821         calculate D2E/DX2 analytically  !
 ! R18   R(10,22)                1.0764         calculate D2E/DX2 analytically  !
 ! R19   R(11,12)                1.3121         calculate D2E/DX2 analytically  !
 ! R20   R(12,13)                1.3578         calculate D2E/DX2 analytically  !
 ! R21   R(12,23)                1.0759         calculate D2E/DX2 analytically  !
 ! R22   R(13,24)                1.0068         calculate D2E/DX2 analytically  !
 ! R23   R(14,15)                1.5218         calculate D2E/DX2 analytically  !
 ! R24   R(14,25)                1.096          calculate D2E/DX2 analytically  !
 ! R25   R(14,26)                1.0951         calculate D2E/DX2 analytically  !
 ! R26   R(15,16)                1.4868         calculate D2E/DX2 analytically  !
 ! R27   R(15,27)                1.0894         calculate D2E/DX2 analytically  !
 ! R28   R(15,28)                1.089          calculate D2E/DX2 analytically  !
 ! R29   R(16,29)                1.0199         calculate D2E/DX2 analytically  !
 ! R30   R(16,30)                1.0209         calculate D2E/DX2 analytically  !
 ! R31   R(16,31)                1.0199         calculate D2E/DX2 analytically  !
 ! A1    A(1,2,3)              121.2758         calculate D2E/DX2 analytically  !
 ! A2    A(1,2,14)             123.6419         calculate D2E/DX2 analytically  !
 ! A3    A(3,2,14)             115.0822         calculate D2E/DX2 analytically  !
 ! A4    A(2,3,4)              121.3636         calculate D2E/DX2 analytically  !
 ! A5    A(2,3,17)             122.0375         calculate D2E/DX2 analytically  !
 ! A6    A(4,3,17)             116.424          calculate D2E/DX2 analytically  !
 ! A7    A(3,4,5)              107.7302         calculate D2E/DX2 analytically  !
 ! A8    A(3,4,8)              113.1007         calculate D2E/DX2 analytically  !
 ! A9    A(3,4,18)             108.6967         calculate D2E/DX2 analytically  !
 ! A10   A(5,4,8)              111.928          calculate D2E/DX2 analytically  !
 ! A11   A(5,4,18)             109.4136         calculate D2E/DX2 analytically  !
 ! A12   A(8,4,18)             105.8923         calculate D2E/DX2 analytically  !
 ! A13   A(4,5,6)              115.6021         calculate D2E/DX2 analytically  !
 ! A14   A(4,5,7)              123.327          calculate D2E/DX2 analytically  !
 ! A15   A(6,5,7)              121.0623         calculate D2E/DX2 analytically  !
 ! A16   A(5,6,19)             110.8675         calculate D2E/DX2 analytically  !
 ! A17   A(4,8,9)              116.8014         calculate D2E/DX2 analytically  !
 ! A18   A(4,8,20)             108.5318         calculate D2E/DX2 analytically  !
 ! A19   A(4,8,21)             106.9537         calculate D2E/DX2 analytically  !
 ! A20   A(9,8,20)             109.5565         calculate D2E/DX2 analytically  !
 ! A21   A(9,8,21)             108.2526         calculate D2E/DX2 analytically  !
 ! A22   A(20,8,21)            106.2217         calculate D2E/DX2 analytically  !
 ! A23   A(8,9,10)             135.2394         calculate D2E/DX2 analytically  !
 ! A24   A(8,9,13)             120.3403         calculate D2E/DX2 analytically  !
 ! A25   A(10,9,13)            104.3734         calculate D2E/DX2 analytically  !
 ! A26   A(9,10,11)            111.1751         calculate D2E/DX2 analytically  !
 ! A27   A(9,10,22)            127.3977         calculate D2E/DX2 analytically  !
 ! A28   A(11,10,22)           121.4253         calculate D2E/DX2 analytically  !
 ! A29   A(10,11,12)           105.055          calculate D2E/DX2 analytically  !
 ! A30   A(11,12,13)           111.5691         calculate D2E/DX2 analytically  !
 ! A31   A(11,12,23)           126.1078         calculate D2E/DX2 analytically  !
 ! A32   A(13,12,23)           122.323          calculate D2E/DX2 analytically  !
 ! A33   A(9,13,12)            107.8264         calculate D2E/DX2 analytically  !
 ! A34   A(9,13,24)            125.441          calculate D2E/DX2 analytically  !
 ! A35   A(12,13,24)           126.7321         calculate D2E/DX2 analytically  !
 ! A36   A(2,14,15)            112.2264         calculate D2E/DX2 analytically  !
 ! A37   A(2,14,25)            108.8913         calculate D2E/DX2 analytically  !
 ! A38   A(2,14,26)            109.1188         calculate D2E/DX2 analytically  !
 ! A39   A(15,14,25)           109.7159         calculate D2E/DX2 analytically  !
 ! A40   A(15,14,26)           109.9419         calculate D2E/DX2 analytically  !
 ! A41   A(25,14,26)           106.7903         calculate D2E/DX2 analytically  !
 ! A42   A(14,15,16)           111.9861         calculate D2E/DX2 analytically  !
 ! A43   A(14,15,27)           109.1305         calculate D2E/DX2 analytically  !
 ! A44   A(14,15,28)           108.9821         calculate D2E/DX2 analytically  !
 ! A45   A(16,15,27)           109.8421         calculate D2E/DX2 analytically  !
 ! A46   A(16,15,28)           109.9065         calculate D2E/DX2 analytically  !
 ! A47   A(27,15,28)           106.8527         calculate D2E/DX2 analytically  !
 ! A48   A(15,16,29)           111.299          calculate D2E/DX2 analytically  !
 ! A49   A(15,16,30)           111.8094         calculate D2E/DX2 analytically  !
 ! A50   A(15,16,31)           111.2249         calculate D2E/DX2 analytically  !
 ! A51   A(29,16,30)           107.2818         calculate D2E/DX2 analytically  !
 ! A52   A(29,16,31)           107.7209         calculate D2E/DX2 analytically  !
 ! A53   A(30,16,31)           107.2822         calculate D2E/DX2 analytically  !
 ! D1    D(1,2,3,4)             -0.927          calculate D2E/DX2 analytically  !
 ! D2    D(1,2,3,17)          -175.9471         calculate D2E/DX2 analytically  !
 ! D3    D(14,2,3,4)           178.9339         calculate D2E/DX2 analytically  !
 ! D4    D(14,2,3,17)            3.9138         calculate D2E/DX2 analytically  !
 ! D5    D(1,2,14,15)            4.8672         calculate D2E/DX2 analytically  !
 ! D6    D(1,2,14,25)         -116.8023         calculate D2E/DX2 analytically  !
 ! D7    D(1,2,14,26)          126.9811         calculate D2E/DX2 analytically  !
 ! D8    D(3,2,14,15)         -174.99           calculate D2E/DX2 analytically  !
 ! D9    D(3,2,14,25)           63.3405         calculate D2E/DX2 analytically  !
 ! D10   D(3,2,14,26)          -52.8761         calculate D2E/DX2 analytically  !
 ! D11   D(2,3,4,5)           -163.3057         calculate D2E/DX2 analytically  !
 ! D12   D(2,3,4,8)             72.4572         calculate D2E/DX2 analytically  !
 ! D13   D(2,3,4,18)           -44.8421         calculate D2E/DX2 analytically  !
 ! D14   D(17,3,4,5)            11.981          calculate D2E/DX2 analytically  !
 ! D15   D(17,3,4,8)          -112.2561         calculate D2E/DX2 analytically  !
 ! D16   D(17,3,4,18)          130.4447         calculate D2E/DX2 analytically  !
 ! D17   D(3,4,5,6)            165.8373         calculate D2E/DX2 analytically  !
 ! D18   D(3,4,5,7)            -15.219          calculate D2E/DX2 analytically  !
 ! D19   D(8,4,5,6)            -69.2207         calculate D2E/DX2 analytically  !
 ! D20   D(8,4,5,7)            109.7231         calculate D2E/DX2 analytically  !
 ! D21   D(18,4,5,6)            47.8348         calculate D2E/DX2 analytically  !
 ! D22   D(18,4,5,7)          -133.2214         calculate D2E/DX2 analytically  !
 ! D23   D(3,4,8,9)             56.7831         calculate D2E/DX2 analytically  !
 ! D24   D(3,4,8,20)          -178.8236         calculate D2E/DX2 analytically  !
 ! D25   D(3,4,8,21)           -64.6058         calculate D2E/DX2 analytically  !
 ! D26   D(5,4,8,9)            -65.1291         calculate D2E/DX2 analytically  !
 ! D27   D(5,4,8,20)            59.2642         calculate D2E/DX2 analytically  !
 ! D28   D(5,4,8,21)           173.4821         calculate D2E/DX2 analytically  !
 ! D29   D(18,4,8,9)           175.7167         calculate D2E/DX2 analytically  !
 ! D30   D(18,4,8,20)          -59.89           calculate D2E/DX2 analytically  !
 ! D31   D(18,4,8,21)           54.3278         calculate D2E/DX2 analytically  !
 ! D32   D(4,5,6,19)            -3.1825         calculate D2E/DX2 analytically  !
 ! D33   D(7,5,6,19)           177.8478         calculate D2E/DX2 analytically  !
 ! D34   D(4,8,9,10)            35.2995         calculate D2E/DX2 analytically  !
 ! D35   D(4,8,9,13)          -147.6284         calculate D2E/DX2 analytically  !
 ! D36   D(20,8,9,10)          -88.572          calculate D2E/DX2 analytically  !
 ! D37   D(20,8,9,13)           88.5001         calculate D2E/DX2 analytically  !
 ! D38   D(21,8,9,10)          156.0038         calculate D2E/DX2 analytically  !
 ! D39   D(21,8,9,13)          -26.9241         calculate D2E/DX2 analytically  !
 ! D40   D(8,9,10,11)          177.7149         calculate D2E/DX2 analytically  !
 ! D41   D(8,9,10,22)           -2.7787         calculate D2E/DX2 analytically  !
 ! D42   D(13,9,10,11)           0.3232         calculate D2E/DX2 analytically  !
 ! D43   D(13,9,10,22)         179.8295         calculate D2E/DX2 analytically  !
 ! D44   D(8,9,13,12)         -178.07           calculate D2E/DX2 analytically  !
 ! D45   D(8,9,13,24)            2.1942         calculate D2E/DX2 analytically  !
 ! D46   D(10,9,13,12)          -0.1978         calculate D2E/DX2 analytically  !
 ! D47   D(10,9,13,24)        -179.9336         calculate D2E/DX2 analytically  !
 ! D48   D(9,10,11,12)          -0.3247         calculate D2E/DX2 analytically  !
 ! D49   D(22,10,11,12)       -179.8651         calculate D2E/DX2 analytically  !
 ! D50   D(10,11,12,13)          0.191          calculate D2E/DX2 analytically  !
 ! D51   D(10,11,12,23)       -179.6929         calculate D2E/DX2 analytically  !
 ! D52   D(11,12,13,9)           0.0032         calculate D2E/DX2 analytically  !
 ! D53   D(11,12,13,24)        179.7346         calculate D2E/DX2 analytically  !
 ! D54   D(23,12,13,9)         179.8922         calculate D2E/DX2 analytically  !
 ! D55   D(23,12,13,24)         -0.3764         calculate D2E/DX2 analytically  !
 ! D56   D(2,14,15,16)        -179.3655         calculate D2E/DX2 analytically  !
 ! D57   D(2,14,15,27)          58.798          calculate D2E/DX2 analytically  !
 ! D58   D(2,14,15,28)         -57.5501         calculate D2E/DX2 analytically  !
 ! D59   D(25,14,15,16)        -58.1686         calculate D2E/DX2 analytically  !
 ! D60   D(25,14,15,27)        179.995          calculate D2E/DX2 analytically  !
 ! D61   D(25,14,15,28)         63.6469         calculate D2E/DX2 analytically  !
 ! D62   D(26,14,15,16)         58.99           calculate D2E/DX2 analytically  !
 ! D63   D(26,14,15,27)        -62.8465         calculate D2E/DX2 analytically  !
 ! D64   D(26,14,15,28)       -179.1945         calculate D2E/DX2 analytically  !
 ! D65   D(14,15,16,29)        -59.978          calculate D2E/DX2 analytically  !
 ! D66   D(14,15,16,30)       -179.9408         calculate D2E/DX2 analytically  !
 ! D67   D(14,15,16,31)         60.1466         calculate D2E/DX2 analytically  !
 ! D68   D(27,15,16,29)         61.4498         calculate D2E/DX2 analytically  !
 ! D69   D(27,15,16,30)        -58.5131         calculate D2E/DX2 analytically  !
 ! D70   D(27,15,16,31)       -178.4257         calculate D2E/DX2 analytically  !
 ! D71   D(28,15,16,29)        178.7381         calculate D2E/DX2 analytically  !
 ! D72   D(28,15,16,30)         58.7752         calculate D2E/DX2 analytically  !
 ! D73   D(28,15,16,31)        -61.1374         calculate D2E/DX2 analytically  !
 --------------------------------------------------------------------------------
 Trust Radius=3.00D-01 FncErr=1.00D-07 GrdErr=1.00D-06
 Number of steps in this run=    167 maximum allowed number of steps=    186.
 GradGradGradGradGradGradGradGradGradGradGradGradGradGradGradGradGradGrad

                          Input orientation:                          
 ---------------------------------------------------------------------
 Center     Atomic      Atomic             Coordinates (Angstroms)
 Number     Number       Type             X           Y           Z
 ---------------------------------------------------------------------
      1          8           0        1.134793    0.360172    1.713014
      2          6           0        1.162257   -0.243302    0.645742
      3          7           0        0.113957   -1.007325    0.239961
      4          6           0       -1.069364   -1.156993    1.057696
      5          6           0       -1.840539   -2.363826    0.540876
      6          8           0       -2.805228   -2.830522    1.356037
      7          8           0       -1.633368   -2.871040   -0.528005
      8          6           0       -1.941597    0.109268    1.094457
      9          6           0       -2.420593    0.640134   -0.226148
     10          6           0       -2.813354    0.084404   -1.408885
     11          7           0       -3.215093    1.054711   -2.307369
     12          6           0       -3.072450    2.191426   -1.667803
     13          7           0       -2.597217    2.000422   -0.410274
     14          6           0        2.342582   -0.206253   -0.313243
     15          6           0        3.523756    0.565241    0.257219
     16          7           0        4.668626    0.610979   -0.690278
     17          1           0        0.147411   -1.555964   -0.605997
     18          1           0       -0.760965   -1.338020    2.090369
     19          1           0       -2.821728   -2.339868    2.183521
     20          1           0       -2.800315   -0.078519    1.747195
     21          1           0       -1.353609    0.885824    1.581179
     22          1           0       -2.823414   -0.960017   -1.669022
     23          1           0       -3.294949    3.169775   -2.056286
     24          1           0       -2.400277    2.712564    0.273645
     25          1           0        2.020644    0.253423   -1.254621
     26          1           0        2.645282   -1.231912   -0.549292
     27          1           0        3.835693    0.100720    1.191966
     28          1           0        3.202235    1.577124    0.499409
     29          1           0        5.000631   -0.326669   -0.915711
     30          1           0        5.459766    1.128265   -0.304546
     31          1           0        4.406382    1.066022   -1.564605
 ---------------------------------------------------------------------
                    Distance matrix (angstroms):
                    1          2          3          4          5
     1  O    0.000000
     2  C    1.226379   0.000000
     3  N    2.254339   1.359162   0.000000
     4  C    2.754913   2.446359   1.446147   0.000000
     5  C    4.200795   3.677554   2.398061   1.522583   0.000000
     6  O    5.082493   4.789485   3.618192   2.429595   1.346447
     7  O    4.808910   4.012257   2.667649   2.402187   1.201121
     8  C    3.147974   3.155877   2.490431   1.538037   2.536308
     9  C    4.059495   3.791763   3.058647   2.589158   3.154134
    10  C    5.040850   4.487133   3.532664   3.265974   3.277463
    11  N    5.963838   5.437544   4.671558   4.562833   4.657068
    12  C    5.699501   5.404917   4.901506   4.759476   5.210200
    13  N    4.596376   4.503677   4.101196   3.802439   4.530331
    14  C    2.425966   1.521247   2.431979   3.797994   4.783633
    15  C    2.805091   2.526138   3.754996   4.970273   6.118461
    16  N    4.280969   3.848295   4.922323   6.253453   7.261848
    17  H    3.166120   2.078424   1.008845   2.099427   2.433085
    18  H    2.572966   2.642751   2.073368   1.092838   2.149113
    19  H    4.813071   4.757362   3.764485   2.395298   1.913528
    20  H    3.959633   4.116106   3.409900   2.152836   2.756628
    21  H    2.546731   2.911967   2.745293   2.127894   3.446673
    22  H    5.371077   4.664481   3.503513   3.248150   2.796492
    23  H    6.459421   6.230308   5.860167   5.776767   6.283414
    24  H    4.483554   4.644055   4.489998   4.166478   5.114142
    25  H    3.098868   2.143581   2.731065   4.109043   4.998253
    26  H    3.151878   2.145884   2.661008   4.048039   4.753135
    27  H    2.762909   2.750268   3.998175   5.065517   6.222341
    28  H    2.688517   2.738042   4.035363   5.102317   6.400186
    29  H    4.725109   4.144660   5.067392   6.436507   7.285140
    30  H    4.833829   4.610079   5.782292   7.050365   8.136577
    31  H    4.684475   4.138153   5.097071   6.465451   7.431078
                    6          7          8          9         10
     6  O    0.000000
     7  O    2.219124   0.000000
     8  C    3.075167   3.407290   0.000000
     9  C    3.833628   3.610981   1.501750   0.000000
    10  C    4.017668   3.301964   2.650905   1.364538   0.000000
    11  N    5.355705   4.591243   3.753408   2.265962   1.382087
    12  C    5.868133   5.385041   3.639271   2.215806   2.138624
    13  N    5.147926   4.967294   2.504100   1.384009   2.171420
    14  C    6.014419   4.791179   4.520549   4.838574   5.279071
    15  C    7.265993   6.246642   5.547879   5.964440   6.570089
    16  N    8.478788   7.201800   6.865278   7.104456   7.534833
    17  H    3.767247   2.215103   3.166779   3.400261   3.478730
    18  H    2.635492   3.157074   2.116689   3.468964   4.298880
    19  H    0.962156   3.007776   2.821163   3.853287   4.333883
    20  H    2.779667   3.786353   1.094864   2.134182   3.160309
    21  H    3.996138   4.317517   1.088884   2.113114   3.422515
    22  H    3.556699   2.523914   3.091567   2.191947   1.076377
    23  H    6.920069   6.448872   4.596243   3.242374   3.189135
    24  H    5.662276   5.692752   2.767900   2.131941   3.147819
    25  H    6.294068   4.862309   4.608502   4.575138   4.839411
    26  H    5.991152   4.581926   5.053724   5.410367   5.680519
    27  H    7.260919   6.457577   5.778119   6.437635   7.139645
    28  H    7.500052   6.650173   5.382164   5.746354   6.485146
    29  H    8.506560   7.115764   7.240535   7.515636   7.840317
    30  H    9.313413   8.145976   7.601035   7.895852   8.411523
    31  H    8.701754   7.283789   6.948584   6.969967   7.287826
                   11         12         13         14         15
    11  N    0.000000
    12  C    1.312064   0.000000
    13  N    2.207964   1.357832   0.000000
    14  C    6.037741   6.075053   5.411140   0.000000
    15  C    7.226948   7.061170   6.322310   1.521776   0.000000
    16  N    8.060081   7.961007   7.402798   2.494094   1.486798
    17  H    4.584400   5.053501   4.496573   2.593492   4.079750
    18  H    5.575661   5.650116   4.557437   4.085370   5.034052
    19  H    5.643225   5.952158   5.061254   6.120151   7.239853
    20  H    4.230336   4.109614   3.002985   5.541760   6.529037
    21  H    4.314446   3.900627   2.598995   4.294566   5.064024
    22  H    2.149425   3.161268   3.224873   5.393868   6.806128
    23  H    2.131411   1.075914   2.136252   6.798347   7.657065
    24  H    3.173961   2.119581   1.006816   5.599879   6.301225
    25  H    5.400303   5.464996   5.008948   1.095964   2.154585
    26  H    6.531728   6.757423   6.160446   1.095135   2.156834
    27  H    7.928999   7.763490   6.896258   2.142259   1.089421
    28  H    7.023746   6.666772   5.885605   2.140056   1.089008
    29  H    8.446481   8.490059   7.962293   2.728130   2.086247
    30  H    8.903363   8.705601   8.104740   3.390848   2.093014
    31  H    7.657591   7.563737   7.159328   2.728344   2.085390
                   16         17         18         19         20
    16  N    0.000000
    17  H    5.014393   0.000000
    18  H    6.403987   2.853600   0.000000
    19  H    8.548194   4.148699   2.293278   0.000000
    20  H    7.886809   4.050857   2.421375   2.303158   0.000000
    21  H    6.442234   3.605431   2.357113   3.594896   1.746561
    22  H    7.717294   3.211071   4.304603   4.092198   3.528188
    23  H    8.475373   6.023769   6.628427   6.968219   5.026187
    24  H    7.437419   5.048249   4.732342   5.417778   3.181435
    25  H    2.730960   2.683952   4.632385   6.480320   5.688825
    26  H    2.740446   2.519442   4.310636   6.211605   6.021519
    27  H    2.120610   4.425009   4.899629   7.159673   6.661607
    28  H    2.121107   4.513327   5.170703   7.380189   6.350491
    29  H    1.019918   5.016058   6.576879   8.651446   8.246660
    30  H    1.020919   5.959620   7.107437   9.316736   8.596214
    31  H    1.019943   5.092404   6.770504   8.825764   8.013393
                   21         22         23         24         25
    21  H    0.000000
    22  H    4.016374   0.000000
    23  H    4.713426   4.174626   0.000000
    24  H    2.478333   4.176224   2.537334   0.000000
    25  H    4.452783   5.010894   6.115824   5.284649   0.000000
    26  H    5.001484   5.588771   7.545345   6.457072   1.758943
    27  H    5.262769   7.324898   8.415243   6.822930   3.050166
    28  H    4.733270   6.888224   7.161112   5.720869   2.494988
    29  H    6.934045   7.885702   9.074288   8.088570   3.054782
    30  H    7.073671   8.650652   9.158679   8.038942   3.673629
    31  H    6.565510   7.509040   7.998627   7.240226   2.539321
                   26         27         28         29         30
    26  H    0.000000
    27  H    2.494989   0.000000
    28  H    3.049697   1.749478   0.000000
    29  H    2.549784   2.445822   2.976780   0.000000
    30  H    3.681257   2.435777   2.438086   1.643521   0.000000
    31  H    3.068034   2.975934   2.443635   1.647357   1.643545
                   31
    31  H    0.000000
 Symmetry turned off by external request.
 Stoichiometry    C9H15N4O3(1+)
 Framework group  C1[X(C9H15N4O3)]
 Deg. of freedom    87
 Full point group                 C1      NOp   1
 Rotational constants (GHZ):      0.6292239      0.3107285      0.2460042
 Standard basis: 6-31G(d,p) (6D, 7F)
   315 basis functions,   553 primitive gaussians,   315 cartesian basis functions
    60 alpha electrons       60 beta electrons
       nuclear repulsion energy      1133.0540732988 Hartrees.
 NAtoms=   31 NActive=   31 NUniq=   31 SFac= 1.00D+00 NAtFMM=   60 NAOKFM=F Big=F
 Integral buffers will be    131072 words long.
 Raffenetti 2 integral format.
 Two-electron integral symmetry is turned off.
 Nuclear repulsion after empirical dispersion term =     1132.9986854905 Hartrees.
 One-electron integrals computed using PRISM.
 NBasis=   315 RedAO= T EigKep=  1.16D-03  NBF=   315
 NBsUse=   315 1.00D-06 EigRej= -1.00D+00 NBFU=   315
 ExpMin= 1.61D-01 ExpMax= 5.48D+03 ExpMxC= 8.25D+02 IAcc=3 IRadAn=         5 AccDes= 0.00D+00
 Harris functional with IExCor=  402 and IRadAn=       5 diagonalized for initial guess.
 HarFok:  IExCor=  402 AccDes= 0.00D+00 IRadAn=         5 IDoV= 1 UseB2=F ITyADJ=14
 ICtDFT=  3500011 ScaDFX=  1.000000  1.000000  1.000000  1.000000
 FoFCou: FMM=F IPFlag=           0 FMFlag=      100000 FMFlg1=           0
         NFxFlg=           0 DoJE=T BraDBF=F KetDBF=T FulRan=T
         wScrn=  0.000000 ICntrl=     500 IOpCl=  0 I1Cent=   200000004 NGrid=           0
         NMat0=    1 NMatS0=      1 NMatT0=    0 NMatD0=    1 NMtDS0=    0 NMtDT0=    0
 Symmetry not used in FoFCou.
 Requested convergence on RMS density matrix=1.00D-08 within 128 cycles.
 Requested convergence on MAX density matrix=1.00D-06.
 Requested convergence on             energy=1.00D-06.
 No special actions if energy rises.
 Integral accuracy reduced to 1.0D-05 until final iterations.
 Initial convergence to 1.0D-05 achieved.  Increase integral accuracy.
 SCF Done:  E(RB3LYP) =  -796.519144482     A.U. after   15 cycles
            NFock= 15  Conv=0.48D-08     -V/T= 2.0090
 DoSCS=F DFT=T ScalE2(SS,OS)=  1.000000  1.000000
 Range of M.O.s used for correlation:     1   315
 NBasis=   315 NAE=    60 NBE=    60 NFC=     0 NFV=     0
 NROrb=    315 NOA=    60 NOB=    60 NVA=   255 NVB=   255
 Symmetrizing basis deriv contribution to polar:
 IMax=3 JMax=2 DiffMx= 0.00D+00
 G2DrvN: will do    32 centers at a time, making    1 passes.
 Calling FoFCou, ICntrl=  3107 FMM=F I1Cent=   0 AccDes= 0.00D+00.
 End of G2Drv F.D. properties file   721 does not exist.
 End of G2Drv F.D. properties file   722 does not exist.
 End of G2Drv F.D. properties file   788 does not exist.
          IDoAtm=1111111111111111111111111111111
          Differentiating once with respect to nuclear coordinates.
          There are    96 degrees of freedom in the 1st order CPHF.  IDoFFX=6 NUNeed=     0.
     90 vectors produced by pass  0 Test12= 1.59D-14 1.04D-09 XBig12= 1.63D-01 9.78D-02.
 AX will form    90 AO Fock derivatives at one time.
     90 vectors produced by pass  1 Test12= 1.59D-14 1.04D-09 XBig12= 1.17D-02 2.52D-02.
     90 vectors produced by pass  2 Test12= 1.59D-14 1.04D-09 XBig12= 1.21D-04 2.21D-03.
     90 vectors produced by pass  3 Test12= 1.59D-14 1.04D-09 XBig12= 4.43D-07 1.07D-04.
     90 vectors produced by pass  4 Test12= 1.59D-14 1.04D-09 XBig12= 7.32D-10 3.69D-06.
     72 vectors produced by pass  5 Test12= 1.59D-14 1.04D-09 XBig12= 6.34D-13 7.51D-08.
     13 vectors produced by pass  6 Test12= 1.59D-14 1.04D-09 XBig12= 6.09D-16 1.93D-09.
 InvSVY:  IOpt=1 It=  1 EMax= 5.00D-16
 Solved reduced A of dimension   535 with    96 vectors.
 End of Minotr F.D. properties file   721 does not exist.
 End of Minotr F.D. properties file   722 does not exist.
 End of Minotr F.D. properties file   788 does not exist.

 **********************************************************************

            Population analysis using the SCF density.

 **********************************************************************

 Alpha  occ. eigenvalues --  -19.29982 -19.25330 -19.24466 -14.67671 -14.48703
 Alpha  occ. eigenvalues --  -14.46853 -14.38283 -10.43636 -10.43263 -10.42759
 Alpha  occ. eigenvalues --  -10.37685 -10.35970 -10.31194 -10.30990 -10.30041
 Alpha  occ. eigenvalues --  -10.26886  -1.22338  -1.21069  -1.17437  -1.13140
 Alpha  occ. eigenvalues --   -1.09168  -1.05426  -0.97367  -0.94521  -0.90862
 Alpha  occ. eigenvalues --   -0.85874  -0.82732  -0.80418  -0.79671  -0.77112
 Alpha  occ. eigenvalues --   -0.72928  -0.70816  -0.70322  -0.69088  -0.67620
 Alpha  occ. eigenvalues --   -0.66462  -0.64953  -0.62680  -0.60988  -0.59273
 Alpha  occ. eigenvalues --   -0.58083  -0.56583  -0.56272  -0.54629  -0.54070
 Alpha  occ. eigenvalues --   -0.52860  -0.52806  -0.51042  -0.49785  -0.48833
 Alpha  occ. eigenvalues --   -0.48465  -0.47926  -0.47546  -0.42081  -0.39681
 Alpha  occ. eigenvalues --   -0.38614  -0.37983  -0.35354  -0.33636  -0.30370
 Alpha virt. eigenvalues --   -0.17280  -0.12239  -0.10750  -0.10256  -0.09639
 Alpha virt. eigenvalues --   -0.07049  -0.05840  -0.03582  -0.03291  -0.02513
 Alpha virt. eigenvalues --   -0.02045  -0.00638  -0.00194   0.01068   0.02152
 Alpha virt. eigenvalues --    0.02785   0.03572   0.05763   0.06157   0.07567
 Alpha virt. eigenvalues --    0.08561   0.10037   0.11639   0.12293   0.13271
 Alpha virt. eigenvalues --    0.15288   0.17136   0.18720   0.20558   0.23117
 Alpha virt. eigenvalues --    0.24346   0.27688   0.28155   0.31344   0.33233
 Alpha virt. eigenvalues --    0.33456   0.34674   0.36463   0.38447   0.39017
 Alpha virt. eigenvalues --    0.40342   0.41522   0.42334   0.45526   0.46880
 Alpha virt. eigenvalues --    0.47588   0.48884   0.49231   0.49530   0.49842
 Alpha virt. eigenvalues --    0.51244   0.52773   0.52952   0.55135   0.56327
 Alpha virt. eigenvalues --    0.56877   0.57885   0.58172   0.58454   0.58847
 Alpha virt. eigenvalues --    0.59520   0.60110   0.62307   0.63487   0.64001
 Alpha virt. eigenvalues --    0.64602   0.66679   0.67275   0.68797   0.69720
 Alpha virt. eigenvalues --    0.70524   0.71612   0.72900   0.73091   0.73497
 Alpha virt. eigenvalues --    0.73949   0.74747   0.75710   0.76300   0.76995
 Alpha virt. eigenvalues --    0.77428   0.77871   0.78187   0.81108   0.82310
 Alpha virt. eigenvalues --    0.83101   0.84407   0.85522   0.87302   0.88634
 Alpha virt. eigenvalues --    0.91618   0.93832   0.95942   0.96656   0.98020
 Alpha virt. eigenvalues --    1.00912   1.02985   1.04242   1.06299   1.06584
 Alpha virt. eigenvalues --    1.10516   1.11839   1.15509   1.17303   1.19739
 Alpha virt. eigenvalues --    1.22060   1.23584   1.25953   1.26947   1.27818
 Alpha virt. eigenvalues --    1.28435   1.30244   1.30947   1.34698   1.36211
 Alpha virt. eigenvalues --    1.37027   1.38379   1.39447   1.41108   1.42820
 Alpha virt. eigenvalues --    1.44923   1.46636   1.47518   1.50743   1.51167
 Alpha virt. eigenvalues --    1.55956   1.57288   1.60622   1.62275   1.63815
 Alpha virt. eigenvalues --    1.64832   1.65209   1.66277   1.66647   1.69086
 Alpha virt. eigenvalues --    1.70733   1.70903   1.71377   1.72406   1.73081
 Alpha virt. eigenvalues --    1.76001   1.77810   1.78137   1.79375   1.81362
 Alpha virt. eigenvalues --    1.82650   1.84651   1.86307   1.86884   1.88038
 Alpha virt. eigenvalues --    1.89649   1.90183   1.92037   1.94440   1.95929
 Alpha virt. eigenvalues --    1.96909   1.97085   1.98568   1.99269   2.00548
 Alpha virt. eigenvalues --    2.02562   2.03094   2.03993   2.06151   2.06922
 Alpha virt. eigenvalues --    2.09323   2.09794   2.12543   2.13554   2.15650
 Alpha virt. eigenvalues --    2.16683   2.19476   2.20111   2.20581   2.22948
 Alpha virt. eigenvalues --    2.24485   2.26901   2.27486   2.29088   2.33610
 Alpha virt. eigenvalues --    2.34852   2.35975   2.36898   2.37451   2.38719
 Alpha virt. eigenvalues --    2.39744   2.40744   2.43745   2.44249   2.47143
 Alpha virt. eigenvalues --    2.49783   2.50030   2.50462   2.50951   2.52508
 Alpha virt. eigenvalues --    2.53263   2.54152   2.54489   2.57161   2.58225
 Alpha virt. eigenvalues --    2.60560   2.61827   2.62842   2.63946   2.65729
 Alpha virt. eigenvalues --    2.67212   2.68294   2.68586   2.71608   2.71940
 Alpha virt. eigenvalues --    2.73078   2.74551   2.76514   2.80831   2.83135
 Alpha virt. eigenvalues --    2.84332   2.85324   2.90688   2.91520   2.94533
 Alpha virt. eigenvalues --    2.95520   2.96154   2.98001   3.07600   3.09298
 Alpha virt. eigenvalues --    3.10786   3.13195   3.13643   3.19818   3.22469
 Alpha virt. eigenvalues --    3.24564   3.25972   3.28724   3.36222   3.36511
 Alpha virt. eigenvalues --    3.38727   3.44696   3.49579   3.60030   3.85286
 Alpha virt. eigenvalues --    3.92626   3.92991   3.97298   4.01736   4.04783
 Alpha virt. eigenvalues --    4.13163   4.16268   4.24030   4.29570   4.35601
 Alpha virt. eigenvalues --    4.36348   4.43212   4.50404   4.60553   4.69234
          Condensed to atoms (all electrons):
               1          2          3          4          5          6
     1  O    8.098704   0.562909  -0.097752   0.006551   0.000468   0.000000
     2  C    0.562909   4.314020   0.311561  -0.026708   0.004652  -0.000038
     3  N   -0.097752   0.311561   7.032004   0.214298  -0.024166   0.002689
     4  C    0.006551  -0.026708   0.214298   5.163862   0.282561  -0.096835
     5  C    0.000468   0.004652  -0.024166   0.282561   4.390463   0.277519
     6  O    0.000000  -0.000038   0.002689  -0.096835   0.277519   8.057619
     7  O   -0.000005   0.000823  -0.010736  -0.084173   0.545190  -0.072910
     8  C   -0.007339  -0.004625  -0.052904   0.321707  -0.035584   0.002571
     9  C   -0.000114   0.001473  -0.001530  -0.035901  -0.005720  -0.001127
    10  C   -0.000001   0.000213   0.000604  -0.003616   0.003033   0.000186
    11  N    0.000000  -0.000002  -0.000026   0.000049  -0.000032   0.000000
    12  C   -0.000001  -0.000006   0.000044  -0.000081  -0.000002   0.000000
    13  N   -0.000007   0.000031  -0.000227   0.002014   0.000033  -0.000002
    14  C   -0.095373   0.284230  -0.127221   0.007245  -0.000103   0.000000
    15  C    0.009407  -0.021182   0.004515  -0.000149   0.000000   0.000000
    16  N    0.000345   0.002430  -0.000016   0.000000   0.000000   0.000000
    17  H    0.002727  -0.020526   0.330765  -0.047324  -0.004086   0.000798
    18  H    0.008304  -0.002114  -0.049285   0.378539  -0.033779   0.000418
    19  H    0.000002  -0.000018   0.000256   0.005390  -0.025276   0.283630
    20  H    0.000075   0.000224   0.005018  -0.041850  -0.007724   0.003660
    21  H    0.011713   0.002580  -0.008481  -0.022665   0.004184   0.000025
    22  H    0.000000  -0.000009  -0.000070   0.001121   0.001190  -0.000508
    23  H    0.000000   0.000000   0.000000   0.000002   0.000000   0.000000
    24  H   -0.000012   0.000000   0.000000  -0.000025  -0.000001   0.000000
    25  H    0.000652  -0.015412  -0.000565  -0.000008  -0.000007   0.000000
    26  H    0.001231  -0.015211   0.000516  -0.000099  -0.000012   0.000000
    27  H    0.004616   0.000087   0.000261  -0.000003   0.000000   0.000000
    28  H    0.007180   0.000490   0.000325  -0.000007   0.000000   0.000000
    29  H    0.000007  -0.000025   0.000000   0.000000   0.000000   0.000000
    30  H    0.000014   0.000019   0.000001   0.000000   0.000000   0.000000
    31  H    0.000010  -0.000011   0.000001   0.000000   0.000000   0.000000
               7          8          9         10         11         12
     1  O   -0.000005  -0.007339  -0.000114  -0.000001   0.000000  -0.000001
     2  C    0.000823  -0.004625   0.001473   0.000213  -0.000002  -0.000006
     3  N   -0.010736  -0.052904  -0.001530   0.000604  -0.000026   0.000044
     4  C   -0.084173   0.321707  -0.035901  -0.003616   0.000049  -0.000081
     5  C    0.545190  -0.035584  -0.005720   0.003033  -0.000032  -0.000002
     6  O   -0.072910   0.002571  -0.001127   0.000186   0.000000   0.000000
     7  O    8.022623  -0.002817   0.000909  -0.003281   0.000059  -0.000003
     8  C   -0.002817   5.154784   0.305875  -0.064430   0.006960   0.007035
     9  C    0.000909   0.305875   4.822888   0.573940  -0.049271  -0.091047
    10  C   -0.003281  -0.064430   0.573940   4.893491   0.418574  -0.120103
    11  N    0.000059   0.006960  -0.049271   0.418574   6.676096   0.535963
    12  C   -0.000003   0.007035  -0.091047  -0.120103   0.535963   4.677726
    13  N    0.000003  -0.052712   0.340027  -0.076041  -0.083701   0.348552
    14  C   -0.000077  -0.000621  -0.000016  -0.000011   0.000000   0.000001
    15  C    0.000000   0.000009  -0.000001   0.000000   0.000000   0.000000
    16  N    0.000000   0.000000   0.000000   0.000000   0.000000   0.000000
    17  H    0.033143   0.002984   0.000887   0.000749   0.000004  -0.000004
    18  H    0.002123  -0.043217   0.005676   0.000141   0.000001   0.000002
    19  H    0.004622  -0.001072  -0.000054  -0.000027   0.000000   0.000000
    20  H   -0.000005   0.363194  -0.032313  -0.000752  -0.000021   0.000212
    21  H   -0.000109   0.366734  -0.032684   0.003291  -0.000163   0.000029
    22  H    0.009897  -0.001400  -0.056621   0.390447  -0.035366   0.006717
    23  H    0.000000  -0.000129   0.003483   0.006884  -0.036011   0.393645
    24  H    0.000000  -0.003039  -0.031478   0.009238   0.005226  -0.023565
    25  H   -0.000001   0.000036   0.000073   0.000024  -0.000001  -0.000003
    26  H   -0.000003   0.000005   0.000000   0.000000   0.000000   0.000000
    27  H    0.000000   0.000001   0.000000   0.000000   0.000000   0.000000
    28  H    0.000000   0.000001   0.000000   0.000000   0.000000   0.000000
    29  H    0.000000   0.000000   0.000000   0.000000   0.000000   0.000000
    30  H    0.000000   0.000000   0.000000   0.000000   0.000000   0.000000
    31  H    0.000000   0.000000   0.000000   0.000000   0.000000   0.000000
              13         14         15         16         17         18
     1  O   -0.000007  -0.095373   0.009407   0.000345   0.002727   0.008304
     2  C    0.000031   0.284230  -0.021182   0.002430  -0.020526  -0.002114
     3  N   -0.000227  -0.127221   0.004515  -0.000016   0.330765  -0.049285
     4  C    0.002014   0.007245  -0.000149   0.000000  -0.047324   0.378539
     5  C    0.000033  -0.000103   0.000000   0.000000  -0.004086  -0.033779
     6  O   -0.000002   0.000000   0.000000   0.000000   0.000798   0.000418
     7  O    0.000003  -0.000077   0.000000   0.000000   0.033143   0.002123
     8  C   -0.052712  -0.000621   0.000009   0.000000   0.002984  -0.043217
     9  C    0.340027  -0.000016  -0.000001   0.000000   0.000887   0.005676
    10  C   -0.076041  -0.000011   0.000000   0.000000   0.000749   0.000141
    11  N   -0.083701   0.000000   0.000000   0.000000   0.000004   0.000001
    12  C    0.348552   0.000001   0.000000   0.000000  -0.000004   0.000002
    13  N    6.775322  -0.000001   0.000000   0.000000  -0.000015  -0.000104
    14  C   -0.000001   5.299073   0.315251  -0.041617  -0.000131   0.000535
    15  C    0.000000   0.315251   5.029792   0.154099  -0.000030   0.000008
    16  N    0.000000  -0.041617   0.154099   6.480158  -0.000008   0.000000
    17  H   -0.000015  -0.000131  -0.000030  -0.000008   0.404388   0.004390
    18  H   -0.000104   0.000535   0.000008   0.000000   0.004390   0.585590
    19  H    0.000000   0.000000   0.000000   0.000000  -0.000077   0.001665
    20  H   -0.001296   0.000005   0.000000   0.000000  -0.000054   0.000583
    21  H   -0.004768   0.000317  -0.000006   0.000000  -0.000350  -0.009515
    22  H    0.004469   0.000000   0.000000   0.000000   0.000268   0.000024
    23  H   -0.056432   0.000000   0.000000   0.000000   0.000000   0.000000
    24  H    0.336973  -0.000001   0.000000   0.000000  -0.000001   0.000000
    25  H    0.000000   0.371888  -0.038359  -0.002181   0.000466  -0.000009
    26  H    0.000000   0.367886  -0.038710  -0.002099   0.000996  -0.000022
    27  H    0.000000  -0.036837   0.396216  -0.031195  -0.000009  -0.000004
    28  H    0.000000  -0.038216   0.394548  -0.030817  -0.000008  -0.000001
    29  H    0.000000  -0.001329  -0.021041   0.332526   0.000000   0.000000
    30  H    0.000000   0.003506  -0.023100   0.338475   0.000000   0.000000
    31  H    0.000000  -0.000976  -0.021822   0.332546   0.000000   0.000000
              19         20         21         22         23         24
     1  O    0.000002   0.000075   0.011713   0.000000   0.000000  -0.000012
     2  C   -0.000018   0.000224   0.002580  -0.000009   0.000000   0.000000
     3  N    0.000256   0.005018  -0.008481  -0.000070   0.000000   0.000000
     4  C    0.005390  -0.041850  -0.022665   0.001121   0.000002  -0.000025
     5  C   -0.025276  -0.007724   0.004184   0.001190   0.000000  -0.000001
     6  O    0.283630   0.003660   0.000025  -0.000508   0.000000   0.000000
     7  O    0.004622  -0.000005  -0.000109   0.009897   0.000000   0.000000
     8  C   -0.001072   0.363194   0.366734  -0.001400  -0.000129  -0.003039
     9  C   -0.000054  -0.032313  -0.032684  -0.056621   0.003483  -0.031478
    10  C   -0.000027  -0.000752   0.003291   0.390447   0.006884   0.009238
    11  N    0.000000  -0.000021  -0.000163  -0.035366  -0.036011   0.005226
    12  C    0.000000   0.000212   0.000029   0.006717   0.393645  -0.023565
    13  N    0.000000  -0.001296  -0.004768   0.004469  -0.056432   0.336973
    14  C    0.000000   0.000005   0.000317   0.000000   0.000000  -0.000001
    15  C    0.000000   0.000000  -0.000006   0.000000   0.000000   0.000000
    16  N    0.000000   0.000000   0.000000   0.000000   0.000000   0.000000
    17  H   -0.000077  -0.000054  -0.000350   0.000268   0.000000  -0.000001
    18  H    0.001665   0.000583  -0.009515   0.000024   0.000000   0.000000
    19  H    0.392817   0.005165  -0.000191  -0.000002   0.000000   0.000000
    20  H    0.005165   0.608099  -0.030555   0.000076   0.000004   0.000056
    21  H   -0.000191  -0.030555   0.574471  -0.000019  -0.000011   0.003288
    22  H   -0.000002   0.000076  -0.000019   0.561776  -0.000149  -0.000089
    23  H    0.000000   0.000004  -0.000011  -0.000149   0.561819   0.000232
    24  H    0.000000   0.000056   0.003288  -0.000089   0.000232   0.438183
    25  H    0.000000   0.000000  -0.000026   0.000000   0.000000   0.000000
    26  H    0.000000   0.000000  -0.000003   0.000000   0.000000   0.000000
    27  H    0.000000   0.000000  -0.000001   0.000000   0.000000   0.000000
    28  H    0.000000   0.000000  -0.000003   0.000000   0.000000   0.000000
    29  H    0.000000   0.000000   0.000000   0.000000   0.000000   0.000000
    30  H    0.000000   0.000000   0.000000   0.000000   0.000000   0.000000
    31  H    0.000000   0.000000   0.000000   0.000000   0.000000   0.000000
              25         26         27         28         29         30
     1  O    0.000652   0.001231   0.004616   0.007180   0.000007   0.000014
     2  C   -0.015412  -0.015211   0.000087   0.000490  -0.000025   0.000019
     3  N   -0.000565   0.000516   0.000261   0.000325   0.000000   0.000001
     4  C   -0.000008  -0.000099  -0.000003  -0.000007   0.000000   0.000000
     5  C   -0.000007  -0.000012   0.000000   0.000000   0.000000   0.000000
     6  O    0.000000   0.000000   0.000000   0.000000   0.000000   0.000000
     7  O   -0.000001  -0.000003   0.000000   0.000000   0.000000   0.000000
     8  C    0.000036   0.000005   0.000001   0.000001   0.000000   0.000000
     9  C    0.000073   0.000000   0.000000   0.000000   0.000000   0.000000
    10  C    0.000024   0.000000   0.000000   0.000000   0.000000   0.000000
    11  N   -0.000001   0.000000   0.000000   0.000000   0.000000   0.000000
    12  C   -0.000003   0.000000   0.000000   0.000000   0.000000   0.000000
    13  N    0.000000   0.000000   0.000000   0.000000   0.000000   0.000000
    14  C    0.371888   0.367886  -0.036837  -0.038216  -0.001329   0.003506
    15  C   -0.038359  -0.038710   0.396216   0.394548  -0.021041  -0.023100
    16  N   -0.002181  -0.002099  -0.031195  -0.030817   0.332526   0.338475
    17  H    0.000466   0.000996  -0.000009  -0.000008   0.000000   0.000000
    18  H   -0.000009  -0.000022  -0.000004  -0.000001   0.000000   0.000000
    19  H    0.000000   0.000000   0.000000   0.000000   0.000000   0.000000
    20  H    0.000000   0.000000   0.000000   0.000000   0.000000   0.000000
    21  H   -0.000026  -0.000003  -0.000001  -0.000003   0.000000   0.000000
    22  H    0.000000   0.000000   0.000000   0.000000   0.000000   0.000000
    23  H    0.000000   0.000000   0.000000   0.000000   0.000000   0.000000
    24  H    0.000000   0.000000   0.000000   0.000000   0.000000   0.000000
    25  H    0.542633  -0.029903   0.004476  -0.004708  -0.000379  -0.000007
    26  H   -0.029903   0.554996  -0.004848   0.004616   0.004504  -0.000012
    27  H    0.004476  -0.004848   0.480605  -0.023382  -0.003263  -0.001942
    28  H   -0.004708   0.004616  -0.023382   0.478261   0.003727  -0.001830
    29  H   -0.000379   0.004504  -0.003263   0.003727   0.346282  -0.014940
    30  H   -0.000007  -0.000012  -0.001942  -0.001830  -0.014940   0.337011
    31  H    0.004662  -0.000347   0.003790  -0.003230  -0.016574  -0.014777
              31
     1  O    0.000010
     2  C   -0.000011
     3  N    0.000001
     4  C    0.000000
     5  C    0.000000
     6  O    0.000000
     7  O    0.000000
     8  C    0.000000
     9  C    0.000000
    10  C    0.000000
    11  N    0.000000
    12  C    0.000000
    13  N    0.000000
    14  C   -0.000976
    15  C   -0.021822
    16  N    0.332546
    17  H    0.000000
    18  H    0.000000
    19  H    0.000000
    20  H    0.000000
    21  H    0.000000
    22  H    0.000000
    23  H    0.000000
    24  H    0.000000
    25  H    0.004662
    26  H   -0.000347
    27  H    0.003790
    28  H   -0.003230
    29  H   -0.016574
    30  H   -0.014777
    31  H    0.346106
 Mulliken charges:
               1
     1  O   -0.514312
     2  C    0.620144
     3  N   -0.529881
     4  C   -0.023898
     5  C    0.627197
     6  O   -0.457694
     7  O   -0.445271
     8  C   -0.262007
     9  C    0.282645
    10  C   -0.032554
    11  N   -0.438338
    12  C    0.264889
    13  N   -0.532120
    14  C   -0.307406
    15  C   -0.139443
    16  N   -0.532648
    17  H    0.290060
    18  H    0.150051
    19  H    0.333170
    20  H    0.128200
    21  H    0.142916
    22  H    0.118249
    23  H    0.126663
    24  H    0.265014
    25  H    0.166660
    26  H    0.156520
    27  H    0.211433
    28  H    0.213055
    29  H    0.370504
    30  H    0.377582
    31  H    0.370623
 Sum of Mulliken charges =   1.00000
 Mulliken charges with hydrogens summed into heavy atoms:
               1
     1  O   -0.514312
     2  C    0.620144
     3  N   -0.239821
     4  C    0.126153
     5  C    0.627197
     6  O   -0.124525
     7  O   -0.445271
     8  C    0.009109
     9  C    0.282645
    10  C    0.085695
    11  N   -0.438338
    12  C    0.391552
    13  N   -0.267107
    14  C    0.015774
    15  C    0.285044
    16  N    0.586061
 APT charges:
               1
     1  O   -0.221799
     2  C    0.003623
     3  N   -0.533736
     4  C   -0.528916
     5  C   -0.143787
     6  O   -0.077078
     7  O   -0.079214
     8  C   -0.880051
     9  C   -0.276999
    10  C   -0.264757
    11  N   -0.065151
    12  C   -0.361464
    13  N   -0.780537
    14  C   -0.548338
    15  C   -0.372264
    16  N   -1.804224
    17  H    0.470002
    18  H    0.443389
    19  H    0.514266
    20  H    0.591202
    21  H    0.252139
    22  H    0.378908
    23  H    0.896021
    24  H    0.554246
    25  H    0.253323
    26  H    0.442154
    27  H    0.480131
    28  H    0.251526
    29  H    0.726417
    30  H    1.236500
    31  H    0.444465
 Sum of APT charges =   1.00000
 APT charges with hydrogens summed into heavy atoms:
               1
     1  O   -0.221799
     2  C    0.003623
     3  N   -0.063734
     4  C   -0.085527
     5  C   -0.143787
     6  O    0.437188
     7  O   -0.079214
     8  C   -0.036710
     9  C   -0.276999
    10  C    0.114150
    11  N   -0.065151
    12  C    0.534557
    13  N   -0.226291
    14  C    0.147140
    15  C    0.359393
    16  N    0.603158
 Electronic spatial extent (au):  <R**2>=           4668.3100
 Charge=              1.0000 electrons
 Dipole moment (field-independent basis, Debye):
    X=             19.5199    Y=              4.2649    Z=              1.0594  Tot=             20.0085
 Quadrupole moment (field-independent basis, Debye-Ang):
   XX=              2.9163   YY=            -82.7996   ZZ=            -90.6740
   XY=              2.8559   XZ=            -33.1267   YZ=             -7.5596
 Traceless Quadrupole moment (field-independent basis, Debye-Ang):
   XX=             59.7688   YY=            -25.9472   ZZ=            -33.8216
   XY=              2.8559   XZ=            -33.1267   YZ=             -7.5596
 Octapole moment (field-independent basis, Debye-Ang**2):
  XXX=            657.9165  YYY=            117.1381  ZZZ=             38.0924  XYY=             64.0301
  XXY=             90.0784  XXZ=            -15.5717  XZZ=             74.6518  YZZ=             -1.4046
  YYZ=              7.5915  XYZ=              0.0646
 Hexadecapole moment (field-independent basis, Debye-Ang**3):
 XXXX=          -1458.4583 YYYY=          -1314.2367 ZZZZ=           -837.5120 XXXY=            173.3130
 XXXZ=           -606.6623 YYYX=           -244.0860 YYYZ=            151.3119 ZZZX=           -324.8002
 ZZZY=            169.5567 XXYY=           -700.6422 XXZZ=           -694.6271 YYZZ=           -307.5561
 XXYZ=             12.3765 YYXZ=            -65.9238 ZZXY=             26.0433
 N-N= 1.132998685491D+03 E-N=-4.108227688606D+03  KE= 7.894467530642D+02
  Exact polarizability:   0.000   0.000   0.000   0.000   0.000   0.000
 Approx polarizability: 147.164   7.155 181.209   9.147  17.616 205.009
 Calling FoFJK, ICntrl=    100147 FMM=F ISym2X=0 I1Cent= 0 IOpClX= 0 NMat=1 NMatS=1 NMatT=0.
 -------------------------------------------------------------------
 Center     Atomic                   Forces (Hartrees/Bohr)
 Number     Number              X              Y              Z
 -------------------------------------------------------------------
      1        8           0.013086441    0.007279751   -0.000388842
      2        6          -0.022757955   -0.008838531    0.006954275
      3        7           0.013865046    0.005061026   -0.001629063
      4        6          -0.000003834    0.002996694   -0.000513616
      5        6          -0.006160863   -0.002063663    0.009230987
      6        8           0.001928940   -0.000912911   -0.006647683
      7        8           0.005329367   -0.003638016   -0.009799268
      8        6          -0.006635358    0.007571453   -0.004866176
      9        6           0.005128976    0.000170015    0.009762744
     10        6          -0.002396751   -0.005426511   -0.009892613
     11        7           0.000909161   -0.003867831   -0.000604777
     12        6          -0.002249830    0.001041613   -0.004616583
     13        7           0.004559574    0.001631348    0.007692167
     14        6           0.008622604   -0.001993038   -0.013194389
     15        6          -0.025174799   -0.001308345    0.020730504
     16        7           0.004677454    0.001200458   -0.001769236
     17        1          -0.003673719   -0.002428306   -0.004153577
     18        1           0.002150422   -0.002096180    0.002062188
     19        1          -0.001643455    0.002616555    0.006225451
     20        1          -0.001106533   -0.001589494    0.003154745
     21        1           0.002514805    0.000676368    0.003532520
     22        1          -0.000561059   -0.002123749   -0.001798635
     23        1          -0.001097936    0.003343082   -0.001584936
     24        1          -0.000702697    0.002082392    0.001175036
     25        1          -0.002432166   -0.000249710   -0.001262847
     26        1          -0.000939805   -0.002209809   -0.000635583
     27        1           0.006317042    0.000429642   -0.000306535
     28        1           0.004573337    0.003467766   -0.001493653
     29        1           0.001671380   -0.005076371   -0.002250547
     30        1           0.003446503    0.002571314    0.002370154
     31        1          -0.001244290    0.001682989   -0.005482212
 -------------------------------------------------------------------
 Cartesian Forces:  Max     0.025174799 RMS     0.006225234
 FormGI is forming the generalized inverse of G from B-inverse, IUseBI=4.

 GradGradGradGradGradGradGradGradGradGradGradGradGradGradGradGradGradGrad
 Berny optimization.
 Internal  Forces:  Max     0.018796593 RMS     0.003835343
 Search for a local minimum.
 Step number   1 out of a maximum of  167
 All quantities printed in internal units (Hartrees-Bohrs-Radians)
 Mixed Optimization -- RFO/linear search
 Second derivative matrix not updated -- analytic derivatives used.
 ITU=  0
     Eigenvalues ---   -0.00103  -0.00022   0.00026   0.00157   0.00206
     Eigenvalues ---    0.00336   0.00467   0.00487   0.00829   0.00864
     Eigenvalues ---    0.01054   0.01962   0.02070   0.02590   0.03143
     Eigenvalues ---    0.03689   0.03830   0.03869   0.04148   0.04245
     Eigenvalues ---    0.04301   0.04677   0.04967   0.05075   0.05167
     Eigenvalues ---    0.05275   0.05302   0.05966   0.06182   0.07414
     Eigenvalues ---    0.08256   0.08705   0.10411   0.10625   0.11253
     Eigenvalues ---    0.11573   0.12007   0.12194   0.13087   0.13247
     Eigenvalues ---    0.13684   0.15634   0.15970   0.16117   0.16467
     Eigenvalues ---    0.17194   0.19158   0.19375   0.20348   0.22537
     Eigenvalues ---    0.23238   0.23422   0.24151   0.24607   0.24763
     Eigenvalues ---    0.25591   0.29707   0.29926   0.31794   0.33185
     Eigenvalues ---    0.33326   0.33586   0.33780   0.34196   0.34609
     Eigenvalues ---    0.34997   0.35133   0.35334   0.35816   0.36028
     Eigenvalues ---    0.38437   0.38500   0.39215   0.42775   0.44144
     Eigenvalues ---    0.44342   0.44862   0.45099   0.46158   0.47235
     Eigenvalues ---    0.47795   0.48551   0.49843   0.54402   0.60308
     Eigenvalues ---    0.83279   0.94169
 RFO step:  Lambda=-1.12523062D-02 EMin=-1.02960896D-03
 Linear search not attempted -- first point.
 Iteration  1 RMS(Cart)=  0.21694248 RMS(Int)=  0.01974186
 Iteration  2 RMS(Cart)=  0.03689430 RMS(Int)=  0.00087074
 Iteration  3 RMS(Cart)=  0.00117154 RMS(Int)=  0.00055128
 Iteration  4 RMS(Cart)=  0.00000194 RMS(Int)=  0.00055128
 Iteration  5 RMS(Cart)=  0.00000000 RMS(Int)=  0.00055128
 Variable       Old X    -DE/DX   Delta X   Delta X   Delta X     New X
                                 (Linear)    (Quad)   (Total)
    R1        2.31752   0.00295   0.00000   0.00571   0.00571   2.32323
    R2        2.56844  -0.00857   0.00000  -0.03765  -0.03765   2.53079
    R3        2.87474   0.00167   0.00000   0.02678   0.02678   2.90152
    R4        2.73282   0.00141   0.00000   0.00574   0.00574   2.73856
    R5        1.90644   0.00468   0.00000   0.01146   0.01146   1.91790
    R6        2.87726   0.00378   0.00000   0.02203   0.02203   2.89930
    R7        2.90647   0.00386   0.00000   0.01613   0.01613   2.92260
    R8        2.06516   0.00290   0.00000   0.00831   0.00831   2.07347
    R9        2.54442  -0.00105   0.00000  -0.01498  -0.01498   2.52944
   R10        2.26979   0.01118   0.00000   0.01463   0.01463   2.28442
   R11        1.81821   0.00672   0.00000   0.01233   0.01233   1.83054
   R12        2.83790  -0.00237   0.00000  -0.01115  -0.01115   2.82674
   R13        2.06899   0.00302   0.00000   0.00889   0.00889   2.07789
   R14        2.05769   0.00342   0.00000   0.01053   0.01053   2.06822
   R15        2.57860   0.01256   0.00000   0.02436   0.02438   2.60298
   R16        2.61540   0.00368   0.00000   0.00354   0.00358   2.61898
   R17        2.61177  -0.00087   0.00000  -0.00541  -0.00543   2.60633
   R18        2.03406   0.00250   0.00000   0.00575   0.00575   2.03981
   R19        2.47944   0.00454   0.00000   0.00432   0.00429   2.48373
   R20        2.56593   0.00869   0.00000   0.01871   0.01870   2.58463
   R21        2.03318   0.00384   0.00000   0.00916   0.00916   2.04234
   R22        1.90261   0.00213   0.00000   0.00441   0.00441   1.90702
   R23        2.87574   0.00148   0.00000  -0.00289  -0.00289   2.87285
   R24        2.07107   0.00169   0.00000   0.00543   0.00543   2.07650
   R25        2.06951   0.00195   0.00000  -0.00008  -0.00008   2.06942
   R26        2.80964   0.01114   0.00000   0.05844   0.05844   2.86808
   R27        2.05871   0.00136   0.00000   0.00134   0.00134   2.06004
   R28        2.05793   0.00154   0.00000   0.00174   0.00174   2.05967
   R29        1.92737   0.00571   0.00000   0.01072   0.01072   1.93809
   R30        1.92926   0.00487   0.00000   0.00898   0.00898   1.93823
   R31        1.92741   0.00577   0.00000   0.01121   0.01121   1.93862
    A1        2.11666   0.01880   0.00000   0.06386   0.06367   2.18034
    A2        2.15796  -0.01520   0.00000  -0.06556  -0.06569   2.09227
    A3        2.00856  -0.00360   0.00000   0.00178   0.00163   2.01019
    A4        2.11819   0.00504   0.00000   0.03504   0.03309   2.15129
    A5        2.12996   0.00075   0.00000   0.01306   0.01107   2.14102
    A6        2.03198  -0.00571   0.00000  -0.03962  -0.04154   1.99044
    A7        1.88025  -0.00482   0.00000  -0.03454  -0.03452   1.84572
    A8        1.97398  -0.00001   0.00000  -0.00625  -0.00615   1.96783
    A9        1.89711   0.00188   0.00000   0.01564   0.01535   1.91246
   A10        1.95351   0.00329   0.00000   0.02091   0.02071   1.97422
   A11        1.90963  -0.00036   0.00000  -0.01464  -0.01485   1.89478
   A12        1.84817   0.00017   0.00000   0.01968   0.01965   1.86782
   A13        2.01764   0.00282   0.00000   0.01669   0.01666   2.03430
   A14        2.15246  -0.00498   0.00000  -0.02170  -0.02173   2.13073
   A15        2.11294   0.00216   0.00000   0.00524   0.00521   2.11815
   A16        1.93500   0.00320   0.00000   0.01684   0.01684   1.95184
   A17        2.03857  -0.00883   0.00000  -0.04671  -0.04665   1.99192
   A18        1.89424   0.00082   0.00000  -0.00205  -0.00158   1.89265
   A19        1.86669   0.00121   0.00000  -0.00687  -0.00682   1.85987
   A20        1.91212   0.00502   0.00000   0.03856   0.03829   1.95042
   A21        1.88936   0.00357   0.00000   0.01950   0.01881   1.90817
   A22        1.85392  -0.00133   0.00000   0.00026  -0.00024   1.85367
   A23        2.36037  -0.00157   0.00000  -0.00963  -0.00986   2.35051
   A24        2.10033   0.00074   0.00000   0.00865   0.00842   2.10876
   A25        1.82166   0.00084   0.00000   0.00231   0.00223   1.82389
   A26        1.94037  -0.00154   0.00000  -0.00481  -0.00477   1.93561
   A27        2.22351   0.00214   0.00000   0.00983   0.00981   2.23332
   A28        2.11927  -0.00059   0.00000  -0.00501  -0.00503   2.11424
   A29        1.83356   0.00235   0.00000   0.00778   0.00776   1.84131
   A30        1.94725   0.00044   0.00000  -0.00119  -0.00119   1.94606
   A31        2.20100  -0.00054   0.00000   0.00012   0.00012   2.20111
   A32        2.13494   0.00011   0.00000   0.00107   0.00107   2.13601
   A33        1.88193  -0.00208   0.00000  -0.00410  -0.00407   1.87785
   A34        2.18936   0.00191   0.00000   0.00946   0.00938   2.19874
   A35        2.21189   0.00018   0.00000  -0.00529  -0.00536   2.20653
   A36        1.95872  -0.01591   0.00000  -0.08998  -0.09024   1.86848
   A37        1.90051   0.00341   0.00000  -0.01626  -0.01722   1.88329
   A38        1.90448   0.00431   0.00000   0.04425   0.04529   1.94977
   A39        1.91490   0.00590   0.00000   0.02019   0.01775   1.93266
   A40        1.91885   0.00546   0.00000   0.03551   0.03608   1.95492
   A41        1.86384  -0.00253   0.00000   0.01094   0.01029   1.87413
   A42        1.95453  -0.00401   0.00000  -0.01690  -0.01651   1.93801
   A43        1.90469   0.00471   0.00000   0.05505   0.05427   1.95896
   A44        1.90210   0.00435   0.00000   0.02381   0.02290   1.92499
   A45        1.91711  -0.00253   0.00000  -0.04852  -0.04819   1.86891
   A46        1.91823  -0.00228   0.00000  -0.03011  -0.03007   1.88816
   A47        1.86493   0.00003   0.00000   0.01946   0.01712   1.88205
   A48        1.94253   0.00064   0.00000   0.00407   0.00407   1.94660
   A49        1.95144  -0.00091   0.00000  -0.00559  -0.00559   1.94586
   A50        1.94124   0.00066   0.00000  -0.00230  -0.00230   1.93894
   A51        1.87242   0.00029   0.00000   0.00560   0.00560   1.87802
   A52        1.88008  -0.00100   0.00000  -0.00709  -0.00709   1.87300
   A53        1.87243   0.00030   0.00000   0.00553   0.00553   1.87795
    D1       -0.01618   0.00010   0.00000   0.07650   0.07665   0.06047
    D2       -3.07086  -0.00070   0.00000  -0.04198  -0.04366  -3.11452
    D3        3.12299   0.00064   0.00000   0.10760   0.10928  -3.05092
    D4        0.06831  -0.00016   0.00000  -0.01089  -0.01104   0.05727
    D5        0.08495   0.00029   0.00000   0.23629   0.23684   0.32179
    D6       -2.03859   0.00090   0.00000   0.28090   0.27948  -1.75911
    D7        2.21624  -0.00036   0.00000   0.25243   0.25167   2.46791
    D8       -3.05415  -0.00032   0.00000   0.20417   0.20580  -2.84835
    D9        1.10550   0.00029   0.00000   0.24877   0.24843   1.35393
   D10       -0.92286  -0.00097   0.00000   0.22030   0.22063  -0.70224
   D11       -2.85022   0.00065   0.00000  -0.09461  -0.09371  -2.94393
   D12        1.26462  -0.00002   0.00000  -0.09182  -0.09123   1.17339
   D13       -0.78264  -0.00145   0.00000  -0.12275  -0.12220  -0.90484
   D14        0.20911   0.00168   0.00000   0.01980   0.01934   0.22844
   D15       -1.95924   0.00101   0.00000   0.02258   0.02182  -1.93742
   D16        2.27669  -0.00042   0.00000  -0.00834  -0.00916   2.26753
   D17        2.89441   0.00110   0.00000   0.06459   0.06486   2.95926
   D18       -0.26562   0.00130   0.00000   0.07855   0.07876  -0.18686
   D19       -1.20813  -0.00015   0.00000   0.04601   0.04606  -1.16207
   D20        1.91503   0.00005   0.00000   0.05997   0.05996   1.97499
   D21        0.83488   0.00180   0.00000   0.07362   0.07339   0.90826
   D22       -2.32515   0.00200   0.00000   0.08758   0.08729  -2.23786
   D23        0.99105  -0.00323   0.00000  -0.10525  -0.10521   0.88584
   D24       -3.12106  -0.00241   0.00000  -0.09007  -0.08997   3.07215
   D25       -1.12758  -0.00295   0.00000  -0.09423  -0.09443  -1.22202
   D26       -1.13672   0.00065   0.00000  -0.07095  -0.07074  -1.20745
   D27        1.03436   0.00147   0.00000  -0.05577  -0.05550   0.97886
   D28        3.02783   0.00092   0.00000  -0.05993  -0.05996   2.96788
   D29        3.06684  -0.00083   0.00000  -0.07694  -0.07700   2.98984
   D30       -1.04528  -0.00001   0.00000  -0.06176  -0.06176  -1.10704
   D31        0.94820  -0.00055   0.00000  -0.06592  -0.06622   0.88198
   D32       -0.05555   0.00030   0.00000   0.01927   0.01936  -0.03618
   D33        3.10403   0.00019   0.00000   0.00597   0.00588   3.10991
   D34        0.61609  -0.00064   0.00000  -0.17046  -0.17055   0.44554
   D35       -2.57660  -0.00018   0.00000  -0.12891  -0.12904  -2.70564
   D36       -1.54587   0.00077   0.00000  -0.16450  -0.16400  -1.70988
   D37        1.54462   0.00123   0.00000  -0.12296  -0.12249   1.42213
   D38        2.72278  -0.00229   0.00000  -0.19613  -0.19648   2.52630
   D39       -0.46991  -0.00183   0.00000  -0.15458  -0.15497  -0.62489
   D40        3.10171   0.00045   0.00000   0.03695   0.03670   3.13841
   D41       -0.04850   0.00024   0.00000   0.03816   0.03803  -0.01047
   D42        0.00564   0.00003   0.00000  -0.00026  -0.00031   0.00533
   D43        3.13862  -0.00018   0.00000   0.00095   0.00101   3.13963
   D44       -3.10791  -0.00007   0.00000  -0.02556  -0.02581  -3.13372
   D45        0.03830  -0.00061   0.00000  -0.04206  -0.04234  -0.00405
   D46       -0.00345   0.00020   0.00000   0.00424   0.00428   0.00083
   D47       -3.14043  -0.00034   0.00000  -0.01226  -0.01225   3.13050
   D48       -0.00567  -0.00024   0.00000  -0.00389  -0.00389  -0.00955
   D49       -3.13924  -0.00006   0.00000  -0.00510  -0.00519   3.13876
   D50        0.00333   0.00038   0.00000   0.00670   0.00674   0.01007
   D51       -3.13623   0.00032   0.00000   0.00774   0.00770  -3.12853
   D52        0.00006  -0.00037   0.00000  -0.00709  -0.00711  -0.00706
   D53        3.13696   0.00019   0.00000   0.00973   0.00956  -3.13667
   D54        3.13971  -0.00031   0.00000  -0.00809  -0.00803   3.13168
   D55       -0.00657   0.00025   0.00000   0.00874   0.00864   0.00207
   D56       -3.13052   0.00030   0.00000   0.18774   0.18744  -2.94308
   D57        1.02622   0.00288   0.00000   0.22219   0.22262   1.24884
   D58       -1.00444  -0.00220   0.00000   0.15506   0.15428  -0.85015
   D59       -1.01523  -0.00189   0.00000   0.12117   0.12092  -0.89432
   D60        3.14150   0.00069   0.00000   0.15561   0.15610  -2.98559
   D61        1.11085  -0.00439   0.00000   0.08849   0.08776   1.19861
   D62        1.02957   0.00174   0.00000   0.16733   0.16762   1.19719
   D63       -1.09688   0.00432   0.00000   0.20177   0.20280  -0.89408
   D64       -3.12753  -0.00076   0.00000   0.13464   0.13446  -2.99307
   D65       -1.04681   0.00009   0.00000  -0.00227  -0.00229  -1.04910
   D66       -3.14056  -0.00009   0.00000  -0.00839  -0.00841   3.13422
   D67        1.04976  -0.00031   0.00000  -0.01006  -0.01009   1.03967
   D68        1.07250   0.00164   0.00000   0.02264   0.02253   1.09503
   D69       -1.02125   0.00145   0.00000   0.01651   0.01641  -1.00483
   D70       -3.11412   0.00124   0.00000   0.01484   0.01473  -3.09938
   D71        3.11957  -0.00118   0.00000  -0.00032  -0.00020   3.11937
   D72        1.02582  -0.00136   0.00000  -0.00645  -0.00632   1.01950
   D73       -1.06705  -0.00157   0.00000  -0.00812  -0.00800  -1.07505
         Item               Value     Threshold  Converged?
 Maximum Force            0.018797     0.000450     NO 
 RMS     Force            0.003835     0.000300     NO 
 Maximum Displacement     1.107380     0.001800     NO 
 RMS     Displacement     0.235692     0.001200     NO 
 Predicted change in Energy=-7.495241D-03
 GradGradGradGradGradGradGradGradGradGradGradGradGradGradGradGradGradGrad

                          Input orientation:                          
 ---------------------------------------------------------------------
 Center     Atomic      Atomic             Coordinates (Angstroms)
 Number     Number       Type             X           Y           Z
 ---------------------------------------------------------------------
      1          8           0        1.182561    0.447675    1.652285
      2          6           0        1.097990   -0.252993    0.645641
      3          7           0        0.071964   -1.065214    0.360823
      4          6           0       -1.116037   -1.163933    1.184863
      5          6           0       -1.880955   -2.389268    0.667798
      6          8           0       -2.909016   -2.811560    1.413720
      7          8           0       -1.579690   -2.946879   -0.361599
      8          6           0       -1.962483    0.130374    1.171334
      9          6           0       -2.272491    0.643970   -0.198950
     10          6           0       -2.378383    0.070824   -1.447002
     11          7           0       -2.697767    1.017556   -2.397750
     12          6           0       -2.798656    2.152720   -1.743003
     13          7           0       -2.545968    1.986260   -0.409166
     14          6           0        2.205641   -0.202813   -0.416483
     15          6           0        3.431327    0.405547    0.245891
     16          7           0        4.489993    0.755393   -0.783826
     17          1           0        0.048003   -1.646757   -0.470606
     18          1           0       -0.826298   -1.347274    2.227150
     19          1           0       -3.009756   -2.284090    2.219929
     20          1           0       -2.876353   -0.045537    1.756952
     21          1           0       -1.388733    0.884126    1.719515
     22          1           0       -2.237414   -0.964969   -1.716085
     23          1           0       -3.049850    3.113673   -2.169048
     24          1           0       -2.565235    2.705300    0.298645
     25          1           0        1.853968    0.431985   -1.241591
     26          1           0        2.413472   -1.194350   -0.832280
     27          1           0        3.893448   -0.274148    0.962019
     28          1           0        3.160096    1.317219    0.778093
     29          1           0        4.799032   -0.073610   -1.302561
     30          1           0        5.317602    1.172981   -0.344873
     31          1           0        4.129939    1.428032   -1.469635
 ---------------------------------------------------------------------
                    Distance matrix (angstroms):
                    1          2          3          4          5
     1  O    0.000000
     2  C    1.229399   0.000000
     3  N    2.278186   1.339236   0.000000
     4  C    2.845930   2.454076   1.449183   0.000000
     5  C    4.289824   3.665825   2.379336   1.534243   0.000000
     6  O    5.236461   4.815839   3.611724   2.445776   1.338522
     7  O    4.817547   3.929570   2.605862   2.405289   1.208862
     8  C    3.197389   3.128869   2.495061   1.546572   2.570757
     9  C    3.924664   3.588596   2.954847   2.553593   3.178850
    10  C    4.735812   4.070526   3.250079   3.169362   3.282052
    11  N    5.637773   5.028349   4.429341   4.482843   4.655235
    12  C    5.503203   5.164971   4.798087   4.733265   5.223389
    13  N    4.529763   4.405145   4.093647   3.809114   4.554925
    14  C    2.397838   1.535420   2.429099   3.810723   4.759886
    15  C    2.652672   2.457222   3.669016   4.901374   6.017420
    16  N    4.119276   3.816530   4.913636   6.243967   7.251557
    17  H    3.190694   2.071487   1.014909   2.080549   2.359695
    18  H    2.754601   2.720571   2.090360   1.097235   2.151658
    19  H    5.035899   4.845340   3.799859   2.431519   1.922074
    20  H    4.090110   4.132004   3.417820   2.162594   2.769505
    21  H    2.608938   2.937692   2.789194   2.134189   3.473255
    22  H    5.003769   4.148442   3.107542   3.116500   2.799748
    23  H    6.294715   6.038336   5.797333   5.769426   6.300506
    24  H    4.579868   4.721348   4.601681   4.225699   5.153557
    25  H    2.970783   2.145307   2.825753   4.153982   5.055184
    26  H    3.222492   2.191095   2.631128   4.065369   4.703208
    27  H    2.889014   2.813384   3.948540   5.092771   6.156625
    28  H    2.330443   2.595263   3.922584   4.960534   6.257987
    29  H    4.699119   4.186333   5.108356   6.508773   7.339401
    30  H    4.649008   4.562855   5.746673   7.013771   8.095329
    31  H    4.403921   4.061151   5.102354   6.425333   7.434463
                    6          7          8          9         10
     6  O    0.000000
     7  O    2.221977   0.000000
     8  C    3.099943   3.459177   0.000000
     9  C    3.866077   3.660687   1.495849   0.000000
    10  C    4.095539   3.304927   2.651829   1.377440   0.000000
    11  N    5.406853   4.594861   3.750478   2.270494   1.379213
    12  C    5.883974   5.422183   3.644506   2.221998   2.144420
    13  N    5.145269   5.027109   2.506541   1.385902   2.184968
    14  C    6.026186   4.675643   4.472743   4.562678   4.706391
    15  C    7.205106   6.059546   5.479540   5.726105   6.060582
    16  N    8.502805   7.122229   6.771096   6.788644   6.934192
    17  H    3.694781   2.086045   3.145825   3.271990   3.129023
    18  H    2.672735   3.134957   2.142220   3.455790   4.233127
    19  H    0.968682   3.024676   2.833014   3.868859   4.403480
    20  H    2.787429   3.819344   1.099570   2.160006   3.244509
    21  H    4.007850   4.363955   1.094456   2.125844   3.415801
    22  H    3.695488   2.489016   3.100411   2.211699   1.079419
    23  H    6.925637   6.492961   4.608752   3.253461   3.198617
    24  H    5.638912   5.775323   2.784806   2.140650   3.165859
    25  H    6.344863   4.897052   4.525315   4.261420   4.252696
    26  H    5.999064   4.386142   4.991828   5.073340   4.994039
    27  H    7.274339   6.233033   5.873617   6.341103   6.727425
    28  H    7.367833   6.476650   5.272955   5.560655   6.097482
    29  H    8.619081   7.058979   7.202767   7.193005   7.180321
    30  H    9.308408   8.034063   7.509032   7.609906   7.852237
    31  H    8.708315   7.277874   6.765813   6.574230   6.648366
                   11         12         13         14         15
    11  N    0.000000
    12  C    1.314332   0.000000
    13  N    2.217183   1.367729   0.000000
    14  C    5.427534   5.687810   5.231623   0.000000
    15  C    6.702924   6.769122   6.217380   1.520247   0.000000
    16  N    7.371388   7.483111   7.152633   2.504269   1.517723
    17  H    4.283888   4.915129   4.464446   2.596788   4.021468
    18  H    5.521278   5.648209   4.584744   4.182253   5.012499
    19  H    5.685170   5.952703   5.036182   6.203446   7.253863
    20  H    4.292273   4.133770   2.988214   5.529487   6.501817
    21  H    4.322412   3.947942   2.661800   4.320121   5.062962
    22  H    2.146391   3.167917   3.242375   4.691543   6.153234
    23  H    2.137750   1.080761   2.149917   6.456838   7.427755
    24  H    3.183801   2.127946   1.009151   5.632920   6.422648
[...]
 1607,0.00007034,0.00003647,0.00003008,-0.00011312,0.00004205,0.0000898
 8,0.00010326,0.00760466,-0.12685702,-0.15274578,-0.00093656,0.01496775
 ,0.00862299,-0.00029193,0.00067911,0.00248583,0.00133590,0.00030813,0.
 00053251,-0.00004805,-0.00001987,0.00000422,-0.00001476,-0.00003622,0.
 00000978,0.00001698,0.00002876,0.00003509,-0.00011596,0.00003771,0.000
 04315,-0.00001384,0.00000514,0.00001057,0.00000849,-0.00000279,0.00000
 485,-0.00005953,0.00004227,-0.00003347,-0.00760784,0.13736480,0.163869
 32,0.00255695,-0.00178640,0.00291091,-0.02335091,0.00642625,-0.0230690
 6,-0.00116887,-0.00016464,0.00237055,-0.00000254,-0.00081194,0.0013611
 7,0.00015768,0.00018952,0.00014415,-0.00014004,-0.00008548,-0.00004513
 ,-0.00006614,-0.00011694,-0.00006605,0.00021516,-0.00011325,-0.0000350
 3,0.00003625,-0.00006377,-0.00000720,-0.00003390,-0.00008072,0.0000284
 6,0.00032461,-0.00012400,-0.00004575,-0.00001064,0.00013529,0.00012284
 ,0.00006317,0.00004123,-0.00009059,-0.15373147,0.03829794,-0.13250721,
 0.00582680,-0.00236562,0.00871191,0.00040113,-0.00332005,0.00293212,-0
 .00033765,0.00076766,-0.00044025,-0.00049497,-0.00009020,-0.00005019,0
 .00005614,0.00001943,-0.00001526,0.00000631,0.00001890,0.00000614,-0.0
 0000471,0.00002989,0.00001020,0.00001974,0.00000886,0.00005315,-0.0000
 0304,0.00000187,0.00000147,-0.00000881,-0.00000182,-0.00001587,0.00108
 916,-0.00045243,0.00136691,0.16813468,-0.00017568,0.00027137,-0.001345
 20,0.00346105,-0.00083192,0.00232039,-0.00066660,-0.00079522,0.0005107
 4,0.00026119,-0.00010509,0.00033860,0.00014304,0.00012041,-0.00003237,
 -0.00009940,-0.00005879,0.00001332,-0.00008299,-0.00007456,0.00001865,
 0.00001062,-0.00003768,-0.00000562,-0.00002186,-0.00001516,-0.00006358
 ,-0.00005212,-0.00014174,0.00001156,0.00029304,-0.00008204,-0.00000789
 ,-0.00002715,0.00014343,0.00010800,0.00004504,0.00002369,-0.00005407,0
 .03561083,-0.05686582,0.04064779,0.01607283,-0.00608152,0.02167573,-0.
 00132694,-0.00505399,0.00229398,-0.00021032,0.00061226,-0.00042127,-0.
 00022253,0.00000143,0.00004651,0.00002511,0.00001949,-0.00000392,-0.00
 000771,0.00001544,-0.00000453,-0.00000130,0.00000463,-0.00000274,0.000
 07046,0.00000854,0.00005789,-0.00000254,0.00000547,0.00000852,0.000005
 29,0.00000904,0.00000023,-0.01689636,0.00606352,-0.01934492,-0.0358932
 7,0.06165213,-0.00013600,0.00046580,-0.00155559,0.00881908,-0.00457443
 ,0.01258055,0.00062609,0.00088828,-0.00071069,-0.00030265,0.00024736,-
 0.00042544,-0.00008952,-0.00009679,-0.00011030,0.00006455,0.00004680,0
 .00003318,0.00005443,0.00005615,0.00008584,-0.00002150,0.00005811,-0.0
 0000358,-0.00004997,-0.00000769,-0.00009948,-0.00000577,0.00006883,-0.
 00003897,-0.00030589,0.00005356,0.00006738,0.00001485,-0.00008784,-0.0
 0012905,-0.00000773,0.00004654,0.00016914,-0.12483495,0.04076279,-0.19
 325250,-0.00814716,0.00237544,-0.01199288,0.00130822,0.00336588,-0.000
 76381,0.00018752,-0.00002091,-0.00004579,0.00022064,0.00004537,-0.0000
 0707,-0.00003412,-0.00001125,0.00000461,0.00000650,-0.00002057,0.00001
 003,-0.00002477,-0.00001538,0.00001448,0.00004309,0.00000330,-0.000007
 50,-0.00000182,0.00000261,-0.00000097,-0.00001488,0.00001507,-0.000006
 30,-0.01247506,0.00434298,-0.01469283,0.13479228,-0.04789705,0.2103148
 1,-0.00011267,-0.00042394,-0.00012165,0.00092482,-0.00107388,0.0002759
 9,-0.00051401,-0.00007512,0.00020676,0.00013479,-0.00004111,-0.0001273
 8,0.00004557,0.00010165,0.00005817,-0.00007193,-0.00005923,-0.00000695
 ,-0.00003704,-0.00004820,-0.00003190,-0.00001811,-0.00000587,-0.000007
 37,0.00002548,-0.00002784,0.00000131,-0.00000610,0.00004033,0.00002908
 ,-0.00011034,0.00006012,-0.00001851,-0.00001392,-0.00008399,0.00003260
 ,-0.00001488,0.00004888,-0.00000667,-0.00686902,0.00007790,0.00160879,
 -0.32755253,-0.00782767,-0.00565538,-0.00564052,0.00067251,-0.00291156
 ,0.00001309,0.00007420,0.00005757,-0.00001959,-0.00000019,0.00001340,0
 .00002356,0.00001489,-0.00001107,-0.00001169,0.00000483,-0.00000073,0.
 00001448,-0.00000247,-0.00000121,0.00000746,0.00000957,0.00001264,-0.0
 0000255,-0.00001435,0.00000808,0.00001598,-0.00002438,-0.00000383,-0.0
 0013339,-0.00017846,-0.00004736,0.00112379,0.00021553,0.00012223,0.346
 53801,0.00008199,0.00201558,-0.00011365,0.00144770,-0.00658883,-0.0007
 2881,-0.00197522,0.00035887,0.00076274,0.00005760,-0.00026444,-0.00030
 198,-0.00005192,0.00016866,0.00016923,-0.00011028,-0.00010668,-0.00004
 111,-0.00003254,-0.00005949,-0.00008923,-0.00007071,-0.00007523,0.0000
 4443,-0.00004420,0.00000700,0.00005513,-0.00007466,-0.00006753,-0.0000
 4574,0.00021921,-0.00022895,0.00004767,-0.00005326,0.00023767,0.000089
 91,0.00007854,-0.00006613,-0.00007592,-0.02865943,-0.00191031,0.004224
 10,-0.00828964,-0.05152163,-0.00270458,0.00234923,-0.00007083,0.000929
 68,0.00006830,0.00013353,0.00017858,-0.00004520,0.00001028,0.00001880,
 0.00003673,0.00000949,-0.00001060,-0.00000946,0.00004763,-0.00003427,0
 .00000808,0.00000641,-0.00001545,0.00000827,-0.00000005,0.00003215,-0.
 00000436,0.00003440,-0.00002361,-0.00002962,0.00001022,0.00000843,-0.0
 0002276,-0.00015247,-0.00043018,-0.00010300,0.00162275,-0.00040057,0.0
 0981894,0.05220136,0.00043770,0.00037725,-0.00015207,-0.00011136,0.002
 28749,0.00015204,0.00155605,0.00022387,-0.00036821,-0.00034094,0.00023
 928,0.00017028,-0.00006671,-0.00018115,-0.00014130,0.00016690,0.000118
 08,0.00003450,0.00011583,0.00006422,0.00010533,0.00005163,0.00010204,-
 0.00000900,-0.00010902,0.00008809,0.00006749,0.00015530,0.00045256,-0.
 00011129,-0.00233602,0.00078984,0.00022354,0.00007581,-0.00060543,-0.0
 0049666,-0.00027591,-0.00002379,0.00067772,0.01291167,0.00097656,-0.00
 168348,0.00393657,-0.00358723,-0.04707163,-0.04390169,0.00290265,-0.01
 569455,-0.00004507,-0.00017504,-0.00013130,0.00011016,-0.00002006,-0.0
 0003333,-0.00005459,-0.00000704,0.00000646,0.00001534,-0.00004926,0.00
 003511,-0.00005162,-0.00003178,0.00003929,-0.00000854,-0.00000226,-0.0
 0006743,-0.00005833,0.00004583,-0.00004373,-0.00002668,-0.00002473,0.0
 0002551,0.00002066,0.00037413,0.00000241,0.00132937,0.00050095,0.00045
 523,0.00792467,-0.00488450,0.06428138,-0.00115258,0.00146933,-0.000157
 35,-0.00040269,-0.00380628,-0.00124904,0.00074387,0.00146194,0.0006997
 9,-0.00032393,0.00002151,0.00026942,-0.00011756,-0.00026336,-0.0001511
 4,0.00014807,0.00014117,0.00002396,0.00009068,0.00015385,0.00013083,0.
 00004697,-0.00000935,-0.00001302,-0.00012804,0.00008042,0.00000878,0.0
 0012467,-0.00000648,-0.00012758,-0.00018747,-0.00019119,0.00011284,0.0
 0015562,0.00037460,-0.00006205,-0.00017859,-0.00013171,0.00036022,0.00
 526756,-0.00987878,-0.00613007,-0.09367316,0.08989023,0.05097776,0.004
 09332,-0.01221528,-0.00964684,0.00038371,-0.00005714,-0.00009822,0.000
 04020,-0.00000927,-0.00003443,-0.00005866,-0.00004419,0.00002230,0.000
 03719,0.00001037,0.00001729,-0.00005918,0.00002238,0.00003209,0.000024
 99,0.00001447,-0.00002920,-0.00004815,0.00006056,-0.00009315,-0.000090
 40,0.00006475,0.00000447,-0.00091169,-0.00236727,0.00096171,-0.0000539
 0,0.00005703,0.00015951,-0.00935006,0.02567009,0.01505445,0.09460434,0
 .00123519,0.00356192,0.00021259,0.00185299,-0.00395681,-0.00359976,0.0
 0011341,0.00074856,0.00029119,-0.00013113,0.00001246,0.00011198,-0.000
 02493,-0.00011041,-0.00008485,0.00003843,0.00005332,0.00001655,0.00001
 762,0.00008542,0.00007413,-0.00000732,-0.00000168,-0.00000309,-0.00007
 553,-0.00008252,-0.00005813,-0.00010905,-0.00016666,0.00006691,0.00006
 061,-0.00000800,0.00020067,-0.00022399,0.00014953,-0.00003762,0.000114
 30,0.00005197,-0.00009036,0.00615035,-0.02361469,-0.01059683,0.0848325
 8,-0.22620306,-0.10448680,-0.00208574,0.00570923,0.00373554,0.00026928
 ,0.00006850,0.00005897,0.00000632,-0.00001710,-0.00001236,-0.00002057,
 -0.00001760,0.00000701,0.00001783,0.00000496,0.00001743,-0.00005485,0.
 00002145,0.00001492,0.00001604,-0.00001339,0.00000580,0.00009699,-0.00
 002166,0.00007737,0.00000166,0.00005670,-0.00000454,-0.00087797,-0.003
 21163,0.00298523,-0.00003124,-0.00033089,0.00026793,-0.00119594,0.0031
 2499,0.00215103,-0.08985786,0.24298126,-0.00027799,-0.00155871,-0.0012
 8319,0.00076212,0.00315791,0.00181216,-0.00039138,-0.00162059,-0.00069
 562,0.00029691,0.00002168,-0.00011871,0.00001136,0.00007954,0.00006248
 ,-0.00003109,-0.00003983,-0.00001940,-0.00003815,-0.00006606,-0.000076
 21,-0.00004555,0.00001042,0.00008669,0.00001656,0.00026363,0.00014212,
 0.00005835,-0.00004261,-0.00018812,-0.00013016,-0.00009027,-0.00001347
 ,-0.00003420,0.00024136,0.00028933,-0.00013210,-0.00019265,0.00004968,
 -0.00500987,0.00979835,0.01021799,0.04245052,-0.09559249,-0.10576816,0
 .00956921,-0.02722078,-0.02419338,-0.00047040,-0.00003453,0.00009752,-
 0.00002576,0.00003474,0.00001400,0.00001749,0.00000785,0.00000301,-0.0
 0000033,0.00001176,-0.00005760,0.00006076,-0.00001214,-0.00004969,0.00
 001490,0.00002168,-0.00000620,-0.00012404,0.00010100,-0.00008143,0.000
 05368,-0.00001298,0.00007514,0.00174131,0.00250565,-0.00143195,-0.0003
 5301,-0.00050667,0.00000369,-0.00006289,0.00254806,0.00253591,-0.04831
 355,0.10770467,0.12307590,0.00006131,-0.00009871,-0.00009755,0.0000515
 4,0.00025647,0.00035209,-0.00004746,-0.00001109,-0.00014650,-0.0000600
 6,-0.00004297,0.00003833,-0.00025712,-0.00001050,0.00020198,0.00018350
 ,0.00005119,-0.00006808,0.00014414,0.00003518,-0.00019845,0.00003998,0
 .00003195,0.00006578,-0.00016148,0.00011473,0.00057415,-0.00009914,0.0
 0057616,0.00007829,-0.00329063,-0.00113982,-0.00124087,0.00049734,-0.0
 0026379,-0.00080481,-0.00007526,-0.00068427,0.00002140,-0.00013237,0.0
 0033998,0.00088839,0.00230746,-0.00903167,-0.00485407,-0.07217150,0.07
 073509,0.04079445,-0.00003502,-0.00013469,0.00018681,0.00002613,0.0000
 0002,-0.00001822,-0.00002375,-0.00001760,0.00001975,0.00001262,0.00000
 365,-0.00001487,-0.00001164,-0.00001618,0.00000282,-0.00042984,-0.0002
 1853,-0.00002558,-0.00000551,-0.00002315,-0.00002915,-0.00000107,-0.00
 001249,0.00001619,0.00044648,-0.00016615,0.00013570,-0.00011222,-0.000
 32459,-0.00013581,-0.00025432,-0.00076216,-0.00056091,-0.00048615,0.00
 045603,-0.00146020,0.06545432,0.00017918,-0.00059648,-0.00012105,-0.00
 044953,0.00016117,0.00018666,-0.00001263,-0.00018099,-0.00001065,-0.00
 008620,-0.00001041,-0.00003283,-0.00014956,0.00012030,0.00020815,0.000
 11463,-0.00001524,-0.00005631,0.00013386,-0.00010280,-0.00016103,0.000
 01025,0.00005136,-0.00003902,-0.00004369,0.00002519,0.00003779,0.00015
 902,0.00035243,-0.00002037,-0.00077434,0.00063574,0.00004232,-0.000007
 94,-0.00039703,-0.00028332,-0.00017299,-0.00002322,0.00030474,0.000426
 36,0.00323115,0.00197835,-0.00208858,0.00663065,0.00053897,0.05874709,
 -0.31449400,-0.14145574,-0.00014917,0.00000069,0.00010481,0.00002388,-
 0.00001892,-0.00000691,-0.00000504,0.00002320,-0.00000570,-0.00001121,
 -0.00001923,0.00002386,-0.00000197,-0.00002202,0.00001577,-0.00010566,
 0.00004390,0.00000154,-0.00001495,-0.00000590,-0.00001203,0.00001251,-
 0.00003251,0.00000915,0.00005275,-0.00068182,-0.00070834,-0.00015544,-
 0.00031540,0.00005841,-0.00007435,-0.00007734,0.00009065,-0.00002541,0
 .00062231,0.00205980,-0.06662634,0.33162422,-0.00038340,0.00085918,0.0
 0034012,0.00158587,-0.00042641,-0.00061093,-0.00044611,-0.00012415,0.0
 0011381,0.00020927,-0.00003470,-0.00007183,0.00016380,0.00020326,0.000
 10404,-0.00015329,-0.00010903,-0.00001449,-0.00011838,-0.00010020,-0.0
 0009119,-0.00001613,-0.00000591,0.00001357,-0.00002963,-0.00005000,0.0
 0005129,-0.00012633,0.00020800,-0.00003297,-0.00115338,-0.00020300,-0.
 00041572,0.00010621,-0.00011112,-0.00021199,-0.00003310,-0.00002244,0.
 00008464,0.00034300,-0.00182241,0.00185946,0.00841739,-0.02928058,-0.0
 1736736,0.03623591,-0.14691961,-0.13927228,0.00013513,0.00020408,0.000
 02569,-0.00006487,-0.00001165,0.00002278,0.00005169,0.00002904,-0.0000
 1315,-0.00002697,0.00000423,0.00000210,0.00001289,-0.00001094,0.000000
 38,0.00002410,0.00002965,0.00013529,0.00001854,-0.00002560,-0.00000492
 ,0.00005050,-0.00005036,0.00000636,0.00034116,0.00203107,-0.00004935,-
 0.00038373,-0.00010409,0.00069954,-0.00024331,-0.00005634,0.00081887,-
 0.00346420,0.00184756,-0.00551431,-0.03876246,0.15373787,0.14689160,0.
 00007698,-0.00004123,-0.00008749,-0.00043977,0.00010283,-0.00016796,0.
 00017350,0.00010270,-0.00002276,-0.00002827,0.00000298,0.00005487,-0.0
 0010087,-0.00010880,-0.00002632,0.00008347,0.00006551,-0.00000833,0.00
 004092,0.00006120,0.00000711,-0.00003900,-0.00005818,-0.00000526,0.000
 28224,0.00020587,-0.00027525,0.00031884,-0.00007518,-0.00039199,-0.001
 18690,0.00241504,-0.00072669,-0.00041874,-0.00004321,0.00007534,-0.000
 01252,0.00016851,0.00025824,-0.00031042,-0.00000958,-0.00265811,0.0063
 3090,0.01058582,-0.00496217,-0.15608383,-0.14655509,0.08515056,-0.0000
 1570,-0.00004256,-0.00001534,0.00001086,0.00001472,-0.00000997,-0.0000
 2688,-0.00002821,0.00001886,0.00001604,0.00001771,-0.00001072,0.000001
 13,0.00001926,-0.00002450,0.00008950,0.00000821,0.00005110,-0.00017285
 ,0.00013553,0.00001476,0.00005074,-0.00000275,0.00005763,-0.00010110,-
 0.00022315,0.00009047,0.00023453,0.00046872,-0.00051064,0.00029105,0.0
 0091016,-0.00085169,0.00001047,-0.00023622,0.00052350,0.00499335,0.008
 98680,-0.00478096,0.15754001,0.00015856,-0.00000523,-0.00014617,-0.000
 34032,0.00000934,0.00031679,0.00022721,0.00006030,-0.00005201,-0.00007
 661,0.00001007,0.00005052,-0.00009638,-0.00005380,0.00001174,0.0000867
 5,0.00004218,-0.00000893,0.00005904,0.00002051,-0.00001430,0.00000938,
 -0.00001034,-0.00001000,-0.00006519,-0.00015332,0.00001977,-0.00013946
 ,-0.00027766,0.00021535,0.00154334,-0.00119389,0.00034992,0.00003902,0
 .00057845,0.00023725,0.00022068,-0.00009538,-0.00046969,0.00038981,-0.
 00012159,0.00009755,0.00093773,0.00086292,0.00093774,-0.13315801,-0.24
 776655,0.10544408,-0.00002384,-0.00003691,-0.00002410,0.00002165,0.000
 00245,-0.00000960,-0.00002424,-0.00000897,0.00000843,0.00000953,0.0000
 0226,0.00000220,-0.00000632,0.00000532,0.00000046,-0.00003352,-0.00002
 573,0.00000307,0.00020441,-0.00007720,-0.00001203,-0.00002705,0.000084
 46,-0.00003709,0.00003677,0.00041561,0.00008856,-0.00023110,0.00020777
 ,0.00013320,0.00030297,0.00051036,-0.00043394,0.00014727,0.00020184,-0
 .00054178,-0.02001152,-0.02208097,0.01616518,0.14956689,0.26049777,0.0
 0012096,-0.00035892,-0.00001446,-0.00067473,0.00035918,0.00013614,0.00
 011613,-0.00009782,0.00000439,-0.00002629,0.00002055,0.00001867,0.0001
 0092,0.00006421,-0.00000470,-0.00006100,-0.00003465,0.00001095,-0.0000
 3970,-0.00004504,0.00001324,0.00003126,0.00003009,-0.00002426,0.000027
 45,-0.00001756,-0.00008885,-0.00001108,0.00005794,-0.00005159,-0.00082
 212,0.00059724,-0.00032930,0.00000892,-0.00019039,-0.00019803,-0.00007
 383,0.00009643,0.00016230,-0.00304961,-0.00181883,-0.00565168,0.018020
 97,0.02506006,-0.01311559,0.08260038,0.11186683,-0.12281466,-0.0000028
 0,0.00004331,-0.00006925,0.00000094,-0.00001423,0.00000641,0.00001562,
 0.00002002,-0.00001054,-0.00001393,-0.00002100,0.00002040,0.00000086,-
 0.00001043,0.00001104,0.00007410,0.00004188,0.00002714,0.00004426,-0.0
 0005073,0.00007270,0.00007132,-0.00002845,0.00001025,-0.00019995,-0.00
 032104,0.00039309,0.00081637,0.00133341,-0.00068392,-0.00048503,0.0004
 9041,0.00169606,0.00079053,-0.00037378,-0.00002343,-0.01228508,-0.0149
 8050,0.00988500,-0.08552236,-0.11738239,0.12818874,-0.00510998,0.00094
 222,0.00049997,0.00904303,-0.00038224,-0.00104000,-0.00447788,-0.00060
 916,-0.00085546,0.00220182,-0.00044872,-0.00027337,-0.00051351,-0.0009
 0916,-0.00035849,-0.00004370,0.00033757,-0.00007859,-0.00050250,0.0008
 3442,-0.00002335,-0.00077254,-0.00147723,0.00036928,0.00148165,-0.0038
 1409,-0.00357699,-0.00958988,-0.01134581,0.00493904,0.01972703,-0.0161
 2102,0.00805045,-0.00435997,0.01604072,0.01266738,0.00677583,0.0020377
 0,-0.01298942,0.00028590,0.00117639,0.00156672,0.00188174,0.00139369,-
 0.01749423,-0.17457579,0.02033800,-0.00710072,0.00078315,0.00004610,0.
 00044837,-0.00046132,0.00044533,0.00004418,-0.00006578,-0.00042698,0.0
 0026227,0.00019589,0.00065683,-0.00052344,0.00037227,0.00052052,-0.000
 49648,0.00167606,0.00045678,0.00073291,0.00209553,-0.00089264,0.000653
 21,-0.00042268,0.00163498,-0.00042295,-0.00039503,0.00032329,-0.000062
 83,-0.00072628,-0.00072840,0.00067922,0.00157459,-0.00041642,0.0049369
 4,0.00145057,-0.00034731,0.00132401,0.00343638,0.00210867,0.00249077,-
 0.01160765,0.00027254,0.00042651,0.16064304,0.00130853,-0.00054636,-0.
 00022209,-0.00237713,0.00052343,0.00101149,0.00111424,0.00009333,-0.00
 004015,-0.00072992,0.00009044,0.00017500,-0.00013073,0.00025436,0.0003
 0916,0.00019909,-0.00005135,-0.00003966,0.00028440,-0.00018572,-0.0002
 0246,0.00053557,0.00075410,0.00035044,-0.00175576,-0.00028906,0.002837
 15,-0.00492311,0.00482120,0.00178725,-0.00975750,-0.01558380,-0.003597
 31,0.00691188,-0.00334336,-0.00539427,-0.00098266,-0.00293010,0.001559
 93,0.00047265,-0.00035412,-0.00031535,-0.00086404,-0.00096671,0.003602
 22,0.02413471,-0.07194212,0.00135514,-0.00020657,-0.00017582,0.0000331
 8,0.00016087,-0.00013734,-0.00003361,-0.00000521,0.00010803,-0.0000564
 0,-0.00002612,-0.00017188,0.00006395,-0.00016085,-0.00028742,0.0002660
 7,-0.00091335,-0.00042252,-0.00042069,-0.00031166,0.00001266,-0.000111
 06,-0.00019423,-0.00010277,-0.00017744,0.00028916,-0.00030857,0.000024
 44,0.00005449,0.00000847,-0.00017194,-0.00028531,0.00069073,-0.0017583
 0,-0.00077639,0.00030168,-0.00103601,0.02699578,-0.00444802,0.00414944
 ,-0.02641429,0.00839594,-0.00433581,-0.01164655,0.08619266,-0.00021703
 ,-0.00076727,0.00025785,0.00081711,0.00155977,-0.00023806,-0.00040008,
 -0.00044433,-0.00012164,0.00029119,-0.00000528,-0.00006575,0.00007366,
 0.00020178,0.00019169,-0.00010547,-0.00009480,-0.00003967,-0.00009443,
 -0.00006773,-0.00018192,0.00008152,-0.00028780,-0.00024144,0.00076117,
 0.00124983,-0.00047076,0.00283780,-0.00051248,-0.00220280,0.00153531,-
 0.00273773,-0.00537060,0.00430594,0.00111337,-0.00400724,0.00077671,-0
 .00188730,-0.00088476,0.00010130,0.00037039,0.00049033,-0.02848027,0.0
 0463294,-0.00104435,-0.01941501,0.00377442,-0.06542341,0.00003496,0.00
 013144,0.00007655,-0.00007147,-0.00001039,0.00002730,0.00004723,0.0000
 1980,-0.00000261,-0.00004146,-0.00000601,-0.00000015,0.00008181,0.0000
 8277,-0.00009702,-0.00013332,0.00008326,0.00024355,-0.00009711,-0.0002
 8384,0.00001557,0.00046812,0.00005655,-0.00037704,0.00005240,0.0001202
 6,-0.00004282,0.00016633,-0.00009235,0.00008819,-0.00060850,0.00035722
 ,-0.00532314,-0.00005608,-0.00049935,0.00105526,0.01732651,-0.00150505
 ,0.00261596,0.01475606,-0.00493976,0.00242374,0.00520508,0.00038766,0.
 07864919\\0.00001035,0.00000187,0.00000078,-0.00000023,0.00002199,-0.0
 0000628,-0.00000276,-0.00002709,0.00000230,0.00000620,-0.00000504,0.00
 000245,0.00000103,0.00000153,0.00000164,0.00000036,-0.00000090,0.00000
 187,-0.00000171,0.00000522,-0.00000334,-0.00000643,-0.00000020,-0.0000
 0052,0.00000068,0.00000277,-0.00000144,0.00000551,0.00000368,0.0000009
 4,0.00000218,0.00000033,-0.00000218,-0.00000911,-0.00000119,0.00000775
 ,-0.00000442,0.00000165,-0.00000173,-0.00001378,0.00000323,0.00000055,
 0.00000332,-0.00001517,-0.00000114,-0.00003335,0.00001804,0.00000564,0
 .00000091,0.00000119,-0.00000513,-0.00000125,0.00000238,-0.00000175,0.
 00000101,-0.00000038,-0.00000263,0.00000013,0.00000258,-0.00000020,0.0
 0000139,-0.00000205,-0.00000102,0.00000074,0.00000097,-0.00000088,-0.0
 0000152,0.00000073,0.00000122,0.00000217,-0.00000180,0.00000296,0.0000
 0600,-0.00000171,0.00000025,-0.00000114,0.00000084,0.00000027,-0.00000
 347,-0.00000283,0.00000241,0.00000104,0.00000197,-0.00000023,-0.000002
 04,0.00000122,0.00000077,-0.00000267,0.00000216,0.00000069,0.00004084,
 -0.00001600,-0.00000403\\\@


 CHRISTMAS IS ON TOP OF A STEEP HILL.
 THE CLOSER YOU GET, THE STEEPER THE HILL IS.
          -- LINUS, OF PEANUTS
 Job cpu time:       0 days  1 hours 39 minutes 47.0 seconds.
 File lengths (MBytes):  RWF=    349 Int=      0 D2E=      0 Chk=     10 Scr=      1
 Normal termination of Gaussian 09 at Sat Jul 24 02:38:57 2021.
