 Entering Gaussian System, Link 0=g09
 Input=opt_freq-conf-661.com
 Output=opt_freq-conf-661.log
 Initial command:
 /aerosol/software/g09/l1.exe "/scratch/nicole/10476/Gau-72708.inp" -scrdir="/scratch/nicole/10476/"
 Entering Link 1 = /aerosol/software/g09/l1.exe PID=     72715.
  
 Copyright (c) 1988,1990,1992,1993,1995,1998,2003,2009,2013,
            Gaussian, Inc.  All Rights Reserved.
  
 This is part of the Gaussian(R) 09 program.  It is based on
 the Gaussian(R) 03 system (copyright 2003, Gaussian, Inc.),
 the Gaussian(R) 98 system (copyright 1998, Gaussian, Inc.),
 the Gaussian(R) 94 system (copyright 1995, Gaussian, Inc.),
 the Gaussian 92(TM) system (copyright 1992, Gaussian, Inc.),
 the Gaussian 90(TM) system (copyright 1990, Gaussian, Inc.),
 the Gaussian 88(TM) system (copyright 1988, Gaussian, Inc.),
 the Gaussian 86(TM) system (copyright 1986, Carnegie Mellon
 University), and the Gaussian 82(TM) system (copyright 1983,
 Carnegie Mellon University). Gaussian is a federally registered
 trademark of Gaussian, Inc.
  
 This software contains proprietary and confidential information,
 including trade secrets, belonging to Gaussian, Inc.
  
 This software is provided under written license and may be
 used, copied, transmitted, or stored only in accord with that
 written license.
  
 The following legend is applicable only to US Government
 contracts under FAR:
  
                    RESTRICTED RIGHTS LEGEND
  
 Use, reproduction and disclosure by the US Government is
 subject to restrictions as set forth in subparagraphs (a)
 and (c) of the Commercial Computer Software - Restricted
 Rights clause in FAR 52.227-19.
  
 Gaussian, Inc.
 340 Quinnipiac St., Bldg. 40, Wallingford CT 06492
  
  
 ---------------------------------------------------------------
 Warning -- This program may not be used in any manner that
 competes with the business of Gaussian, Inc. or will provide
 assistance to any competitor of Gaussian, Inc.  The licensee
 of this program is prohibited from giving any competitor of
 Gaussian, Inc. access to this program.  By using this program,
 the user acknowledges that Gaussian, Inc. is engaged in the
 business of creating and licensing software in the field of
 computational chemistry and represents and warrants to the
 licensee that it is not a competitor of Gaussian, Inc. and that
 it will not use this program in any manner prohibited above.
 ---------------------------------------------------------------
  

 Cite this work as:
 Gaussian 09, Revision D.01,
 M. J. Frisch, G. W. Trucks, H. B. Schlegel, G. E. Scuseria, 
 M. A. Robb, J. R. Cheeseman, G. Scalmani, V. Barone, B. Mennucci, 
 G. A. Petersson, H. Nakatsuji, M. Caricato, X. Li, H. P. Hratchian, 
 A. F. Izmaylov, J. Bloino, G. Zheng, J. L. Sonnenberg, M. Hada, 
 M. Ehara, K. Toyota, R. Fukuda, J. Hasegawa, M. Ishida, T. Nakajima, 
 Y. Honda, O. Kitao, H. Nakai, T. Vreven, J. A. Montgomery, Jr., 
 J. E. Peralta, F. Ogliaro, M. Bearpark, J. J. Heyd, E. Brothers, 
 K. N. Kudin, V. N. Staroverov, T. Keith, R. Kobayashi, J. Normand, 
 K. Raghavachari, A. Rendell, J. C. Burant, S. S. Iyengar, J. Tomasi, 
 M. Cossi, N. Rega, J. M. Millam, M. Klene, J. E. Knox, J. B. Cross, 
 V. Bakken, C. Adamo, J. Jaramillo, R. Gomperts, R. E. Stratmann, 
 O. Yazyev, A. J. Austin, R. Cammi, C. Pomelli, J. W. Ochterski, 
 R. L. Martin, K. Morokuma, V. G. Zakrzewski, G. A. Voth, 
 P. Salvador, J. J. Dannenberg, S. Dapprich, A. D. Daniels, 
 O. Farkas, J. B. Foresman, J. V. Ortiz, J. Cioslowski, 
 and D. J. Fox, Gaussian, Inc., Wallingford CT, 2013.
 
 ******************************************
 Gaussian 09:  ES64L-G09RevD.01 24-Apr-2013
                24-Jul-2021 
 ******************************************
 %mem=2gb
 %nproc=4
 Will use up to    4 processors via shared memory.
 %chk=conf-661.chk
 ----------------------------------------------------------------------
 # B3LYP/6-31G(d,p) EmpiricalDispersion=GD3BJ opt=calcfc freq=noraman n
 osymm integral(ultrafinegrid)
 ----------------------------------------------------------------------
 1/10=4,14=-1,18=20,19=15,26=4,38=1/1,3;
 2/9=110,12=2,15=1,17=6,18=5,40=1/2;
 3/5=1,6=6,7=101,11=2,16=1,25=1,30=1,71=2,74=-5,75=-5,124=41,140=1/1,2,3;
 4//1;
 5/5=2,38=5/2;
 8/6=4,10=90,11=11/1;
 11/6=1,8=1,9=11,15=111,16=1,31=1/1,2,10;
 10/6=1,13=1,31=1/2;
 6/7=2,8=2,9=2,10=2,28=1/1;
 7/10=1,18=20,25=1,30=1/1,2,3,16;
 1/10=4,14=-1,18=20,19=15,26=4/3(2);
 2/9=110,15=1/2;
 99//99;
 2/9=110,15=1/2;
 3/5=1,6=6,7=101,11=2,16=1,25=1,30=1,71=1,74=-5,75=-5,124=41/1,2,3;
 4/5=5,16=3,69=1/1;
 5/5=2,38=5/2;
 7/30=1/1,2,3,16;
 1/14=-1,18=20,19=15,26=4/3(-5);
 2/9=110,15=1/2;
 6/7=2,8=2,9=2,10=2,19=2,28=1/1;
 99/9=1/99;
 ------------------------------------------------------------
 Candidate Structure: Conf:661 OPT and FREQ calc in gas phase
 ------------------------------------------------------------
 Symbolic Z-matrix:
 Charge =  1 Multiplicity = 1
 O                     1.32423   1.81349   0.5401 
 C                     1.12207   1.00651  -0.35344 
 N                     0.17682   0.02404  -0.25786 
 C                    -0.31161  -0.34442   1.05573 
 C                     0.59774  -1.40463   1.66885 
 O                     0.55837  -1.51997   3.00838 
 O                     1.29808  -2.13154   1.01585 
 C                    -1.74475  -0.88705   0.99962 
 C                    -2.7214    0.07774   0.39446 
 C                    -3.37941   0.07444  -0.80347 
 N                    -4.15506   1.20955  -0.94796 
 C                    -3.97043   1.8909    0.15893 
 N                    -3.11353   1.25308   1.00056 
 C                     1.92472   0.99132  -1.63242 
 C                     3.26497   0.28644  -1.39996 
 N                     3.12214  -1.17546  -1.18576 
 H                     0.26239  -0.73584  -0.91142 
 H                    -0.2515    0.56273   1.65523 
 H                    -0.03134  -0.85479   3.38157 
 H                    -2.05656  -1.16569   2.00948 
 H                    -1.75475  -1.79756   0.3993 
 H                    -3.32711  -0.68071  -1.57624 
 H                    -4.42189   2.83492   0.40909 
 H                    -2.82052   1.58386   1.90623 
 H                     2.11161   2.02859  -1.9138 
 H                     1.37537   0.49569  -2.4359 
 H                     3.74155   0.73644  -0.52457 
 H                     3.92106   0.46505  -2.25448 
 H                     4.03225  -1.62419  -1.05353 
 H                     2.55445  -1.40133  -0.36187 
 H                     2.67164  -1.61148  -1.9907 
 

 GradGradGradGradGradGradGradGradGradGradGradGradGradGradGradGradGradGrad
 Berny optimization.
 Initialization pass.
                           ----------------------------
                           !    Initial Parameters    !
                           ! (Angstroms and Degrees)  !
 --------------------------                            --------------------------
 ! Name  Definition              Value          Derivative Info.                !
 --------------------------------------------------------------------------------
 ! R1    R(1,2)                  1.2209         calculate D2E/DX2 analytically  !
 ! R2    R(2,3)                  1.3667         calculate D2E/DX2 analytically  !
 ! R3    R(2,14)                 1.5101         calculate D2E/DX2 analytically  !
 ! R4    R(3,4)                  1.4491         calculate D2E/DX2 analytically  !
 ! R5    R(3,17)                 1.0059         calculate D2E/DX2 analytically  !
 ! R6    R(4,5)                  1.5254         calculate D2E/DX2 analytically  !
 ! R7    R(4,8)                  1.5335         calculate D2E/DX2 analytically  !
 ! R8    R(4,18)                 1.089          calculate D2E/DX2 analytically  !
 ! R9    R(5,6)                  1.3451         calculate D2E/DX2 analytically  !
 ! R10   R(5,7)                  1.2022         calculate D2E/DX2 analytically  !
 ! R11   R(6,19)                 0.9641         calculate D2E/DX2 analytically  !
 ! R12   R(8,9)                  1.5003         calculate D2E/DX2 analytically  !
 ! R13   R(8,20)                 1.093          calculate D2E/DX2 analytically  !
 ! R14   R(8,21)                 1.0907         calculate D2E/DX2 analytically  !
 ! R15   R(9,10)                 1.3668         calculate D2E/DX2 analytically  !
 ! R16   R(9,13)                 1.3793         calculate D2E/DX2 analytically  !
 ! R17   R(10,11)                1.3824         calculate D2E/DX2 analytically  !
 ! R18   R(10,22)                1.0817         calculate D2E/DX2 analytically  !
 ! R19   R(11,12)                1.3128         calculate D2E/DX2 analytically  !
 ! R20   R(12,13)                1.3599         calculate D2E/DX2 analytically  !
 ! R21   R(12,23)                1.0759         calculate D2E/DX2 analytically  !
 ! R22   R(13,24)                1.0077         calculate D2E/DX2 analytically  !
 ! R23   R(14,15)                1.532          calculate D2E/DX2 analytically  !
 ! R24   R(14,25)                1.0909         calculate D2E/DX2 analytically  !
 ! R25   R(14,26)                1.0923         calculate D2E/DX2 analytically  !
 ! R26   R(15,16)                1.4844         calculate D2E/DX2 analytically  !
 ! R27   R(15,27)                1.0936         calculate D2E/DX2 analytically  !
 ! R28   R(15,28)                1.092          calculate D2E/DX2 analytically  !
 ! R29   R(16,29)                1.0233         calculate D2E/DX2 analytically  !
 ! R30   R(16,30)                1.0257         calculate D2E/DX2 analytically  !
 ! R31   R(16,31)                1.0203         calculate D2E/DX2 analytically  !
 ! A1    A(1,2,3)              122.5816         calculate D2E/DX2 analytically  !
 ! A2    A(1,2,14)             122.584          calculate D2E/DX2 analytically  !
 ! A3    A(3,2,14)             114.8107         calculate D2E/DX2 analytically  !
 ! A4    A(2,3,4)              118.6396         calculate D2E/DX2 analytically  !
 ! A5    A(2,3,17)             116.0248         calculate D2E/DX2 analytically  !
 ! A6    A(4,3,17)             115.1862         calculate D2E/DX2 analytically  !
 ! A7    A(3,4,5)              109.886          calculate D2E/DX2 analytically  !
 ! A8    A(3,4,8)              111.8279         calculate D2E/DX2 analytically  !
 ! A9    A(3,4,18)             105.582          calculate D2E/DX2 analytically  !
 ! A10   A(5,4,8)              109.0202         calculate D2E/DX2 analytically  !
 ! A11   A(5,4,18)             108.9531         calculate D2E/DX2 analytically  !
 ! A12   A(8,4,18)             111.4993         calculate D2E/DX2 analytically  !
 ! A13   A(4,5,6)              116.2593         calculate D2E/DX2 analytically  !
 ! A14   A(4,5,7)              123.3129         calculate D2E/DX2 analytically  !
 ! A15   A(6,5,7)              120.4069         calculate D2E/DX2 analytically  !
 ! A16   A(5,6,19)             110.1352         calculate D2E/DX2 analytically  !
 ! A17   A(4,8,9)              113.3029         calculate D2E/DX2 analytically  !
 ! A18   A(4,8,20)             108.8461         calculate D2E/DX2 analytically  !
 ! A19   A(4,8,21)             108.9124         calculate D2E/DX2 analytically  !
 ! A20   A(9,8,20)             110.5424         calculate D2E/DX2 analytically  !
 ! A21   A(9,8,21)             107.9907         calculate D2E/DX2 analytically  !
 ! A22   A(20,8,21)            107.044          calculate D2E/DX2 analytically  !
 ! A23   A(8,9,10)             131.712          calculate D2E/DX2 analytically  !
 ! A24   A(8,9,13)             123.7646         calculate D2E/DX2 analytically  !
 ! A25   A(10,9,13)            104.4972         calculate D2E/DX2 analytically  !
 ! A26   A(9,10,11)            111.0856         calculate D2E/DX2 analytically  !
 ! A27   A(9,10,22)            127.1963         calculate D2E/DX2 analytically  !
 ! A28   A(11,10,22)           121.7136         calculate D2E/DX2 analytically  !
 ! A29   A(10,11,12)           105.0176         calculate D2E/DX2 analytically  !
 ! A30   A(11,12,13)           111.5303         calculate D2E/DX2 analytically  !
 ! A31   A(11,12,23)           126.3273         calculate D2E/DX2 analytically  !
 ! A32   A(13,12,23)           122.1422         calculate D2E/DX2 analytically  !
 ! A33   A(9,13,12)            107.8687         calculate D2E/DX2 analytically  !
 ! A34   A(9,13,24)            126.2962         calculate D2E/DX2 analytically  !
 ! A35   A(12,13,24)           125.8351         calculate D2E/DX2 analytically  !
 ! A36   A(2,14,15)            109.9447         calculate D2E/DX2 analytically  !
 ! A37   A(2,14,25)            107.4551         calculate D2E/DX2 analytically  !
 ! A38   A(2,14,26)            111.1172         calculate D2E/DX2 analytically  !
 ! A39   A(15,14,25)           109.0712         calculate D2E/DX2 analytically  !
 ! A40   A(15,14,26)           110.0499         calculate D2E/DX2 analytically  !
 ! A41   A(25,14,26)           109.1402         calculate D2E/DX2 analytically  !
 ! A42   A(14,15,16)           113.0066         calculate D2E/DX2 analytically  !
 ! A43   A(14,15,27)           108.2627         calculate D2E/DX2 analytically  !
 ! A44   A(14,15,28)           109.3657         calculate D2E/DX2 analytically  !
 ! A45   A(16,15,27)           109.3707         calculate D2E/DX2 analytically  !
 ! A46   A(16,15,28)           109.3779         calculate D2E/DX2 analytically  !
 ! A47   A(27,15,28)           107.2924         calculate D2E/DX2 analytically  !
 ! A48   A(15,16,29)           111.4043         calculate D2E/DX2 analytically  !
 ! A49   A(15,16,30)           112.7081         calculate D2E/DX2 analytically  !
 ! A50   A(15,16,31)           110.4579         calculate D2E/DX2 analytically  !
 ! A51   A(29,16,30)           106.9705         calculate D2E/DX2 analytically  !
 ! A52   A(29,16,31)           107.8933         calculate D2E/DX2 analytically  !
 ! A53   A(30,16,31)           107.1698         calculate D2E/DX2 analytically  !
 ! D1    D(1,2,3,4)            -19.3676         calculate D2E/DX2 analytically  !
 ! D2    D(1,2,3,17)          -163.0987         calculate D2E/DX2 analytically  !
 ! D3    D(14,2,3,4)           158.905          calculate D2E/DX2 analytically  !
 ! D4    D(14,2,3,17)           15.1739         calculate D2E/DX2 analytically  !
 ! D5    D(1,2,14,15)           80.1502         calculate D2E/DX2 analytically  !
 ! D6    D(1,2,14,25)          -38.4355         calculate D2E/DX2 analytically  !
 ! D7    D(1,2,14,26)         -157.7689         calculate D2E/DX2 analytically  !
 ! D8    D(3,2,14,15)          -98.1224         calculate D2E/DX2 analytically  !
 ! D9    D(3,2,14,25)          143.292          calculate D2E/DX2 analytically  !
 ! D10   D(3,2,14,26)           23.9586         calculate D2E/DX2 analytically  !
 ! D11   D(2,3,4,5)            -86.6939         calculate D2E/DX2 analytically  !
 ! D12   D(2,3,4,8)            152.0936         calculate D2E/DX2 analytically  !
 ! D13   D(2,3,4,18)            30.657          calculate D2E/DX2 analytically  !
 ! D14   D(17,3,4,5)            57.3305         calculate D2E/DX2 analytically  !
 ! D15   D(17,3,4,8)           -63.882          calculate D2E/DX2 analytically  !
 ! D16   D(17,3,4,18)          174.6814         calculate D2E/DX2 analytically  !
 ! D17   D(3,4,5,6)            158.3706         calculate D2E/DX2 analytically  !
 ! D18   D(3,4,5,7)            -23.2929         calculate D2E/DX2 analytically  !
 ! D19   D(8,4,5,6)            -78.7465         calculate D2E/DX2 analytically  !
 ! D20   D(8,4,5,7)             99.59           calculate D2E/DX2 analytically  !
 ! D21   D(18,4,5,6)            43.1413         calculate D2E/DX2 analytically  !
 ! D22   D(18,4,5,7)          -138.5222         calculate D2E/DX2 analytically  !
 ! D23   D(3,4,8,9)            -57.6001         calculate D2E/DX2 analytically  !
 ! D24   D(3,4,8,20)           178.9828         calculate D2E/DX2 analytically  !
 ! D25   D(3,4,8,21)            62.6025         calculate D2E/DX2 analytically  !
 ! D26   D(5,4,8,9)           -179.3124         calculate D2E/DX2 analytically  !
 ! D27   D(5,4,8,20)            57.2706         calculate D2E/DX2 analytically  !
 ! D28   D(5,4,8,21)           -59.1097         calculate D2E/DX2 analytically  !
 ! D29   D(18,4,8,9)            60.3545         calculate D2E/DX2 analytically  !
 ! D30   D(18,4,8,20)          -63.0626         calculate D2E/DX2 analytically  !
 ! D31   D(18,4,8,21)         -179.4429         calculate D2E/DX2 analytically  !
 ! D32   D(4,5,6,19)            -2.9337         calculate D2E/DX2 analytically  !
 ! D33   D(7,5,6,19)           178.6781         calculate D2E/DX2 analytically  !
 ! D34   D(4,8,9,10)           108.6852         calculate D2E/DX2 analytically  !
 ! D35   D(4,8,9,13)           -69.1483         calculate D2E/DX2 analytically  !
 ! D36   D(20,8,9,10)         -128.8347         calculate D2E/DX2 analytically  !
 ! D37   D(20,8,9,13)           53.3319         calculate D2E/DX2 analytically  !
 ! D38   D(21,8,9,10)          -12.0404         calculate D2E/DX2 analytically  !
 ! D39   D(21,8,9,13)          170.1262         calculate D2E/DX2 analytically  !
 ! D40   D(8,9,10,11)         -177.9618         calculate D2E/DX2 analytically  !
 ! D41   D(8,9,10,22)            1.267          calculate D2E/DX2 analytically  !
 ! D42   D(13,9,10,11)           0.1779         calculate D2E/DX2 analytically  !
 ! D43   D(13,9,10,22)         179.4068         calculate D2E/DX2 analytically  !
 ! D44   D(8,9,13,12)          178.3006         calculate D2E/DX2 analytically  !
 ! D45   D(8,9,13,24)           -1.761          calculate D2E/DX2 analytically  !
 ! D46   D(10,9,13,12)          -0.0291         calculate D2E/DX2 analytically  !
 ! D47   D(10,9,13,24)         179.9094         calculate D2E/DX2 analytically  !
 ! D48   D(9,10,11,12)          -0.2599         calculate D2E/DX2 analytically  !
 ! D49   D(22,10,11,12)       -179.5378         calculate D2E/DX2 analytically  !
 ! D50   D(10,11,12,13)          0.239          calculate D2E/DX2 analytically  !
 ! D51   D(10,11,12,23)       -179.5856         calculate D2E/DX2 analytically  !
 ! D52   D(11,12,13,9)          -0.1372         calculate D2E/DX2 analytically  !
 ! D53   D(11,12,13,24)        179.9239         calculate D2E/DX2 analytically  !
 ! D54   D(23,12,13,9)         179.6958         calculate D2E/DX2 analytically  !
 ! D55   D(23,12,13,24)         -0.243          calculate D2E/DX2 analytically  !
 ! D56   D(2,14,15,16)          69.9412         calculate D2E/DX2 analytically  !
 ! D57   D(2,14,15,27)         -51.3624         calculate D2E/DX2 analytically  !
 ! D58   D(2,14,15,28)        -167.9634         calculate D2E/DX2 analytically  !
 ! D59   D(25,14,15,16)       -172.4727         calculate D2E/DX2 analytically  !
 ! D60   D(25,14,15,27)         66.2237         calculate D2E/DX2 analytically  !
 ! D61   D(25,14,15,28)        -50.3773         calculate D2E/DX2 analytically  !
 ! D62   D(26,14,15,16)        -52.7714         calculate D2E/DX2 analytically  !
 ! D63   D(26,14,15,27)       -174.075          calculate D2E/DX2 analytically  !
 ! D64   D(26,14,15,28)         69.324          calculate D2E/DX2 analytically  !
 ! D65   D(14,15,16,29)        178.7588         calculate D2E/DX2 analytically  !
 ! D66   D(14,15,16,30)        -60.9842         calculate D2E/DX2 analytically  !
 ! D67   D(14,15,16,31)         58.8614         calculate D2E/DX2 analytically  !
 ! D68   D(27,15,16,29)        -60.5662         calculate D2E/DX2 analytically  !
 ! D69   D(27,15,16,30)         59.6908         calculate D2E/DX2 analytically  !
 ! D70   D(27,15,16,31)        179.5363         calculate D2E/DX2 analytically  !
 ! D71   D(28,15,16,29)         56.6703         calculate D2E/DX2 analytically  !
 ! D72   D(28,15,16,30)        176.9273         calculate D2E/DX2 analytically  !
 ! D73   D(28,15,16,31)        -63.2272         calculate D2E/DX2 analytically  !
 --------------------------------------------------------------------------------
 Trust Radius=3.00D-01 FncErr=1.00D-07 GrdErr=1.00D-06
 Number of steps in this run=    167 maximum allowed number of steps=    186.
 GradGradGradGradGradGradGradGradGradGradGradGradGradGradGradGradGradGrad

                          Input orientation:                          
 ---------------------------------------------------------------------
 Center     Atomic      Atomic             Coordinates (Angstroms)
 Number     Number       Type             X           Y           Z
 ---------------------------------------------------------------------
      1          8           0        1.324230    1.813489    0.540098
      2          6           0        1.122074    1.006515   -0.353441
      3          7           0        0.176817    0.024036   -0.257862
      4          6           0       -0.311607   -0.344423    1.055726
      5          6           0        0.597744   -1.404631    1.668846
      6          8           0        0.558372   -1.519972    3.008380
      7          8           0        1.298083   -2.131538    1.015852
      8          6           0       -1.744746   -0.887049    0.999625
      9          6           0       -2.721402    0.077743    0.394459
     10          6           0       -3.379410    0.074437   -0.803466
     11          7           0       -4.155064    1.209552   -0.947962
     12          6           0       -3.970433    1.890901    0.158934
     13          7           0       -3.113529    1.253076    1.000558
     14          6           0        1.924723    0.991316   -1.632417
     15          6           0        3.264969    0.286443   -1.399957
     16          7           0        3.122144   -1.175457   -1.185759
     17          1           0        0.262385   -0.735838   -0.911425
     18          1           0       -0.251500    0.562729    1.655229
     19          1           0       -0.031336   -0.854794    3.381571
     20          1           0       -2.056564   -1.165693    2.009484
     21          1           0       -1.754749   -1.797564    0.399302
     22          1           0       -3.327112   -0.680712   -1.576235
     23          1           0       -4.421885    2.834916    0.409089
     24          1           0       -2.820524    1.583857    1.906229
     25          1           0        2.111610    2.028590   -1.913800
     26          1           0        1.375365    0.495690   -2.435900
     27          1           0        3.741549    0.736445   -0.524567
     28          1           0        3.921059    0.465053   -2.254483
     29          1           0        4.032249   -1.624195   -1.053526
     30          1           0        2.554447   -1.401334   -0.361874
     31          1           0        2.671637   -1.611483   -1.990702
 ---------------------------------------------------------------------
                    Distance matrix (angstroms):
                    1          2          3          4          5
     1  O    0.000000
     2  C    1.220855   0.000000
     3  N    2.270560   1.366716   0.000000
     4  C    2.756524   2.422030   1.449081   0.000000
     5  C    3.486854   3.190327   2.435256   1.525410   0.000000
     6  O    4.217928   4.242963   3.632888   2.439597   1.345067
     7  O    3.973697   3.428311   2.743371   2.405509   1.202193
     8  C    4.113719   3.692564   2.470577   1.533453   2.490584
     9  C    4.404675   4.024212   2.971209   2.534287   3.852042
    10  C    5.191695   4.618945   3.598190   3.611572   4.910980
    11  N    5.709792   5.314402   4.543884   4.604538   6.022527
    12  C    5.308930   5.194064   4.567120   4.380401   5.831690
    13  N    4.496642   4.453587   3.731024   3.225804   4.613412
    14  C    2.399246   1.510051   2.424914   3.743192   4.289495
    15  C    3.140406   2.491124   3.303017   4.384093   4.403563
    16  N    3.891642   3.074741   3.312812   4.183960   3.817575
    17  H    3.119856   2.021436   1.005919   2.086230   2.686549
    18  H    2.300184   2.473542   2.033117   1.089010   2.142874
    19  H    4.126895   4.329566   3.749819   2.397620   1.905647
    20  H    4.739662   4.517261   3.397691   2.151514   2.686723
    21  H    4.747593   4.087247   2.735148   2.150621   2.701918
    22  H    5.686377   4.912964   3.809500   4.016663   5.143841
    23  H    5.837663   5.887274   5.430832   5.236480   6.690099
    24  H    4.370129   4.580776   4.012528   3.276626   4.546643
    25  H    2.586087   2.111525   3.240955   4.507911   5.187884
    26  H    3.255115   2.159105   2.530381   3.967760   4.589646
    27  H    2.852537   2.638915   3.644993   4.482598   4.390760
    28  H    4.046169   3.426581   4.266186   5.433986   5.471073
    29  H    4.657325   3.984955   4.267798   4.995583   4.388090
    30  H    3.558381   2.801695   2.774099   3.367628   2.820021
    31  H    4.466642   3.454806   3.449896   4.448136   4.211426
                    6          7          8          9         10
     6  O    0.000000
     7  O    2.211640   0.000000
     8  C    3.120904   3.287526   0.000000
     9  C    4.488005   4.628533   1.500302   0.000000
    10  C    5.707752   5.482261   2.616814   1.366751   0.000000
    11  N    6.731970   6.690013   3.741452   2.266820   1.382391
    12  C    6.345350   6.683681   3.657519   2.214292   2.138940
    13  N    5.020358   5.560411   2.540414   1.379322   2.171264
    14  C    5.450731   4.142248   4.890900   5.150662   5.446251
    15  C    5.479255   3.943527   5.677352   6.253010   6.674468
    16  N    4.927719   3.014694   5.342817   6.181798   6.631635
    17  H    4.008408   2.595197   2.775527   3.357117   3.732408
    18  H    2.612384   3.173183   2.182076   2.815168   4.008420
    19  H    0.964100   2.999009   2.934362   4.126611   5.439449
    20  H    2.821559   3.629576   1.093019   2.143933   3.346720
    21  H    3.497838   3.132324   1.090654   2.109791   2.755098
    22  H    6.067951   5.496930   3.030101   2.196764   1.081738
    23  H    7.108046   7.599465   4.622643   3.239423   3.190186
    24  H    4.718625   5.617816   2.843343   2.136271   3.151690
    25  H    6.263600   5.152800   5.644508   5.700164   5.933199
    26  H    5.862640   4.338536   4.842509   4.996911   5.044817
    27  H    5.263625   4.070472   5.921008   6.561116   7.157101
    28  H    6.553298   4.931266   6.672237   7.161647   7.453514
    29  H    5.345817   3.466322   6.175151   7.113723   7.607928
    30  H    3.918801   2.002443   4.538858   5.531211   6.130544
    31  H    5.428175   3.346113   5.382500   6.134114   6.392732
                   11         12         13         14         15
    11  N    0.000000
    12  C    1.312839   0.000000
    13  N    2.209847   1.359939   0.000000
    14  C    6.122084   6.226641   5.690787   0.000000
    15  C    7.490883   7.573340   6.883465   1.532039   0.000000
    16  N    7.661760   7.843175   7.039984   2.515596   1.484396
    17  H    4.826980   5.095309   4.359846   2.503249   3.209242
    18  H    4.736328   4.222961   3.016021   3.965886   4.666482
    19  H    6.325466   5.782794   4.428572   5.689847   5.918704
    20  H    4.334972   4.053418   2.825872   5.810919   6.484729
    21  H    4.076688   4.309502   3.393258   5.044229   5.725206
    22  H    2.157158   3.168259   3.228780   5.511860   6.664983
    23  H    2.134149   1.075896   2.136317   6.917083   8.297897
    24  H    3.172934   2.114144   1.007724   5.948990   7.046089
    25  H    6.393346   6.427008   6.032991   1.090890   2.151592
    26  H    5.771413   6.103879   5.703775   1.092256   2.165079
    27  H    7.922096   7.827810   7.041663   2.143163   1.093589
    28  H    8.214928   8.374561   7.791130   2.156218   1.092048
    29  H    8.664489   8.824334   7.972459   3.408471   2.087886
    30  H    7.223418   7.326944   6.405316   2.781295   2.105005
    31  H    7.459853   7.810552   7.114878   2.731449   2.074403
                   16         17         18         19         20
    16  N    0.000000
    17  H    2.906328   0.000000
    18  H    4.740673   2.921997   0.000000
    19  H    5.559475   4.304675   2.244571   0.000000
    20  H    6.085121   3.754199   2.524123   2.465934   0.000000
    21  H    5.165609   2.629467   3.067262   3.571119   1.755859
    22  H    6.479980   3.650959   4.631187   5.955861   3.834955
    23  H    8.691318   6.036259   4.909970   6.459607   4.915372
    24  H    7.244963   4.777497   2.775893   3.987884   2.855577
    25  H    3.437606   3.473679   4.524490   6.398990   6.555096
    26  H    2.721547   2.253755   4.403241   6.135600   5.856601
    27  H    2.115705   3.797612   4.552597   5.659030   6.607395
    28  H    2.114642   4.078215   5.718885   7.009174   7.521485
    29  H    1.023300   3.875725   5.520009   6.064222   6.831245
    30  H    1.025712   2.449171   3.974870   4.582397   5.190404
    31  H    1.020298   2.781383   5.154100   6.061349   6.209356
                   21         22         23         24         25
    21  H    0.000000
    22  H    2.760875   0.000000
    23  H    5.345427   4.183262   0.000000
    24  H    3.852365   4.184789   2.524071   0.000000
    25  H    5.910890   6.085554   6.980869   6.254306   0.000000
    26  H    4.805726   4.923031   6.868337   6.135444   1.778884
    27  H    6.122420   7.285623   8.480387   7.048949   2.501261
    28  H    6.661592   7.369449   9.072794   8.000761   2.415537
    29  H    5.969096   7.437982   9.669297   8.124791   4.215657
    30  H    4.393809   6.048695   8.198135   6.553317   3.790640
    31  H    5.033849   6.084662   8.709049   7.453865   3.683705
                   26         27         28         29         30
    26  H    0.000000
    27  H    3.051226   0.000000
    28  H    2.552333   1.760251   0.000000
    29  H    3.669319   2.436580   2.412388   0.000000
    30  H    3.048035   2.450669   2.988812   1.646799   0.000000
    31  H    2.513703   2.967664   2.437753   1.652188   1.646504
                   31
    31  H    0.000000
 Symmetry turned off by external request.
 Stoichiometry    C9H15N4O3(1+)
 Framework group  C1[X(C9H15N4O3)]
 Deg. of freedom    87
 Full point group                 C1      NOp   1
 Rotational constants (GHZ):      0.7596368      0.3268271      0.2692534
 Standard basis: 6-31G(d,p) (6D, 7F)
   315 basis functions,   553 primitive gaussians,   315 cartesian basis functions
    60 alpha electrons       60 beta electrons
       nuclear repulsion energy      1156.3936016042 Hartrees.
 NAtoms=   31 NActive=   31 NUniq=   31 SFac= 1.00D+00 NAtFMM=   60 NAOKFM=F Big=F
 Integral buffers will be    131072 words long.
 Raffenetti 2 integral format.
 Two-electron integral symmetry is turned off.
 Nuclear repulsion after empirical dispersion term =     1156.3362067588 Hartrees.
 One-electron integrals computed using PRISM.
 NBasis=   315 RedAO= T EigKep=  1.14D-03  NBF=   315
 NBsUse=   315 1.00D-06 EigRej= -1.00D+00 NBFU=   315
 ExpMin= 1.61D-01 ExpMax= 5.48D+03 ExpMxC= 8.25D+02 IAcc=3 IRadAn=         5 AccDes= 0.00D+00
 Harris functional with IExCor=  402 and IRadAn=       5 diagonalized for initial guess.
 HarFok:  IExCor=  402 AccDes= 0.00D+00 IRadAn=         5 IDoV= 1 UseB2=F ITyADJ=14
 ICtDFT=  3500011 ScaDFX=  1.000000  1.000000  1.000000  1.000000
 FoFCou: FMM=F IPFlag=           0 FMFlag=      100000 FMFlg1=           0
         NFxFlg=           0 DoJE=T BraDBF=F KetDBF=T FulRan=T
         wScrn=  0.000000 ICntrl=     500 IOpCl=  0 I1Cent=   200000004 NGrid=           0
         NMat0=    1 NMatS0=      1 NMatT0=    0 NMatD0=    1 NMtDS0=    0 NMtDT0=    0
 Symmetry not used in FoFCou.
 Requested convergence on RMS density matrix=1.00D-08 within 128 cycles.
 Requested convergence on MAX density matrix=1.00D-06.
 Requested convergence on             energy=1.00D-06.
 No special actions if energy rises.
 Integral accuracy reduced to 1.0D-05 until final iterations.
 Initial convergence to 1.0D-05 achieved.  Increase integral accuracy.
 SCF Done:  E(RB3LYP) =  -796.532660478     A.U. after   14 cycles
            NFock= 14  Conv=0.86D-08     -V/T= 2.0089
 DoSCS=F DFT=T ScalE2(SS,OS)=  1.000000  1.000000
 Range of M.O.s used for correlation:     1   315
 NBasis=   315 NAE=    60 NBE=    60 NFC=     0 NFV=     0
 NROrb=    315 NOA=    60 NOB=    60 NVA=   255 NVB=   255
 Symmetrizing basis deriv contribution to polar:
 IMax=3 JMax=2 DiffMx= 0.00D+00
 G2DrvN: will do    32 centers at a time, making    1 passes.
 Calling FoFCou, ICntrl=  3107 FMM=F I1Cent=   0 AccDes= 0.00D+00.
 End of G2Drv F.D. properties file   721 does not exist.
 End of G2Drv F.D. properties file   722 does not exist.
 End of G2Drv F.D. properties file   788 does not exist.
          IDoAtm=1111111111111111111111111111111
          Differentiating once with respect to nuclear coordinates.
          There are    96 degrees of freedom in the 1st order CPHF.  IDoFFX=6 NUNeed=     0.
     90 vectors produced by pass  0 Test12= 1.59D-14 1.04D-09 XBig12= 1.50D-01 7.24D-02.
 AX will form    90 AO Fock derivatives at one time.
     90 vectors produced by pass  1 Test12= 1.59D-14 1.04D-09 XBig12= 1.37D-02 2.23D-02.
     90 vectors produced by pass  2 Test12= 1.59D-14 1.04D-09 XBig12= 1.60D-04 2.89D-03.
     90 vectors produced by pass  3 Test12= 1.59D-14 1.04D-09 XBig12= 5.85D-07 8.23D-05.
     90 vectors produced by pass  4 Test12= 1.59D-14 1.04D-09 XBig12= 8.93D-10 3.15D-06.
     72 vectors produced by pass  5 Test12= 1.59D-14 1.04D-09 XBig12= 8.69D-13 9.58D-08.
     12 vectors produced by pass  6 Test12= 1.59D-14 1.04D-09 XBig12= 7.16D-16 2.66D-09.
 InvSVY:  IOpt=1 It=  1 EMax= 6.66D-16
 Solved reduced A of dimension   534 with    96 vectors.
 End of Minotr F.D. properties file   721 does not exist.
 End of Minotr F.D. properties file   722 does not exist.
 End of Minotr F.D. properties file   788 does not exist.

 **********************************************************************

            Population analysis using the SCF density.

 **********************************************************************

 Alpha  occ. eigenvalues --  -19.34355 -19.29871 -19.26536 -14.65090 -14.51369
 Alpha  occ. eigenvalues --  -14.48553 -14.39884 -10.47374 -10.43927 -10.43241
 Alpha  occ. eigenvalues --  -10.38488 -10.36942 -10.33773 -10.32819 -10.31863
 Alpha  occ. eigenvalues --  -10.29013  -1.25734  -1.20356  -1.18843  -1.17933
 Alpha  occ. eigenvalues --   -1.10857  -1.08347  -0.97114  -0.96137  -0.93045
 Alpha  occ. eigenvalues --   -0.86370  -0.83925  -0.78907  -0.78272  -0.77815
 Alpha  occ. eigenvalues --   -0.76308  -0.74078  -0.71002  -0.70639  -0.68590
 Alpha  occ. eigenvalues --   -0.68332  -0.65570  -0.63969  -0.63235  -0.60763
 Alpha  occ. eigenvalues --   -0.59993  -0.59486  -0.58038  -0.56977  -0.55521
 Alpha  occ. eigenvalues --   -0.54637  -0.53706  -0.53496  -0.52542  -0.51283
 Alpha  occ. eigenvalues --   -0.50717  -0.50312  -0.49531  -0.47146  -0.43829
 Alpha  occ. eigenvalues --   -0.41541  -0.39876  -0.36975  -0.35192  -0.32137
 Alpha virt. eigenvalues --   -0.15795  -0.14483  -0.13215  -0.09621  -0.08400
 Alpha virt. eigenvalues --   -0.06606  -0.06047  -0.04758  -0.04284  -0.02751
 Alpha virt. eigenvalues --   -0.02359  -0.02197  -0.00455   0.00013   0.00963
 Alpha virt. eigenvalues --    0.02011   0.02734   0.03600   0.05456   0.06303
 Alpha virt. eigenvalues --    0.07248   0.07939   0.08586   0.10083   0.10984
 Alpha virt. eigenvalues --    0.12828   0.14423   0.17833   0.18768   0.20685
 Alpha virt. eigenvalues --    0.22843   0.24483   0.25564   0.29195   0.30862
 Alpha virt. eigenvalues --    0.33022   0.34042   0.34680   0.37282   0.38244
 Alpha virt. eigenvalues --    0.38933   0.40031   0.41353   0.42536   0.43998
 Alpha virt. eigenvalues --    0.44626   0.46836   0.47752   0.48456   0.49812
 Alpha virt. eigenvalues --    0.50612   0.51042   0.52168   0.54126   0.54421
 Alpha virt. eigenvalues --    0.54991   0.55418   0.56691   0.58286   0.58690
 Alpha virt. eigenvalues --    0.59623   0.59712   0.60266   0.60607   0.63872
 Alpha virt. eigenvalues --    0.65149   0.65907   0.66976   0.67611   0.68473
 Alpha virt. eigenvalues --    0.69728   0.70554   0.70973   0.71386   0.72287
 Alpha virt. eigenvalues --    0.72886   0.73912   0.74877   0.75743   0.76230
 Alpha virt. eigenvalues --    0.76455   0.76857   0.79068   0.80425   0.81794
 Alpha virt. eigenvalues --    0.82633   0.85233   0.86319   0.87326   0.88906
 Alpha virt. eigenvalues --    0.89959   0.91530   0.92187   0.93552   0.96350
 Alpha virt. eigenvalues --    0.99003   1.00133   1.01469   1.04840   1.06090
 Alpha virt. eigenvalues --    1.08750   1.12174   1.14030   1.16038   1.16562
 Alpha virt. eigenvalues --    1.18541   1.20536   1.21090   1.23110   1.24980
 Alpha virt. eigenvalues --    1.25918   1.28516   1.30874   1.32119   1.33290
 Alpha virt. eigenvalues --    1.36124   1.37018   1.38754   1.40526   1.40927
 Alpha virt. eigenvalues --    1.43005   1.44215   1.45864   1.48567   1.51892
 Alpha virt. eigenvalues --    1.52971   1.57071   1.59563   1.61439   1.62047
 Alpha virt. eigenvalues --    1.62708   1.63692   1.65017   1.66556   1.68217
 Alpha virt. eigenvalues --    1.69123   1.71691   1.73019   1.73388   1.74226
 Alpha virt. eigenvalues --    1.75733   1.76159   1.78355   1.78795   1.80761
 Alpha virt. eigenvalues --    1.80978   1.82094   1.84469   1.85542   1.86591
 Alpha virt. eigenvalues --    1.87633   1.89672   1.91730   1.93465   1.93972
 Alpha virt. eigenvalues --    1.95110   1.96348   1.98224   1.99510   2.00555
 Alpha virt. eigenvalues --    2.02923   2.03684   2.04824   2.05277   2.06362
 Alpha virt. eigenvalues --    2.07836   2.09411   2.12048   2.12346   2.13564
 Alpha virt. eigenvalues --    2.14014   2.14540   2.18693   2.19466   2.20788
 Alpha virt. eigenvalues --    2.21183   2.22422   2.24843   2.26062   2.27753
 Alpha virt. eigenvalues --    2.30549   2.33043   2.35870   2.36294   2.36560
 Alpha virt. eigenvalues --    2.38693   2.40604   2.40870   2.43576   2.43976
 Alpha virt. eigenvalues --    2.45817   2.47778   2.48189   2.49883   2.50551
 Alpha virt. eigenvalues --    2.53017   2.54063   2.54725   2.56170   2.57123
 Alpha virt. eigenvalues --    2.57968   2.58683   2.60898   2.63645   2.64651
 Alpha virt. eigenvalues --    2.66591   2.68719   2.69084   2.71592   2.72814
 Alpha virt. eigenvalues --    2.73557   2.75446   2.75500   2.78083   2.80489
 Alpha virt. eigenvalues --    2.82726   2.83245   2.85852   2.86644   2.93346
 Alpha virt. eigenvalues --    2.94472   2.96561   3.00459   3.04649   3.09891
 Alpha virt. eigenvalues --    3.11727   3.13699   3.15002   3.18818   3.19299
 Alpha virt. eigenvalues --    3.21215   3.25539   3.30298   3.33252   3.34462
 Alpha virt. eigenvalues --    3.37702   3.40126   3.46622   3.58515   3.83617
 Alpha virt. eigenvalues --    3.90044   3.90920   4.01780   4.03636   4.08766
 Alpha virt. eigenvalues --    4.10282   4.17486   4.23547   4.29670   4.32666
 Alpha virt. eigenvalues --    4.35798   4.44925   4.53942   4.59207   4.66474
          Condensed to atoms (all electrons):
               1          2          3          4          5          6
     1  O    8.040767   0.580559  -0.100342  -0.005943   0.000797  -0.000052
     2  C    0.580559   4.433757   0.240033  -0.029660   0.003389  -0.000098
     3  N   -0.100342   0.240033   7.033419   0.218201  -0.044693   0.003554
     4  C   -0.005943  -0.029660   0.218201   5.306786   0.278524  -0.086676
     5  C    0.000797   0.003389  -0.044693   0.278524   4.413332   0.275669
     6  O   -0.000052  -0.000098   0.003554  -0.086676   0.275669   8.026913
     7  O   -0.000055   0.001356  -0.007805  -0.081784   0.535923  -0.073083
     8  C    0.000477   0.003982  -0.045788   0.284413  -0.035724  -0.000017
     9  C   -0.000060   0.000812  -0.001590  -0.053716   0.003377   0.000070
    10  C   -0.000001   0.000092   0.002678  -0.003700  -0.000065   0.000000
    11  N    0.000000  -0.000002  -0.000044  -0.000086   0.000000   0.000000
    12  C   -0.000001   0.000002   0.000066   0.000260   0.000002   0.000000
    13  N   -0.000017   0.000142  -0.001002   0.000842   0.000035   0.000001
    14  C   -0.075593   0.313178  -0.115298   0.007686  -0.000580  -0.000002
    15  C   -0.003446  -0.036977  -0.004535  -0.000007   0.000110   0.000000
    16  N   -0.000065  -0.002567   0.000875   0.000165   0.000172  -0.000007
    17  H    0.003572  -0.021780   0.329351  -0.043753  -0.002927   0.000176
    18  H    0.023973  -0.004972  -0.045397   0.367631  -0.032425   0.001577
    19  H   -0.000037  -0.000003   0.000389   0.003958  -0.026280   0.289355
    20  H   -0.000001  -0.000021   0.004793  -0.053493  -0.000125   0.003263
    21  H   -0.000010  -0.000142  -0.006264  -0.035838  -0.004662   0.000049
    22  H    0.000000   0.000003  -0.000034   0.000040   0.000003   0.000000
    23  H    0.000000   0.000000   0.000001  -0.000002   0.000000   0.000000
    24  H    0.000000  -0.000001   0.000024   0.000406  -0.000048   0.000001
    25  H    0.002823  -0.019663   0.003634  -0.000193  -0.000001   0.000000
    26  H    0.002754  -0.034287   0.005811   0.000000   0.000030   0.000000
    27  H    0.007257  -0.003028   0.000850  -0.000006   0.000058   0.000000
    28  H   -0.000017   0.003498  -0.000164   0.000010  -0.000002   0.000000
    29  H   -0.000014  -0.000071   0.000109  -0.000019   0.000020   0.000000
    30  H   -0.000072   0.005651   0.004192  -0.002339  -0.000884   0.000239
    31  H    0.000005  -0.000676   0.000477  -0.000035   0.000024   0.000000
               7          8          9         10         11         12
     1  O   -0.000055   0.000477  -0.000060  -0.000001   0.000000  -0.000001
     2  C    0.001356   0.003982   0.000812   0.000092  -0.000002   0.000002
     3  N   -0.007805  -0.045788  -0.001590   0.002678  -0.000044   0.000066
     4  C   -0.081784   0.284413  -0.053716  -0.003700  -0.000086   0.000260
     5  C    0.535923  -0.035724   0.003377  -0.000065   0.000000   0.000002
     6  O   -0.073083  -0.000017   0.000070   0.000000   0.000000   0.000000
     7  O    8.048740  -0.002902  -0.000086   0.000000   0.000000   0.000000
     8  C   -0.002902   5.121834   0.337441  -0.048999   0.006931   0.006153
     9  C   -0.000086   0.337441   4.799513   0.560616  -0.047471  -0.091021
    10  C    0.000000  -0.048999   0.560616   4.850330   0.427877  -0.115357
    11  N    0.000000   0.006931  -0.047471   0.427877   6.658421   0.535523
    12  C    0.000000   0.006153  -0.091021  -0.115357   0.535523   4.659638
    13  N    0.000000  -0.073608   0.339701  -0.071028  -0.082893   0.350061
    14  C   -0.000184  -0.000237  -0.000029  -0.000013   0.000000   0.000001
    15  C    0.000267  -0.000007   0.000000   0.000000   0.000000   0.000000
    16  N   -0.017752  -0.000007   0.000000   0.000000   0.000000   0.000000
    17  H    0.010683  -0.000691  -0.000010   0.000506   0.000000  -0.000007
    18  H    0.002122  -0.029461  -0.007782  -0.000078   0.000005  -0.000003
    19  H    0.004368  -0.000353  -0.000059   0.000001   0.000000   0.000000
    20  H   -0.000078   0.367177  -0.022910   0.001161  -0.000150   0.000106
    21  H    0.002165   0.382596  -0.032861  -0.002443   0.000041  -0.000054
    22  H    0.000000  -0.001540  -0.061806   0.393558  -0.039373   0.007212
    23  H    0.000000  -0.000163   0.003004   0.007125  -0.035270   0.394314
    24  H    0.000000  -0.002640  -0.033307   0.009028   0.005147  -0.022640
    25  H   -0.000001   0.000005   0.000000   0.000000   0.000000   0.000000
    26  H   -0.000007  -0.000005   0.000008   0.000010   0.000000   0.000000
    27  H    0.000031   0.000000   0.000000   0.000000   0.000000   0.000000
    28  H   -0.000006   0.000000   0.000000   0.000000   0.000000   0.000000
    29  H    0.000181   0.000000   0.000000   0.000000   0.000000   0.000000
    30  H    0.063273   0.000114   0.000002   0.000000   0.000000   0.000000
    31  H    0.000257   0.000001   0.000000   0.000000   0.000000   0.000000
              13         14         15         16         17         18
     1  O   -0.000017  -0.075593  -0.003446  -0.000065   0.003572   0.023973
     2  C    0.000142   0.313178  -0.036977  -0.002567  -0.021780  -0.004972
     3  N   -0.001002  -0.115298  -0.004535   0.000875   0.329351  -0.045397
     4  C    0.000842   0.007686  -0.000007   0.000165  -0.043753   0.367631
     5  C    0.000035  -0.000580   0.000110   0.000172  -0.002927  -0.032425
     6  O    0.000001  -0.000002   0.000000  -0.000007   0.000176   0.001577
     7  O    0.000000  -0.000184   0.000267  -0.017752   0.010683   0.002122
     8  C   -0.073608  -0.000237  -0.000007  -0.000007  -0.000691  -0.029461
     9  C    0.339701  -0.000029   0.000000   0.000000  -0.000010  -0.007782
    10  C   -0.071028  -0.000013   0.000000   0.000000   0.000506  -0.000078
    11  N   -0.082893   0.000000   0.000000   0.000000   0.000000   0.000005
    12  C    0.350061   0.000001   0.000000   0.000000  -0.000007  -0.000003
    13  N    6.781587   0.000002   0.000000   0.000000  -0.000009   0.002708
    14  C    0.000002   5.199798   0.346562  -0.049473   0.000460   0.001302
    15  C    0.000000   0.346562   4.992256   0.194325  -0.001432  -0.000033
    16  N    0.000000  -0.049473   0.194325   6.553104  -0.000004   0.000005
    17  H   -0.000009   0.000460  -0.001432  -0.000004   0.464074   0.006484
    18  H    0.002708   0.001302  -0.000033   0.000005   0.006484   0.545993
    19  H   -0.000005   0.000000   0.000000   0.000002  -0.000014   0.001258
    20  H   -0.002151   0.000004   0.000000   0.000000  -0.000069  -0.003585
    21  H    0.003357  -0.000007   0.000000   0.000000   0.004047   0.004818
    22  H    0.004804  -0.000001   0.000000   0.000000   0.000090   0.000006
    23  H   -0.055307   0.000000   0.000000   0.000000   0.000000   0.000005
    24  H    0.338407   0.000000   0.000000   0.000000   0.000002   0.000734
    25  H    0.000000   0.374648  -0.022882   0.003203   0.000090   0.000000
    26  H    0.000000   0.359792  -0.038485  -0.004811   0.000575  -0.000088
    27  H    0.000000  -0.040218   0.386177  -0.030601  -0.000091  -0.000040
    28  H    0.000000  -0.030865   0.396456  -0.034128  -0.000025   0.000001
    29  H    0.000000   0.003843  -0.019482   0.335181   0.000061   0.000000
    30  H    0.000000  -0.003571  -0.018585   0.267320   0.001161  -0.000039
    31  H    0.000000  -0.000601  -0.025096   0.333059   0.000742   0.000000
              19         20         21         22         23         24
     1  O   -0.000037  -0.000001  -0.000010   0.000000   0.000000   0.000000
     2  C   -0.000003  -0.000021  -0.000142   0.000003   0.000000  -0.000001
     3  N    0.000389   0.004793  -0.006264  -0.000034   0.000001   0.000024
     4  C    0.003958  -0.053493  -0.035838   0.000040  -0.000002   0.000406
     5  C   -0.026280  -0.000125  -0.004662   0.000003   0.000000  -0.000048
     6  O    0.289355   0.003263   0.000049   0.000000   0.000000   0.000001
     7  O    0.004368  -0.000078   0.002165   0.000000   0.000000   0.000000
     8  C   -0.000353   0.367177   0.382596  -0.001540  -0.000163  -0.002640
     9  C   -0.000059  -0.022910  -0.032861  -0.061806   0.003004  -0.033307
    10  C    0.000001   0.001161  -0.002443   0.393558   0.007125   0.009028
    11  N    0.000000  -0.000150   0.000041  -0.039373  -0.035270   0.005147
    12  C    0.000000   0.000106  -0.000054   0.007212   0.394314  -0.022640
    13  N   -0.000005  -0.002151   0.003357   0.004804  -0.055307   0.338407
    14  C    0.000000   0.000004  -0.000007  -0.000001   0.000000   0.000000
    15  C    0.000000   0.000000   0.000000   0.000000   0.000000   0.000000
    16  N    0.000002   0.000000   0.000000   0.000000   0.000000   0.000000
    17  H   -0.000014  -0.000069   0.004047   0.000090   0.000000   0.000002
    18  H    0.001258  -0.003585   0.004818   0.000006   0.000005   0.000734
    19  H    0.379065   0.002593  -0.000055   0.000000   0.000000   0.000010
    20  H    0.002593   0.594187  -0.025463  -0.000026  -0.000003   0.001261
    21  H   -0.000055  -0.025463   0.564358   0.002890   0.000004  -0.000059
    22  H    0.000000  -0.000026   0.002890   0.600147  -0.000151  -0.000092
    23  H    0.000000  -0.000003   0.000004  -0.000151   0.547875   0.000298
    24  H    0.000010   0.001261  -0.000059  -0.000092   0.000298   0.438674
    25  H    0.000000   0.000000   0.000000   0.000000   0.000000   0.000000
    26  H    0.000000   0.000000   0.000001   0.000001   0.000000   0.000000
    27  H    0.000000   0.000000   0.000000   0.000000   0.000000   0.000000
    28  H    0.000000   0.000000   0.000000   0.000000   0.000000   0.000000
    29  H    0.000000   0.000000   0.000000   0.000000   0.000000   0.000000
    30  H   -0.000034   0.000001  -0.000007   0.000000   0.000000   0.000000
    31  H    0.000000   0.000000   0.000001   0.000000   0.000000   0.000000
              25         26         27         28         29         30
     1  O    0.002823   0.002754   0.007257  -0.000017  -0.000014  -0.000072
     2  C   -0.019663  -0.034287  -0.003028   0.003498  -0.000071   0.005651
     3  N    0.003634   0.005811   0.000850  -0.000164   0.000109   0.004192
     4  C   -0.000193   0.000000  -0.000006   0.000010  -0.000019  -0.002339
     5  C   -0.000001   0.000030   0.000058  -0.000002   0.000020  -0.000884
     6  O    0.000000   0.000000   0.000000   0.000000   0.000000   0.000239
     7  O   -0.000001  -0.000007   0.000031  -0.000006   0.000181   0.063273
     8  C    0.000005  -0.000005   0.000000   0.000000   0.000000   0.000114
     9  C    0.000000   0.000008   0.000000   0.000000   0.000000   0.000002
    10  C    0.000000   0.000010   0.000000   0.000000   0.000000   0.000000
    11  N    0.000000   0.000000   0.000000   0.000000   0.000000   0.000000
    12  C    0.000000   0.000000   0.000000   0.000000   0.000000   0.000000
    13  N    0.000000   0.000000   0.000000   0.000000   0.000000   0.000000
    14  C    0.374648   0.359792  -0.040218  -0.030865   0.003843  -0.003571
    15  C   -0.022882  -0.038485   0.386177   0.396456  -0.019482  -0.018585
    16  N    0.003203  -0.004811  -0.030601  -0.034128   0.335181   0.267320
    17  H    0.000090   0.000575  -0.000091  -0.000025   0.000061   0.001161
    18  H    0.000000  -0.000088  -0.000040   0.000001   0.000000  -0.000039
    19  H    0.000000   0.000000   0.000000   0.000000   0.000000  -0.000034
    20  H    0.000000   0.000000   0.000000   0.000000   0.000000   0.000001
    21  H    0.000000   0.000001   0.000000   0.000000   0.000000  -0.000007
    22  H    0.000000   0.000001   0.000000   0.000000   0.000000   0.000000
    23  H    0.000000   0.000000   0.000000   0.000000   0.000000   0.000000
    24  H    0.000000   0.000000   0.000000   0.000000   0.000000   0.000000
    25  H    0.475357  -0.017701  -0.000669  -0.004598  -0.000077   0.000057
    26  H   -0.017701   0.577974   0.005268  -0.003085  -0.000039  -0.000433
    27  H   -0.000669   0.005268   0.489375  -0.025281  -0.002321  -0.002982
    28  H   -0.004598  -0.003085  -0.025281   0.506381  -0.002907   0.003054
    29  H   -0.000077  -0.000039  -0.002321  -0.002907   0.339995  -0.011653
    30  H    0.000057  -0.000433  -0.002982   0.003054  -0.011653   0.335177
    31  H   -0.000024   0.005005   0.003966  -0.003548  -0.014423  -0.014180
              31
     1  O    0.000005
     2  C   -0.000676
     3  N    0.000477
     4  C   -0.000035
     5  C    0.000024
     6  O    0.000000
     7  O    0.000257
     8  C    0.000001
     9  C    0.000000
    10  C    0.000000
    11  N    0.000000
    12  C    0.000000
    13  N    0.000000
    14  C   -0.000601
    15  C   -0.025096
    16  N    0.333059
    17  H    0.000742
    18  H    0.000000
    19  H    0.000000
    20  H    0.000000
    21  H    0.000001
    22  H    0.000000
    23  H    0.000000
    24  H    0.000000
    25  H   -0.000024
    26  H    0.005005
    27  H    0.003966
    28  H   -0.003548
    29  H   -0.014423
    30  H   -0.014180
    31  H    0.359674
 Mulliken charges:
               1
     1  O   -0.477260
     2  C    0.567494
     3  N   -0.475501
     4  C   -0.071674
     5  C    0.636950
     6  O   -0.440932
     7  O   -0.485621
     8  C   -0.268982
     9  C    0.308162
    10  C   -0.011298
    11  N   -0.428658
    12  C    0.275745
    13  N   -0.535627
    14  C   -0.290601
    15  C   -0.145184
    16  N   -0.547995
    17  H    0.248741
    18  H    0.165284
    19  H    0.345843
    20  H    0.133528
    21  H    0.143539
    22  H    0.094269
    23  H    0.138271
    24  H    0.264796
    25  H    0.205992
    26  H    0.141712
    27  H    0.212255
    28  H    0.195227
    29  H    0.371614
    30  H    0.374540
    31  H    0.355371
 Sum of Mulliken charges =   1.00000
 Mulliken charges with hydrogens summed into heavy atoms:
               1
     1  O   -0.477260
     2  C    0.567494
     3  N   -0.226760
     4  C    0.093610
     5  C    0.636950
     6  O   -0.095089
     7  O   -0.485621
     8  C    0.008085
     9  C    0.308162
    10  C    0.082971
    11  N   -0.428658
    12  C    0.414016
    13  N   -0.270831
    14  C    0.057103
    15  C    0.262298
    16  N    0.553530
 APT charges:
               1
     1  O   -0.100403
     2  C    0.008089
     3  N   -0.500758
     4  C   -0.346012
     5  C   -0.094296
     6  O   -0.151205
     7  O   -0.166432
     8  C   -0.981287
     9  C   -0.390424
    10  C   -0.243197
    11  N    0.023589
    12  C   -0.380109
    13  N   -0.731035
    14  C   -0.725780
    15  C   -1.143037
    16  N   -1.075019
    17  H    0.417859
    18  H    0.358937
    19  H    0.511780
    20  H    0.546581
    21  H    0.354683
    22  H    0.386067
    23  H    0.940880
    24  H    0.515812
    25  H    0.633996
    26  H    0.267950
    27  H    0.441280
    28  H    0.853314
    29  H    1.145282
    30  H    0.099162
    31  H    0.523732
 Sum of APT charges =   1.00000
 APT charges with hydrogens summed into heavy atoms:
               1
     1  O   -0.100403
     2  C    0.008089
     3  N   -0.082899
     4  C    0.012926
     5  C   -0.094296
     6  O    0.360575
     7  O   -0.166432
     8  C   -0.080023
     9  C   -0.390424
    10  C    0.142870
    11  N    0.023589
    12  C    0.560771
    13  N   -0.215223
    14  C    0.176166
    15  C    0.151557
    16  N    0.693158
 Electronic spatial extent (au):  <R**2>=           4188.6174
 Charge=              1.0000 electrons
 Dipole moment (field-independent basis, Debye):
    X=             10.4825    Y=             -3.2945    Z=             -1.9212  Tot=             11.1547
 Quadrupole moment (field-independent basis, Debye-Ang):
   XX=            -55.2394   YY=            -86.9541   ZZ=            -68.7330
   XY=            -11.3177   XZ=            -36.1881   YZ=             11.2535
 Traceless Quadrupole moment (field-independent basis, Debye-Ang):
   XX=             15.0695   YY=            -16.6453   ZZ=              1.5758
   XY=            -11.3177   XZ=            -36.1881   YZ=             11.2535
 Octapole moment (field-independent basis, Debye-Ang**2):
  XXX=            300.7570  YYY=             -6.0863  ZZZ=            -25.9857  XYY=             22.3535
  XXY=            -38.2347  XXZ=            -35.6577  XZZ=             47.2695  YZZ=             -6.6706
  YYZ=            -34.5980  XYZ=             -5.8383
 Hexadecapole moment (field-independent basis, Debye-Ang**3):
 XXXX=          -3070.9747 YYYY=           -892.0637 ZZZZ=           -820.2533 XXXY=            107.9544
 XXXZ=           -222.5195 YYYX=            207.1005 YYYZ=            203.8621 ZZZX=             34.9490
 ZZZY=            203.0158 XXYY=           -562.4918 XXZZ=           -656.2957 YYZZ=           -307.9827
 XXYZ=            188.9518 YYXZ=            -48.6403 ZZXY=             98.3836
 N-N= 1.156336206759D+03 E-N=-4.152802627918D+03  KE= 7.895162461543D+02
  Exact polarizability:   0.000   0.000   0.000   0.000   0.000   0.000
 Approx polarizability: 166.748 -19.266 181.867  12.500  19.594 194.265
 Calling FoFJK, ICntrl=    100147 FMM=F ISym2X=0 I1Cent= 0 IOpClX= 0 NMat=1 NMatS=1 NMatT=0.
 -------------------------------------------------------------------
 Center     Atomic                   Forces (Hartrees/Bohr)
 Number     Number              X              Y              Z
 -------------------------------------------------------------------
      1        8           0.005120249   -0.000257125   -0.001248097
      2        6          -0.006516900    0.007059286    0.008159948
      3        7           0.003027859   -0.006071299    0.005014753
      4        6           0.001651582    0.001984330   -0.002308595
      5        6          -0.010760312    0.016094291    0.023980253
      6        8           0.001460211   -0.004566690   -0.011952686
      7        8           0.022755394   -0.012146456   -0.019601149
      8        6          -0.013547473    0.006883114   -0.003895760
      9        6           0.007104774   -0.006248464    0.004578688
     10        6          -0.003443906    0.002198805   -0.008810651
     11        7           0.001415249   -0.005460434   -0.002171719
     12        6          -0.002025505    0.000609241   -0.003729650
     13        7           0.005554215    0.001792764    0.009949649
     14        6           0.000645063   -0.006672022   -0.001731606
     15        6           0.005199524    0.030946160   -0.003482753
     16        7           0.004935266   -0.005270931   -0.001829828
     17        1          -0.007206228   -0.003597386   -0.004311654
     18        1          -0.001074348    0.002689034    0.001514230
     19        1          -0.002680079    0.002744106    0.004688022
     20        1          -0.000167683   -0.002553485    0.002367832
     21        1          -0.000352578   -0.003167954   -0.000237274
     22        1          -0.001285727    0.000129303   -0.000109448
     23        1          -0.001869052    0.003194299    0.000331679
     24        1          -0.000776775    0.000812116    0.001344669
     25        1           0.002346010   -0.000851622   -0.001800843
     26        1          -0.001468715    0.001789596   -0.004418473
     27        1           0.000756307   -0.005406492    0.001673333
     28        1           0.000837548   -0.006058478   -0.000253372
     29        1           0.001525287   -0.001399071   -0.000465237
     30        1          -0.010659410   -0.005203026    0.011576768
     31        1          -0.000499846   -0.003995511   -0.002821029
 -------------------------------------------------------------------
 Cartesian Forces:  Max     0.030946160 RMS     0.007149605
 FormGI is forming the generalized inverse of G from B-inverse, IUseBI=4.

 GradGradGradGradGradGradGradGradGradGradGradGradGradGradGradGradGradGrad
 Berny optimization.
 Internal  Forces:  Max     0.031247209 RMS     0.005373353
 Search for a local minimum.
 Step number   1 out of a maximum of  167
 All quantities printed in internal units (Hartrees-Bohrs-Radians)
 Mixed Optimization -- RFO/linear search
 Second derivative matrix not updated -- analytic derivatives used.
 ITU=  0
     Eigenvalues ---   -0.00172   0.00073   0.00205   0.00276   0.00344
     Eigenvalues ---    0.00416   0.00585   0.00676   0.00847   0.01014
     Eigenvalues ---    0.01222   0.02044   0.02554   0.02989   0.03543
     Eigenvalues ---    0.03925   0.03974   0.04017   0.04127   0.04307
     Eigenvalues ---    0.04491   0.04900   0.04979   0.05191   0.05269
     Eigenvalues ---    0.05695   0.05820   0.06140   0.06289   0.07666
     Eigenvalues ---    0.07905   0.08230   0.10362   0.10869   0.11046
     Eigenvalues ---    0.11092   0.11871   0.11997   0.12960   0.13546
     Eigenvalues ---    0.14582   0.14704   0.16457   0.16634   0.17119
     Eigenvalues ---    0.18650   0.19747   0.20188   0.21387   0.23167
     Eigenvalues ---    0.23315   0.23832   0.24160   0.24980   0.25386
     Eigenvalues ---    0.26848   0.28639   0.30871   0.32297   0.33266
     Eigenvalues ---    0.33992   0.34045   0.34250   0.34460   0.34584
     Eigenvalues ---    0.34974   0.35000   0.35123   0.35275   0.37309
     Eigenvalues ---    0.38149   0.38465   0.39607   0.42082   0.43657
     Eigenvalues ---    0.44346   0.44565   0.45887   0.46111   0.48131
     Eigenvalues ---    0.48257   0.49205   0.53837   0.54908   0.60032
     Eigenvalues ---    0.85386   0.94333
 RFO step:  Lambda=-2.18063455D-02 EMin=-1.71602776D-03
 Linear search not attempted -- first point.
 Iteration  1 RMS(Cart)=  0.18397299 RMS(Int)=  0.04203587
 Iteration  2 RMS(Cart)=  0.15713450 RMS(Int)=  0.00864265
 Iteration  3 RMS(Cart)=  0.03827750 RMS(Int)=  0.00104636
 Iteration  4 RMS(Cart)=  0.00082116 RMS(Int)=  0.00101269
 Iteration  5 RMS(Cart)=  0.00000079 RMS(Int)=  0.00101269
 Variable       Old X    -DE/DX   Delta X   Delta X   Delta X     New X
                                 (Linear)    (Quad)   (Total)
    R1        2.30708  -0.00024   0.00000  -0.00048  -0.00048   2.30660
    R2        2.58272   0.00466   0.00000   0.02238   0.02238   2.60510
    R3        2.85358   0.00495   0.00000   0.01995   0.01995   2.87354
    R4        2.73837  -0.00561   0.00000   0.00191   0.00191   2.74027
    R5        1.90091   0.00491   0.00000   0.01029   0.01029   1.91121
    R6        2.88261   0.00379   0.00000   0.01974   0.01974   2.90234
    R7        2.89781   0.00943   0.00000   0.02949   0.02949   2.92730
    R8        2.05793   0.00301   0.00000   0.00532   0.00532   2.06325
    R9        2.54181  -0.00704   0.00000  -0.05038  -0.05038   2.49142
   R10        2.27182   0.03125   0.00000   0.05154   0.05154   2.32335
   R11        1.82188   0.00535   0.00000   0.01145   0.01145   1.83334
   R12        2.83516  -0.00551   0.00000  -0.02307  -0.02307   2.81209
   R13        2.06551   0.00289   0.00000   0.00837   0.00837   2.07387
   R14        2.06104   0.00278   0.00000   0.00907   0.00907   2.07011
   R15        2.58279   0.00819   0.00000   0.01546   0.01545   2.59824
   R16        2.60654   0.00580   0.00000   0.01126   0.01129   2.61783
   R17        2.61234  -0.00417   0.00000  -0.01554  -0.01557   2.59677
   R18        2.04419  -0.00007   0.00000   0.00027   0.00027   2.04445
   R19        2.48091   0.00381   0.00000   0.00345   0.00344   2.48435
   R20        2.56991   0.00784   0.00000   0.01724   0.01727   2.58718
   R21        2.03315   0.00366   0.00000   0.00873   0.00873   2.04188
   R22        1.90432   0.00125   0.00000   0.00211   0.00211   1.90643
   R23        2.89513   0.00084   0.00000   0.00461   0.00461   2.89974
   R24        2.06148   0.00006   0.00000   0.00160   0.00160   2.06308
   R25        2.06407   0.00318   0.00000   0.00643   0.00643   2.07049
   R26        2.80510   0.01701   0.00000   0.04785   0.04785   2.85295
   R27        2.06658  -0.00056   0.00000  -0.00342  -0.00342   2.06316
   R28        2.06367  -0.00029   0.00000  -0.00166  -0.00166   2.06201
   R29        1.93376   0.00191   0.00000   0.00041   0.00041   1.93417
   R30        1.93832   0.01634   0.00000   0.07987   0.07987   2.01819
   R31        1.92808   0.00415   0.00000   0.00492   0.00492   1.93300
    A1        2.13945   0.00926   0.00000  -0.00060  -0.00216   2.13729
    A2        2.13949  -0.00088   0.00000  -0.03212  -0.03349   2.10600
    A3        2.00383  -0.00860   0.00000   0.03002   0.02856   2.03239
    A4        2.07065  -0.00077   0.00000  -0.09810  -0.10386   1.96679
    A5        2.02501   0.00277   0.00000  -0.01243  -0.01915   2.00587
    A6        2.01038  -0.00460   0.00000   0.00338  -0.00378   2.00660
    A7        1.91787  -0.01682   0.00000  -0.03009  -0.03011   1.88777
    A8        1.95177   0.00121   0.00000  -0.00693  -0.00668   1.94509
    A9        1.84275   0.00616   0.00000   0.03064   0.03025   1.87300
   A10        1.90276   0.01361   0.00000   0.04075   0.04085   1.94362
   A11        1.90159  -0.00041   0.00000  -0.03488  -0.03477   1.86682
   A12        1.94603  -0.00458   0.00000  -0.00227  -0.00207   1.94396
   A13        2.02911   0.00761   0.00000   0.03928   0.03927   2.06837
   A14        2.15222  -0.00792   0.00000  -0.00705  -0.00706   2.14516
   A15        2.10150   0.00036   0.00000  -0.03202  -0.03203   2.06946
   A16        1.92222   0.00518   0.00000   0.03226   0.03226   1.95448
   A17        1.97751  -0.00275   0.00000  -0.00465  -0.00467   1.97284
   A18        1.89972   0.00063   0.00000  -0.00160  -0.00165   1.89807
   A19        1.90088   0.00082   0.00000  -0.00072  -0.00074   1.90014
   A20        1.92933   0.00225   0.00000   0.02296   0.02296   1.95229
   A21        1.88479   0.00041   0.00000  -0.00097  -0.00097   1.88383
   A22        1.86827  -0.00131   0.00000  -0.01612  -0.01613   1.85214
   A23        2.29881  -0.00226   0.00000  -0.01601  -0.01603   2.28278
   A24        2.16010   0.00106   0.00000   0.01275   0.01273   2.17282
   A25        1.82382   0.00120   0.00000   0.00336   0.00340   1.82722
   A26        1.93881  -0.00005   0.00000  -0.00026  -0.00031   1.93850
   A27        2.21999   0.00100   0.00000   0.00430   0.00427   2.22427
   A28        2.12430  -0.00094   0.00000  -0.00386  -0.00389   2.12041
   A29        1.83290   0.00202   0.00000   0.00610   0.00608   1.83899
   A30        1.94657   0.00111   0.00000   0.00267   0.00271   1.94928
   A31        2.20483  -0.00118   0.00000  -0.00451  -0.00453   2.20030
   A32        2.13178   0.00007   0.00000   0.00182   0.00180   2.13359
   A33        1.88266  -0.00428   0.00000  -0.01186  -0.01188   1.87079
   A34        2.20428   0.00304   0.00000   0.01309   0.01297   2.21725
   A35        2.19624   0.00124   0.00000  -0.00125  -0.00137   2.19487
   A36        1.91890  -0.01832   0.00000  -0.06108  -0.06105   1.85784
   A37        1.87545   0.00827   0.00000   0.02447   0.02297   1.89841
   A38        1.93936   0.00505   0.00000   0.03670   0.03696   1.97633
   A39        1.90365   0.00256   0.00000  -0.02201  -0.02202   1.88164
   A40        1.92073   0.00613   0.00000   0.03163   0.03236   1.95309
   A41        1.90486  -0.00362   0.00000  -0.01082  -0.01113   1.89373
   A42        1.97234  -0.00790   0.00000  -0.01465  -0.01465   1.95769
   A43        1.88954   0.00467   0.00000   0.00973   0.00882   1.89836
   A44        1.90879   0.00605   0.00000   0.04099   0.04071   1.94951
   A45        1.90888  -0.00235   0.00000  -0.03713  -0.03727   1.87160
   A46        1.90900  -0.00012   0.00000  -0.02193  -0.02172   1.88728
   A47        1.87261   0.00006   0.00000   0.02543   0.02437   1.89698
   A48        1.94437  -0.00014   0.00000  -0.01330  -0.01329   1.93108
   A49        1.96713   0.00189   0.00000   0.02748   0.02738   1.99451
   A50        1.92785   0.00222   0.00000   0.00608   0.00592   1.93377
   A51        1.86699  -0.00027   0.00000  -0.00080  -0.00074   1.86625
   A52        1.88309  -0.00184   0.00000  -0.01574  -0.01579   1.86730
   A53        1.87047  -0.00216   0.00000  -0.00537  -0.00561   1.86485
    D1       -0.33803  -0.00454   0.00000  -0.09625  -0.09413  -0.43216
    D2       -2.84661   0.00120   0.00000   0.07092   0.06985  -2.77675
    D3        2.77341  -0.01268   0.00000  -0.19568  -0.19462   2.57879
    D4        0.26483  -0.00694   0.00000  -0.02851  -0.03064   0.23420
    D5        1.39888  -0.00344   0.00000  -0.23361  -0.23321   1.16568
    D6       -0.67083  -0.00117   0.00000  -0.18755  -0.18672  -0.85755
    D7       -2.75359  -0.00481   0.00000  -0.21075  -0.21072  -2.96431
    D8       -1.71256   0.00451   0.00000  -0.13478  -0.13522  -1.84777
    D9        2.50092   0.00677   0.00000  -0.08872  -0.08873   2.41219
   D10        0.41816   0.00313   0.00000  -0.11192  -0.11273   0.30542
   D11       -1.51309   0.00938   0.00000   0.49423   0.49372  -1.01938
   D12        2.65453   0.00291   0.00000   0.46793   0.46720   3.12174
   D13        0.53507   0.00386   0.00000   0.45505   0.45404   0.98911
   D14        1.00061   0.00625   0.00000   0.32328   0.32427   1.32487
   D15       -1.11495  -0.00022   0.00000   0.29698   0.29775  -0.81720
   D16        3.04877   0.00073   0.00000   0.28410   0.28459  -2.94982
   D17        2.76409   0.00188   0.00000   0.05732   0.05772   2.82181
   D18       -0.40654   0.00402   0.00000   0.06491   0.06533  -0.34120
   D19       -1.37439   0.00144   0.00000   0.05595   0.05598  -1.31841
   D20        1.73817   0.00358   0.00000   0.06354   0.06359   1.80177
   D21        0.75296   0.00399   0.00000   0.05678   0.05631   0.80927
   D22       -2.41767   0.00613   0.00000   0.06436   0.06392  -2.35374
   D23       -1.00531  -0.00438   0.00000   0.00742   0.00747  -0.99784
   D24        3.12384  -0.00584   0.00000  -0.01781  -0.01774   3.10610
   D25        1.09262  -0.00507   0.00000   0.00268   0.00273   1.09535
   D26       -3.12959   0.00672   0.00000   0.02198   0.02204  -3.10755
   D27        0.99956   0.00526   0.00000  -0.00325  -0.00317   0.99639
   D28       -1.03166   0.00602   0.00000   0.01724   0.01730  -1.01436
   D29        1.05338   0.00116   0.00000   0.04004   0.03992   1.09331
   D30       -1.10065  -0.00030   0.00000   0.01481   0.01471  -1.08594
   D31       -3.13187   0.00047   0.00000   0.03530   0.03518  -3.09669
   D32       -0.05120   0.00091   0.00000  -0.00608  -0.00612  -0.05733
   D33        3.11852  -0.00101   0.00000  -0.01382  -0.01378   3.10474
   D34        1.89691  -0.00052   0.00000  -0.02325  -0.02327   1.87365
   D35       -1.20687  -0.00037   0.00000  -0.02760  -0.02763  -1.23450
   D36       -2.24859   0.00001   0.00000  -0.01148  -0.01144  -2.26003
   D37        0.93082   0.00015   0.00000  -0.01582  -0.01581   0.91501
   D38       -0.21014  -0.00008   0.00000  -0.01873  -0.01873  -0.22887
   D39        2.96926   0.00006   0.00000  -0.02308  -0.02309   2.94617
   D40       -3.10602  -0.00012   0.00000  -0.00775  -0.00776  -3.11378
   D41        0.02211   0.00059   0.00000   0.00775   0.00778   0.02989
   D42        0.00311  -0.00023   0.00000  -0.00377  -0.00379  -0.00068
   D43        3.13124   0.00048   0.00000   0.01173   0.01175  -3.14020
   D44        3.11193  -0.00009   0.00000   0.00563   0.00569   3.11762
   D45       -0.03073  -0.00041   0.00000  -0.01774  -0.01781  -0.04855
   D46       -0.00051   0.00009   0.00000   0.00272   0.00272   0.00221
   D47        3.14001  -0.00023   0.00000  -0.02065  -0.02079   3.11922
   D48       -0.00454   0.00029   0.00000   0.00336   0.00337  -0.00117
   D49       -3.13352  -0.00039   0.00000  -0.01122  -0.01117   3.13849
   D50        0.00417  -0.00022   0.00000  -0.00152  -0.00153   0.00264
   D51       -3.13436   0.00006   0.00000   0.00317   0.00311  -3.13125
   D52       -0.00240   0.00010   0.00000  -0.00074  -0.00074  -0.00314
   D53        3.14027   0.00041   0.00000   0.02249   0.02237  -3.12055
   D54        3.13628  -0.00017   0.00000  -0.00522  -0.00519   3.13109
   D55       -0.00424   0.00015   0.00000   0.01801   0.01792   0.01368
   D56        1.22070  -0.00317   0.00000  -0.02806  -0.02854   1.19217
   D57       -0.89644   0.00163   0.00000   0.02150   0.02131  -0.87514
   D58       -2.93151  -0.00434   0.00000  -0.03658  -0.03738  -2.96889
   D59       -3.01022  -0.00225   0.00000  -0.04680  -0.04633  -3.05655
   D60        1.15582   0.00255   0.00000   0.00275   0.00352   1.15934
   D61       -0.87925  -0.00342   0.00000  -0.05533  -0.05517  -0.93442
   D62       -0.92104  -0.00138   0.00000  -0.05446  -0.05443  -0.97547
   D63       -3.03818   0.00342   0.00000  -0.00491  -0.00459  -3.04277
   D64        1.20993  -0.00255   0.00000  -0.06299  -0.06327   1.14666
   D65        3.11993   0.00102   0.00000   0.02214   0.02201  -3.14125
   D66       -1.06437   0.00190   0.00000   0.03080   0.03056  -1.03381
   D67        1.02732   0.00195   0.00000   0.04661   0.04650   1.07382
   D68       -1.05708   0.00009   0.00000  -0.00124  -0.00111  -1.05819
   D69        1.04180   0.00097   0.00000   0.00742   0.00744   1.04924
   D70        3.13350   0.00102   0.00000   0.02323   0.02338  -3.12631
   D71        0.98908  -0.00126   0.00000  -0.00461  -0.00453   0.98455
   D72        3.08796  -0.00039   0.00000   0.00405   0.00402   3.09199
   D73       -1.10352  -0.00033   0.00000   0.01986   0.01996  -1.08356
         Item               Value     Threshold  Converged?
 Maximum Force            0.031247     0.000450     NO 
 RMS     Force            0.005373     0.000300     NO 
 Maximum Displacement     1.155299     0.001800     NO 
 RMS     Displacement     0.317792     0.001200     NO 
 Predicted change in Energy=-1.957595D-02
 GradGradGradGradGradGradGradGradGradGradGradGradGradGradGradGradGradGrad

                          Input orientation:                          
 ---------------------------------------------------------------------
 Center     Atomic      Atomic             Coordinates (Angstroms)
 Number     Number       Type             X           Y           Z
 ---------------------------------------------------------------------
      1          8           0        1.725609    1.634396    0.659782
      2          6           0        1.285056    1.097474   -0.343957
      3          7           0        0.085226    0.418696   -0.353934
      4          6           0       -0.287681   -0.077395    0.956636
      5          6           0        0.831149   -1.004808    1.453601
      6          8           0        0.895840   -1.278675    2.741624
      7          8           0        1.655290   -1.520180    0.700760
      8          6           0       -1.652097   -0.809821    0.917812
      9          6           0       -2.755642    0.042020    0.397256
     10          6           0       -3.426984    0.008584   -0.802164
     11          7           0       -4.359722    1.015098   -0.874408
     12          6           0       -4.265367    1.660093    0.267262
     13          7           0       -3.306126    1.115483    1.078203
     14          6           0        2.128774    1.000072   -1.605267
     15          6           0        3.294961    0.058601   -1.276232
     16          7           0        2.836885   -1.365024   -1.069577
     17          1           0       -0.022177   -0.246082   -1.108518
     18          1           0       -0.314973    0.779455    1.632763
     19          1           0        0.223698   -0.797461    3.249433
     20          1           0       -1.873182   -1.197261    1.920508
     21          1           0       -1.565616   -1.685670    0.265566
     22          1           0       -3.286105   -0.690787   -1.615487
     23          1           0       -4.857924    2.512376    0.567267
     24          1           0       -3.069702    1.432117    2.006428
     25          1           0        2.546274    1.984480   -1.825541
     26          1           0        1.562291    0.659207   -2.478981
     27          1           0        3.759707    0.387345   -0.344611
     28          1           0        4.050249    0.061399   -2.063748
     29          1           0        3.631782   -1.971794   -0.851505
     30          1           0        2.126616   -1.487740   -0.281517
     31          1           0        2.403487   -1.734090   -1.919448
 ---------------------------------------------------------------------
                    Distance matrix (angstroms):
                    1          2          3          4          5
     1  O    0.000000
     2  C    1.220599   0.000000
     3  N    2.279562   1.378561   0.000000
     4  C    2.659264   2.354859   1.450090   0.000000
     5  C    2.897518   2.803005   2.418667   1.535855   0.000000
     6  O    3.675401   3.913871   3.622243   2.455601   1.318405
     7  O    3.155626   2.842644   2.708639   2.433565   1.229465
     8  C    4.177280   3.722459   2.478888   1.549060   2.547861
     9  C    4.763002   4.241535   2.962550   2.533377   3.882884
    10  C    5.597299   4.857875   3.564368   3.599444   4.924138
    11  N    6.306228   5.670245   4.514881   4.596497   6.036952
    12  C    6.003875   5.612247   4.566684   4.395007   5.872271
    13  N    5.075697   4.806434   3.746705   3.247883   4.664075
    14  C    2.386495   1.520609   2.465750   3.682871   3.880728
    15  C    2.948584   2.447062   3.358973   4.223685   3.827949
    16  N    3.636226   2.999766   3.356401   3.940360   3.243325
    17  H    3.117344   2.024489   1.011367   2.088974   2.805046
    18  H    2.416939   2.562938   2.058464   1.091826   2.128213
    19  H    3.856937   4.198775   3.805584   2.457015   1.907093
    20  H    4.749633   4.513101   3.408778   2.167248   2.751081
    21  H    4.691525   4.030353   2.745436   2.167313   2.760341
    22  H    5.974998   5.070521   3.766742   3.997827   5.144870
    23  H    6.642463   6.369339   5.446727   5.267413   6.746979
    24  H    4.984915   4.959860   4.068403   3.334716   4.632587
    25  H    2.640621   2.138350   3.267118   4.474722   4.757128
    26  H    3.290820   2.197104   2.599113   3.970949   4.332287
    27  H    2.588725   2.574526   3.674627   4.276748   3.707844
    28  H    3.910996   3.417225   4.332728   5.287686   4.885811
    29  H    4.349953   3.896811   4.305819   4.713842   3.753947
    30  H    3.285511   2.719459   2.794104   3.057929   2.218579
    31  H    4.296352   3.427946   3.529824   4.273042   3.792302
                    6          7          8          9         10
     6  O    0.000000
     7  O    2.190939   0.000000
     8  C    3.168295   3.389768   0.000000
     9  C    4.535815   4.689233   1.488094   0.000000
    10  C    5.736051   5.515923   2.603523   1.374928   0.000000
    11  N    6.779234   6.714846   3.724731   2.266513   1.374151
    12  C    6.434041   6.734703   3.654158   2.216828   2.138701
    13  N    5.114243   5.630704   2.543291   1.385295   2.185318
    14  C    5.060462   3.448713   4.892507   5.365211   5.700392
    15  C    4.866955   3.014892   5.481000   6.277789   6.738826
    16  N    4.277892   2.134089   4.940539   5.950440   6.418283
    17  H    4.090550   2.776816   2.660913   3.134038   3.428034
    18  H    2.632782   3.168420   2.196554   2.833223   4.025882
    19  H    0.970161   3.011231   2.992527   4.209052   5.512951
    20  H    2.889350   3.747289   1.097446   2.152871   3.358766
    21  H    3.515007   3.254384   1.095452   2.102003   2.734087
    22  H    6.067841   5.519989   3.016912   2.206702   1.081878
    23  H    7.225351   7.661676   4.630032   3.248253   3.192476
    24  H    4.859468   5.722445   2.867224   2.149520   3.168957
    25  H    5.850736   4.411201   5.741117   6.068302   6.374266
    26  H    5.608409   3.856051   4.901891   5.224768   5.303572
    27  H    4.527936   3.026554   5.684588   6.566536   7.211195
    28  H    5.902347   3.984938   6.493495   7.237200   7.583099
    29  H    4.569067   2.553430   5.692103   6.812785   7.331473
    30  H    3.270764   1.089986   4.022019   5.161138   5.775165
    31  H    4.919959   2.733322   5.035085   5.927757   6.187053
                   11         12         13         14         15
    11  N    0.000000
    12  C    1.314660   0.000000
    13  N    2.220998   1.369076   0.000000
    14  C    6.529546   6.695299   6.062382   0.000000
    15  C    7.724669   7.880717   7.087645   1.534478   0.000000
    16  N    7.582495   7.834568   6.964370   2.526275   1.509718
    17  H    4.523238   4.850870   4.173719   2.535005   3.335320
    18  H    4.764602   4.271501   3.060628   4.062686   4.691855
    19  H    6.426444   5.923227   4.564346   5.516209   5.535986
    20  H    4.346145   4.076793   2.848085   5.768450   6.205323
    21  H    4.049780   4.299161   3.396500   4.935762   5.389326
    22  H    2.147533   3.167071   3.243298   5.672744   6.632277
    23  H    2.137398   1.080515   2.149522   7.471340   8.711431
    24  H    3.183908   2.122801   1.008838   6.344696   7.291868
[...]
 ,0.00003571,0.00004220,-0.00030701,-0.00004750,0.00001949,-0.00003828,
 -0.00000663,-0.00002723,-0.00003587,0.00002061,-0.00003008,0.00001235,
 0.00001712,-0.00000834,0.00003004,-0.00001874,0.00003348,0.00002203,0.
 00835472,0.02527076,-0.05111314,-0.00255226,-0.00283981,-0.00078381,0.
 00098907,-0.00087912,0.00072589,0.00002429,0.00016690,-0.00019217,0.00
 012363,0.00013266,-0.00016890,0.00003001,-0.00000827,0.00005331,0.0000
 9545,0.00007071,0.00003518,0.00000741,0.00000567,0.00000848,0.00001377
 ,0.00001340,-0.00000228,0.00000273,0.00000078,0.00000412,-0.00000431,0
 .00001588,0.00000100,-0.01273498,-0.02731951,0.05178157,0.00019687,-0.
 00035893,0.00502446,0.01124468,0.00230341,0.00738251,-0.00066575,-0.00
 006531,0.00022354,0.00038201,0.00039601,-0.00037264,0.00005347,0.00019
 822,0.00001107,-0.00000321,-0.00004310,-0.00002614,0.00010381,-0.00010
 374,-0.00006996,-0.00002001,-0.00001438,-0.00006574,0.00002641,0.00001
 627,0.00005493,0.00005605,0.00000128,-0.00006052,-0.00000805,0.0000314
 4,-0.00000099,-0.00001743,0.00000558,-0.00001545,0.00001063,-0.0000311
 6,-0.00000667,-0.17549390,-0.02651727,-0.12826295,-0.01888620,-0.00496
 220,-0.01809338,0.00160152,-0.00055251,0.00045151,-0.00010252,-0.00039
 938,0.00109831,0.00005015,0.00002049,0.00002876,0.00000721,0.00001371,
 -0.00001239,0.00001088,0.00001540,0.00000473,0.00000005,0.00000792,-0.
 00000571,-0.00001036,-0.00001958,0.00000253,0.00000021,0.00000091,-0.0
 0000181,0.00000379,0.00000084,0.00000295,-0.00754605,-0.00057423,-0.00
 792091,0.19079627,0.00024585,0.00229980,0.00024969,0.00165499,-0.00301
 385,0.00201659,0.00020903,-0.00012449,-0.00004685,0.00017170,0.0000137
 4,-0.00000249,-0.00003000,-0.00002531,0.00015246,-0.00000744,0.0000146
 4,-0.00009754,0.00003829,0.00002569,-0.00014267,-0.00007662,0.00001937
 ,-0.00004266,0.00001261,0.00001654,0.00002016,-0.00002332,0.00006164,-
 0.00002154,0.00000770,-0.00006989,0.00003419,0.00002091,-0.00003669,-0
 .00003355,0.00000592,-0.00000538,0.00001965,-0.02716629,-0.05555050,-0
 .02641540,0.01694394,0.00170693,0.01723998,-0.00021903,0.00227767,0.00
 060942,-0.00032214,0.00055225,0.00032159,0.00001715,0.00003518,-0.0000
 5934,-0.00000287,-0.00000623,0.00002320,0.00002649,0.00000120,0.000003
 30,0.00000648,-0.00001304,0.00000720,-0.00002005,-0.00001376,-0.000015
 15,0.00000736,0.00000090,-0.00000578,-0.00000111,0.00001117,-0.0000033
 5,-0.01951844,-0.00136552,-0.02156316,0.02591038,0.05549050,0.00347881
 ,0.00193302,-0.00866264,-0.02722169,-0.00768299,-0.01376471,0.00114893
 ,0.00071209,0.00235992,0.00019135,0.00008560,0.00023886,-0.00033889,-0
 .00040892,0.00003215,0.00007908,0.00000142,0.00011009,0.00004334,0.000
 21910,0.00022483,-0.00010715,-0.00000149,0.00004191,0.00003154,-0.0000
 4160,-0.00008635,-0.00007481,-0.00002759,0.00001917,0.00000375,-0.0000
 7082,0.00003058,0.00003414,-0.00000508,0.00002092,-0.00002648,0.000080
 63,0.00005033,-0.12644417,-0.02491636,-0.18421722,0.00490423,0.0014422
 3,0.00489721,0.00003411,0.00022378,0.00012912,0.00175817,0.00022935,-0
 .00104183,-0.00014978,-0.00003028,0.00018122,-0.00005390,-0.00003666,-
 0.00000295,-0.00000702,-0.00001043,0.00000561,0.00002271,0.00002212,-0
 .00000504,0.00004139,0.00005027,0.00000997,0.00000326,0.00000115,0.000
 00325,-0.00001078,-0.00000122,-0.00001721,0.00323386,-0.00001679,0.003
 00014,0.13898323,0.02842699,0.19597304,0.00290158,-0.00044740,0.000938
 77,-0.00297239,-0.00148539,-0.00438832,0.00073138,0.00075586,0.0004909
 0,-0.00000026,-0.00007046,0.00022070,-0.00013968,-0.00015028,0.0003208
 7,-0.00000907,0.00006048,-0.00015665,0.00013012,0.00015999,0.00001006,
 -0.00009695,-0.00002124,-0.00002300,0.00003059,0.00001635,0.00000269,-
 0.00000027,0.00000336,-0.00005948,0.00002475,-0.00003753,0.00002540,0.
 00000569,-0.00001349,0.00000524,0.00000453,0.00004186,0.00003305,-0.01
 827800,-0.00130665,-0.01568938,-0.17804258,-0.03418585,-0.13179968,-0.
 00786912,-0.00471535,-0.00662614,0.00011101,0.00006585,-0.00013872,-0.
 00005130,-0.00001056,-0.00001257,-0.00001873,-0.00002371,0.00005374,0.
 00002368,0.00000278,0.00000057,0.00001295,0.00000269,0.00000388,0.0000
 0038,0.00000376,-0.00000546,-0.00000131,0.00000043,0.00000051,-0.00002
 129,0.00000460,0.00000536,0.00105020,-0.00028075,0.00011123,-0.0023432
 6,0.00326213,0.00108402,0.19187140,-0.00141950,-0.00061977,-0.00062809
 ,0.00072209,0.00060459,0.00240433,-0.00032389,0.00007887,-0.00038224,-
 0.00005421,0.00004704,-0.00004678,0.00007954,-0.00001262,-0.00010217,-
 0.00002619,0.00002986,0.00004552,0.00000190,0.00001605,0.00036869,0.00
 002579,-0.00002430,-0.00002045,-0.00000209,0.00000852,0.00002345,0.000
 02717,-0.00000882,-0.00001299,-0.00000052,0.00003226,-0.00001658,-0.00
 001336,0.00001150,0.00000736,0.00000186,-0.00001473,-0.00001933,0.0174
 2705,0.00363296,0.01600082,-0.02823142,-0.05526970,-0.02664435,-0.0277
 0429,-0.01603413,-0.02430242,-0.00022501,-0.00021426,0.00013851,0.0000
 2491,0.00000573,-0.00002483,0.00000613,0.00000829,0.00001327,0.0000000
 5,0.00000931,-0.00000026,-0.00000171,0.00000430,-0.00000315,-0.0000042
 6,-0.00001604,0.00000709,-0.00000215,-0.00000029,0.00000092,0.00000065
 ,-0.00000147,0.00000505,-0.00031762,0.00081179,0.00045909,0.00401474,-
 0.00255841,-0.00161779,0.03612049,0.07243550,-0.00006054,-0.00008216,-
 0.00082404,0.00227308,0.00079374,0.00129651,-0.00074350,-0.00073165,-0
 .00045001,0.00006334,0.00007386,-0.00019577,-0.00000445,0.00019933,-0.
 00002339,0.00001448,-0.00006925,-0.00000528,-0.00000458,-0.00018700,-0
 .00021702,0.00006465,0.00002696,0.00003056,-0.00002527,-0.00001617,-0.
 00000707,-0.00000996,0.00000240,0.00004932,-0.00001879,0.00001399,-0.0
 0001534,0.00000210,0.00000581,-0.00000431,-0.00000494,-0.00003019,-0.0
 0001920,0.00194162,0.00156902,0.00281551,-0.13937780,-0.03584080,-0.19
 787570,0.00807233,0.00386103,0.00692769,-0.00002338,-0.00002560,0.0001
 5240,0.00003895,-0.00000144,0.00003085,0.00001974,0.00002558,-0.000041
 66,-0.00002031,-0.00000531,-0.00000003,-0.00000949,-0.00000374,-0.0000
 0486,0.00000132,0.00000280,0.00000107,0.00000237,-0.00000016,-0.000000
 48,0.00001784,-0.00000137,-0.00000512,-0.00053152,0.00035489,0.0003679
 6,0.00136297,-0.00038222,0.00046973,0.14507088,0.03380061,0.20231335,0
 .00139553,-0.00081178,0.00064747,-0.00324740,0.00393601,-0.00262319,0.
 00005803,-0.00038876,0.00074810,-0.00002407,-0.00025934,-0.00020348,-0
 .00000294,-0.00008336,-0.00013887,-0.00000292,-0.00002107,0.00013389,-
 0.00014813,0.00003495,0.00048421,0.00006157,-0.00000221,0.00009810,-0.
 00000872,-0.00000883,0.00000043,0.00000273,0.00000828,0.00005085,-0.00
 001546,0.00002418,-0.00002840,-0.00000326,0.00001097,0.00000097,-0.000
 00216,-0.00003409,-0.00003741,-0.01078090,0.00139504,0.02200080,-0.099
 51016,-0.00280360,0.10233679,-0.00603057,-0.00415398,0.01082559,0.0000
 8355,0.00009420,0.00013313,0.00001937,0.00001038,0.00000894,-0.0000091
 8,0.00000724,-0.00002293,-0.00003674,-0.00001038,-0.00000433,0.0000015
 6,0.00000017,-0.00000166,-0.00000267,-0.00000691,0.00000878,0.00000042
 ,-0.00000092,-0.00000052,0.00001250,-0.00000406,-0.00000221,0.00088614
 ,-0.00025004,-0.00032605,0.00071744,-0.00101108,-0.00020696,0.01234685
 ,0.00176893,-0.01939326,0.10386393,0.00020885,0.00066929,-0.00072783,0
 .00275639,-0.00389988,0.00194866,0.00073393,0.00109442,-0.00120724,-0.
 00000349,0.00009654,0.00050728,0.00094671,-0.00131269,-0.00063289,-0.0
 0029197,0.00028365,0.00050751,-0.00158382,0.00079691,0.00215063,-0.000
 05536,0.00006389,-0.00016881,0.00001656,0.00001351,0.00002740,0.000032
 11,0.00000590,-0.00006620,0.00001337,0.00000627,0.00001309,-0.00001256
 ,-0.00000847,-0.00000711,0.00000688,0.00002961,0.00001302,0.00870770,0
 .00129696,-0.02107518,0.00113170,-0.04888614,-0.00522935,-0.01970097,-
 0.01160676,0.03666442,-0.00013591,-0.00014168,-0.00015210,-0.00005790,
 0.00004360,-0.00007770,0.00002613,-0.00003771,0.00011202,0.00006983,0.
 00003114,0.00000452,0.00003722,0.00001304,0.00001689,-0.00000741,-0.00
 001071,-0.00000055,-0.00000344,0.00000073,-0.00000089,-0.00001972,-0.0
 0000256,0.00001077,-0.00062879,0.00062886,0.00000846,-0.00040145,0.000
 67106,0.00065430,0.00364414,0.00117011,-0.00463682,0.00381456,0.061550
 57,0.00132002,-0.00016149,0.00071000,-0.00114055,0.00004255,-0.0007693
 1,0.00025992,-0.00012771,0.00013100,0.00001237,-0.00008135,0.00004682,
 -0.00010303,-0.00005459,0.00011305,0.00000520,0.00001880,-0.00005474,0
 .00001687,0.00000802,0.00008412,-0.00002681,-0.00000939,0.00000385,0.0
 0001149,0.00000710,0.00001059,0.00000399,0.00000638,-0.00001738,0.0000
 0933,-0.00000775,0.00000048,-0.00000015,-0.00000247,0.00000380,0.00000
 229,0.00000435,0.00000149,-0.00165692,-0.00020335,0.00159810,0.1050036
 4,0.00515171,-0.28244730,-0.00039640,0.00011718,0.00001810,-0.00000836
 ,0.00002160,-0.00000617,-0.00000809,0.00000404,-0.00000343,-0.00000925
 ,-0.00000194,0.00001951,-0.00000005,0.00000129,0.00000090,0.00000202,0
 .00000058,0.00000251,-0.00000360,-0.00000357,-0.00000083,-0.00000084,-
 0.00000005,-0.00000011,-0.00000610,0.00000132,0.00000312,0.00036321,-0
 .00039437,0.00003067,0.00019490,-0.00014489,0.00059420,0.01032048,0.00
 048437,-0.01649081,-0.11416116,-0.00535669,0.29536523,0.00009344,-0.00
 004077,-0.00028044,-0.00077811,-0.00011984,0.00073436,0.00015338,0.000
 37326,-0.00003865,0.00010561,0.00002290,0.00002034,-0.00042286,0.00043
 710,0.00075610,0.00009648,-0.00002058,-0.00053776,0.00086486,-0.000818
 54,-0.00057919,-0.00006016,-0.00002961,-0.00000448,0.00001265,0.000025
 95,0.00001603,-0.00000076,0.00002478,-0.00003705,0.00003937,-0.0000412
 5,0.00000085,0.00000300,-0.00000595,0.00001599,0.00001526,0.00000313,0
 .00000576,-0.00133525,-0.00310178,0.00036966,0.01462078,-0.00801269,-0
 .00087789,-0.26866301,0.17193907,0.00093737,-0.00004614,-0.00004701,-0
 .00001255,0.00000442,-0.00002801,0.00000715,-0.00001014,0.00000697,0.0
 0004207,0.00001011,-0.00000224,-0.00000335,-0.00002008,-0.00000650,0.0
 0000037,-0.00001116,-0.00000580,-0.00000811,-0.00000283,-0.00000100,-0
 .00000002,-0.00001923,0.00000873,0.00001326,0.00076049,-0.00073752,-0.
 00004779,0.00001272,0.00004269,0.00009810,0.00050997,-0.00045548,-0.00
 026738,0.00036559,-0.00020964,0.00024254,0.28217604,-0.00025700,0.0002
 2664,-0.00014741,-0.00058147,-0.00010697,0.00083459,-0.00023683,0.0004
 1270,0.00025720,0.00008340,0.00001466,-0.00017982,0.00034527,-0.000276
 62,-0.00069623,-0.00004811,-0.00000655,0.00045324,-0.00069883,-0.00046
 453,0.00134339,0.00007167,0.00004472,0.00002052,-0.00002798,-0.0000360
 9,-0.00003372,-0.00002389,-0.00002773,0.00004942,-0.00003230,0.0000158
 2,-0.00000216,0.00000213,0.00001280,-0.00000459,-0.00001522,-0.0000075
 9,-0.00000158,-0.00443621,-0.00531704,0.00088612,0.02414133,-0.0188709
 8,-0.00135534,0.17693476,-0.20164680,-0.00425603,0.00019224,-0.0001429
 7,-0.00000721,-0.00002611,0.00000190,0.00006143,0.00003402,0.00002798,
 -0.00002039,-0.00001857,0.00000556,0.00000968,0.00000929,0.00002419,-0
 .00001575,0.00002648,0.00002380,0.00000586,0.00000382,0.00000182,0.000
 00056,0.00001997,-0.00000157,-0.00001153,0.00158433,-0.00084828,-0.000
 22141,-0.00018790,0.00028985,0.00019290,0.00014269,0.00092288,-0.00103
 321,0.00026996,0.00121190,0.00060236,-0.18469484,0.21196834,-0.0002620
 6,0.00018913,-0.00020523,0.00063077,0.00029803,0.00051226,-0.00011212,
 -0.00046986,-0.00022081,-0.00011975,0.00008713,0.00018604,0.00039103,-
 0.00037921,-0.00012619,-0.00017996,-0.00001299,0.00005980,-0.00082753,
 0.00162328,-0.00143890,0.00005379,0.00003983,-0.00001948,-0.00000680,-
 0.00000269,0.00000459,0.00001043,0.00000239,0.00002091,-0.00001902,0.0
 0002744,-0.00002016,-0.00000464,0.00000300,-0.00000047,-0.00000533,-0.
 00001414,-0.00002725,0.00075469,0.00096293,-0.00028387,-0.00446553,0.0
 0380844,-0.00050348,0.00681044,-0.00880714,-0.05908754,-0.00003129,0.0
 0001468,-0.00004403,0.00000829,0.00003524,-0.00005898,0.00003893,-0.00
 002075,-0.00003247,0.00001447,0.00000291,-0.00000713,0.00001358,-0.000
 00433,0.00001313,0.00000278,-0.00000139,0.00000750,0.00000052,-0.00000
 009,0.00000001,0.00000869,-0.00000530,0.00000278,-0.00017244,0.0001724
 1,0.00036255,0.00022074,-0.00023892,0.00005474,0.00003499,-0.00107500,
 0.00026791,-0.00035545,0.00054746,-0.00043277,-0.00307137,0.00530977,0
 .05303396,-0.00310084,-0.00041925,0.00028223,0.00730824,0.00432027,-0.
 00105118,-0.00273004,-0.00384705,0.00093003,0.00062954,0.00087357,-0.0
 0086369,-0.01094097,0.01029107,0.01059556,0.00235251,-0.00149959,-0.00
 685802,0.00555768,-0.00552920,-0.01334789,-0.00057417,-0.00050765,0.00
 012108,0.00011561,0.00018527,-0.00003668,-0.00008009,-0.00000685,-0.00
 033708,0.00025422,-0.00036743,0.00017110,0.00007452,-0.00006394,0.0001
 0440,0.00005037,0.00016407,0.00024894,0.00086810,0.00126311,-0.0003177
 5,-0.00409418,-0.00705786,0.00535598,-0.10867649,-0.00521696,0.0820938
 4,-0.00037648,0.00035537,-0.00010401,0.00050237,-0.00042711,0.00026667
 ,0.00008580,0.00032421,-0.00036474,-0.00001878,-0.00007042,0.00001416,
 -0.00022001,-0.00013024,-0.00003210,-0.00001652,0.00001262,-0.00007109
 ,0.00000095,0.00000015,0.00000949,-0.00011983,0.00008242,0.00002988,-0
 .00067007,0.00024695,0.00022949,-0.00019248,-0.00000676,0.00006028,-0.
 00039058,0.00022629,0.00006034,0.00023375,0.00053418,-0.00041333,-0.01
 148226,-0.00230322,0.02337950,0.10987037,-0.00137091,0.00049677,-0.000
 18244,0.00311156,-0.00415623,0.00020247,-0.00079018,-0.00015337,0.0000
 0773,0.00083153,-0.00022340,-0.00171051,-0.00278754,0.00421585,-0.0019
 3691,0.00210483,-0.00078305,-0.00231849,0.00271401,-0.01184831,0.00067
 734,-0.00009538,-0.00000521,0.00016452,-0.00008734,-0.00004369,-0.0000
 9774,-0.00013018,-0.00002660,0.00009083,0.00002872,-0.00012518,0.00002
 722,0.00004907,0.00001211,0.00003487,-0.00000924,-0.00002273,0.0000536
 6,0.00028469,0.00094941,0.00080564,-0.01343275,-0.00103206,0.02736450,
 -0.01020932,-0.06697403,0.01880700,0.00038854,0.00002202,0.00043111,0.
 00009453,-0.00028684,0.00045573,0.00015783,0.00037024,-0.00033550,-0.0
 0011041,-0.00005174,0.00001995,-0.00013986,-0.00000481,-0.00006897,0.0
 0003313,0.00005150,-0.00001850,0.00001178,0.00000141,0.00000322,0.0000
 1658,0.00003161,-0.00002421,-0.00023995,0.00031943,-0.00020043,0.00011
 671,-0.00016297,-0.00003134,-0.00008821,0.00105099,-0.00021293,-0.0017
 4416,-0.00531717,-0.00020365,0.00967844,0.00364162,-0.02299611,0.00512
 798,0.07913587,0.00082494,0.00263581,-0.00400696,-0.00257403,-0.002470
 09,0.00802636,0.00214355,0.00129656,-0.00340713,-0.00263392,-0.0020793
 8,0.00304714,0.01758623,-0.02157166,-0.01903464,-0.00384914,0.00352244
 ,0.01306584,-0.02366796,0.01113024,0.01397293,0.00108008,0.00173235,-0
 .00033029,-0.00035561,-0.00026333,0.00012690,0.00024687,0.00016717,0.0
 0060642,-0.00040917,0.00069828,-0.00033441,-0.00016738,0.00005669,-0.0
 0028629,-0.00000756,-0.00042579,-0.00049418,-0.00058599,-0.00152631,-0
 .00082381,0.00028931,0.01347945,0.00453448,0.08091156,0.00935489,-0.22
 420030,-0.00062825,0.00070187,0.00016974,-0.00059733,0.00081756,-0.000
 84485,0.00116041,-0.00000272,0.00055929,0.00016429,0.00002881,-0.00010
 683,0.00038058,0.00002900,0.00019439,-0.00008561,-0.00010771,0.0000555
 5,-0.00000114,-0.00000233,-0.00002592,0.00018672,-0.00013749,0.0000024
 0,0.00067829,-0.00045013,-0.00029903,0.00014381,0.00028756,-0.00052978
 ,-0.00067740,-0.00117881,0.00108316,-0.00078625,-0.00426237,0.00093447
 ,-0.00122357,-0.00282482,0.00620913,-0.07619640,-0.00985353,0.21987358
 ,-0.00069333,0.00020602,-0.00042201,0.00140231,0.00050171,0.00030759,-
 0.00046469,-0.00105645,-0.00043940,-0.00024199,-0.00012103,0.00026985,
 0.00070706,-0.00079308,-0.00038404,-0.00014454,0.00020550,0.00035020,-
 0.00232538,-0.00034376,0.00142335,0.00007354,0.00019399,0.00004332,-0.
 00003597,0.00003527,0.00008822,0.00001568,0.00016636,0.00009163,0.0000
 2793,-0.00001681,-0.00006871,-0.00000352,-0.00002462,-0.00003223,0.000
 03971,-0.00013168,-0.00010238,0.00197089,0.00069171,0.00129595,-0.0071
 5992,-0.00499829,-0.00651144,-0.20235475,-0.05351894,-0.16013878,-0.00
 028930,0.00054499,0.00027711,-0.00001372,0.00003246,-0.00009489,0.0000
 8915,0.00002693,0.00007200,0.00000798,-0.00004073,-0.00004312,-0.00001
 473,-0.00007472,0.00004509,-0.00008956,-0.00005586,-0.00002911,0.00000
 037,-0.00000394,-0.00001141,0.00000922,0.00000618,0.00002280,-0.000428
 92,0.00018702,-0.00005068,0.00001505,-0.00017848,-0.00059269,0.0004796
 8,-0.00166587,0.00148916,-0.00022367,0.00043216,0.00016637,-0.01699219
 ,-0.01027287,-0.02274036,0.01577979,0.00648549,0.00865006,0.21085780,0
 .00036449,-0.00007435,0.00079120,-0.00009570,-0.00032364,-0.00129742,-
 0.00026588,0.00029547,0.00052304,0.00011937,0.00020348,-0.00031633,-0.
 00007948,0.00012237,-0.00023214,0.00005412,-0.00007703,0.00021065,-0.0
 0058435,-0.00052737,0.00045334,0.00008778,0.00009431,0.00007457,-0.000
 05489,-0.00004866,-0.00006266,-0.00007843,-0.00000084,0.00010863,-0.00
 003010,-0.00003441,-0.00000355,0.00002079,0.00000641,-0.00000361,-0.00
 001539,-0.00002433,-0.00000279,-0.00067835,0.00142188,-0.00104344,-0.0
 2217609,-0.00777014,-0.02544182,-0.05991510,-0.08358135,-0.07101202,0.
 00042736,-0.00017666,-0.00010949,-0.00002358,-0.00003764,0.00012418,0.
 00002494,0.00004593,-0.00005269,-0.00003261,-0.00002153,0.00000174,-0.
 00001357,0.00000719,-0.00000540,0.00003159,0.00005596,-0.00000567,0.00
 000871,0.00000208,-0.00000136,0.00002828,0.00000576,-0.00001528,0.0000
 8576,0.00030368,0.00059186,0.00117785,-0.00054211,0.00062441,-0.001450
 59,-0.00610600,0.00253000,0.00021969,0.00154583,0.00028162,0.01581605,
 0.00890653,0.02090385,0.00344600,0.00091854,0.00121778,0.06358135,0.08
 541063,0.00039133,0.00006573,0.00031634,-0.00118786,-0.00094740,-0.000
 60379,0.00004734,0.00123930,0.00060036,0.00008172,0.00011141,-0.000319
 14,0.00044078,-0.00011960,-0.00073033,-0.00012260,-0.00010873,0.000385
 93,0.00144360,0.00094621,0.00017773,0.00011639,-0.00006780,0.00002134,
 0.00000491,-0.00003544,-0.00000184,-0.00001337,-0.00000351,0.00009996,
 -0.00005277,0.00005229,-0.00005518,-0.00000959,0.00003463,0.00001497,-
 0.00002723,-0.00003697,-0.00008026,0.00079823,-0.00031461,0.00023325,0
 .00608205,0.00035754,0.00804391,-0.16652629,-0.06640505,-0.24390733,0.
 00037693,-0.00039318,0.00003902,-0.00003754,0.00000301,0.00010213,-0.0
 0004517,-0.00003946,-0.00006275,-0.00003459,0.00002482,0.00000831,0.00
 004197,0.00005220,-0.00000573,0.00001975,0.00000509,0.00005045,0.00000
 258,-0.00000013,-0.00000076,0.00003000,-0.00001281,-0.00001109,-0.0000
 4167,0.00005908,-0.00005401,-0.00027569,-0.00019648,-0.00011929,0.0008
 4348,0.00231615,0.00037408,0.00081409,0.00041529,0.00055082,0.00372968
 ,0.00078416,0.00177344,-0.02395902,-0.00895454,-0.01773737,0.17706856,
 0.07116879,0.25089681\\0.00000336,0.00000281,-0.00000299,0.00000787,0.
 00000229,0.00000352,-0.00000170,-0.00000221,0.00000147,-0.00000310,-0.
 00000119,0.00000309,-0.00000335,0.00000302,0.00000313,0.00000028,0.000
 00014,-0.00000006,0.00000146,0.00000230,-0.00000395,-0.00000203,-0.000
 00371,-0.00000247,0.00000072,-0.00000011,0.00000035,-0.00000092,-0.000
 00043,-0.00000101,-0.00000006,-0.00000078,-0.00000046,-0.00000040,-0.0
 0000007,0.00000025,-0.00000059,0.00000023,-0.00000002,0.00000101,-0.00
 000167,0.00000036,-0.00000122,-0.00000371,-0.00000147,-0.00000055,0.00
 000424,-0.00000449,-0.00000377,0.00000061,-0.00000294,0.00000020,-0.00
 000137,-0.00000027,0.00000003,0.00000043,-0.00000006,-0.00000011,0.000
 00062,-0.00000028,-0.00000090,-0.00000049,0.00000055,0.00000037,0.0000
 0016,0.,-0.00000022,-0.00000014,-0.00000048,0.00000005,0.00000004,-0.0
 0000019,0.00000107,-0.00000069,0.00000024,-0.00000060,-0.00000011,0.00
 000076,-0.00000039,0.00000076,0.,0.00000023,0.00000106,0.00000011,-0.0
 0000017,-0.00000004,0.00000119,0.00000237,-0.00000199,0.00000688,0.000
 00106,0.,-0.00000077\\\@


 The arm of the moral universe is long, but it bends toward justice.
 -- Martin Luther King, Jr.
 Job cpu time:       0 days  1 hours 31 minutes 16.8 seconds.
 File lengths (MBytes):  RWF=    349 Int=      0 D2E=      0 Chk=     10 Scr=      1
 Normal termination of Gaussian 09 at Sat Jul 24 01:55:10 2021.
