 Entering Gaussian System, Link 0=g09
 Input=opt_freq-conf-628.com
 Output=opt_freq-conf-628.log
 Initial command:
 /aerosol/software/g09/l1.exe "/scratch/nicole/10471/Gau-72438.inp" -scrdir="/scratch/nicole/10471/"
 Entering Link 1 = /aerosol/software/g09/l1.exe PID=     72440.
  
 Copyright (c) 1988,1990,1992,1993,1995,1998,2003,2009,2013,
            Gaussian, Inc.  All Rights Reserved.
  
 This is part of the Gaussian(R) 09 program.  It is based on
 the Gaussian(R) 03 system (copyright 2003, Gaussian, Inc.),
 the Gaussian(R) 98 system (copyright 1998, Gaussian, Inc.),
 the Gaussian(R) 94 system (copyright 1995, Gaussian, Inc.),
 the Gaussian 92(TM) system (copyright 1992, Gaussian, Inc.),
 the Gaussian 90(TM) system (copyright 1990, Gaussian, Inc.),
 the Gaussian 88(TM) system (copyright 1988, Gaussian, Inc.),
 the Gaussian 86(TM) system (copyright 1986, Carnegie Mellon
 University), and the Gaussian 82(TM) system (copyright 1983,
 Carnegie Mellon University). Gaussian is a federally registered
 trademark of Gaussian, Inc.
  
 This software contains proprietary and confidential information,
 including trade secrets, belonging to Gaussian, Inc.
  
 This software is provided under written license and may be
 used, copied, transmitted, or stored only in accord with that
 written license.
  
 The following legend is applicable only to US Government
 contracts under FAR:
  
                    RESTRICTED RIGHTS LEGEND
  
 Use, reproduction and disclosure by the US Government is
 subject to restrictions as set forth in subparagraphs (a)
 and (c) of the Commercial Computer Software - Restricted
 Rights clause in FAR 52.227-19.
  
 Gaussian, Inc.
 340 Quinnipiac St., Bldg. 40, Wallingford CT 06492
  
  
 ---------------------------------------------------------------
 Warning -- This program may not be used in any manner that
 competes with the business of Gaussian, Inc. or will provide
 assistance to any competitor of Gaussian, Inc.  The licensee
 of this program is prohibited from giving any competitor of
 Gaussian, Inc. access to this program.  By using this program,
 the user acknowledges that Gaussian, Inc. is engaged in the
 business of creating and licensing software in the field of
 computational chemistry and represents and warrants to the
 licensee that it is not a competitor of Gaussian, Inc. and that
 it will not use this program in any manner prohibited above.
 ---------------------------------------------------------------
  

 Cite this work as:
 Gaussian 09, Revision D.01,
 M. J. Frisch, G. W. Trucks, H. B. Schlegel, G. E. Scuseria, 
 M. A. Robb, J. R. Cheeseman, G. Scalmani, V. Barone, B. Mennucci, 
 G. A. Petersson, H. Nakatsuji, M. Caricato, X. Li, H. P. Hratchian, 
 A. F. Izmaylov, J. Bloino, G. Zheng, J. L. Sonnenberg, M. Hada, 
 M. Ehara, K. Toyota, R. Fukuda, J. Hasegawa, M. Ishida, T. Nakajima, 
 Y. Honda, O. Kitao, H. Nakai, T. Vreven, J. A. Montgomery, Jr., 
 J. E. Peralta, F. Ogliaro, M. Bearpark, J. J. Heyd, E. Brothers, 
 K. N. Kudin, V. N. Staroverov, T. Keith, R. Kobayashi, J. Normand, 
 K. Raghavachari, A. Rendell, J. C. Burant, S. S. Iyengar, J. Tomasi, 
 M. Cossi, N. Rega, J. M. Millam, M. Klene, J. E. Knox, J. B. Cross, 
 V. Bakken, C. Adamo, J. Jaramillo, R. Gomperts, R. E. Stratmann, 
 O. Yazyev, A. J. Austin, R. Cammi, C. Pomelli, J. W. Ochterski, 
 R. L. Martin, K. Morokuma, V. G. Zakrzewski, G. A. Voth, 
 P. Salvador, J. J. Dannenberg, S. Dapprich, A. D. Daniels, 
 O. Farkas, J. B. Foresman, J. V. Ortiz, J. Cioslowski, 
 and D. J. Fox, Gaussian, Inc., Wallingford CT, 2013.
 
 ******************************************
 Gaussian 09:  ES64L-G09RevD.01 24-Apr-2013
                24-Jul-2021 
 ******************************************
 %mem=2gb
 %nproc=4
 Will use up to    4 processors via shared memory.
 %chk=conf-628.chk
 ----------------------------------------------------------------------
 # B3LYP/6-31G(d,p) EmpiricalDispersion=GD3BJ opt=calcfc freq=noraman n
 osymm integral(ultrafinegrid)
 ----------------------------------------------------------------------
 1/10=4,14=-1,18=20,19=15,26=4,38=1/1,3;
 2/9=110,12=2,15=1,17=6,18=5,40=1/2;
 3/5=1,6=6,7=101,11=2,16=1,25=1,30=1,71=2,74=-5,75=-5,124=41,140=1/1,2,3;
 4//1;
 5/5=2,38=5/2;
 8/6=4,10=90,11=11/1;
 11/6=1,8=1,9=11,15=111,16=1,31=1/1,2,10;
 10/6=1,13=1,31=1/2;
 6/7=2,8=2,9=2,10=2,28=1/1;
 7/10=1,18=20,25=1,30=1/1,2,3,16;
 1/10=4,14=-1,18=20,19=15,26=4/3(2);
 2/9=110,15=1/2;
 99//99;
 2/9=110,15=1/2;
 3/5=1,6=6,7=101,11=2,16=1,25=1,30=1,71=1,74=-5,75=-5,124=41/1,2,3;
 4/5=5,16=3,69=1/1;
 5/5=2,38=5/2;
 7/30=1/1,2,3,16;
 1/14=-1,18=20,19=15,26=4/3(-5);
 2/9=110,15=1/2;
 6/7=2,8=2,9=2,10=2,19=2,28=1/1;
 99/9=1/99;
 ------------------------------------------------------------
 Candidate Structure: Conf:628 OPT and FREQ calc in gas phase
 ------------------------------------------------------------
 Symbolic Z-matrix:
 Charge =  1 Multiplicity = 1
 O                    -1.23346   0.12207  -0.84287 
 C                    -1.46356  -0.06705   0.34931 
 N                    -0.46101  -0.24379   1.22995 
 C                     0.90694  -0.33709   0.75078 
 C                     1.71594  -0.95986   1.86883 
 O                     3.00756  -1.162     1.5238 
 O                     1.28005  -1.2415    2.95329 
 C                     1.44827   1.05177   0.32468 
 C                     2.3268    0.99156  -0.87917 
 C                     2.2344    1.60899  -2.09359 
 N                     3.28424   1.23058  -2.91301 
 C                     3.98976   0.38949  -2.19678 
 N                     3.44646   0.20531  -0.96361 
 C                    -2.87106  -0.07869   0.92827 
 C                    -3.8502   -0.83512   0.0418 
 N                    -3.94724  -0.19776  -1.29196 
 H                    -0.63042  -0.51316   2.1862 
 H                     0.91497  -1.01819  -0.10778 
 H                     3.43321  -1.56793   2.29421 
 H                     0.60119   1.68663   0.07355 
 H                     1.95518   1.52679   1.16546 
 H                     1.47839   2.30342  -2.43091 
 H                     4.89002  -0.11398  -2.50001 
 H                     3.77118  -0.40044  -0.22689 
 H                    -2.85146  -0.51082   1.9302 
 H                    -3.19337   0.96164   1.02586 
 H                    -3.51778  -1.86885  -0.07297 
 H                    -4.83409  -0.86052   0.51303 
 H                    -4.44019   0.69304  -1.23969 
 H                    -2.9845    0.00017  -1.59919 
 H                    -4.40624  -0.79443  -1.97939 
 

 GradGradGradGradGradGradGradGradGradGradGradGradGradGradGradGradGradGrad
 Berny optimization.
 Initialization pass.
                           ----------------------------
                           !    Initial Parameters    !
                           ! (Angstroms and Degrees)  !
 --------------------------                            --------------------------
 ! Name  Definition              Value          Derivative Info.                !
 --------------------------------------------------------------------------------
 ! R1    R(1,2)                  1.2288         calculate D2E/DX2 analytically  !
 ! R2    R(2,3)                  1.3461         calculate D2E/DX2 analytically  !
 ! R3    R(2,14)                 1.522          calculate D2E/DX2 analytically  !
 ! R4    R(3,4)                  1.4524         calculate D2E/DX2 analytically  !
 ! R5    R(3,17)                 1.0078         calculate D2E/DX2 analytically  !
 ! R6    R(4,5)                  1.514          calculate D2E/DX2 analytically  !
 ! R7    R(4,8)                  1.5503         calculate D2E/DX2 analytically  !
 ! R8    R(4,18)                 1.0959         calculate D2E/DX2 analytically  !
 ! R9    R(5,6)                  1.3521         calculate D2E/DX2 analytically  !
 ! R10   R(5,7)                  1.2022         calculate D2E/DX2 analytically  !
 ! R11   R(6,19)                 0.9693         calculate D2E/DX2 analytically  !
 ! R12   R(8,9)                  1.4915         calculate D2E/DX2 analytically  !
 ! R13   R(8,20)                 1.088          calculate D2E/DX2 analytically  !
 ! R14   R(8,21)                 1.0906         calculate D2E/DX2 analytically  !
 ! R15   R(9,10)                 1.3655         calculate D2E/DX2 analytically  !
 ! R16   R(9,13)                 1.3708         calculate D2E/DX2 analytically  !
 ! R17   R(10,11)                1.3845         calculate D2E/DX2 analytically  !
 ! R18   R(10,22)                1.0805         calculate D2E/DX2 analytically  !
 ! R19   R(11,12)                1.3108         calculate D2E/DX2 analytically  !
 ! R20   R(12,13)                1.3601         calculate D2E/DX2 analytically  !
 ! R21   R(12,23)                1.0751         calculate D2E/DX2 analytically  !
 ! R22   R(13,24)                1.0075         calculate D2E/DX2 analytically  !
 ! R23   R(14,15)                1.5221         calculate D2E/DX2 analytically  !
 ! R24   R(14,25)                1.0913         calculate D2E/DX2 analytically  !
 ! R25   R(14,26)                1.0935         calculate D2E/DX2 analytically  !
 ! R26   R(15,16)                1.4814         calculate D2E/DX2 analytically  !
 ! R27   R(15,27)                1.0919         calculate D2E/DX2 analytically  !
 ! R28   R(15,28)                1.0912         calculate D2E/DX2 analytically  !
 ! R29   R(16,29)                1.0194         calculate D2E/DX2 analytically  !
 ! R30   R(16,30)                1.0298         calculate D2E/DX2 analytically  !
 ! R31   R(16,31)                1.0194         calculate D2E/DX2 analytically  !
 ! A1    A(1,2,3)              121.0287         calculate D2E/DX2 analytically  !
 ! A2    A(1,2,14)             122.9159         calculate D2E/DX2 analytically  !
 ! A3    A(3,2,14)             116.0343         calculate D2E/DX2 analytically  !
 ! A4    A(2,3,4)              119.6091         calculate D2E/DX2 analytically  !
 ! A5    A(2,3,17)             122.0502         calculate D2E/DX2 analytically  !
 ! A6    A(4,3,17)             117.0118         calculate D2E/DX2 analytically  !
 ! A7    A(3,4,5)              106.6215         calculate D2E/DX2 analytically  !
 ! A8    A(3,4,8)              111.2221         calculate D2E/DX2 analytically  !
 ! A9    A(3,4,18)             107.7743         calculate D2E/DX2 analytically  !
 ! A10   A(5,4,8)              112.6361         calculate D2E/DX2 analytically  !
 ! A11   A(5,4,18)             108.6            calculate D2E/DX2 analytically  !
 ! A12   A(8,4,18)             109.8079         calculate D2E/DX2 analytically  !
 ! A13   A(4,5,6)              112.5496         calculate D2E/DX2 analytically  !
 ! A14   A(4,5,7)              124.6622         calculate D2E/DX2 analytically  !
 ! A15   A(6,5,7)              122.786          calculate D2E/DX2 analytically  !
 ! A16   A(5,6,19)             106.2178         calculate D2E/DX2 analytically  !
 ! A17   A(4,8,9)              113.0376         calculate D2E/DX2 analytically  !
 ! A18   A(4,8,20)             108.3203         calculate D2E/DX2 analytically  !
 ! A19   A(4,8,21)             109.9119         calculate D2E/DX2 analytically  !
 ! A20   A(9,8,20)             107.2092         calculate D2E/DX2 analytically  !
 ! A21   A(9,8,21)             111.4708         calculate D2E/DX2 analytically  !
 ! A22   A(20,8,21)            106.5992         calculate D2E/DX2 analytically  !
 ! A23   A(8,9,10)             131.2776         calculate D2E/DX2 analytically  !
 ! A24   A(8,9,13)             123.6415         calculate D2E/DX2 analytically  !
 ! A25   A(10,9,13)            105.0607         calculate D2E/DX2 analytically  !
 ! A26   A(9,10,11)            110.5777         calculate D2E/DX2 analytically  !
 ! A27   A(9,10,22)            127.9938         calculate D2E/DX2 analytically  !
 ! A28   A(11,10,22)           121.4286         calculate D2E/DX2 analytically  !
 ! A29   A(10,11,12)           105.0775         calculate D2E/DX2 analytically  !
 ! A30   A(11,12,13)           111.5502         calculate D2E/DX2 analytically  !
 ! A31   A(11,12,23)           126.6602         calculate D2E/DX2 analytically  !
 ! A32   A(13,12,23)           121.7894         calculate D2E/DX2 analytically  !
 ! A33   A(9,13,12)            107.7261         calculate D2E/DX2 analytically  !
 ! A34   A(9,13,24)            124.2674         calculate D2E/DX2 analytically  !
 ! A35   A(12,13,24)           128.0001         calculate D2E/DX2 analytically  !
 ! A36   A(2,14,15)            112.158          calculate D2E/DX2 analytically  !
 ! A37   A(2,14,25)            109.6131         calculate D2E/DX2 analytically  !
 ! A38   A(2,14,26)            107.4131         calculate D2E/DX2 analytically  !
 ! A39   A(15,14,25)           110.4549         calculate D2E/DX2 analytically  !
 ! A40   A(15,14,26)           109.5831         calculate D2E/DX2 analytically  !
 ! A41   A(25,14,26)           107.4625         calculate D2E/DX2 analytically  !
 ! A42   A(14,15,16)           110.6517         calculate D2E/DX2 analytically  !
 ! A43   A(14,15,27)           109.625          calculate D2E/DX2 analytically  !
 ! A44   A(14,15,28)           109.8824         calculate D2E/DX2 analytically  !
 ! A45   A(16,15,27)           109.4274         calculate D2E/DX2 analytically  !
 ! A46   A(16,15,28)           109.862          calculate D2E/DX2 analytically  !
 ! A47   A(27,15,28)           107.3284         calculate D2E/DX2 analytically  !
 ! A48   A(15,16,29)           111.1897         calculate D2E/DX2 analytically  !
 ! A49   A(15,16,30)           106.8621         calculate D2E/DX2 analytically  !
 ! A50   A(15,16,31)           112.6314         calculate D2E/DX2 analytically  !
 ! A51   A(29,16,30)           107.4223         calculate D2E/DX2 analytically  !
 ! A52   A(29,16,31)           109.1651         calculate D2E/DX2 analytically  !
 ! A53   A(30,16,31)           109.4057         calculate D2E/DX2 analytically  !
 ! D1    D(1,2,3,4)             -5.7833         calculate D2E/DX2 analytically  !
 ! D2    D(1,2,3,17)          -172.2233         calculate D2E/DX2 analytically  !
 ! D3    D(14,2,3,4)           175.8395         calculate D2E/DX2 analytically  !
 ! D4    D(14,2,3,17)            9.3995         calculate D2E/DX2 analytically  !
 ! D5    D(1,2,14,15)           42.5179         calculate D2E/DX2 analytically  !
 ! D6    D(1,2,14,25)          165.59           calculate D2E/DX2 analytically  !
 ! D7    D(1,2,14,26)          -77.9467         calculate D2E/DX2 analytically  !
 ! D8    D(3,2,14,15)         -139.1387         calculate D2E/DX2 analytically  !
 ! D9    D(3,2,14,25)          -16.0665         calculate D2E/DX2 analytically  !
 ! D10   D(3,2,14,26)          100.3967         calculate D2E/DX2 analytically  !
 ! D11   D(2,3,4,5)           -162.3258         calculate D2E/DX2 analytically  !
 ! D12   D(2,3,4,8)             74.5263         calculate D2E/DX2 analytically  !
 ! D13   D(2,3,4,18)           -45.8863         calculate D2E/DX2 analytically  !
 ! D14   D(17,3,4,5)             4.7854         calculate D2E/DX2 analytically  !
 ! D15   D(17,3,4,8)          -118.3625         calculate D2E/DX2 analytically  !
 ! D16   D(17,3,4,18)          121.2248         calculate D2E/DX2 analytically  !
 ! D17   D(3,4,5,6)            177.0537         calculate D2E/DX2 analytically  !
 ! D18   D(3,4,5,7)             -3.4817         calculate D2E/DX2 analytically  !
 ! D19   D(8,4,5,6)            -60.685          calculate D2E/DX2 analytically  !
 ! D20   D(8,4,5,7)            118.7796         calculate D2E/DX2 analytically  !
 ! D21   D(18,4,5,6)            61.1665         calculate D2E/DX2 analytically  !
 ! D22   D(18,4,5,7)          -119.3689         calculate D2E/DX2 analytically  !
 ! D23   D(3,4,8,9)           -142.6518         calculate D2E/DX2 analytically  !
 ! D24   D(3,4,8,20)           -24.0009         calculate D2E/DX2 analytically  !
 ! D25   D(3,4,8,21)            92.103          calculate D2E/DX2 analytically  !
 ! D26   D(5,4,8,9)             97.7181         calculate D2E/DX2 analytically  !
 ! D27   D(5,4,8,20)          -143.631          calculate D2E/DX2 analytically  !
 ! D28   D(5,4,8,21)           -27.5271         calculate D2E/DX2 analytically  !
 ! D29   D(18,4,8,9)           -23.4471         calculate D2E/DX2 analytically  !
 ! D30   D(18,4,8,20)           95.2039         calculate D2E/DX2 analytically  !
 ! D31   D(18,4,8,21)         -148.6922         calculate D2E/DX2 analytically  !
 ! D32   D(4,5,6,19)          -179.4098         calculate D2E/DX2 analytically  !
 ! D33   D(7,5,6,19)             1.114          calculate D2E/DX2 analytically  !
 ! D34   D(4,8,9,10)           122.1202         calculate D2E/DX2 analytically  !
 ! D35   D(4,8,9,13)           -55.9913         calculate D2E/DX2 analytically  !
 ! D36   D(20,8,9,10)            2.8264         calculate D2E/DX2 analytically  !
 ! D37   D(20,8,9,13)         -175.2851         calculate D2E/DX2 analytically  !
 ! D38   D(21,8,9,10)         -113.4811         calculate D2E/DX2 analytically  !
 ! D39   D(21,8,9,13)           68.4074         calculate D2E/DX2 analytically  !
 ! D40   D(8,9,10,11)         -179.1727         calculate D2E/DX2 analytically  !
 ! D41   D(8,9,10,22)            0.8717         calculate D2E/DX2 analytically  !
 ! D42   D(13,9,10,11)          -0.8008         calculate D2E/DX2 analytically  !
 ! D43   D(13,9,10,22)         179.2437         calculate D2E/DX2 analytically  !
 ! D44   D(8,9,13,12)          179.4127         calculate D2E/DX2 analytically  !
 ! D45   D(8,9,13,24)            0.2674         calculate D2E/DX2 analytically  !
 ! D46   D(10,9,13,12)           0.8823         calculate D2E/DX2 analytically  !
 ! D47   D(10,9,13,24)        -178.263          calculate D2E/DX2 analytically  !
 ! D48   D(9,10,11,12)           0.4004         calculate D2E/DX2 analytically  !
 ! D49   D(22,10,11,12)       -179.6406         calculate D2E/DX2 analytically  !
 ! D50   D(10,11,12,13)          0.1804         calculate D2E/DX2 analytically  !
 ! D51   D(10,11,12,23)       -179.6957         calculate D2E/DX2 analytically  !
 ! D52   D(11,12,13,9)          -0.6868         calculate D2E/DX2 analytically  !
 ! D53   D(11,12,13,24)        178.4169         calculate D2E/DX2 analytically  !
 ! D54   D(23,12,13,9)         179.1963         calculate D2E/DX2 analytically  !
 ! D55   D(23,12,13,24)         -1.7            calculate D2E/DX2 analytically  !
 ! D56   D(2,14,15,16)         -61.1453         calculate D2E/DX2 analytically  !
 ! D57   D(2,14,15,27)          59.6366         calculate D2E/DX2 analytically  !
 ! D58   D(2,14,15,28)         177.3607         calculate D2E/DX2 analytically  !
 ! D59   D(25,14,15,16)        176.2583         calculate D2E/DX2 analytically  !
 ! D60   D(25,14,15,27)        -62.9598         calculate D2E/DX2 analytically  !
 ! D61   D(25,14,15,28)         54.7643         calculate D2E/DX2 analytically  !
 ! D62   D(26,14,15,16)         58.0532         calculate D2E/DX2 analytically  !
 ! D63   D(26,14,15,27)        178.835          calculate D2E/DX2 analytically  !
 ! D64   D(26,14,15,28)        -63.4408         calculate D2E/DX2 analytically  !
 ! D65   D(14,15,16,29)        -71.244          calculate D2E/DX2 analytically  !
 ! D66   D(14,15,16,30)         45.6958         calculate D2E/DX2 analytically  !
 ! D67   D(14,15,16,31)        165.8619         calculate D2E/DX2 analytically  !
 ! D68   D(27,15,16,29)        167.8569         calculate D2E/DX2 analytically  !
 ! D69   D(27,15,16,30)        -75.2034         calculate D2E/DX2 analytically  !
 ! D70   D(27,15,16,31)         44.9627         calculate D2E/DX2 analytically  !
 ! D71   D(28,15,16,29)         50.2621         calculate D2E/DX2 analytically  !
 ! D72   D(28,15,16,30)        167.2018         calculate D2E/DX2 analytically  !
 ! D73   D(28,15,16,31)        -72.632          calculate D2E/DX2 analytically  !
 --------------------------------------------------------------------------------
 Trust Radius=3.00D-01 FncErr=1.00D-07 GrdErr=1.00D-06
 Number of steps in this run=    167 maximum allowed number of steps=    186.
 GradGradGradGradGradGradGradGradGradGradGradGradGradGradGradGradGradGrad

                          Input orientation:                          
 ---------------------------------------------------------------------
 Center     Atomic      Atomic             Coordinates (Angstroms)
 Number     Number       Type             X           Y           Z
 ---------------------------------------------------------------------
      1          8           0       -1.233463    0.122074   -0.842866
      2          6           0       -1.463560   -0.067049    0.349309
      3          7           0       -0.461006   -0.243787    1.229948
      4          6           0        0.906943   -0.337087    0.750784
      5          6           0        1.715938   -0.959856    1.868830
      6          8           0        3.007560   -1.161999    1.523802
      7          8           0        1.280047   -1.241497    2.953289
      8          6           0        1.448272    1.051775    0.324677
      9          6           0        2.326805    0.991563   -0.879167
     10          6           0        2.234402    1.608991   -2.093590
     11          7           0        3.284242    1.230580   -2.913009
     12          6           0        3.989758    0.389487   -2.196781
     13          7           0        3.446464    0.205306   -0.963613
     14          6           0       -2.871056   -0.078694    0.928273
     15          6           0       -3.850202   -0.835119    0.041802
     16          7           0       -3.947238   -0.197765   -1.291964
     17          1           0       -0.630415   -0.513162    2.186204
     18          1           0        0.914972   -1.018186   -0.107783
     19          1           0        3.433214   -1.567928    2.294215
     20          1           0        0.601188    1.686628    0.073553
     21          1           0        1.955185    1.526786    1.165459
     22          1           0        1.478392    2.303420   -2.430909
     23          1           0        4.890020   -0.113984   -2.500014
     24          1           0        3.771180   -0.400440   -0.226888
     25          1           0       -2.851456   -0.510823    1.930199
     26          1           0       -3.193370    0.961642    1.025863
     27          1           0       -3.517783   -1.868848   -0.072974
     28          1           0       -4.834088   -0.860524    0.513026
     29          1           0       -4.440189    0.693039   -1.239695
     30          1           0       -2.984500    0.000168   -1.599192
     31          1           0       -4.406235   -0.794427   -1.979392
 ---------------------------------------------------------------------
                    Distance matrix (angstroms):
                    1          2          3          4          5
     1  O    0.000000
     2  C    1.228818   0.000000
     3  N    2.242121   1.346060   0.000000
     4  C    2.707746   2.419378   1.452442   0.000000
     5  C    4.150040   3.635280   2.379077   1.514048   0.000000
     6  O    5.023568   4.750712   3.600057   2.385504   1.352107
     7  O    4.752668   3.960736   2.645108   2.410020   1.202238
     8  C    3.069071   3.119477   2.478576   1.550336   2.550041
     9  C    3.665083   4.122703   3.707606   2.537333   3.425300
    10  C    3.975087   4.738332   4.663038   3.693214   4.750637
    11  N    5.091555   5.904929   5.776221   4.640313   5.488494
    12  C    5.402465   6.035700   5.652681   4.326638   4.849760
    13  N    4.682224   5.089821   4.503523   3.111674   3.517819
    14  C    2.420527   1.521965   2.434462   3.790982   4.764620
    15  C    2.923385   2.525975   3.639782   4.835403   5.859651
    16  N    2.769217   2.979852   4.303019   5.268330   6.530158
    17  H    3.153167   2.065752   1.007813   2.110665   2.409489
    18  H    2.540927   2.602117   2.069428   1.095946   2.133529
    19  H    5.871563   5.478476   4.248642   3.206118   1.870759
    20  H    2.579457   2.722978   2.488375   2.155818   3.386674
    21  H    4.021699   3.859304   2.996175   2.178253   2.595256
    22  H    3.825481   4.690822   4.863271   4.173967   5.403068
    23  H    6.348141   6.963392   6.524028   5.146102   5.465994
    24  H    5.069408   5.276898   4.478650   3.027161   2.988143
    25  H    3.272362   2.149978   2.505177   3.942939   4.589824
    26  H    2.835183   2.123245   2.993413   4.309864   5.338918
    27  H    3.126439   2.764893   3.698961   4.754268   5.655855
    28  H    3.970950   3.466535   4.474169   5.769745   6.689612
    29  H    3.281245   3.458754   4.776053   5.797843   7.091748
    30  H    1.911288   2.472737   3.798891   4.558449   5.919708
    31  H    3.492585   3.822468   5.115457   5.991067   7.233062
                    6          7          8          9         10
     6  O    0.000000
     7  O    2.243669   0.000000
     8  C    2.961431   3.492421   0.000000
     9  C    3.297805   4.557410   1.491538   0.000000
    10  C    4.621871   5.874272   2.603172   1.365496   0.000000
    11  N    5.048394   6.673936   3.726307   2.260603   1.384487
    12  C    4.149044   6.043663   3.640814   2.205451   2.139886
    13  N    2.872176   4.704118   2.523682   1.370754   2.171699
    14  C    6.007190   4.762821   4.505428   5.606250   6.168115
    15  C    7.023680   5.912813   5.631537   6.506947   6.896085
    16  N    7.564886   6.814401   5.769437   6.399102   6.489965
    17  H    3.754281   2.183749   3.199258   4.517283   5.570220
    18  H    2.657382   3.090843   2.180863   2.574372   3.547730
    19  H    0.969276   2.275316   3.831699   4.224392   5.548225
    20  H    4.001065   4.162649   1.087958   2.090106   2.714761
    21  H    2.909548   3.363858   1.090647   2.145941   3.272021
    22  H    5.476059   6.449447   3.026677   2.201971   1.080540
    23  H    4.564328   6.636392   4.602554   3.227917   3.191572
    24  H    2.056211   4.126336   2.794468   2.109350   3.143895
    25  H    5.909082   4.318555   4.848409   6.079809   6.822789
    26  H    6.573380   5.346051   4.695170   5.839723   6.293708
    27  H    6.754955   5.707102   5.774934   6.556760   7.018966
    28  H    7.912269   6.594140   6.569658   7.526407   7.928209
    29  H    8.157637   7.351507   6.103271   6.783163   6.791044
    30  H    6.856275   6.360282   4.945362   5.450803   5.483582
    31  H    8.208035   7.540890   6.556862   7.052239   7.063110
                   11         12         13         14         15
    11  N    0.000000
    12  C    1.310791   0.000000
    13  N    2.208539   1.360071   0.000000
    14  C    7.372743   7.553537   6.600829   0.000000
    15  C    7.993642   8.244749   7.438728   1.522083   0.000000
    16  N    7.547334   8.009960   7.411957   2.470182   1.481407
    17  H    6.660867   6.432055   5.201778   2.606074   3.881899
    18  H    4.305773   3.974891   2.939018   4.036095   4.771035
    19  H    5.913461   4.930543   3.709175   6.620229   7.658885
    20  H    4.040583   4.280117   3.371294   3.987905   5.116160
    21  H    4.299771   4.091160   2.916020   5.091800   6.367395
    22  H    2.155110   3.166214   3.229295   5.989680   6.660228
    23  H    2.134699   1.075130   2.132212   8.484615   9.130846
    24  H    3.180028   2.133598   1.007538   6.749608   7.638495
    25  H    8.008491   8.040194   6.967839   1.091319   2.160719
    26  H    7.585940   7.893676   6.972622   1.093485   2.151315
    27  H    7.996236   8.122425   7.320934   2.150675   1.091912
    28  H    9.056363   9.314818   8.478443   2.153412   1.091205
    29  H    7.921853   8.489532   7.906541   2.785289   2.079804
    30  H    6.522051   7.010631   6.465550   2.531239   2.034701
    31  H    8.007230   8.481840   7.980987   3.365050   2.096677
                   16         17         18         19         20
    16  N    0.000000
    17  H    4.816476   0.000000
    18  H    5.071140   2.811699   0.000000
    19  H    8.319200   4.199676   3.523259   0.000000
    20  H    5.109184   3.289258   2.728985   4.852200   0.000000
    21  H    6.622054   3.447990   3.029863   3.610528   1.746744
    22  H    6.081988   5.804992   4.092361   6.413693   2.724381
    23  H    8.919839   7.252254   4.726664   5.217362   5.315969
    24  H    7.794192   5.020932   2.924674   2.798787   3.807225
    25  H    3.417760   2.235747   4.312397   6.383341   4.494071
    26  H    2.699049   3.176503   4.699292   7.205488   3.978840
    27  H    2.112555   3.908793   4.513774   7.349183   5.443235
    28  H    2.117485   4.537736   5.784631   8.486539   6.018584
    29  H    1.019443   5.263656   5.734742   8.921377   5.303520
    30  H    1.029773   4.487142   4.297351   7.668415   4.301091
    31  H    1.019432   5.629220   5.645196   8.962086   5.953529
                   21         22         23         24         25
    21  H    0.000000
    22  H    3.710034   0.000000
    23  H    4.974040   4.181844   0.000000
    24  H    2.991767   4.174379   2.549698   0.000000
    25  H    5.276407   6.759202   8.928309   6.965953   0.000000
    26  H    5.181360   5.964478   8.884254   7.206220   1.761501
    27  H    6.558767   6.923109   8.925313   7.436994   2.510164
    28  H    7.226282   7.650144  10.207546   8.649265   2.462012
    29  H    6.883364   6.248353   9.449470   8.345540   3.744541
    30  H    5.862964   5.090592   7.926700   6.905281   3.568672
    31  H    7.466310   6.665535   9.335652   8.372372   4.216951
                   26         27         28         29         30
    26  H    0.000000
    27  H    3.053582   0.000000
    28  H    2.505045   1.758628   0.000000
    29  H    2.599896   2.962319   2.375024   0.000000
    30  H    2.803386   2.471225   2.936534   1.651768   0.000000
    31  H    3.685971   2.361813   2.529738   1.661583   1.672503
                   31
    31  H    0.000000
 Symmetry turned off by external request.
 Stoichiometry    C9H15N4O3(1+)
 Framework group  C1[X(C9H15N4O3)]
 Deg. of freedom    87
 Full point group                 C1      NOp   1
 Rotational constants (GHZ):      0.7088180      0.3127596      0.2291588
 Standard basis: 6-31G(d,p) (6D, 7F)
   315 basis functions,   553 primitive gaussians,   315 cartesian basis functions
    60 alpha electrons       60 beta electrons
       nuclear repulsion energy      1138.6918025008 Hartrees.
 NAtoms=   31 NActive=   31 NUniq=   31 SFac= 1.00D+00 NAtFMM=   60 NAOKFM=F Big=F
 Integral buffers will be    131072 words long.
 Raffenetti 2 integral format.
 Two-electron integral symmetry is turned off.
 Nuclear repulsion after empirical dispersion term =     1138.6360523558 Hartrees.
 One-electron integrals computed using PRISM.
 NBasis=   315 RedAO= T EigKep=  1.20D-03  NBF=   315
 NBsUse=   315 1.00D-06 EigRej= -1.00D+00 NBFU=   315
 ExpMin= 1.61D-01 ExpMax= 5.48D+03 ExpMxC= 8.25D+02 IAcc=3 IRadAn=         5 AccDes= 0.00D+00
 Harris functional with IExCor=  402 and IRadAn=       5 diagonalized for initial guess.
 HarFok:  IExCor=  402 AccDes= 0.00D+00 IRadAn=         5 IDoV= 1 UseB2=F ITyADJ=14
 ICtDFT=  3500011 ScaDFX=  1.000000  1.000000  1.000000  1.000000
 FoFCou: FMM=F IPFlag=           0 FMFlag=      100000 FMFlg1=           0
         NFxFlg=           0 DoJE=T BraDBF=F KetDBF=T FulRan=T
         wScrn=  0.000000 ICntrl=     500 IOpCl=  0 I1Cent=   200000004 NGrid=           0
         NMat0=    1 NMatS0=      1 NMatT0=    0 NMatD0=    1 NMtDS0=    0 NMtDT0=    0
 Symmetry not used in FoFCou.
 Requested convergence on RMS density matrix=1.00D-08 within 128 cycles.
 Requested convergence on MAX density matrix=1.00D-06.
 Requested convergence on             energy=1.00D-06.
 No special actions if energy rises.
 Integral accuracy reduced to 1.0D-05 until final iterations.
 Initial convergence to 1.0D-05 achieved.  Increase integral accuracy.
 SCF Done:  E(RB3LYP) =  -796.550894419     A.U. after   14 cycles
            NFock= 14  Conv=0.54D-08     -V/T= 2.0089
 DoSCS=F DFT=T ScalE2(SS,OS)=  1.000000  1.000000
 Range of M.O.s used for correlation:     1   315
 NBasis=   315 NAE=    60 NBE=    60 NFC=     0 NFV=     0
 NROrb=    315 NOA=    60 NOB=    60 NVA=   255 NVB=   255
 Symmetrizing basis deriv contribution to polar:
 IMax=3 JMax=2 DiffMx= 0.00D+00
 G2DrvN: will do    32 centers at a time, making    1 passes.
 Calling FoFCou, ICntrl=  3107 FMM=F I1Cent=   0 AccDes= 0.00D+00.
 End of G2Drv F.D. properties file   721 does not exist.
 End of G2Drv F.D. properties file   722 does not exist.
 End of G2Drv F.D. properties file   788 does not exist.
          IDoAtm=1111111111111111111111111111111
          Differentiating once with respect to nuclear coordinates.
          There are    96 degrees of freedom in the 1st order CPHF.  IDoFFX=6 NUNeed=     0.
     90 vectors produced by pass  0 Test12= 1.59D-14 1.04D-09 XBig12= 1.48D-01 8.55D-02.
 AX will form    90 AO Fock derivatives at one time.
     90 vectors produced by pass  1 Test12= 1.59D-14 1.04D-09 XBig12= 2.15D-02 4.72D-02.
     90 vectors produced by pass  2 Test12= 1.59D-14 1.04D-09 XBig12= 1.72D-04 2.55D-03.
     90 vectors produced by pass  3 Test12= 1.59D-14 1.04D-09 XBig12= 5.89D-07 1.02D-04.
     90 vectors produced by pass  4 Test12= 1.59D-14 1.04D-09 XBig12= 9.72D-10 4.08D-06.
     71 vectors produced by pass  5 Test12= 1.59D-14 1.04D-09 XBig12= 8.08D-13 1.11D-07.
     14 vectors produced by pass  6 Test12= 1.59D-14 1.04D-09 XBig12= 7.26D-16 2.48D-09.
 InvSVY:  IOpt=1 It=  1 EMax= 7.22D-16
 Solved reduced A of dimension   535 with    96 vectors.
 End of Minotr F.D. properties file   721 does not exist.
 End of Minotr F.D. properties file   722 does not exist.
 End of Minotr F.D. properties file   788 does not exist.

 **********************************************************************

            Population analysis using the SCF density.

 **********************************************************************

 Alpha  occ. eigenvalues --  -19.32985 -19.28099 -19.27568 -14.64101 -14.50845
 Alpha  occ. eigenvalues --  -14.45756 -14.37752 -10.45413 -10.44832 -10.43353
 Alpha  occ. eigenvalues --  -10.37744 -10.36971 -10.30990 -10.30537 -10.29355
 Alpha  occ. eigenvalues --  -10.26682  -1.24272  -1.20826  -1.18968  -1.15511
 Alpha  occ. eigenvalues --   -1.08672  -1.07642  -0.97121  -0.94100  -0.91400
 Alpha  occ. eigenvalues --   -0.85540  -0.83399  -0.77979  -0.77762  -0.77281
 Alpha  occ. eigenvalues --   -0.74974  -0.72436  -0.69404  -0.68683  -0.66908
 Alpha  occ. eigenvalues --   -0.66208  -0.63925  -0.62059  -0.61403  -0.61185
 Alpha  occ. eigenvalues --   -0.59934  -0.58735  -0.57862  -0.56642  -0.55593
 Alpha  occ. eigenvalues --   -0.54804  -0.53983  -0.51728  -0.50692  -0.49492
 Alpha  occ. eigenvalues --   -0.48656  -0.48441  -0.47480  -0.45316  -0.42354
 Alpha  occ. eigenvalues --   -0.41016  -0.40849  -0.34792  -0.33133  -0.29850
 Alpha virt. eigenvalues --   -0.14669  -0.13200  -0.11931  -0.08900  -0.06356
 Alpha virt. eigenvalues --   -0.05107  -0.04524  -0.03792  -0.02981  -0.02384
 Alpha virt. eigenvalues --   -0.01615  -0.00224   0.00436   0.00891   0.01734
 Alpha virt. eigenvalues --    0.03173   0.04504   0.04908   0.05720   0.07770
 Alpha virt. eigenvalues --    0.08642   0.09562   0.10421   0.11405   0.13938
 Alpha virt. eigenvalues --    0.15299   0.16427   0.17803   0.20358   0.21842
 Alpha virt. eigenvalues --    0.23623   0.26050   0.26585   0.31311   0.31754
 Alpha virt. eigenvalues --    0.32435   0.35305   0.36170   0.38380   0.40235
 Alpha virt. eigenvalues --    0.40995   0.41693   0.43121   0.43687   0.44960
 Alpha virt. eigenvalues --    0.45902   0.48266   0.48682   0.48922   0.50233
 Alpha virt. eigenvalues --    0.51633   0.52066   0.53020   0.55114   0.55860
 Alpha virt. eigenvalues --    0.56553   0.57179   0.58881   0.59883   0.60127
 Alpha virt. eigenvalues --    0.60832   0.61447   0.61773   0.62564   0.63745
 Alpha virt. eigenvalues --    0.64898   0.66442   0.66697   0.68347   0.68747
 Alpha virt. eigenvalues --    0.69864   0.70331   0.71697   0.72568   0.73671
 Alpha virt. eigenvalues --    0.74360   0.74798   0.75451   0.76359   0.76480
 Alpha virt. eigenvalues --    0.77826   0.78722   0.79702   0.80943   0.81686
 Alpha virt. eigenvalues --    0.82748   0.83993   0.84193   0.84981   0.88403
 Alpha virt. eigenvalues --    0.90948   0.92676   0.93665   0.94675   0.99856
 Alpha virt. eigenvalues --    1.01765   1.03427   1.05021   1.05895   1.07175
 Alpha virt. eigenvalues --    1.09846   1.12045   1.16674   1.17616   1.18981
 Alpha virt. eigenvalues --    1.20936   1.22280   1.24136   1.25391   1.26283
 Alpha virt. eigenvalues --    1.27365   1.28692   1.34029   1.34723   1.36127
 Alpha virt. eigenvalues --    1.37299   1.39782   1.42305   1.42638   1.43755
 Alpha virt. eigenvalues --    1.44947   1.46410   1.47039   1.48355   1.51127
 Alpha virt. eigenvalues --    1.54054   1.58223   1.58522   1.60776   1.62728
 Alpha virt. eigenvalues --    1.64350   1.65197   1.65818   1.66452   1.67277
 Alpha virt. eigenvalues --    1.67926   1.68627   1.72472   1.73692   1.75049
 Alpha virt. eigenvalues --    1.75995   1.76282   1.76746   1.79271   1.79610
 Alpha virt. eigenvalues --    1.81562   1.82113   1.84701   1.86039   1.87428
 Alpha virt. eigenvalues --    1.89521   1.90561   1.92527   1.94681   1.95754
 Alpha virt. eigenvalues --    1.97909   1.98942   2.00028   2.00311   2.02620
 Alpha virt. eigenvalues --    2.03913   2.04463   2.05694   2.06304   2.08459
 Alpha virt. eigenvalues --    2.10943   2.11481   2.12379   2.14945   2.15802
 Alpha virt. eigenvalues --    2.16688   2.18795   2.19593   2.21269   2.22167
 Alpha virt. eigenvalues --    2.25552   2.26695   2.28141   2.30033   2.30315
 Alpha virt. eigenvalues --    2.33339   2.34558   2.36966   2.38013   2.40030
 Alpha virt. eigenvalues --    2.40435   2.40602   2.42583   2.44520   2.45182
 Alpha virt. eigenvalues --    2.47505   2.48279   2.49196   2.51304   2.52479
 Alpha virt. eigenvalues --    2.53586   2.54961   2.55893   2.57544   2.57952
 Alpha virt. eigenvalues --    2.59143   2.59223   2.61612   2.65124   2.66365
 Alpha virt. eigenvalues --    2.66957   2.69463   2.69554   2.72476   2.75058
 Alpha virt. eigenvalues --    2.75671   2.75855   2.77511   2.78625   2.79765
 Alpha virt. eigenvalues --    2.82893   2.85357   2.89017   2.90546   2.93491
 Alpha virt. eigenvalues --    2.95579   2.96892   2.98129   3.08356   3.09512
 Alpha virt. eigenvalues --    3.13216   3.15896   3.16249   3.19168   3.21453
 Alpha virt. eigenvalues --    3.23150   3.25750   3.29020   3.31274   3.35393
 Alpha virt. eigenvalues --    3.38941   3.43329   3.49487   3.62569   3.86316
 Alpha virt. eigenvalues --    3.89623   3.93028   4.00368   4.02707   4.07156
 Alpha virt. eigenvalues --    4.14651   4.16944   4.18365   4.34069   4.35462
 Alpha virt. eigenvalues --    4.39163   4.42734   4.51192   4.60736   4.69669
          Condensed to atoms (all electrons):
               1          2          3          4          5          6
     1  O    8.146491   0.498597  -0.096951   0.004298   0.000512   0.000000
     2  C    0.498597   4.374032   0.321239  -0.029697   0.005752  -0.000049
     3  N   -0.096951   0.321239   7.013909   0.194227  -0.024143   0.001909
     4  C    0.004298  -0.029697   0.194227   5.166389   0.290895  -0.094141
     5  C    0.000512   0.005752  -0.024143   0.290895   4.376596   0.259931
     6  O    0.000000  -0.000049   0.001909  -0.094141   0.259931   8.106439
     7  O   -0.000006   0.000642  -0.014479  -0.077731   0.572682  -0.082218
     8  C   -0.002532  -0.004114  -0.044525   0.298847  -0.025226   0.005801
     9  C   -0.000556   0.000013   0.003636  -0.039102  -0.001614  -0.000945
    10  C    0.000118   0.000022  -0.000105  -0.000468   0.000070   0.000029
    11  N    0.000000   0.000001   0.000000  -0.000087  -0.000001  -0.000006
    12  C    0.000000   0.000000   0.000000   0.000288  -0.000031   0.000141
    13  N    0.000002   0.000004   0.000134  -0.001021  -0.000842  -0.011836
    14  C   -0.082144   0.317816  -0.098499   0.006895  -0.000176   0.000000
    15  C    0.003125  -0.029048   0.000108  -0.000167   0.000004   0.000000
    16  N   -0.033357  -0.004263  -0.000185   0.000012   0.000000   0.000000
    17  H    0.002505  -0.019337   0.325041  -0.036073  -0.006787   0.000740
    18  H    0.007345  -0.002895  -0.046815   0.387921  -0.030641   0.001407
    19  H    0.000000   0.000003  -0.000159   0.009378  -0.009777   0.278589
    20  H    0.004395   0.003516  -0.011174  -0.033917   0.002509   0.000089
    21  H    0.000127   0.000206   0.002320  -0.054673  -0.003314   0.000497
    22  H    0.000064  -0.000003   0.000003   0.000005  -0.000002   0.000000
    23  H    0.000000   0.000000   0.000000  -0.000001   0.000001  -0.000007
    24  H    0.000000  -0.000001  -0.000023  -0.000610   0.001176   0.023482
    25  H    0.002607  -0.024751   0.002700   0.000139  -0.000053   0.000000
    26  H    0.000631  -0.030909  -0.001260  -0.000091  -0.000001   0.000000
    27  H    0.000713  -0.003605   0.000572  -0.000021  -0.000001   0.000000
    28  H    0.000009   0.003335  -0.000101   0.000002   0.000000   0.000000
    29  H    0.000993  -0.000197   0.000012  -0.000001   0.000000   0.000000
    30  H    0.080161   0.000881   0.001534  -0.000039   0.000000   0.000000
    31  H    0.000724   0.000148   0.000009   0.000000   0.000000   0.000000
               7          8          9         10         11         12
     1  O   -0.000006  -0.002532  -0.000556   0.000118   0.000000   0.000000
     2  C    0.000642  -0.004114   0.000013   0.000022   0.000001   0.000000
     3  N   -0.014479  -0.044525   0.003636  -0.000105   0.000000   0.000000
     4  C   -0.077731   0.298847  -0.039102  -0.000468  -0.000087   0.000288
     5  C    0.572682  -0.025226  -0.001614   0.000070  -0.000001  -0.000031
     6  O   -0.082218   0.005801  -0.000945   0.000029  -0.000006   0.000141
     7  O    8.006880  -0.000800   0.000139   0.000001   0.000000   0.000000
     8  C   -0.000800   5.105000   0.325781  -0.052723   0.006937   0.006169
     9  C    0.000139   0.325781   4.781591   0.566719  -0.046560  -0.093790
    10  C    0.000001  -0.052723   0.566719   4.854450   0.427250  -0.116987
    11  N    0.000000   0.006937  -0.046560   0.427250   6.672038   0.536173
    12  C    0.000000   0.006169  -0.093790  -0.116987   0.536173   4.665827
    13  N   -0.000025  -0.071979   0.351523  -0.073804  -0.086262   0.355892
    14  C   -0.000046  -0.000387  -0.000007   0.000000   0.000000   0.000000
    15  C    0.000000  -0.000007   0.000001   0.000000   0.000000   0.000000
    16  N    0.000000  -0.000001   0.000000   0.000000   0.000000   0.000000
    17  H    0.033487   0.003041  -0.000119   0.000001   0.000000   0.000000
    18  H    0.001046  -0.047016   0.007047   0.001723  -0.000150  -0.000212
    19  H    0.007652  -0.000215  -0.000073  -0.000002   0.000000  -0.000001
    20  H   -0.000105   0.385469  -0.028058  -0.004132   0.000037  -0.000072
    21  H    0.000371   0.370279  -0.026014   0.000446  -0.000139   0.000191
    22  H    0.000000  -0.001899  -0.060267   0.392336  -0.040925   0.007262
    23  H    0.000000  -0.000190   0.003118   0.007227  -0.036156   0.393448
    24  H    0.000154  -0.003688  -0.029243   0.008762   0.004521  -0.021218
    25  H   -0.000034   0.000005   0.000000   0.000000   0.000000   0.000000
    26  H    0.000000   0.000062  -0.000001   0.000000   0.000000   0.000000
    27  H    0.000000   0.000001   0.000000   0.000000   0.000000   0.000000
    28  H    0.000000   0.000000   0.000000   0.000000   0.000000   0.000000
    29  H    0.000000   0.000000   0.000000   0.000000   0.000000   0.000000
    30  H    0.000000   0.000007   0.000001   0.000000   0.000000   0.000000
    31  H    0.000000   0.000000   0.000000   0.000000   0.000000   0.000000
              13         14         15         16         17         18
     1  O    0.000002  -0.082144   0.003125  -0.033357   0.002505   0.007345
     2  C    0.000004   0.317816  -0.029048  -0.004263  -0.019337  -0.002895
     3  N    0.000134  -0.098499   0.000108  -0.000185   0.325041  -0.046815
     4  C   -0.001021   0.006895  -0.000167   0.000012  -0.036073   0.387921
     5  C   -0.000842  -0.000176   0.000004   0.000000  -0.006787  -0.030641
     6  O   -0.011836   0.000000   0.000000   0.000000   0.000740   0.001407
     7  O   -0.000025  -0.000046   0.000000   0.000000   0.033487   0.001046
     8  C   -0.071979  -0.000387  -0.000007  -0.000001   0.003041  -0.047016
     9  C    0.351523  -0.000007   0.000001   0.000000  -0.000119   0.007047
    10  C   -0.073804   0.000000   0.000000   0.000000   0.000001   0.001723
    11  N   -0.086262   0.000000   0.000000   0.000000   0.000000  -0.000150
    12  C    0.355892   0.000000   0.000000   0.000000   0.000000  -0.000212
    13  N    6.796867   0.000000   0.000000   0.000000   0.000000   0.000770
    14  C    0.000000   5.203790   0.323922  -0.039773  -0.002243   0.000347
    15  C    0.000000   0.323922   4.972304   0.206610   0.000031   0.000082
    16  N    0.000000  -0.039773   0.206610   6.536443   0.000014  -0.000002
    17  H    0.000000  -0.002243   0.000031   0.000014   0.398139   0.003755
    18  H    0.000770   0.000347   0.000082  -0.000002   0.003755   0.534503
    19  H    0.000374   0.000000   0.000000   0.000000  -0.000077  -0.000296
    20  H    0.003784  -0.000178   0.000002   0.000001   0.000023  -0.001132
    21  H   -0.001937   0.000026   0.000000   0.000000   0.000057   0.005223
    22  H    0.004860   0.000000   0.000000   0.000000   0.000000   0.000016
    23  H   -0.056288   0.000000   0.000000   0.000000   0.000000   0.000003
    24  H    0.326493   0.000000   0.000000   0.000000  -0.000004   0.000315
    25  H    0.000000   0.374297  -0.028602   0.003304   0.002341  -0.000029
    26  H    0.000000   0.380263  -0.040537  -0.004088   0.000073  -0.000027
    27  H    0.000000  -0.033821   0.394262  -0.033504   0.000006  -0.000015
    28  H    0.000000  -0.032799   0.400570  -0.033730  -0.000005   0.000000
    29  H    0.000000  -0.000851  -0.023424   0.331756  -0.000001   0.000000
    30  H    0.000000  -0.016138  -0.022312   0.264459  -0.000050  -0.000007
    31  H    0.000000   0.003594  -0.021049   0.333231   0.000000   0.000000
              19         20         21         22         23         24
     1  O    0.000000   0.004395   0.000127   0.000064   0.000000   0.000000
     2  C    0.000003   0.003516   0.000206  -0.000003   0.000000  -0.000001
     3  N   -0.000159  -0.011174   0.002320   0.000003   0.000000  -0.000023
     4  C    0.009378  -0.033917  -0.054673   0.000005  -0.000001  -0.000610
     5  C   -0.009777   0.002509  -0.003314  -0.000002   0.000001   0.001176
     6  O    0.278589   0.000089   0.000497   0.000000  -0.000007   0.023482
     7  O    0.007652  -0.000105   0.000371   0.000000   0.000000   0.000154
     8  C   -0.000215   0.385469   0.370279  -0.001899  -0.000190  -0.003688
     9  C   -0.000073  -0.028058  -0.026014  -0.060267   0.003118  -0.029243
    10  C   -0.000002  -0.004132   0.000446   0.392336   0.007227   0.008762
    11  N    0.000000   0.000037  -0.000139  -0.040925  -0.036156   0.004521
    12  C   -0.000001  -0.000072   0.000191   0.007262   0.393448  -0.021218
    13  N    0.000374   0.003784  -0.001937   0.004860  -0.056288   0.326493
    14  C    0.000000  -0.000178   0.000026   0.000000   0.000000   0.000000
    15  C    0.000000   0.000002   0.000000   0.000000   0.000000   0.000000
    16  N    0.000000   0.000001   0.000000   0.000000   0.000000   0.000000
    17  H   -0.000077   0.000023   0.000057   0.000000   0.000000  -0.000004
    18  H   -0.000296  -0.001132   0.005223   0.000016   0.000003   0.000315
    19  H    0.362725   0.000009  -0.000166   0.000000   0.000000  -0.000552
    20  H    0.000009   0.562367  -0.029405   0.003188   0.000004  -0.000046
    21  H   -0.000166  -0.029405   0.595398  -0.000018  -0.000001   0.000561
    22  H    0.000000   0.003188  -0.000018   0.609055  -0.000159  -0.000111
    23  H    0.000000   0.000004  -0.000001  -0.000159   0.563449   0.000227
    24  H   -0.000552  -0.000046   0.000561  -0.000111   0.000227   0.412283
    25  H    0.000000   0.000000  -0.000001   0.000000   0.000000   0.000000
    26  H    0.000000   0.000052  -0.000006   0.000000   0.000000   0.000000
    27  H    0.000000   0.000000   0.000000   0.000000   0.000000   0.000000
    28  H    0.000000   0.000000   0.000000   0.000000   0.000000   0.000000
    29  H    0.000000   0.000000   0.000000   0.000000   0.000000   0.000000
    30  H    0.000000   0.000000   0.000000   0.000001   0.000000   0.000000
    31  H    0.000000   0.000000   0.000000   0.000000   0.000000   0.000000
              25         26         27         28         29         30
     1  O    0.002607   0.000631   0.000713   0.000009   0.000993   0.080161
     2  C   -0.024751  -0.030909  -0.003605   0.003335  -0.000197   0.000881
     3  N    0.002700  -0.001260   0.000572  -0.000101   0.000012   0.001534
     4  C    0.000139  -0.000091  -0.000021   0.000002  -0.000001  -0.000039
     5  C   -0.000053  -0.000001  -0.000001   0.000000   0.000000   0.000000
     6  O    0.000000   0.000000   0.000000   0.000000   0.000000   0.000000
     7  O   -0.000034   0.000000   0.000000   0.000000   0.000000   0.000000
     8  C    0.000005   0.000062   0.000001   0.000000   0.000000   0.000007
     9  C    0.000000  -0.000001   0.000000   0.000000   0.000000   0.000001
    10  C    0.000000   0.000000   0.000000   0.000000   0.000000   0.000000
    11  N    0.000000   0.000000   0.000000   0.000000   0.000000   0.000000
    12  C    0.000000   0.000000   0.000000   0.000000   0.000000   0.000000
    13  N    0.000000   0.000000   0.000000   0.000000   0.000000   0.000000
    14  C    0.374297   0.380263  -0.033821  -0.032799  -0.000851  -0.016138
    15  C   -0.028602  -0.040537   0.394262   0.400570  -0.023424  -0.022312
    16  N    0.003304  -0.004088  -0.033504  -0.033730   0.331756   0.264459
    17  H    0.002341   0.000073   0.000006  -0.000005  -0.000001  -0.000050
    18  H   -0.000029  -0.000027  -0.000015   0.000000   0.000000  -0.000007
    19  H    0.000000   0.000000   0.000000   0.000000   0.000000   0.000000
    20  H    0.000000   0.000052   0.000000   0.000000   0.000000   0.000000
    21  H   -0.000001  -0.000006   0.000000   0.000000   0.000000   0.000000
    22  H    0.000000   0.000000   0.000000   0.000000   0.000000   0.000001
    23  H    0.000000   0.000000   0.000000   0.000000   0.000000   0.000000
    24  H    0.000000   0.000000   0.000000   0.000000   0.000000   0.000000
    25  H    0.518912  -0.017677  -0.001395  -0.003148  -0.000037   0.000288
    26  H   -0.017677   0.534287   0.004525  -0.003706   0.003731   0.000577
    27  H   -0.001395   0.004525   0.500194  -0.026369   0.003892  -0.000748
    28  H   -0.003148  -0.003706  -0.026369   0.505300  -0.004718   0.003155
    29  H   -0.000037   0.003731   0.003892  -0.004718   0.354024  -0.010032
    30  H    0.000288   0.000577  -0.000748   0.003155  -0.010032   0.336212
    31  H   -0.000086   0.000028  -0.003240  -0.001302  -0.014270  -0.007945
              31
     1  O    0.000724
     2  C    0.000148
     3  N    0.000009
     4  C    0.000000
     5  C    0.000000
     6  O    0.000000
     7  O    0.000000
     8  C    0.000000
     9  C    0.000000
    10  C    0.000000
    11  N    0.000000
    12  C    0.000000
    13  N    0.000000
    14  C    0.003594
    15  C   -0.021049
    16  N    0.333231
    17  H    0.000000
    18  H    0.000000
    19  H    0.000000
    20  H    0.000000
    21  H    0.000000
    22  H    0.000000
    23  H    0.000000
    24  H    0.000000
    25  H   -0.000086
    26  H    0.000028
    27  H   -0.003240
    28  H   -0.001302
    29  H   -0.014270
    30  H   -0.007945
    31  H    0.344618
 Mulliken charges:
               1
     1  O   -0.537868
     2  C    0.622663
     3  N   -0.528934
     4  C    0.008543
     5  C    0.592483
     6  O   -0.489854
     7  O   -0.447609
     8  C   -0.252098
     9  C    0.286782
    10  C   -0.010930
    11  N   -0.436671
    12  C    0.266921
    13  N   -0.536709
    14  C   -0.303887
    15  C   -0.135872
    16  N   -0.526924
    17  H    0.295445
    18  H    0.177734
    19  H    0.352586
    20  H    0.142775
    21  H    0.139973
    22  H    0.086592
    23  H    0.125324
    24  H    0.277521
    25  H    0.171221
    26  H    0.174073
    27  H    0.198555
    28  H    0.193508
    29  H    0.359123
    30  H    0.369993
    31  H    0.365541
 Sum of Mulliken charges =   1.00000
 Mulliken charges with hydrogens summed into heavy atoms:
               1
     1  O   -0.537868
     2  C    0.622663
     3  N   -0.233489
     4  C    0.186277
     5  C    0.592483
     6  O   -0.137268
     7  O   -0.447609
     8  C    0.030650
     9  C    0.286782
    10  C    0.075662
    11  N   -0.436671
    12  C    0.392244
    13  N   -0.259188
    14  C    0.041407
    15  C    0.256191
    16  N    0.567734
 APT charges:
               1
     1  O   -0.568011
     2  C    0.433553
     3  N   -0.778208
     4  C   -0.248316
     5  C   -0.294417
     6  O   -0.942426
     7  O    0.240311
     8  C   -0.838996
     9  C   -0.405201
    10  C   -0.266113
    11  N    0.066031
    12  C   -0.414841
    13  N   -0.683799
    14  C   -0.769635
    15  C   -0.998297
    16  N   -1.179893
    17  H    0.659315
    18  H    0.281368
    19  H    1.138960
    20  H    0.243955
    21  H    0.520965
    22  H    0.343576
    23  H    0.992984
    24  H    0.473149
    25  H    0.448012
    26  H    0.453357
    27  H    0.305163
    28  H    0.905551
    29  H    0.828881
    30  H   -0.000019
    31  H    1.053043
 Sum of APT charges =   1.00000
 APT charges with hydrogens summed into heavy atoms:
               1
     1  O   -0.568011
     2  C    0.433553
     3  N   -0.118892
     4  C    0.033052
     5  C   -0.294417
     6  O    0.196534
     7  O    0.240311
     8  C   -0.074076
     9  C   -0.405201
    10  C    0.077462
    11  N    0.066031
    12  C    0.578143
    13  N   -0.210650
    14  C    0.131734
    15  C    0.212416
    16  N    0.702011
 Electronic spatial extent (au):  <R**2>=           4692.5916
 Charge=              1.0000 electrons
 Dipole moment (field-independent basis, Debye):
    X=            -14.2565    Y=             -3.6410    Z=              1.8905  Tot=             14.8350
 Quadrupole moment (field-independent basis, Debye-Ang):
   XX=             -4.8833   YY=            -86.1885   ZZ=            -92.9000
   XY=             -6.9555   XZ=             28.0017   YZ=              4.7761
 Traceless Quadrupole moment (field-independent basis, Debye-Ang):
   XX=             56.4407   YY=            -24.8646   ZZ=            -31.5761
   XY=             -6.9555   XZ=             28.0017   YZ=              4.7761
 Octapole moment (field-independent basis, Debye-Ang**2):
  XXX=           -366.8597  YYY=            -17.0761  ZZZ=             45.2937  XYY=            -64.8378
  XXY=            -70.9998  XXZ=            -15.0560  XZZ=           -111.0553  YZZ=            -22.9832
  YYZ=             13.4067  XYZ=              7.8732
 Hexadecapole moment (field-independent basis, Debye-Ang**3):
 XXXX=          -2280.3809 YYYY=           -494.7940 ZZZZ=          -1636.9766 XXXY=           -321.3244
 XXXZ=            666.0314 YYYX=           -213.5244 YYYZ=            270.2980 ZZZX=            440.8074
 ZZZY=            354.2977 XXYY=           -687.5040 XXZZ=           -746.1791 YYZZ=           -339.4585
 XXYZ=            134.9070 YYXZ=            141.4489 ZZXY=           -138.1016
 N-N= 1.138636052356D+03 E-N=-4.118867120298D+03  KE= 7.895515116117D+02
  Exact polarizability:   0.000   0.000   0.000   0.000   0.000   0.000
 Approx polarizability: 185.540 -21.365 137.113 -11.328 -26.450 209.437
 Calling FoFJK, ICntrl=    100147 FMM=F ISym2X=0 I1Cent= 0 IOpClX= 0 NMat=1 NMatS=1 NMatT=0.
 -------------------------------------------------------------------
 Center     Atomic                   Forces (Hartrees/Bohr)
 Number     Number              X              Y              Z
 -------------------------------------------------------------------
      1        8          -0.014025187    0.000732362   -0.024491409
      2        6           0.010403580   -0.002945242    0.023373500
      3        7          -0.007936924   -0.002636190   -0.005250974
      4        6          -0.002543868    0.000350080    0.001277617
      5        6           0.009034534    0.000996985   -0.009062282
      6        8          -0.006421867    0.000864223   -0.001051003
      7        8          -0.007563978   -0.002902610    0.011528317
      8        6           0.006222854    0.000872763   -0.007217036
      9        6          -0.008709888    0.001476930    0.006557845
     10        6           0.003463517    0.002757903   -0.011220747
     11        7          -0.005772300    0.005465981   -0.001948219
     12        6           0.000799830   -0.001026386   -0.001280984
     13        7           0.006925365   -0.005477042    0.006862639
     14        6           0.004993985    0.005603119   -0.000892332
     15        6          -0.000053665   -0.012047017    0.022894552
     16        7          -0.004109047    0.001348710   -0.006108738
     17        1           0.000668565   -0.000821601    0.005891162
     18        1           0.002431855    0.002250996   -0.001483591
     19        1           0.004066934   -0.001227868    0.002880263
     20        1          -0.001766859   -0.000036942   -0.000247748
     21        1           0.001355009    0.000786882    0.004408208
     22        1          -0.000138945    0.000481960    0.000114039
     23        1           0.003335688   -0.001698314   -0.002635233
     24        1           0.002585935   -0.000464764    0.000315916
     25        1          -0.005141583   -0.001072499   -0.000103525
     26        1          -0.001061293    0.002708218    0.002780353
     27        1          -0.000261337    0.000357947   -0.006094495
     28        1          -0.002021376    0.000809215   -0.003690339
     29        1          -0.003375038    0.003176964   -0.001537510
     30        1           0.017872133    0.002254124   -0.001968828
     31        1          -0.003256629   -0.000938882   -0.002599418
 -------------------------------------------------------------------
 Cartesian Forces:  Max     0.024491409 RMS     0.006481544
 FormGI is forming the generalized inverse of G from B-inverse, IUseBI=4.

 GradGradGradGradGradGradGradGradGradGradGradGradGradGradGradGradGradGrad
 Berny optimization.
 Internal  Forces:  Max     0.025928643 RMS     0.005654738
 Search for a local minimum.
 Step number   1 out of a maximum of  167
 All quantities printed in internal units (Hartrees-Bohrs-Radians)
 Mixed Optimization -- RFO/linear search
 Second derivative matrix not updated -- analytic derivatives used.
 ITU=  0
     Eigenvalues ---    0.00134   0.00206   0.00307   0.00325   0.00367
     Eigenvalues ---    0.00677   0.00747   0.00797   0.00972   0.01132
     Eigenvalues ---    0.02014   0.02026   0.02083   0.02575   0.03424
     Eigenvalues ---    0.03889   0.03985   0.04068   0.04226   0.04369
     Eigenvalues ---    0.04537   0.04762   0.04963   0.05049   0.05321
     Eigenvalues ---    0.05684   0.06083   0.06196   0.06324   0.07789
     Eigenvalues ---    0.08033   0.08311   0.10589   0.10953   0.11071
     Eigenvalues ---    0.11625   0.11852   0.12286   0.12996   0.13375
     Eigenvalues ---    0.15193   0.15527   0.15981   0.16428   0.18525
     Eigenvalues ---    0.18855   0.20430   0.21587   0.22219   0.23203
     Eigenvalues ---    0.23388   0.24155   0.24972   0.25464   0.26216
     Eigenvalues ---    0.27147   0.31089   0.31944   0.32631   0.33244
     Eigenvalues ---    0.34227   0.34309   0.34456   0.34881   0.34983
     Eigenvalues ---    0.35336   0.35523   0.36169   0.37559   0.37883
     Eigenvalues ---    0.38574   0.40225   0.41825   0.42681   0.44591
     Eigenvalues ---    0.44782   0.46040   0.46841   0.47630   0.47794
     Eigenvalues ---    0.49498   0.52198   0.54210   0.57943   0.61108
     Eigenvalues ---    0.83844   0.94360
 RFO step:  Lambda=-1.74537203D-02 EMin= 1.33889201D-03
 Linear search not attempted -- first point.
 Iteration  1 RMS(Cart)=  0.10522022 RMS(Int)=  0.00485676
 Iteration  2 RMS(Cart)=  0.01163784 RMS(Int)=  0.00039326
 Iteration  3 RMS(Cart)=  0.00011881 RMS(Int)=  0.00038561
 Iteration  4 RMS(Cart)=  0.00000012 RMS(Int)=  0.00038561
 Variable       Old X    -DE/DX   Delta X   Delta X   Delta X     New X
                                 (Linear)    (Quad)   (Total)
    R1        2.32213   0.02125   0.00000   0.04543   0.04543   2.36756
    R2        2.54369  -0.00099   0.00000  -0.03543  -0.03543   2.50826
    R3        2.87610  -0.00232   0.00000   0.00428   0.00428   2.88038
    R4        2.74472   0.00738   0.00000   0.01767   0.01767   2.76239
    R5        1.90449   0.00570   0.00000   0.01507   0.01507   1.91957
    R6        2.86114   0.00363   0.00000   0.01284   0.01284   2.87398
    R7        2.92971   0.00743   0.00000   0.02017   0.02017   2.94988
    R8        2.07104  -0.00022   0.00000  -0.00153  -0.00153   2.06951
    R9        2.55511  -0.00266   0.00000  -0.01789  -0.01789   2.53722
   R10        2.27190   0.01382   0.00000   0.01623   0.01623   2.28813
   R11        1.83167   0.00459   0.00000   0.00851   0.00851   1.84018
   R12        2.81860   0.00402   0.00000  -0.00151  -0.00151   2.81709
   R13        2.05594   0.00141   0.00000   0.00544   0.00544   2.06139
   R14        2.06102   0.00437   0.00000   0.01133   0.01133   2.07235
   R15        2.58041   0.01045   0.00000   0.01830   0.01830   2.59871
   R16        2.59035   0.01180   0.00000   0.02444   0.02446   2.61481
   R17        2.61630  -0.00390   0.00000  -0.01675  -0.01677   2.59953
   R18        2.04192   0.00037   0.00000   0.00166   0.00166   2.04358
   R19        2.47704   0.00594   0.00000   0.00935   0.00933   2.48637
   R20        2.57016   0.00771   0.00000   0.01369   0.01370   2.58386
   R21        2.03170   0.00433   0.00000   0.01026   0.01026   2.04197
   R22        1.90397   0.00134   0.00000   0.00266   0.00266   1.90663
   R23        2.87632  -0.00110   0.00000   0.01733   0.01733   2.89364
   R24        2.06229   0.00024   0.00000   0.00142   0.00142   2.06371
   R25        2.06639   0.00314   0.00000   0.00703   0.00703   2.07342
   R26        2.79945   0.01305   0.00000   0.04776   0.04776   2.84722
   R27        2.06342   0.00022   0.00000  -0.00011  -0.00011   2.06331
   R28        2.06208   0.00021   0.00000  -0.00146  -0.00146   2.06062
   R29        1.92647   0.00433   0.00000   0.00603   0.00603   1.93249
   R30        1.94599   0.01773   0.00000   0.08091   0.08091   2.02689
   R31        1.92645   0.00377   0.00000   0.00459   0.00459   1.93104
    A1        2.11235   0.01626   0.00000   0.02694   0.02693   2.13928
    A2        2.14529  -0.02585   0.00000  -0.07528  -0.07531   2.06998
    A3        2.02518   0.00962   0.00000   0.04864   0.04862   2.07380
    A4        2.08757   0.00755   0.00000   0.04346   0.04305   2.13062
    A5        2.13018  -0.00233   0.00000  -0.00584  -0.00622   2.12396
    A6        2.04224  -0.00490   0.00000  -0.02730  -0.02774   2.01450
    A7        1.86090  -0.00734   0.00000  -0.02583  -0.02581   1.83509
    A8        1.94119   0.00466   0.00000   0.02212   0.02215   1.96334
    A9        1.88102   0.00174   0.00000   0.01536   0.01551   1.89653
   A10        1.96587   0.00310   0.00000   0.00455   0.00465   1.97052
   A11        1.89543   0.00173   0.00000   0.00910   0.00915   1.90458
   A12        1.91651  -0.00397   0.00000  -0.02458  -0.02468   1.89183
   A13        1.96436   0.00175   0.00000  -0.00056  -0.00057   1.96379
   A14        2.17577  -0.00391   0.00000  -0.01670  -0.01671   2.15906
   A15        2.14302   0.00216   0.00000   0.01723   0.01723   2.16025
   A16        1.85385   0.00391   0.00000   0.02396   0.02396   1.87781
   A17        1.97288   0.00870   0.00000   0.01418   0.01417   1.98705
   A18        1.89055  -0.00386   0.00000  -0.02003  -0.02005   1.87050
   A19        1.91832  -0.00301   0.00000  -0.00818  -0.00836   1.90997
   A20        1.87115  -0.00283   0.00000  -0.00327  -0.00318   1.86798
   A21        1.94553  -0.00107   0.00000   0.01188   0.01187   1.95740
   A22        1.86051   0.00158   0.00000   0.00394   0.00381   1.86432
   A23        2.29123  -0.00415   0.00000  -0.01035  -0.01038   2.28085
   A24        2.15795   0.00623   0.00000   0.01641   0.01639   2.17434
   A25        1.83366  -0.00206   0.00000  -0.00576  -0.00577   1.82789
   A26        1.92994   0.00243   0.00000   0.00757   0.00754   1.93749
   A27        2.23391  -0.00135   0.00000  -0.00959  -0.00958   2.22433
   A28        2.11933  -0.00108   0.00000   0.00202   0.00203   2.12136
   A29        1.83395   0.00154   0.00000   0.00343   0.00338   1.83732
   A30        1.94692   0.00131   0.00000   0.00299   0.00298   1.94990
   A31        2.21064  -0.00210   0.00000  -0.01114  -0.01114   2.19950
   A32        2.12563   0.00079   0.00000   0.00815   0.00815   2.13378
   A33        1.88018  -0.00320   0.00000  -0.00804  -0.00801   1.87216
   A34        2.16888   0.00344   0.00000   0.01630   0.01629   2.18516
   A35        2.23402  -0.00024   0.00000  -0.00825  -0.00826   2.22577
   A36        1.95753  -0.02593   0.00000  -0.06943  -0.06934   1.88819
   A37        1.91311   0.01440   0.00000   0.05904   0.05889   1.97200
   A38        1.87471   0.00534   0.00000   0.00730   0.00646   1.88117
   A39        1.92780   0.00427   0.00000   0.00266   0.00364   1.93144
   A40        1.91259   0.00681   0.00000   0.00755   0.00714   1.91972
   A41        1.87557  -0.00402   0.00000  -0.00448  -0.00501   1.87056
   A42        1.93124  -0.01686   0.00000  -0.05567  -0.05595   1.87529
   A43        1.91332   0.00783   0.00000   0.02188   0.01883   1.93215
   A44        1.91781   0.00731   0.00000   0.04948   0.04911   1.96692
   A45        1.90987  -0.00143   0.00000  -0.04577  -0.04600   1.86387
   A46        1.91745   0.00539   0.00000   0.01064   0.01180   1.92925
   A47        1.87323  -0.00172   0.00000   0.02159   0.02056   1.89379
   A48        1.94063   0.00239   0.00000   0.01534   0.01529   1.95592
   A49        1.86510  -0.00533   0.00000  -0.07952  -0.07955   1.78554
   A50        1.96579   0.00134   0.00000   0.00903   0.00897   1.97476
   A51        1.87487   0.00154   0.00000   0.02390   0.02389   1.89876
   A52        1.90529  -0.00212   0.00000  -0.01165  -0.01173   1.89356
   A53        1.90949   0.00221   0.00000   0.04378   0.04374   1.95323
    D1       -0.10094   0.00158   0.00000   0.03629   0.03671  -0.06423
    D2       -3.00586   0.00057   0.00000  -0.01206  -0.01201  -3.01787
    D3        3.06898   0.00117   0.00000   0.02595   0.02590   3.09487
    D4        0.16405   0.00017   0.00000  -0.02240  -0.02282   0.14123
    D5        0.74208  -0.00246   0.00000  -0.05948  -0.05874   0.68334
    D6        2.89009  -0.00454   0.00000  -0.06162  -0.06217   2.82793
    D7       -1.36043   0.00126   0.00000  -0.03173  -0.03143  -1.39186
    D8       -2.42843  -0.00128   0.00000  -0.04705  -0.04664  -2.47506
    D9       -0.28041  -0.00336   0.00000  -0.04919  -0.05006  -0.33048
   D10        1.75225   0.00244   0.00000  -0.01930  -0.01933   1.73292
   D11       -2.83312   0.00072   0.00000  -0.02126  -0.02117  -2.85429
   D12        1.30073  -0.00111   0.00000  -0.02336  -0.02308   1.27765
   D13       -0.80087  -0.00013   0.00000  -0.01622  -0.01626  -0.81713
   D14        0.08352   0.00191   0.00000   0.02696   0.02683   0.11035
   D15       -2.06582   0.00008   0.00000   0.02486   0.02492  -2.04089
   D16        2.11577   0.00106   0.00000   0.03200   0.03174   2.14752
   D17        3.09017  -0.00120   0.00000   0.00633   0.00633   3.09650
   D18       -0.06077  -0.00109   0.00000   0.00203   0.00205  -0.05871
   D19       -1.05915   0.00151   0.00000   0.01910   0.01911  -1.04005
   D20        2.07309   0.00163   0.00000   0.01480   0.01484   2.08793
   D21        1.06756  -0.00027   0.00000  -0.00267  -0.00272   1.06484
   D22       -2.08338  -0.00016   0.00000  -0.00697  -0.00699  -2.09037
   D23       -2.48974  -0.00047   0.00000  -0.00898  -0.00889  -2.49863
   D24       -0.41889  -0.00126   0.00000  -0.01775  -0.01771  -0.43661
   D25        1.60750  -0.00321   0.00000  -0.02883  -0.02867   1.57883
   D26        1.70550   0.00355   0.00000   0.00550   0.00550   1.71100
   D27       -2.50683   0.00276   0.00000  -0.00326  -0.00333  -2.51016
   D28       -0.48044   0.00081   0.00000  -0.01434  -0.01428  -0.49472
   D29       -0.40923   0.00205   0.00000   0.00817   0.00809  -0.40114
   D30        1.66162   0.00126   0.00000  -0.00059  -0.00074   1.66088
   D31       -2.59517  -0.00068   0.00000  -0.01167  -0.01169  -2.60686
   D32       -3.13129  -0.00071   0.00000  -0.01936  -0.01940   3.13249
   D33        0.01944  -0.00078   0.00000  -0.01495  -0.01491   0.00453
   D34        2.13140  -0.00160   0.00000  -0.03822  -0.03827   2.09313
   D35       -0.97723  -0.00235   0.00000  -0.05254  -0.05261  -1.02984
   D36        0.04933  -0.00012   0.00000  -0.01967  -0.01966   0.02967
   D37       -3.05930  -0.00086   0.00000  -0.03399  -0.03400  -3.09331
   D38       -1.98062   0.00024   0.00000  -0.02889  -0.02881  -2.00943
   D39        1.19393  -0.00051   0.00000  -0.04321  -0.04315   1.15078
   D40       -3.12715  -0.00002   0.00000  -0.00359  -0.00342  -3.13058
   D41        0.01521  -0.00018   0.00000  -0.00259  -0.00250   0.01272
   D42       -0.01398   0.00076   0.00000   0.00911   0.00914  -0.00484
   D43        3.12839   0.00060   0.00000   0.01011   0.01007   3.13846
   D44        3.13134  -0.00048   0.00000  -0.00031  -0.00016   3.13118
   D45        0.00467  -0.00024   0.00000  -0.00114  -0.00105   0.00362
   D46        0.01540  -0.00098   0.00000  -0.01126  -0.01121   0.00419
   D47       -3.11128  -0.00074   0.00000  -0.01209  -0.01210  -3.12337
   D48        0.00699  -0.00027   0.00000  -0.00342  -0.00344   0.00355
   D49       -3.13532  -0.00013   0.00000  -0.00435  -0.00431  -3.13963
   D50        0.00315  -0.00032   0.00000  -0.00385  -0.00391  -0.00076
   D51       -3.13628   0.00004   0.00000  -0.00281  -0.00282  -3.13910
   D52       -0.01199   0.00082   0.00000   0.00974   0.00976  -0.00223
   D53        3.11396   0.00061   0.00000   0.01088   0.01094   3.12491
   D54        3.12757   0.00048   0.00000   0.00872   0.00870   3.13626
   D55       -0.02967   0.00027   0.00000   0.00987   0.00988  -0.01979
   D56       -1.06719   0.00746   0.00000   0.08801   0.08796  -0.97923
   D57        1.04085  -0.00001   0.00000   0.00965   0.00910   1.04995
   D58        3.09553   0.00690   0.00000   0.07831   0.07897  -3.10869
   D59        3.07629   0.00404   0.00000   0.05883   0.05861   3.13490
   D60       -1.09886  -0.00342   0.00000  -0.01953  -0.02025  -1.11911
   D61        0.95582   0.00348   0.00000   0.04913   0.04962   1.00544
   D62        1.01322   0.00221   0.00000   0.05809   0.05814   1.07136
   D63        3.12126  -0.00526   0.00000  -0.02027  -0.02071   3.10055
   D64       -1.10725   0.00165   0.00000   0.04838   0.04916  -1.05809
   D65       -1.24344  -0.00124   0.00000  -0.03375  -0.03303  -1.27647
   D66        0.79754  -0.00125   0.00000  -0.04368  -0.04298   0.75456
   D67        2.89484  -0.00124   0.00000  -0.03660  -0.03590   2.85893
   D68        2.92966   0.00068   0.00000   0.00424   0.00341   2.93307
   D69       -1.31255   0.00067   0.00000  -0.00568  -0.00654  -1.31908
   D70        0.78475   0.00068   0.00000   0.00139   0.00054   0.78529
   D71        0.87724   0.00045   0.00000  -0.00114  -0.00098   0.87626
   D72        2.91822   0.00045   0.00000  -0.01106  -0.01093   2.90729
   D73       -1.26767   0.00046   0.00000  -0.00398  -0.00385  -1.27152
         Item               Value     Threshold  Converged?
 Maximum Force            0.025929     0.000450     NO 
 RMS     Force            0.005655     0.000300     NO 
 Maximum Displacement     0.547570     0.001800     NO 
 RMS     Displacement     0.113509     0.001200     NO 
 Predicted change in Energy=-9.791511D-03
 GradGradGradGradGradGradGradGradGradGradGradGradGradGradGradGradGradGrad

                          Input orientation:                          
 ---------------------------------------------------------------------
 Center     Atomic      Atomic             Coordinates (Angstroms)
 Number     Number       Type             X           Y           Z
 ---------------------------------------------------------------------
      1          8           0       -1.397945    0.066769   -0.800760
      2          6           0       -1.528510   -0.112170    0.432363
      3          7           0       -0.491870   -0.285544    1.242965
      4          6           0        0.880084   -0.359116    0.743796
      5          6           0        1.685512   -0.964048    1.883229
      6          8           0        2.974891   -1.151004    1.558842
      7          8           0        1.218385   -1.232985    2.967464
      8          6           0        1.424302    1.030496    0.286020
      9          6           0        2.303361    0.967253   -0.916295
     10          6           0        2.172905    1.552343   -2.153942
     11          7           0        3.222225    1.209384   -2.974683
     12          6           0        3.985089    0.419375   -2.250067
     13          7           0        3.475657    0.236346   -0.994464
     14          6           0       -2.932529   -0.107975    1.025652
     15          6           0       -3.866409   -0.827500    0.048473
     16          7           0       -3.752811   -0.129465   -1.281915
     17          1           0       -0.614293   -0.534392    2.220164
     18          1           0        0.904921   -1.039590   -0.113911
     19          1           0        3.421939   -1.530327    2.336344
     20          1           0        0.561492    1.642232    0.019060
     21          1           0        1.915505    1.526591    1.131736
     22          1           0        1.378435    2.202846   -2.493242
     23          1           0        4.907359   -0.043051   -2.571305
     24          1           0        3.857885   -0.330950   -0.252814
     25          1           0       -2.979194   -0.569792    2.014169
     26          1           0       -3.244255    0.937620    1.141481
     27          1           0       -3.541977   -1.858316   -0.107452
     28          1           0       -4.902725   -0.838344    0.387545
     29          1           0       -4.217113    0.781681   -1.278577
     30          1           0       -2.694738    0.022262   -1.370815
     31          1           0       -4.125558   -0.680349   -2.057663
 ---------------------------------------------------------------------
                    Distance matrix (angstroms):
                    1          2          3          4          5
     1  O    0.000000
     2  C    1.252860   0.000000
     3  N    2.263164   1.327312   0.000000
     4  C    2.785040   2.441168   1.461794   0.000000
     5  C    4.215933   3.627760   2.368818   1.520843   0.000000
     6  O    5.115895   4.756968   3.587092   2.383191   1.342638
     7  O    4.768025   3.902358   2.607012   2.413047   1.210826
     8  C    3.174104   3.169574   2.513846   1.561011   2.568563
     9  C    3.811022   4.203245   3.747696   2.557513   3.456732
    10  C    4.097439   4.812490   4.692317   3.704315   4.782105
    11  N    5.232350   5.993659   5.815313   4.666144   5.539369
    12  C    5.585865   6.154490   5.722006   4.382958   4.928088
    13  N    4.880398   5.215265   4.584728   3.180113   3.595370
    14  C    2.391916   1.524230   2.456740   3.831258   4.774369
    15  C    2.759389   2.474842   3.620504   4.819965   5.848829
    16  N    2.411516   2.808303   4.127120   5.061617   6.347442
    17  H    3.178283   2.051901   1.015790   2.107972   2.363732
    18  H    2.645559   2.660847   2.088235   1.095136   2.145600
    19  H    5.968536   5.490287   4.250043   3.220088   1.881798
    20  H    2.644538   2.759865   2.514724   2.152240   3.395768
    21  H    4.104214   3.877615   3.015238   2.185975   2.611689
    22  H    3.890451   4.729566   4.863061   4.158175   5.410823
    23  H    6.550096   7.102620   6.615069   5.225776   5.574173
    24  H    5.299262   5.434205   4.599977   3.140274   3.111704
    25  H    3.290803   2.194541   2.619606   4.068447   4.683168
    26  H    2.817719   2.132765   3.013644   4.341641   5.335647
    27  H    2.963697   2.719278   3.687871   4.746245   5.664730
    28  H    3.809827   3.451763   4.526917   5.813558   6.757051
    29  H    2.947391   3.309815   4.623265   5.601146   6.919940
    30  H    1.417257   2.151654   3.432087   4.170898   5.545106
    31  H    3.094813   3.642488   4.924806   5.745243   7.027066
                    6          7          8          9         10
     6  O    0.000000
     7  O    2.253053   0.000000
     8  C    2.963671   3.515095   0.000000
     9  C    3.326299   4.593670   1.490740   0.000000
    10  C    4.662191   5.907450   2.605023   1.375180   0.000000
    11  N    5.117172   6.729759   3.727829   2.267135   1.375612
    12  C    4.241978   6.132501   3.655522   2.215249   2.139362
    13  N    2.948707   4.790729   2.545265   1.383696   2.184812
    14  C    6.022442   4.718726   4.563458   5.686987   6.239546
    15  C    7.013505   5.877080   5.612504   6.497537   6.854751
    16  N    7.373968   6.632328   5.532307   6.165524   6.221175
    17  H    3.701323   2.098856   3.216466   4.539275   5.590683
    18  H    2.663699   3.103311   2.171395   2.574271   3.533784
    19  H    0.973780   2.311357   3.840859   4.250739   5.587988
    20  H    3.999698   4.170308   1.090838   2.089161   2.706782
    21  H    2.911053   3.386906   1.096643   2.158176   3.295845
    22  H    5.496941   6.453670   3.016754   2.206567   1.081416
    23  H    4.692558   6.760357   4.631252   3.246625   3.193229
    24  H    2.175836   4.260378   2.840106   2.131216   3.162315
    25  H    5.999688   4.355258   4.993816   6.233419   6.958501
    26  H    6.573759   5.287806   4.747195   5.917040   6.370504
    27  H    6.763607   5.701508   5.758817   6.542632   6.962801
    28  H    7.970353   6.654301   6.598041   7.542404   7.889176
    29  H    7.969387   7.185568   5.859645   6.533167   6.495578
    30  H    6.488770   5.975688   4.552816   5.106916   5.162208
    31  H    7.982293   7.356293   6.262650   6.734116   6.683175
                   11         12         13         14         15
    11  N    0.000000
    12  C    1.315730   0.000000
    13  N    2.220879   1.367318   0.000000
    14  C    7.457822   7.672149   6.727873   0.000000
    15  C    7.971016   8.275507   7.491691   1.531251   0.000000
    16  N    7.301308   7.817521   7.243424   2.449121   1.506682
    17  H    6.689250   6.484362   5.258855   2.642520   3.921533
    18  H    4.314139   4.022335   3.002011   4.110052   4.778801
    19  H    5.979374   5.015340   3.770716   6.642308   7.671267
    20  H    4.028567   4.285479   3.390590   4.035423   5.070183
    21  H    4.320974   4.116515   2.935904   5.117274   6.336066
    22  H    2.149026   3.167736   3.242191   6.025522   6.568995
    23  H    2.137987   1.080561   2.148083   8.625900   9.190082
    24  H    3.191436   2.137331   1.008943   6.913314   7.746099
    25  H    8.155471   8.225777   7.167066   1.092071   2.171987
[...]
 .00000704,-0.00003504,-0.00002328,0.00001551,0.00002382,0.00000103,-0.
 00000502,0.00002254,0.00003068,-0.00001727,0.00000924,0.00469235,0.123
 06836,-0.24326690,0.00100656,0.01055874,-0.01598561,-0.00266122,-0.002
 29111,-0.00183091,0.00025897,0.00038806,0.00105371,0.00000768,0.000054
 40,0.00002132,0.00000750,0.00000505,0.00000749,-0.00000288,-0.00001926
 ,-0.00001365,-0.00000403,-0.00002130,0.00000837,-0.00000003,-0.0000115
 1,0.00000382,0.00000073,0.00000028,0.00000126,0.00000970,0.00000572,-0
 .00000446,-0.00365481,-0.13236528,0.26237336,-0.00021260,-0.00362818,0
 .00036458,-0.00736031,0.03215407,0.00557735,-0.00189633,-0.00204396,0.
 00040719,-0.00017262,-0.00170520,-0.00032484,0.00025017,-0.00022580,0.
 00027462,-0.00020999,0.00008050,-0.00006837,-0.00014740,0.00003308,-0.
 00017208,-0.00037948,0.00036806,-0.00014379,-0.00003355,-0.00014980,0.
 00003727,-0.00001932,0.00000086,-0.00007783,-0.00006737,0.00002938,0.0
 0004639,0.00000087,-0.00000622,0.00005650,0.00004755,-0.00004308,0.000
 00231,-0.06031674,0.05907366,0.01463402,0.00504104,-0.02639953,-0.0060
 3088,0.00113542,0.00068320,0.00134989,-0.00011452,0.00092994,0.0005132
 6,0.00012585,0.00001218,-0.00002882,0.00001588,0.00000999,0.00001963,-
 0.00001297,0.00010284,0.00006958,-0.00009665,-0.00009616,0.00000735,0.
 00000515,0.00001001,-0.00000440,0.00000077,0.00000373,0.00000094,0.000
 02698,0.00001431,-0.00000599,0.00002983,-0.00077304,-0.00023665,0.0669
 6925,-0.00018466,-0.00010734,0.00080261,0.00233825,0.00128448,0.000189
 07,-0.00031678,0.00046481,-0.00067507,0.00019950,0.00003751,0.00002810
 ,0.00006554,-0.00004408,-0.00000861,-0.00003513,0.00001112,0.00000333,
 -0.00003514,0.00004167,0.00000067,-0.00000637,-0.00000281,-0.00003048,
 0.00001552,-0.00001071,0.00000300,0.00000151,-0.00000052,-0.00000026,-
 0.00000501,-0.00000216,0.00000759,-0.00000255,0.00000176,-0.00000158,0
 .00000314,0.00000692,0.00000073,0.05321535,-0.28142503,-0.05611556,0.0
 0114587,-0.01139731,-0.00204058,0.00022767,0.00141736,0.00031760,-0.00
 004159,-0.00033139,-0.00011317,-0.00006183,-0.00001940,0.00001491,0.00
 000632,-0.00000695,0.00000027,0.00003008,-0.00000418,0.00001540,0.0000
 1050,0.00000149,0.00000093,0.00000167,0.00000614,-0.00000380,-0.000001
 08,-0.00000109,-0.00000054,0.00000397,0.00000032,-0.00000176,0.0036345
 6,-0.01535947,-0.00428697,-0.05794081,0.30417672,0.00068880,0.00270495
 ,-0.00052639,0.00407070,-0.01364384,-0.00407492,-0.00082773,0.00014625
 ,-0.00030396,0.00023609,0.00011801,0.00003229,0.00007822,0.00003278,0.
 00007416,-0.00004284,0.00000677,-0.00002058,-0.00004700,-0.00002650,-0
 .00005554,0.00002602,0.00003181,0.00004228,-0.00000807,-0.00001606,-0.
 00000456,0.00000789,-0.00000456,-0.00000497,-0.00001671,0.00000904,0.0
 0000571,-0.00000449,-0.00000044,0.00000680,-0.00000391,0.00000127,0.00
 000041,0.01366854,-0.05743047,-0.06061526,0.00312993,-0.02172180,-0.00
 673304,0.00068137,-0.00034315,0.00153357,-0.00000100,0.00030615,0.0002
 2197,-0.00008355,0.00002407,-0.00000923,0.00000686,-0.00000169,0.00000
 739,0.00002032,-0.00002153,-0.00000685,-0.00000518,-0.00000425,-0.0000
 0393,0.00000004,-0.00000427,-0.00000146,-0.00000104,0.00000012,0.00000
 030,0.00000650,0.00000201,0.00000298,-0.00642845,0.02642702,0.00791932
 ,-0.01300891,0.06392162,0.06430306,-0.00022297,0.00060273,0.00066330,0
 .00152365,-0.00134593,-0.00073947,0.00004590,0.00036545,-0.00000548,-0
 .00005112,-0.00003421,0.00001096,-0.00010183,0.00003105,-0.00006767,0.
 00007605,-0.00001184,0.00001988,0.00005442,-0.00000023,0.00004540,-0.0
 0000211,-0.00003837,0.00002757,0.00000258,0.00002310,-0.00000385,0.000
 00370,0.00000510,0.00001871,0.00001955,0.00000081,-0.00001361,-0.00000
 155,-0.00000189,-0.00000480,-0.00000510,0.00001337,-0.00000470,0.00366
 011,-0.02364348,-0.00521399,-0.06329947,0.05089613,0.01228533,0.000187
 53,-0.00261314,-0.00063005,0.00002436,-0.00009665,-0.00008975,-0.00002
 553,-0.00001602,0.00001721,-0.00001441,-0.00000185,-0.00000952,-0.0000
 0004,-0.00002208,-0.00001219,0.00001933,0.00001218,-0.00000088,-0.0000
 0135,-0.00000923,0.00000355,-0.00000030,-0.00000187,0.00000013,-0.0000
 1307,-0.00000888,0.00000103,0.00091445,0.00057402,0.00058931,-0.003161
 13,-0.00176269,-0.00299811,0.06202020,-0.00038182,0.00049794,0.0006065
 3,0.00039195,0.00016341,-0.00084181,-0.00010252,0.00000661,0.00007868,
 -0.00002889,-0.00005168,0.00000119,-0.00003694,0.00002126,-0.00002821,
 0.00002587,-0.00000716,0.00000793,0.00002004,-0.00000817,0.00001934,-0
 .00001125,-0.00000735,0.00001210,-0.00000122,0.00000720,-0.00000107,0.
 00000386,0.00000175,0.00000673,0.00000541,0.00000198,-0.00000356,-0.00
 000029,-0.00000079,-0.00000199,-0.00000202,0.00000342,-0.00000124,0.00
 045337,-0.00834530,-0.00360082,0.04847668,-0.30338892,-0.05119440,0.00
 317248,-0.01641364,0.00107709,0.00001671,-0.00003068,-0.00002939,-0.00
 000407,0.00000058,0.00000731,-0.00000363,0.00000155,-0.00000230,-0.000
 00337,-0.00001144,-0.00000454,0.00000661,0.00000165,-0.00000015,-0.000
 00007,-0.00000515,0.00000078,-0.00000007,-0.00000044,-0.00000013,-0.00
 000410,-0.00000233,0.00000012,-0.00005794,0.00046328,-0.00012890,-0.00
 115800,0.00090274,-0.00104458,-0.05138142,0.32624699,0.00046900,-0.000
 23801,0.00109880,0.00165766,0.00028634,-0.00078026,-0.00039099,0.00028
 284,0.00009816,0.00006944,-0.00005477,-0.00005873,0.00003643,-0.000054
 75,0.00006476,-0.00004080,0.00002021,-0.00002002,-0.00002362,0.0000553
 5,-0.00002923,-0.00001593,0.00001065,0.00000134,0.00000045,-0.00000616
 ,-0.00000711,-0.00000969,0.00000469,-0.00001616,-0.00001371,0.00000177
 ,0.00001274,-0.00000292,-0.00000008,0.00000885,0.00000827,-0.00000421,
 0.00001070,0.00288803,-0.02090593,-0.00460233,0.01431508,-0.06288618,-
 0.06203836,-0.00695429,0.03886505,-0.00173245,0.00006036,-0.00015104,0
 .00004536,-0.00002490,-0.00000254,0.00002117,0.00000113,-0.00001080,0.
 00000161,-0.00000193,0.00001150,-0.00002146,0.00000381,-0.00000517,0.0
 0000493,-0.00000125,0.00000237,-0.00000288,-0.00000030,-0.00000035,0.0
 0000105,0.00000583,-0.00000228,-0.00000081,0.00038687,0.00003736,0.000
 48180,-0.00392448,-0.00107771,-0.00196260,-0.00875010,0.05362033,0.074
 00560,0.00091609,0.00007611,0.00066416,-0.00008479,-0.00137223,-0.0046
 0356,-0.00133873,-0.00004271,0.00076514,0.00011720,0.00020655,-0.00027
 053,0.00006474,-0.00007400,0.00020099,-0.00013455,0.00004383,-0.000065
 73,-0.00006963,0.00004479,-0.00007460,0.00002448,0.00005989,-0.0000215
 6,-0.00000307,-0.00002453,-0.00000548,-0.00000597,0.00000066,-0.000026
 84,-0.00002691,0.00000649,0.00002575,-0.00000384,0.00000078,0.00001021
 ,0.00001456,-0.00001323,0.00001364,-0.01798730,0.00225577,0.00675735,-
 0.29190944,0.02749809,0.09575905,0.00521240,-0.00023297,-0.00133919,0.
 00006433,-0.00009102,0.00015554,-0.00006579,0.00000224,-0.00000297,0.0
 0000364,-0.00000843,0.00000903,0.00001298,0.00001552,-0.00000387,-0.00
 000987,-0.00001257,0.00000532,0.00000111,0.00000390,-0.00000418,-0.000
 00066,0.00000024,0.00000079,0.00001605,0.00000622,-0.00000496,0.000219
 05,0.00023778,-0.00014421,0.00108470,-0.00011159,0.00053211,-0.0030248
 7,0.00029201,0.00093890,0.30675083,0.00007858,0.00030281,-0.00024722,-
 0.00151556,-0.00013345,-0.00291774,-0.00098613,0.00012404,0.00031604,0
 .00002975,0.00006807,-0.00018704,-0.00001565,-0.00002496,0.00007538,-0
 .00003993,0.00001784,-0.00002722,-0.00001678,0.00001453,-0.00002220,0.
 00000251,0.00000970,0.00001126,-0.00000127,-0.00000893,-0.00000280,0.0
 0000187,-0.00000243,-0.00000328,-0.00000608,0.00000267,0.00000459,-0.0
 0000199,0.,0.00000337,0.00000219,-0.00000033,0.00000091,-0.01301363,0.
 00097538,0.00427061,0.03318256,-0.05666640,-0.01450459,-0.01976381,-0.
 00124849,0.01313268,0.00001684,-0.00004088,0.00003308,-0.00002908,-0.0
 0000790,0.00001157,-0.00000527,-0.00000138,0.00000071,-0.00000371,0.00
 000133,0.00000134,-0.00000426,0.00000129,-0.00000199,0.00000174,0.0000
 0190,-0.00000016,-0.00000051,-0.00000012,0.00000019,0.00000251,0.00000
 112,-0.00000163,0.00051957,0.00038097,0.00010885,0.00010873,0.00049652
 ,0.00091027,0.02892087,-0.00031149,-0.01160817,-0.02849923,0.05630368,
 0.00123270,-0.00039643,0.00245130,-0.00104209,-0.00189163,-0.00574607,
 -0.00165403,0.00005635,0.00122979,0.00005004,0.00027928,-0.00035049,0.
 00006715,-0.00008150,0.00023034,-0.00016961,0.00005254,-0.00007705,-0.
 00008231,0.00004350,-0.00007155,0.00003434,0.00007744,-0.00003438,-0.0
 0001002,-0.00002483,-0.00001369,-0.00002063,0.00001076,-0.00003769,-0.
 00002553,0.00000757,0.00003732,-0.00000414,0.00000007,0.00001083,0.000
 02845,-0.00002176,0.00002614,-0.02112064,0.00189430,0.01071214,0.08780
 582,-0.01023388,-0.08539358,0.03084051,0.00149865,-0.01842317,0.000088
 19,-0.00012728,0.00018879,-0.00008132,0.00000704,-0.00000584,0.0000013
 5,-0.00000787,0.00000849,0.00000832,0.00001302,-0.00000951,-0.00001036
 ,-0.00001683,0.00000950,-0.00000035,-0.00000203,-0.00000375,-0.0000001
 1,-0.00000034,0.00000171,0.00001944,0.00000882,-0.00000968,0.00048549,
 0.00044778,0.00049659,0.00071370,0.00015692,0.00081225,0.00523184,-0.0
 0091940,-0.00096181,-0.09911171,0.00795273,0.09848358,-0.00314631,-0.0
 0290063,-0.00180183,-0.00098213,0.00009290,0.00023776,0.00023688,0.000
 20322,-0.00007060,-0.00005551,0.00002281,0.00007106,-0.00012349,0.0000
 5239,-0.00010010,0.00009469,-0.00003292,0.00002892,0.00005737,-0.00003
 509,0.00005900,-0.00002232,-0.00000425,-0.00002424,-0.00001549,0.00001
 070,-0.00000294,-0.00006388,0.00003189,-0.00000466,0.00005908,-0.00001
 895,-0.00001086,0.00001251,-0.00000431,-0.00000729,0.00003529,-0.00001
 161,0.00000673,-0.00055754,0.00073920,-0.00001600,0.00225717,-0.007546
 93,-0.00089236,-0.11453069,0.14095752,0.00498652,-0.00005563,0.0001188
 6,-0.00007071,0.00000358,-0.00000192,-0.00001952,-0.00002021,0.0000116
 5,-0.00000997,-0.00001688,-0.00000427,-0.00000565,0.00000726,0.0000026
 1,0.00000314,-0.00000819,-0.00001003,0.00002114,0.00000446,-0.00000202
 ,0.00000238,-0.00001532,0.00000290,-0.00000654,0.00004294,-0.00022989,
 -0.00007961,0.00025820,-0.00013788,-0.00047645,0.00031116,-0.00100937,
 0.00189666,0.00040875,-0.00093553,0.00021962,0.10949797,-0.00245980,-0
 .00045350,-0.00190975,0.00038869,-0.00026688,0.00126982,-0.00059934,0.
 00011754,-0.00061943,0.00023903,0.00003073,-0.00006653,0.00016924,-0.0
 0006086,0.00004804,-0.00015001,0.00002095,-0.00001981,-0.00012470,0.00
 002615,-0.00002881,0.00000125,0.00008336,-0.00003732,-0.00000962,-0.00
 004124,-0.00000100,-0.00004006,0.00000232,-0.00004680,-0.00002194,-0.0
 0001400,0.00003179,0.00000088,0.00000313,0.00001117,0.00003077,-0.0000
 3055,0.00002236,0.00013401,0.00145382,0.00011496,0.00486850,-0.0135095
 6,0.00060399,0.12736285,-0.35537038,-0.02385592,-0.00001491,0.00003001
 ,0.00012052,-0.00001503,-0.00000498,0.00000640,0.00001844,0.00000179,0
 .00000964,0.00001103,0.00005169,0.00000313,-0.00002134,-0.00001189,0.0
 0000073,0.00000386,0.00002510,0.00000146,0.00000208,0.00000293,0.00000
 192,0.00002097,0.00001848,-0.00000865,-0.00013191,-0.00013878,-0.00024
 921,0.00031436,-0.00008286,0.00015315,-0.00049462,0.00052702,0.0029827
 4,-0.00053497,0.00114447,-0.00099090,-0.14158527,0.37493092,0.00049603
 ,0.00040179,0.00011999,-0.00065839,0.00015830,0.00007940,0.00036428,-0
 .00007979,0.00009021,-0.00013104,0.00005752,0.00006661,-0.00013600,0.0
 0004640,-0.00000955,0.00012161,-0.00002480,0.00000442,0.00009053,-0.00
 003030,-0.00000625,-0.00001390,-0.00003634,0.00002520,0.00000657,0.000
 01048,0.00002373,0.00004070,-0.00002196,0.00004729,0.00001567,0.000000
 94,-0.00004973,0.00000935,-0.00000370,-0.00000274,-0.00003963,0.000027
 32,-0.00004898,0.00025571,0.00075238,0.00102587,-0.01338910,0.03022752
 ,0.00507584,0.00253701,-0.02079096,-0.06172362,-0.00003459,0.00002621,
 -0.00007593,0.00001306,-0.00000198,-0.00000542,-0.00001465,0.00000804,
 -0.00000260,-0.00000502,-0.00002505,0.00002569,0.00000584,0.00000954,-
 0.00001386,0.00000300,-0.00000127,0.00001208,-0.00000079,0.00000096,-0
 .00000214,-0.00001679,-0.00000583,0.00001318,0.00025821,-0.00046723,-0
 .00006546,-0.00029220,-0.00090099,-0.00066087,0.00029983,0.00243786,-0
 .00588097,0.00040134,-0.00021482,0.00140345,-0.00569023,0.02050587,0.0
 6117156,0.00762617,-0.00643403,0.04504383,0.01205925,0.00573691,-0.051
 35814,0.00658516,-0.00256485,0.02015251,-0.00423485,0.00047819,0.00071
 538,-0.00290131,0.00142705,-0.00137314,0.00211212,-0.00056634,0.000413
 55,0.00188440,-0.00094799,0.00121725,-0.00031107,-0.00068802,0.0003008
 4,-0.00013804,0.00048656,0.00008589,0.00001507,0.00006355,0.00053169,0
 .00060917,-0.00008259,-0.00050808,0.00016067,-0.00007383,-0.00018722,-
 0.00016379,0.00021218,-0.00028707,-0.00049470,0.00232345,0.00266459,0.
 00124133,-0.01007201,0.02120498,-0.17285067,-0.00812283,0.02468495,0.0
 0193465,0.00011385,-0.00133866,-0.00007854,0.00025264,-0.00027741,-0.0
 0030382,0.00014758,-0.00014514,-0.00019545,-0.00093614,-0.00006695,0.0
 0036684,0.00008475,-0.00000795,-0.00004013,-0.00024219,0.00020182,0.00
 002182,-0.00001372,-0.00000664,-0.00029908,-0.00007648,0.00005421,-0.0
 0342187,-0.00079058,-0.00012709,-0.00085232,-0.00028964,0.00094349,0.0
 0039720,0.00097772,-0.00197232,-0.00025152,0.00174183,-0.00458388,-0.0
 0199544,0.00331844,0.00040050,0.15415947,-0.00203705,-0.01676567,-0.00
 154794,0.00154281,-0.00134020,0.00273336,-0.00003999,0.00151376,0.0000
 0725,0.00000157,-0.00011506,0.00014501,0.00008361,0.00000390,-0.000011
 38,-0.00008473,-0.00000003,0.00000537,-0.00011028,-0.00006017,-0.00001
 020,0.00004130,-0.00001315,-0.00009315,-0.00002101,-0.00002978,-0.0000
 0428,-0.00012384,0.00004400,-0.00008017,0.00002531,-0.00003897,0.00002
 915,0.00001963,-0.00000314,0.00000998,0.00006888,-0.00004648,0.0000350
 7,0.00028773,0.00005140,-0.00060946,-0.01560684,-0.00045819,0.00655877
 ,-0.01479973,-0.06708215,-0.00362416,0.00006444,0.00122583,0.00031083,
 -0.00012275,0.00001630,-0.00013114,0.00001341,0.00001039,0.00000941,-0
 .00001353,0.00010554,-0.00002252,-0.00002120,0.00000109,0.00001178,-0.
 00001389,0.00001261,0.00002868,0.00000748,0.00000161,0.00000497,0.0000
 1660,0.00002432,-0.00001235,-0.00022735,-0.00035482,-0.00017772,0.0003
 2091,-0.00016211,-0.00053609,-0.00059397,-0.00052147,0.00009336,0.0004
 5950,-0.00129413,0.00213976,0.03106802,0.00603209,-0.00589340,0.016008
 75,0.08046563,0.01766592,-0.00204280,-0.00435085,-0.01152995,0.0029878
 6,-0.02171351,0.00316580,-0.00015516,0.00300941,-0.00105976,0.00005872
 ,0.00027971,-0.00090701,0.00047368,-0.00038656,0.00071635,-0.00018003,
 0.00011015,0.00052627,-0.00025940,0.00027790,-0.00013915,-0.00023788,0
 .00017288,-0.00001241,0.00010968,0.00012070,0.00012710,-0.00010494,0.0
 0024227,0.00013799,-0.00003431,-0.00024537,0.00006103,-0.00001841,-0.0
 0005266,-0.00017504,0.00012925,-0.00020106,0.00021702,-0.00014567,-0.0
 0109140,0.02983224,0.00422617,-0.00952033,0.03829516,-0.00366591,-0.06
 336570,-0.00002573,0.00018878,-0.00037581,-0.00005152,0.00011962,-0.00
 003395,-0.00008612,0.00004092,-0.00003354,-0.00005345,-0.00032009,0.00
 003110,0.00012388,0.00003978,-0.00003851,0.00001069,0.00001188,0.00006
 194,0.00000149,0.00000444,-0.00001023,-0.00009811,-0.00002775,0.000053
 65,-0.00040895,-0.00007776,0.00055500,-0.00012027,-0.00025965,-0.00017
 975,-0.00022698,-0.00004043,0.00030157,-0.00085909,0.00342385,-0.00491
 609,0.00190329,0.00114479,-0.00128282,-0.05273322,-0.00519335,0.096109
 66,-0.00536508,0.00212950,-0.00071205,-0.00024063,-0.00021422,0.001721
 38,0.00002255,-0.00004984,-0.00010181,0.00000562,-0.00000111,0.0000049
 5,-0.00002265,0.00000707,-0.00006068,0.00001784,-0.00000419,0.00001984
 ,0.00000645,0.00000134,0.00003378,0.00001168,0.00000320,-0.00001143,-0
 .00000696,0.00001617,-0.00002836,-0.00003029,0.00003570,-0.00001109,0.
 00002726,0.00000887,0.00002296,-0.00001007,-0.00000002,-0.00000563,0.0
 0003775,-0.00001302,0.00003308,0.00046910,-0.00047697,0.00086697,0.001
 58204,0.00446998,0.00383726,-0.12723079,-0.08482765,-0.12655221,0.0000
 3613,-0.00003332,-0.00011389,-0.00000256,-0.00001996,-0.00001109,-0.00
 001120,0.00000033,-0.00000877,0.00000059,0.00000595,-0.00000889,-0.000
 00190,0.00000262,0.00000786,-0.00000418,-0.00002880,-0.00000387,0.0000
 0075,-0.00000433,0.00000219,-0.00000729,-0.00000402,-0.00001192,0.0001
 4288,-0.00005791,0.00024813,0.00006164,0.00003327,-0.00014343,0.000664
 67,0.00034429,-0.00061069,0.00000602,0.00022886,0.00108974,0.00832172,
 0.00931910,0.01510309,-0.00064071,-0.01621381,-0.02429750,0.12215966,0
 .00098274,0.00001969,0.00005112,-0.00081656,0.00008248,0.00019920,0.00
 027655,-0.00009860,0.00001856,-0.00010347,0.00000526,0.00005554,-0.000
 09819,0.00004683,-0.00002687,0.00009125,-0.00003422,0.00000717,0.00007
 124,-0.00003387,0.00000874,-0.00000515,-0.00001574,-0.00000168,-0.0000
 0416,0.00001092,-0.00000003,-0.00003022,0.00000933,0.00000516,0.000029
 23,-0.00002057,-0.00001439,0.00000862,-0.00000067,-0.00000651,0.000006
 73,-0.00000779,-0.00000023,-0.00065722,-0.00260390,0.00374023,0.010764
 13,0.01231814,0.01291063,-0.07668529,-0.15454777,-0.13543626,-0.000091
 03,0.00004459,-0.00006479,0.00003846,0.00001393,-0.00000310,-0.0000091
 8,0.00001537,-0.00000008,-0.00000008,-0.00001641,0.00000159,0.00000328
 ,0.00000034,-0.00000182,-0.00000248,-0.00000011,0.00000476,0.00000372,
 0.00000207,0.00000118,-0.00000714,0.00000654,0.00000332,0.00084667,0.0
 0063148,0.00086660,-0.00008004,0.00010784,0.00000393,0.00063359,0.0002
 5863,0.00073359,-0.00019291,-0.00010544,0.00006815,-0.01884382,-0.0145
 1699,-0.02617270,-0.00147218,-0.00122296,-0.00019590,0.08534293,0.1596
 5159,0.00353372,-0.00105544,0.00205564,-0.00003295,0.00041686,-0.00203
 880,0.00051473,-0.00008101,0.00073550,-0.00022826,-0.00000168,0.000077
 56,-0.00020570,0.00007621,-0.00004912,0.00016897,-0.00003808,0.0000146
 8,0.00013216,-0.00004392,0.00003207,-0.00004525,-0.00004545,0.00003969
 ,-0.00000089,0.00001745,0.00002468,0.00001211,-0.00001525,0.00004902,0
 .00003431,-0.00001443,-0.00006607,0.00002118,-0.00000846,0.00000070,-0
 .00003534,0.00002765,-0.00005524,0.00177985,0.00422868,-0.00417283,-0.
 01337802,-0.01452662,-0.01835744,-0.11717887,-0.13760927,-0.25192704,0
 .00008531,0.00002971,-0.00007951,0.00000040,0.00000416,-0.00000305,-0.
 00002229,0.00000993,-0.00000562,-0.00001182,-0.00004626,0.00000808,0.0
 0001941,0.00000907,-0.00001257,-0.00000205,0.00000324,0.00002483,0.000
 00158,0.00000158,-0.00000052,-0.00002233,-0.00000543,0.00001480,-0.001
 27395,-0.00070672,-0.00047428,0.00036492,0.00005398,0.00020143,-0.0004
 4292,-0.00003307,0.00195672,0.00029916,-0.00051856,-0.00004789,-0.0001
 4666,0.00080165,0.00064641,-0.00364258,0.00582456,0.00647220,0.1297020
 9,0.14324490,0.26493599\\-0.00000267,-0.00000136,-0.00000195,0.0000160
 6,0.00000582,0.00000182,-0.00001163,0.00000518,0.00000142,-0.00000503,
 -0.00000115,-0.00000189,0.00000325,0.00000230,-0.00000077,-0.00000421,
 -0.00000335,-0.00000200,-0.00000290,0.00000009,0.00000395,0.00000181,0
 .00000148,-0.00000267,-0.00000280,-0.00000146,0.00000079,0.00000320,0.
 00000215,-0.00000556,-0.00000440,0.00000060,0.00000004,-0.00000186,-0.
 00000063,0.00000143,0.00000454,-0.00000433,0.00000502,0.00000237,-0.00
 000394,0.00000325,-0.00000307,-0.00000049,0.00000257,-0.00000043,-0.00
 000047,0.00000135,0.00000234,-0.00000169,0.00000009,-0.00000020,-0.000
 00015,0.00000003,0.00000159,0.00000097,0.00000115,-0.00000031,-0.00000
 140,-0.00000143,0.00000023,0.00000144,0.00000068,0.00000016,-0.0000008
 8,-0.00000041,0.00000121,-0.00000114,-0.00000044,0.00000125,0.00000128
 ,0.00000058,-0.00000075,0.00000041,0.00000015,0.00000013,0.00000107,-0
 .00000206,0.00000073,0.00000080,-0.00000141,-0.00000109,0.00000033,-0.
 00000176,0.00000132,0.00000146,-0.00000072,0.00000252,-0.00000284,-0.0
 0000027,-0.00000135,-0.00000011,-0.00000097\\\@


 STEINBACH'S GUIDELINES FOR SYSTEMS PROGRAMMING:
 NEVER TEST FOR AN ERROR CONDITION YOU DON'T KNOW HOW
 TO HANDLE.
 Job cpu time:       0 days  1 hours 21 minutes  8.2 seconds.
 File lengths (MBytes):  RWF=    349 Int=      0 D2E=      0 Chk=     10 Scr=      1
 Normal termination of Gaussian 09 at Sat Jul 24 01:30:41 2021.
