 Entering Gaussian System, Link 0=g09
 Input=opt_freq-conf-661.com
 Output=opt_freq-conf-661.log
 Initial command:
 /aerosol/software/g09/l1.exe "/scratch/nicole/10760/Gau-85360.inp" -scrdir="/scratch/nicole/10760/"
 Entering Link 1 = /aerosol/software/g09/l1.exe PID=     85365.
  
 Copyright (c) 1988,1990,1992,1993,1995,1998,2003,2009,2013,
            Gaussian, Inc.  All Rights Reserved.
  
 This is part of the Gaussian(R) 09 program.  It is based on
 the Gaussian(R) 03 system (copyright 2003, Gaussian, Inc.),
 the Gaussian(R) 98 system (copyright 1998, Gaussian, Inc.),
 the Gaussian(R) 94 system (copyright 1995, Gaussian, Inc.),
 the Gaussian 92(TM) system (copyright 1992, Gaussian, Inc.),
 the Gaussian 90(TM) system (copyright 1990, Gaussian, Inc.),
 the Gaussian 88(TM) system (copyright 1988, Gaussian, Inc.),
 the Gaussian 86(TM) system (copyright 1986, Carnegie Mellon
 University), and the Gaussian 82(TM) system (copyright 1983,
 Carnegie Mellon University). Gaussian is a federally registered
 trademark of Gaussian, Inc.
  
 This software contains proprietary and confidential information,
 including trade secrets, belonging to Gaussian, Inc.
  
 This software is provided under written license and may be
 used, copied, transmitted, or stored only in accord with that
 written license.
  
 The following legend is applicable only to US Government
 contracts under FAR:
  
                    RESTRICTED RIGHTS LEGEND
  
 Use, reproduction and disclosure by the US Government is
 subject to restrictions as set forth in subparagraphs (a)
 and (c) of the Commercial Computer Software - Restricted
 Rights clause in FAR 52.227-19.
  
 Gaussian, Inc.
 340 Quinnipiac St., Bldg. 40, Wallingford CT 06492
  
  
 ---------------------------------------------------------------
 Warning -- This program may not be used in any manner that
 competes with the business of Gaussian, Inc. or will provide
 assistance to any competitor of Gaussian, Inc.  The licensee
 of this program is prohibited from giving any competitor of
 Gaussian, Inc. access to this program.  By using this program,
 the user acknowledges that Gaussian, Inc. is engaged in the
 business of creating and licensing software in the field of
 computational chemistry and represents and warrants to the
 licensee that it is not a competitor of Gaussian, Inc. and that
 it will not use this program in any manner prohibited above.
 ---------------------------------------------------------------
  

 Cite this work as:
 Gaussian 09, Revision D.01,
 M. J. Frisch, G. W. Trucks, H. B. Schlegel, G. E. Scuseria, 
 M. A. Robb, J. R. Cheeseman, G. Scalmani, V. Barone, B. Mennucci, 
 G. A. Petersson, H. Nakatsuji, M. Caricato, X. Li, H. P. Hratchian, 
 A. F. Izmaylov, J. Bloino, G. Zheng, J. L. Sonnenberg, M. Hada, 
 M. Ehara, K. Toyota, R. Fukuda, J. Hasegawa, M. Ishida, T. Nakajima, 
 Y. Honda, O. Kitao, H. Nakai, T. Vreven, J. A. Montgomery, Jr., 
 J. E. Peralta, F. Ogliaro, M. Bearpark, J. J. Heyd, E. Brothers, 
 K. N. Kudin, V. N. Staroverov, T. Keith, R. Kobayashi, J. Normand, 
 K. Raghavachari, A. Rendell, J. C. Burant, S. S. Iyengar, J. Tomasi, 
 M. Cossi, N. Rega, J. M. Millam, M. Klene, J. E. Knox, J. B. Cross, 
 V. Bakken, C. Adamo, J. Jaramillo, R. Gomperts, R. E. Stratmann, 
 O. Yazyev, A. J. Austin, R. Cammi, C. Pomelli, J. W. Ochterski, 
 R. L. Martin, K. Morokuma, V. G. Zakrzewski, G. A. Voth, 
 P. Salvador, J. J. Dannenberg, S. Dapprich, A. D. Daniels, 
 O. Farkas, J. B. Foresman, J. V. Ortiz, J. Cioslowski, 
 and D. J. Fox, Gaussian, Inc., Wallingford CT, 2013.
 
 ******************************************
 Gaussian 09:  ES64L-G09RevD.01 24-Apr-2013
                29-Jul-2021 
 ******************************************
 %mem=2gb
 %nproc=4
 Will use up to    4 processors via shared memory.
 %chk=conf-661.chk
 ----------------------------------------------------------------------
 # B3LYP/6-311++G(2df,2pd) guess=read geom=checkpoint opt=readfc freq=n
 oraman nosymm integral(ultrafinegrid)
 ----------------------------------------------------------------------
 1/10=3,14=-1,18=20,19=15,26=4,29=2,38=1/1,3;
 2/9=110,12=2,15=1,40=1/2;
 3/5=4,6=6,7=1414,11=2,14=-4,16=1,25=1,30=1,71=1,74=-5,75=-5,116=-2/1,2,3;
 4/5=1/1;
 5/5=2,38=6/2;
 6/7=2,8=2,9=2,10=2,28=1/1;
 7/30=1/1,2,3,16;
 1/14=-1,18=20,19=15,26=4/3(2);
 2/9=110,15=1/2;
 99//99;
 2/9=110,15=1/2;
 3/5=4,6=6,7=1414,11=2,14=-2,16=1,25=1,30=1,71=1,74=-5,75=-5/1,2,3;
 4/5=5,16=3,69=1/1;
 5/5=2,38=5/2;
 7/30=1/1,2,3,16;
 1/14=-1,18=20,19=15,26=4/3(-5);
 2/9=110,15=1/2;
 6/7=2,8=2,9=2,10=2,19=2,28=1/1;
 99/9=1/99;
 ------------------------------------------------------------
 Candidate Structure: Conf:661 OPT and FREQ calc in gas phase
 ------------------------------------------------------------
 Structure from the checkpoint file:  "conf-661.chk"
 Charge =  1 Multiplicity = 1
 Redundant internal coordinates found in file.
 O,0,2.1182936672,1.1505449141,0.8889305974
 C,0,1.4149004886,0.954612913,-0.0941004716
 N,0,0.1850171394,0.3727235082,-0.0022883776
 C,0,-0.2584386422,-0.1351465718,1.2747132949
 C,0,0.7540202982,-1.191568222,1.757152554
 O,0,0.7401978201,-1.4964069608,3.0496843574
 O,0,1.4942337243,-1.8106364841,1.0089125631
 C,0,-1.664018579,-0.8068320375,1.1301371494
 C,0,-2.6428231251,0.0212744093,0.3659869746
 C,0,-3.0429167739,-0.0525135403,-0.9527209255
 N,0,-3.9198497038,0.957931208,-1.2637221156
 C,0,-4.0603873967,1.6451536232,-0.1527480423
 N,0,-3.3031161527,1.131331743,0.8649485526
 C,0,1.9826589835,1.107145008,-1.5036793794
 C,0,3.1864492033,0.1646923178,-1.5935144588
 N,0,2.7743120094,-1.2763160071,-1.3334139654
 H,0,-0.4933765645,0.4133439239,-0.7558830168
 H,0,-0.2976833278,0.6742120194,2.015821836
 H,0,0.166062907,-0.905202255,3.5606111183
 H,0,-2.0336847899,-1.0563523722,2.1310420102
 H,0,-1.5394597455,-1.7559882887,0.5990812142
 H,0,-2.7734867592,-0.8086779589,-1.6795833494
 H,0,-4.6912482141,2.5132432753,-0.0199179621
 H,0,-3.2880676971,1.4684176482,1.8166668941
 H,0,2.3522831918,2.1266661323,-1.6444572785
 H,0,1.2476779425,0.9013868755,-2.2892066393
 H,0,3.9066236926,0.41924269,-0.8149744322
 H,0,3.6691020426,0.1944478251,-2.5715783811
 H,0,3.5974948785,-1.8830152146,-1.2795521226
 H,0,2.234661331,-1.4018823936,-0.423599318
 H,0,2.1841641318,-1.6357250476,-2.0887432301
 Recover connectivity data from disk.

 GradGradGradGradGradGradGradGradGradGradGradGradGradGradGradGradGradGrad
 Berny optimization.
 Initialization pass.
 Force constant matrix read from checkpoint file:
 "conf-661.chk"
                           ----------------------------
                           !    Initial Parameters    !
                           ! (Angstroms and Degrees)  !
 --------------------------                            --------------------------
 ! Name  Definition              Value          Derivative Info.                !
 --------------------------------------------------------------------------------
 ! R1    R(1,2)                  1.2245         D2E/DX2 =    0.8061             !
 ! R2    R(2,3)                  1.3637         D2E/DX2 =    0.4687             !
 ! R3    R(2,14)                 1.5273         D2E/DX2 =    0.291              !
 ! R4    R(3,4)                  1.4441         D2E/DX2 =    0.3765             !
 ! R5    R(3,17)                 1.0148         D2E/DX2 =    0.4496             !
 ! R6    R(4,5)                  1.5407         D2E/DX2 =    0.2526             !
 ! R7    R(4,8)                  1.5645         D2E/DX2 =    0.2442             !
 ! R8    R(4,18)                 1.0981         D2E/DX2 =    0.3271             !
 ! R9    R(5,6)                  1.3281         D2E/DX2 =    0.4715             !
 ! R10   R(5,7)                  1.2211         D2E/DX2 =    0.8123             !
 ! R11   R(6,19)                 0.9696         D2E/DX2 =    0.5155             !
 ! R12   R(8,9)                  1.4926         D2E/DX2 =    0.3183             !
 ! R13   R(8,20)                 1.0958         D2E/DX2 =    0.3346             !
 ! R14   R(8,21)                 1.0947         D2E/DX2 =    0.3384             !
 ! R15   R(9,10)                 1.38           D2E/DX2 =    0.4005             !
 ! R16   R(9,13)                 1.3846         D2E/DX2 =    0.3606             !
 ! R17   R(10,11)                1.3736         D2E/DX2 =    0.3411             !
 ! R18   R(10,22)                1.0829         D2E/DX2 =    0.3689             !
 ! R19   R(11,12)                1.3139         D2E/DX2 =    0.4655             !
 ! R20   R(12,13)                1.3686         D2E/DX2 =    0.3551             !
 ! R21   R(12,23)                1.0813         D2E/DX2 =    0.3753             !
 ! R22   R(13,24)                1.0098         D2E/DX2 =    0.474              !
 ! R23   R(14,15)                1.5315         D2E/DX2 =    0.289              !
 ! R24   R(14,25)                1.0936         D2E/DX2 =    0.3438             !
 ! R25   R(14,26)                1.0953         D2E/DX2 =    0.3374             !
 ! R26   R(15,16)                1.5212         D2E/DX2 =    0.2597             !
 ! R27   R(15,27)                1.0907         D2E/DX2 =    0.3509             !
 ! R28   R(15,28)                1.0911         D2E/DX2 =    0.3483             !
 ! R29   R(16,29)                1.024          D2E/DX2 =    0.434              !
 ! R30   R(16,30)                1.0652         D2E/DX2 =    0.2727             !
 ! R31   R(16,31)                1.0237         D2E/DX2 =    0.4339             !
 ! A1    A(1,2,3)              122.1596         D2E/DX2 =    0.2041             !
 ! A2    A(1,2,14)             120.7571         D2E/DX2 =    0.1619             !
 ! A3    A(3,2,14)             116.1057         D2E/DX2 =    0.1835             !
 ! A4    A(2,3,4)              119.1151         D2E/DX2 =    0.1747             !
 ! A5    A(2,3,17)             122.4011         D2E/DX2 =    0.1002             !
 ! A6    A(4,3,17)             117.7421         D2E/DX2 =    0.1131             !
 ! A7    A(3,4,5)              108.4361         D2E/DX2 =    0.1658             !
 ! A8    A(3,4,8)              110.1918         D2E/DX2 =    0.1065             !
 ! A9    A(3,4,18)             110.4003         D2E/DX2 =    0.0371             !
 ! A10   A(5,4,8)              108.9617         D2E/DX2 =    0.0906             !
 ! A11   A(5,4,18)             108.5133         D2E/DX2 =    0.0324             !
 ! A12   A(8,4,18)             110.2851         D2E/DX2 =    0.0349             !
 ! A13   A(4,5,6)              117.0837         D2E/DX2 =    0.1732             !
 ! A14   A(4,5,7)              123.6487         D2E/DX2 =    0.2064             !
 ! A15   A(6,5,7)              119.0986         D2E/DX2 =    0.2096             !
 ! A16   A(5,6,19)             112.2741         D2E/DX2 =    0.1722             !
 ! A17   A(4,8,9)              113.4707         D2E/DX2 =    0.1583             !
 ! A18   A(4,8,20)             108.4476         D2E/DX2 =    0.063              !
 ! A19   A(4,8,21)             108.3512         D2E/DX2 =    0.0586             !
 ! A20   A(9,8,20)             111.8854         D2E/DX2 =    0.0553             !
 ! A21   A(9,8,21)             107.8966         D2E/DX2 =    0.0502             !
 ! A22   A(20,8,21)            106.5025         D2E/DX2 =    0.0204             !
 ! A23   A(8,9,10)             130.5172         D2E/DX2 =    0.0954             !
 ! A24   A(8,9,13)             124.9624         D2E/DX2 =    0.1001             !
 ! A25   A(10,9,13)            104.4158         D2E/DX2 =    0.1022             !
 ! A26   A(9,10,11)            111.2299         D2E/DX2 =    0.1136             !
 ! A27   A(9,10,22)            127.3428         D2E/DX2 =    0.0816             !
 ! A28   A(11,10,22)           121.368          D2E/DX2 =    0.0897             !
 ! A29   A(10,11,12)           105.1654         D2E/DX2 =    0.1302             !
 ! A30   A(11,12,13)           111.913          D2E/DX2 =    0.1182             !
 ! A31   A(11,12,23)           125.8871         D2E/DX2 =    0.0897             !
 ! A32   A(13,12,23)           122.1994         D2E/DX2 =    0.0907             !
 ! A33   A(9,13,12)            107.2703         D2E/DX2 =    0.1028             !
 ! A34   A(9,13,24)            126.882          D2E/DX2 =    0.0774             !
 ! A35   A(12,13,24)           125.7152         D2E/DX2 =    0.0796             !
 ! A36   A(2,14,15)            106.5521         D2E/DX2 =    0.3876             !
 ! A37   A(2,14,25)            109.7294         D2E/DX2 =    0.0739             !
 ! A38   A(2,14,26)            113.1859         D2E/DX2 =    0.0646             !
 ! A39   A(15,14,25)           107.4874         D2E/DX2 =    0.0731             !
 ! A40   A(15,14,26)           111.703          D2E/DX2 =    0.0768             !
 ! A41   A(25,14,26)           108.0372         D2E/DX2 =    0.0265             !
 ! A42   A(14,15,16)           111.0979         D2E/DX2 =    0.2373             !
 ! A43   A(14,15,27)           109.4828         D2E/DX2 =    0.0471             !
 ! A44   A(14,15,28)           112.5516         D2E/DX2 =    0.056              !
 ! A45   A(16,15,27)           106.1368         D2E/DX2 =    0.0609             !
 ! A46   A(16,15,28)           107.3951         D2E/DX2 =    0.0751             !
 ! A47   A(27,15,28)           109.9634         D2E/DX2 =    0.0206             !
 ! A48   A(15,16,29)           110.6366         D2E/DX2 =    0.0976             !
 ! A49   A(15,16,30)           113.2629         D2E/DX2 =    0.145              !
 ! A50   A(15,16,31)           111.2605         D2E/DX2 =    0.0979             !
 ! A51   A(29,16,30)           107.0064         D2E/DX2 =    0.0603             !
 ! A52   A(29,16,31)           107.1108         D2E/DX2 =    0.0533             !
 ! A53   A(30,16,31)           107.2625         D2E/DX2 =    0.0607             !
 ! D1    D(1,2,3,4)             -5.4771         D2E/DX2 =    0.0374             !
 ! D2    D(1,2,3,17)           164.4286         D2E/DX2 =    0.018              !
 ! D3    D(14,2,3,4)           163.2807         D2E/DX2 =    0.1031             !
 ! D4    D(14,2,3,17)          -26.8136         D2E/DX2 =    0.0415             !
 ! D5    D(1,2,14,15)           56.7502         D2E/DX2 =    0.0182             !
 ! D6    D(1,2,14,25)          -59.3296         D2E/DX2 =    0.019              !
 ! D7    D(1,2,14,26)          179.9098         D2E/DX2 =    0.0335             !
 ! D8    D(3,2,14,15)         -112.1769         D2E/DX2 =    0.033              !
 ! D9    D(3,2,14,25)          131.7434         D2E/DX2 =    0.0329             !
 ! D10   D(3,2,14,26)           10.9828         D2E/DX2 =    0.0185             !
 ! D11   D(2,3,4,5)            -58.5145         D2E/DX2 =    0.0339             !
 ! D12   D(2,3,4,8)           -177.6935         D2E/DX2 =    0.0188             !
 ! D13   D(2,3,4,18)            60.2412         D2E/DX2 =    0.0132             !
 ! D14   D(17,3,4,5)           131.1107         D2E/DX2 =    0.0211             !
 ! D15   D(17,3,4,8)            11.9317         D2E/DX2 =    0.0171             !
 ! D16   D(17,3,4,18)         -110.1336         D2E/DX2 =    0.0179             !
 ! D17   D(3,4,5,6)            161.4127         D2E/DX2 =    0.0254             !
 ! D18   D(3,4,5,7)            -23.3654         D2E/DX2 =    0.0259             !
 ! D19   D(8,4,5,6)            -78.637          D2E/DX2 =    0.0215             !
 ! D20   D(8,4,5,7)             96.5849         D2E/DX2 =    0.0242             !
 ! D21   D(18,4,5,6)            41.4714         D2E/DX2 =    0.0165             !
 ! D22   D(18,4,5,7)          -143.3067         D2E/DX2 =    0.021              !
 ! D23   D(3,4,8,9)            -47.2877         D2E/DX2 =    0.0334             !
 ! D24   D(3,4,8,20)          -172.2633         D2E/DX2 =    0.0325             !
 ! D25   D(3,4,8,21)            72.5139         D2E/DX2 =    0.0323             !
 ! D26   D(5,4,8,9)           -166.146          D2E/DX2 =    0.0315             !
 ! D27   D(5,4,8,20)            68.8784         D2E/DX2 =    0.0308             !
 ! D28   D(5,4,8,21)           -46.3444         D2E/DX2 =    0.0322             !
 ! D29   D(18,4,8,9)            74.8456         D2E/DX2 =    0.0133             !
 ! D30   D(18,4,8,20)          -50.1299         D2E/DX2 =    0.0135             !
 ! D31   D(18,4,8,21)         -165.3527         D2E/DX2 =    0.015              !
 ! D32   D(4,5,6,19)            -8.5575         D2E/DX2 =    0.01               !
 ! D33   D(7,5,6,19)           175.9941         D2E/DX2 =    0.016              !
 ! D34   D(4,8,9,10)            99.3232         D2E/DX2 =    0.0127             !
 ! D35   D(4,8,9,13)           -76.3585         D2E/DX2 =    0.0124             !
 ! D36   D(20,8,9,10)         -137.5706         D2E/DX2 =    0.0135             !
 ! D37   D(20,8,9,13)           46.7477         D2E/DX2 =    0.0135             !
 ! D38   D(21,8,9,10)          -20.7368         D2E/DX2 =    0.0136             !
 ! D39   D(21,8,9,13)          163.5814         D2E/DX2 =    0.014              !
 ! D40   D(8,9,10,11)         -176.748          D2E/DX2 =    0.0098             !
 ! D41   D(8,9,10,22)            6.0506         D2E/DX2 =    0.0072             !
 ! D42   D(13,9,10,11)          -0.401          D2E/DX2 =    0.0142             !
 ! D43   D(13,9,10,22)        -177.6024         D2E/DX2 =    0.0099             !
 ! D44   D(8,9,13,12)          177.301          D2E/DX2 =    0.0082             !
 ! D45   D(8,9,13,24)           -6.7163         D2E/DX2 =    0.0026             !
 ! D46   D(10,9,13,12)           0.6893         D2E/DX2 =    0.0125             !
 ! D47   D(10,9,13,24)         176.672          D2E/DX2 =    0.0046             !
 ! D48   D(9,10,11,12)          -0.059          D2E/DX2 =    0.0173             !
 ! D49   D(22,10,11,12)        177.3353         D2E/DX2 =    0.0101             !
 ! D50   D(10,11,12,13)          0.5208         D2E/DX2 =    0.0184             !
 ! D51   D(10,11,12,23)       -179.2291         D2E/DX2 =    0.0106             !
 ! D52   D(11,12,13,9)          -0.7873         D2E/DX2 =    0.0172             !
 ! D53   D(11,12,13,24)       -176.8297         D2E/DX2 =    0.008              !
 ! D54   D(23,12,13,9)         178.9732         D2E/DX2 =    0.0106             !
 ! D55   D(23,12,13,24)          2.9307         D2E/DX2 =    0.0066             !
 ! D56   D(2,14,15,16)          59.3667         D2E/DX2 =    0.0379             !
 ! D57   D(2,14,15,27)         -57.5369         D2E/DX2 =    0.0206             !
 ! D58   D(2,14,15,28)         179.8437         D2E/DX2 =    0.026              !
 ! D59   D(25,14,15,16)        176.9393         D2E/DX2 =    0.0266             !
 ! D60   D(25,14,15,27)         60.0356         D2E/DX2 =    0.0171             !
 ! D61   D(25,14,15,28)        -62.5838         D2E/DX2 =    0.019              !
 ! D62   D(26,14,15,16)        -64.7142         D2E/DX2 =    0.0183             !
 ! D63   D(26,14,15,27)        178.3821         D2E/DX2 =    0.022              !
 ! D64   D(26,14,15,28)         55.7627         D2E/DX2 =    0.0168             !
 ! D65   D(14,15,16,29)       -172.9621         D2E/DX2 =    0.0155             !
 ! D66   D(14,15,16,30)        -52.8236         D2E/DX2 =    0.0206             !
 ! D67   D(14,15,16,31)         68.0983         D2E/DX2 =    0.0137             !
 ! D68   D(27,15,16,29)        -54.0294         D2E/DX2 =    0.0152             !
 ! D69   D(27,15,16,30)         66.1091         D2E/DX2 =    0.0184             !
 ! D70   D(27,15,16,31)       -172.969          D2E/DX2 =    0.0169             !
 ! D71   D(28,15,16,29)         63.5579         D2E/DX2 =    0.015              !
 ! D72   D(28,15,16,30)       -176.3036         D2E/DX2 =    0.0193             !
 ! D73   D(28,15,16,31)        -55.3816         D2E/DX2 =    0.0149             !
 --------------------------------------------------------------------------------
 Trust Radius=3.00D-01 FncErr=1.00D-07 GrdErr=1.00D-06
 Number of steps in this run=    167 maximum allowed number of steps=    186.
 GradGradGradGradGradGradGradGradGradGradGradGradGradGradGradGradGradGrad

                          Input orientation:                          
 ---------------------------------------------------------------------
 Center     Atomic      Atomic             Coordinates (Angstroms)
 Number     Number       Type             X           Y           Z
 ---------------------------------------------------------------------
      1          8           0        2.118294    1.150545    0.888931
      2          6           0        1.414900    0.954613   -0.094100
      3          7           0        0.185017    0.372724   -0.002288
      4          6           0       -0.258439   -0.135147    1.274713
      5          6           0        0.754020   -1.191568    1.757153
      6          8           0        0.740198   -1.496407    3.049684
      7          8           0        1.494234   -1.810636    1.008913
      8          6           0       -1.664019   -0.806832    1.130137
      9          6           0       -2.642823    0.021274    0.365987
     10          6           0       -3.042917   -0.052514   -0.952721
     11          7           0       -3.919850    0.957931   -1.263722
     12          6           0       -4.060387    1.645154   -0.152748
     13          7           0       -3.303116    1.131332    0.864949
     14          6           0        1.982659    1.107145   -1.503679
     15          6           0        3.186449    0.164692   -1.593514
     16          7           0        2.774312   -1.276316   -1.333414
     17          1           0       -0.493377    0.413344   -0.755883
     18          1           0       -0.297683    0.674212    2.015822
     19          1           0        0.166063   -0.905202    3.560611
     20          1           0       -2.033685   -1.056352    2.131042
     21          1           0       -1.539460   -1.755988    0.599081
     22          1           0       -2.773487   -0.808678   -1.679583
     23          1           0       -4.691248    2.513243   -0.019918
     24          1           0       -3.288068    1.468418    1.816667
     25          1           0        2.352283    2.126666   -1.644457
     26          1           0        1.247678    0.901387   -2.289207
     27          1           0        3.906624    0.419243   -0.814974
     28          1           0        3.669102    0.194448   -2.571578
     29          1           0        3.597495   -1.883015   -1.279552
     30          1           0        2.234661   -1.401882   -0.423599
     31          1           0        2.184164   -1.635725   -2.088743
 ---------------------------------------------------------------------
                    Distance matrix (angstroms):
                    1          2          3          4          5
     1  O    0.000000
     2  C    1.224541   0.000000
     3  N    2.266459   1.363685   0.000000
     4  C    2.729595   2.421010   1.444063   0.000000
     5  C    2.846146   2.910325   2.422066   1.540730   0.000000
     6  O    3.684340   4.043032   3.621659   2.449659   1.328065
     7  O    3.028604   2.978177   2.739277   2.439216   1.221075
     8  C    4.265606   3.752491   2.468334   1.564519   2.527466
     9  C    4.921073   4.189024   2.873295   2.556470   3.865860
    10  C    5.610448   4.650126   3.391711   3.566737   4.801832
    11  N    6.413282   5.461464   4.334007   4.587418   5.965827
    12  C    6.285366   5.518973   4.434544   4.434177   5.905356
    13  N    5.421497   4.817747   3.673508   3.322941   4.759438
    14  C    2.396844   1.527262   2.454601   3.779586   4.174525
    15  C    2.876699   2.451653   3.403509   4.492648   4.356963
    16  N    3.355418   2.891529   3.345994   4.159588   3.693286
    17  H    3.173279   2.091040   1.014777   2.116450   3.232196
    18  H    2.708085   2.731911   2.096822   1.098109   2.157342
    19  H    3.895533   4.286657   3.785196   2.449187   1.918375
    20  H    4.863349   4.570337   3.393522   2.175642   2.815915
    21  H    4.680930   4.068919   2.804796   2.173619   2.630542
    22  H    5.862195   4.813059   3.600246   3.937890   4.939743
    23  H    7.003771   6.302371   5.325420   5.323518   6.821624
    24  H    5.494587   5.102248   4.070806   3.470416   4.839168
    25  H    2.724999   2.157777   3.235750   4.522524   5.013589
    26  H    3.304634   2.202110   2.576573   4.005535   4.582268
    27  H    2.576086   2.648578   3.809590   4.692748   4.376009
    28  H    3.910786   3.434701   4.332653   5.507102   5.399690
    29  H    4.011588   3.771094   4.285413   4.944445   4.217229
    30  H    2.872483   2.516674   2.743678   3.271763   2.644278
    31  H    4.078502   3.358603   3.519055   4.419376   4.127166
                    6          7          8          9         10
     6  O    0.000000
     7  O    2.198195   0.000000
     8  C    3.152845   3.316154   0.000000
     9  C    4.577163   4.569955   1.492563   0.000000
    10  C    5.693508   5.246402   2.609340   1.380040   0.000000
    11  N    6.807738   6.491697   3.732791   2.272460   1.373584
    12  C    6.570433   6.644227   3.660685   2.217106   2.134778
    13  N    5.294003   5.629429   2.552145   1.384622   2.184746
    14  C    5.390298   3.881382   4.888615   5.105864   5.186981
    15  C    5.504788   3.679422   5.647050   6.151474   6.266003
    16  N    4.837108   2.722240   5.097870   5.823835   5.956742
    17  H    4.432967   3.465716   2.533042   2.456101   2.599216
    18  H    2.618713   3.224795   2.201091   2.940742   4.108124
    19  H    0.969639   3.015794   3.044023   4.353599   5.603106
    20  H    2.954992   3.778138   1.095776   2.155864   3.396445
    21  H    3.357034   3.061739   1.094730   2.104853   2.751418
    22  H    5.931688   5.142506   3.020836   2.211391   1.082916
    23  H    7.416223   7.616733   4.637849   3.248827   3.189079
    24  H    5.151450   5.854491   2.878475   2.148264   3.169044
    25  H    6.144953   4.824829   5.695126   5.781492   5.859651
    26  H    5.874582   4.277084   4.804987   4.791727   4.594053
    27  H    5.350846   3.757466   6.026506   6.666956   6.966896
    28  H    6.560188   4.644387   6.568671   6.964171   6.908899
    29  H    5.201529   3.109022   5.886280   6.728721   6.895841
    30  H    3.782335   1.663551   4.238854   5.141855   5.472988
    31  H    5.339278   3.178375   5.084955   5.663140   5.578484
                   11         12         13         14         15
    11  N    0.000000
    12  C    1.313883   0.000000
    13  N    2.222986   1.368641   0.000000
    14  C    5.909268   6.215535   5.792271   0.000000
    15  C    7.158036   7.535530   7.006632   1.531469   0.000000
    16  N    7.057515   7.526093   6.896717   2.517259   1.521188
    17  H    3.506450   3.821609   3.322234   2.677930   3.782139
    18  H    4.894486   4.450097   3.250553   4.215956   5.042430
    19  H    6.590913   6.177073   4.842445   5.744267   6.068972
    20  H    4.374858   4.076930   2.828500   5.832918   6.527869
    21  H    4.062222   4.299778   3.393786   5.002445   5.552540
    22  H    2.146624   3.163642   3.243268   5.130521   6.039511
    23  H    2.135673   1.081300   2.149321   6.979950   8.369589
    24  H    3.185678   2.122807   1.009763   6.239854   7.432927
    25  H    6.391444   6.601469   6.266686   1.093556   2.132550
    26  H    5.268601   5.770026   5.541777   1.095256   2.187588
    27  H    7.857814   8.087933   7.437040   2.156192   1.090675
    28  H    7.738578   8.228019   7.829387   2.194884   1.091077
    29  H    8.036274   8.506517   7.829662   3.405728   2.112022
    30  H    6.644737   6.998959   6.224509   2.743227   2.174571
    31  H    6.683315   7.314825   6.818441   2.811804   2.119276
                   16         17         18         19         20
    16  N    0.000000
    17  H    3.723746   0.000000
    18  H    4.945614   2.790823   0.000000
    19  H    5.558073   4.561310   2.257429   0.000000
    20  H    5.930234   3.587045   2.453942   2.627814   0.000000
    21  H    4.751131   2.763371   3.074904   3.521832   1.755179
    22  H    5.578225   2.746900   4.688772   6.009152   3.889668
    23  H    8.474705   4.751142   5.179738   6.935375   4.942801
    24  H    7.362677   3.942270   3.100455   4.539431   2.836683
    25  H    3.443130   3.438432   4.746534   6.408161   6.604750
    26  H    2.826047   2.370767   4.579631   6.217236   5.842832
    27  H    2.103765   4.400401   5.074900   5.906920   6.792912
    28  H    2.120577   4.546525   6.083568   7.147325   7.496727
    29  H    1.024019   4.720458   5.707128   6.013154   6.635187
    30  H    1.065248   3.293577   4.083346   4.516605   4.986418
    31  H    1.023705   3.625524   5.323798   6.043310   5.994373
                   21         22         23         24         25
    21  H    0.000000
    22  H    2.759082   0.000000
    23  H    5.342590   4.179409   0.000000
    24  H    3.864834   4.204013   2.536458   0.000000
    25  H    5.937519   5.906860   7.238778   6.650280   0.000000
    26  H    4.813729   4.411998   6.558856   6.144323   1.771204
    27  H    6.032496   6.846840   8.884838   7.732392   2.453428
    28  H    6.402062   6.580947   9.043409   8.323575   2.515359
    29  H    5.471170   6.473302   9.466627   8.260124   4.214410
    30  H    3.926227   5.197205   7.966140   6.614979   3.735637
    31  H    4.593935   5.042789   8.292483   7.404948   3.792261
                   26         27         28         29         30
    26  H    0.000000
    27  H    3.078281   0.000000
    28  H    2.538265   1.786787   0.000000
    29  H    3.780732   2.368921   2.447511   0.000000
    30  H    3.124048   2.503024   3.036397   1.679720   0.000000
    31  H    2.711850   2.968543   2.405765   1.647254   1.682242
                   31
    31  H    0.000000
 Symmetry turned off by external request.
 Stoichiometry    C9H15N4O3(1+)
 Framework group  C1[X(C9H15N4O3)]
 Deg. of freedom    87
 Full point group                 C1      NOp   1
 Rotational constants (GHZ):      0.7780011      0.3317546      0.2730888
 Standard basis: 6-311++G(2df,2pd) (5D, 7F)
   769 basis functions,  1102 primitive gaussians,   864 cartesian basis functions
    60 alpha electrons       60 beta electrons
       nuclear repulsion energy      1165.5065155035 Hartrees.
 NAtoms=   31 NActive=   31 NUniq=   31 SFac= 1.00D+00 NAtFMM=   60 NAOKFM=F Big=F
 Integral buffers will be    131072 words long.
 Raffenetti 2 integral format.
 Two-electron integral symmetry is turned off.
 One-electron integrals computed using PRISM.
 NBasis=   769 RedAO= T EigKep=  1.44D-06  NBF=   769
 NBsUse=   769 1.00D-06 EigRej= -1.00D+00 NBFU=   769
 Initial guess from the checkpoint file:  "conf-661.chk"
 B after Tr=     0.000000    0.000000    0.000000
         Rot=    1.000000    0.000000    0.000000    0.000000 Ang=   0.00 deg.
 Requested convergence on RMS density matrix=1.00D-08 within 128 cycles.
 Requested convergence on MAX density matrix=1.00D-06.
 Requested convergence on             energy=1.00D-06.
 No special actions if energy rises.
 SCF Done:  E(RB3LYP) =  -796.753449603     A.U. after   14 cycles
            NFock= 14  Conv=0.13D-08     -V/T= 2.0043

 **********************************************************************

            Population analysis using the SCF density.

 **********************************************************************

 Alpha  occ. eigenvalues --  -19.32602 -19.27228 -19.24174 -14.58648 -14.49270
 Alpha  occ. eigenvalues --  -14.48748 -14.40542 -10.46674 -10.42559 -10.39793
 Alpha  occ. eigenvalues --  -10.38421 -10.34699 -10.33887 -10.33805 -10.33090
 Alpha  occ. eigenvalues --  -10.30283  -1.26564  -1.19676  -1.17972  -1.15459
 Alpha  occ. eigenvalues --   -1.13313  -1.08456  -0.99035  -0.95722  -0.93404
 Alpha  occ. eigenvalues --   -0.87635  -0.82913  -0.80425  -0.78248  -0.75515
 Alpha  occ. eigenvalues --   -0.74264  -0.73579  -0.73243  -0.71354  -0.68864
 Alpha  occ. eigenvalues --   -0.66666  -0.66289  -0.65421  -0.64931  -0.61479
 Alpha  occ. eigenvalues --   -0.60339  -0.59232  -0.58291  -0.57612  -0.56722
 Alpha  occ. eigenvalues --   -0.56171  -0.54773  -0.53933  -0.53374  -0.52861
 Alpha  occ. eigenvalues --   -0.52668  -0.52326  -0.50793  -0.48076  -0.45000
 Alpha  occ. eigenvalues --   -0.42126  -0.41439  -0.40358  -0.38475  -0.35230
 Alpha virt. eigenvalues --   -0.16708  -0.16151  -0.15090  -0.13417  -0.12412
 Alpha virt. eigenvalues --   -0.11317  -0.10507  -0.10090  -0.09582  -0.09193
 Alpha virt. eigenvalues --   -0.08211  -0.07929  -0.06735  -0.06650  -0.06160
 Alpha virt. eigenvalues --   -0.06032  -0.05669  -0.04832  -0.04430  -0.03818
 Alpha virt. eigenvalues --   -0.03549  -0.03084  -0.02885  -0.02363  -0.01781
 Alpha virt. eigenvalues --   -0.01569  -0.01242  -0.00946  -0.00520  -0.00280
 Alpha virt. eigenvalues --    0.00318   0.00639   0.00959   0.01247   0.01524
 Alpha virt. eigenvalues --    0.01731   0.02442   0.02547   0.02723   0.02833
 Alpha virt. eigenvalues --    0.03566   0.03620   0.03840   0.04225   0.04292
 Alpha virt. eigenvalues --    0.04788   0.05128   0.05314   0.05660   0.05828
 Alpha virt. eigenvalues --    0.06036   0.06447   0.06756   0.07078   0.07279
 Alpha virt. eigenvalues --    0.07457   0.08070   0.08596   0.08952   0.09712
 Alpha virt. eigenvalues --    0.09779   0.10230   0.10489   0.10770   0.11319
 Alpha virt. eigenvalues --    0.11559   0.12067   0.12575   0.12823   0.13279
 Alpha virt. eigenvalues --    0.13972   0.14140   0.14441   0.14839   0.15330
 Alpha virt. eigenvalues --    0.15783   0.15869   0.16479   0.16976   0.17136
 Alpha virt. eigenvalues --    0.18115   0.18204   0.18967   0.19024   0.19457
 Alpha virt. eigenvalues --    0.19585   0.20559   0.20735   0.21154   0.21731
 Alpha virt. eigenvalues --    0.22230   0.22461   0.22891   0.23077   0.23319
 Alpha virt. eigenvalues --    0.23739   0.24241   0.24600   0.24898   0.25463
 Alpha virt. eigenvalues --    0.26187   0.26470   0.27708   0.28706   0.29287
 Alpha virt. eigenvalues --    0.29553   0.30854   0.31533   0.32245   0.33041
 Alpha virt. eigenvalues --    0.33556   0.34108   0.34442   0.35164   0.36266
 Alpha virt. eigenvalues --    0.36668   0.37657   0.37761   0.38106   0.38710
 Alpha virt. eigenvalues --    0.39545   0.40042   0.40681   0.41808   0.42371
 Alpha virt. eigenvalues --    0.43450   0.43887   0.44468   0.45401   0.45569
 Alpha virt. eigenvalues --    0.46345   0.46519   0.47128   0.47860   0.48084
 Alpha virt. eigenvalues --    0.48255   0.48776   0.49038   0.49481   0.50121
 Alpha virt. eigenvalues --    0.50736   0.51340   0.51927   0.52754   0.53171
 Alpha virt. eigenvalues --    0.53676   0.54384   0.54727   0.55613   0.55685
 Alpha virt. eigenvalues --    0.56097   0.57330   0.57690   0.58256   0.58800
 Alpha virt. eigenvalues --    0.59700   0.60024   0.61261   0.61947   0.62750
 Alpha virt. eigenvalues --    0.63173   0.63322   0.64605   0.65489   0.65763
 Alpha virt. eigenvalues --    0.66238   0.66754   0.67679   0.68367   0.69051
 Alpha virt. eigenvalues --    0.70432   0.70699   0.71516   0.72489   0.72638
 Alpha virt. eigenvalues --    0.73530   0.73956   0.74349   0.75281   0.76015
 Alpha virt. eigenvalues --    0.76917   0.78146   0.79967   0.80532   0.81691
 Alpha virt. eigenvalues --    0.81954   0.83306   0.84810   0.85073   0.85916
 Alpha virt. eigenvalues --    0.87146   0.87430   0.87893   0.89343   0.90103
 Alpha virt. eigenvalues --    0.90536   0.91347   0.91826   0.93570   0.94357
 Alpha virt. eigenvalues --    0.94629   0.95375   0.96179   0.97250   0.98033
 Alpha virt. eigenvalues --    0.98460   0.98663   0.99340   1.00110   1.01659
 Alpha virt. eigenvalues --    1.01951   1.02442   1.03968   1.04265   1.04695
 Alpha virt. eigenvalues --    1.05737   1.06007   1.06809   1.07365   1.09279
 Alpha virt. eigenvalues --    1.09411   1.09688   1.10266   1.11461   1.12178
 Alpha virt. eigenvalues --    1.12793   1.13217   1.14544   1.15245   1.16222
 Alpha virt. eigenvalues --    1.17701   1.18513   1.18652   1.18927   1.19397
 Alpha virt. eigenvalues --    1.19880   1.20913   1.22283   1.23253   1.23379
 Alpha virt. eigenvalues --    1.24066   1.25015   1.25898   1.26823   1.27470
 Alpha virt. eigenvalues --    1.28647   1.29809   1.30216   1.30611   1.30788
 Alpha virt. eigenvalues --    1.32425   1.33106   1.33804   1.34441   1.34727
 Alpha virt. eigenvalues --    1.36612   1.36692   1.37256   1.38296   1.38945
 Alpha virt. eigenvalues --    1.39639   1.40848   1.41799   1.42132   1.42489
 Alpha virt. eigenvalues --    1.43533   1.44691   1.46480   1.47000   1.47302
 Alpha virt. eigenvalues --    1.48084   1.48808   1.49209   1.51434   1.52038
 Alpha virt. eigenvalues --    1.53396   1.54953   1.56505   1.57396   1.58273
 Alpha virt. eigenvalues --    1.58518   1.59824   1.60760   1.61611   1.62614
 Alpha virt. eigenvalues --    1.64161   1.65109   1.66764   1.68851   1.69741
 Alpha virt. eigenvalues --    1.70122   1.71223   1.73666   1.75513   1.77122
 Alpha virt. eigenvalues --    1.79153   1.80360   1.81888   1.85908   1.87028
 Alpha virt. eigenvalues --    1.89856   1.90814   1.93147   1.94454   1.95544
 Alpha virt. eigenvalues --    1.98377   2.01391   2.05084   2.06554   2.08440
 Alpha virt. eigenvalues --    2.11098   2.14741   2.17821   2.22630   2.25388
 Alpha virt. eigenvalues --    2.29527   2.31429   2.32587   2.33449   2.36343
 Alpha virt. eigenvalues --    2.38013   2.38681   2.40107   2.41276   2.43254
 Alpha virt. eigenvalues --    2.44734   2.46999   2.47998   2.50548   2.52371
 Alpha virt. eigenvalues --    2.53525   2.54193   2.55621   2.58440   2.58894
 Alpha virt. eigenvalues --    2.60837   2.61347   2.62910   2.63280   2.63659
 Alpha virt. eigenvalues --    2.64105   2.66457   2.66495   2.68169   2.69514
 Alpha virt. eigenvalues --    2.70601   2.70938   2.72005   2.74341   2.74513
 Alpha virt. eigenvalues --    2.76015   2.76540   2.77150   2.78073   2.78575
 Alpha virt. eigenvalues --    2.78974   2.79635   2.79837   2.82404   2.83128
 Alpha virt. eigenvalues --    2.84846   2.84930   2.85338   2.86152   2.86613
 Alpha virt. eigenvalues --    2.87200   2.88312   2.88866   2.89808   2.90159
 Alpha virt. eigenvalues --    2.92041   2.92698   2.93618   2.93835   2.95061
 Alpha virt. eigenvalues --    2.95482   2.96082   2.97436   2.98234   2.99133
 Alpha virt. eigenvalues --    2.99601   3.00120   3.00939   3.01097   3.01612
 Alpha virt. eigenvalues --    3.03008   3.03442   3.04776   3.05266   3.05498
 Alpha virt. eigenvalues --    3.06889   3.07712   3.08683   3.08932   3.09262
 Alpha virt. eigenvalues --    3.10445   3.10778   3.12110   3.12752   3.13138
 Alpha virt. eigenvalues --    3.14093   3.14944   3.15497   3.15957   3.17091
 Alpha virt. eigenvalues --    3.17825   3.18278   3.18891   3.20028   3.20508
 Alpha virt. eigenvalues --    3.22018   3.22158   3.22997   3.24701   3.25017
 Alpha virt. eigenvalues --    3.25301   3.26805   3.27196   3.27681   3.28323
 Alpha virt. eigenvalues --    3.28944   3.30067   3.30391   3.30782   3.31412
 Alpha virt. eigenvalues --    3.32761   3.33026   3.34225   3.34487   3.35528
 Alpha virt. eigenvalues --    3.36717   3.37046   3.37488   3.38929   3.39369
 Alpha virt. eigenvalues --    3.39840   3.41778   3.42208   3.42994   3.43347
 Alpha virt. eigenvalues --    3.44244   3.45753   3.46392   3.47545   3.48452
 Alpha virt. eigenvalues --    3.49964   3.50517   3.51340   3.52377   3.53167
 Alpha virt. eigenvalues --    3.53825   3.54985   3.55716   3.56374   3.56877
 Alpha virt. eigenvalues --    3.57480   3.58137   3.58592   3.59540   3.59603
 Alpha virt. eigenvalues --    3.60216   3.61888   3.62625   3.62709   3.64474
 Alpha virt. eigenvalues --    3.65735   3.66461   3.67341   3.67940   3.68275
 Alpha virt. eigenvalues --    3.68827   3.70423   3.71493   3.72374   3.74267
 Alpha virt. eigenvalues --    3.74696   3.75339   3.76751   3.76808   3.77380
 Alpha virt. eigenvalues --    3.78415   3.79207   3.80297   3.81027   3.82643
 Alpha virt. eigenvalues --    3.83210   3.84201   3.84596   3.85201   3.85541
 Alpha virt. eigenvalues --    3.85820   3.86935   3.88738   3.89451   3.90701
 Alpha virt. eigenvalues --    3.91470   3.91681   3.92827   3.93155   3.93392
 Alpha virt. eigenvalues --    3.94665   3.96785   3.97267   3.98130   3.99153
 Alpha virt. eigenvalues --    3.99529   4.00583   4.01224   4.01365   4.01816
 Alpha virt. eigenvalues --    4.03765   4.04360   4.05306   4.06228   4.06609
 Alpha virt. eigenvalues --    4.07990   4.08543   4.09831   4.11299   4.12215
 Alpha virt. eigenvalues --    4.14112   4.15716   4.16121   4.16898   4.18664
 Alpha virt. eigenvalues --    4.19916   4.20387   4.21400   4.22152   4.22919
 Alpha virt. eigenvalues --    4.25648   4.26726   4.28108   4.28883   4.30271
 Alpha virt. eigenvalues --    4.32669   4.35011   4.35921   4.35994   4.36699
 Alpha virt. eigenvalues --    4.40197   4.42133   4.43509   4.45076   4.45833
 Alpha virt. eigenvalues --    4.46388   4.48077   4.48681   4.49634   4.50949
 Alpha virt. eigenvalues --    4.52289   4.53516   4.55887   4.58046   4.60906
 Alpha virt. eigenvalues --    4.62703   4.64773   4.65881   4.67001   4.69866
 Alpha virt. eigenvalues --    4.70425   4.71596   4.72424   4.73711   4.75416
 Alpha virt. eigenvalues --    4.75763   4.77357   4.78200   4.79416   4.79997
 Alpha virt. eigenvalues --    4.80586   4.81871   4.84380   4.84850   4.87649
 Alpha virt. eigenvalues --    4.88418   4.89300   4.91062   4.91658   4.91855
 Alpha virt. eigenvalues --    4.93302   4.94262   4.94629   4.95223   4.96765
 Alpha virt. eigenvalues --    4.98010   4.98759   4.99470   5.00003   5.01302
 Alpha virt. eigenvalues --    5.01979   5.02699   5.04881   5.05329   5.06136
 Alpha virt. eigenvalues --    5.07321   5.08278   5.08924   5.10430   5.11266
 Alpha virt. eigenvalues --    5.11642   5.13596   5.14326   5.15274   5.15739
 Alpha virt. eigenvalues --    5.16626   5.18274   5.19566   5.19830   5.21249
 Alpha virt. eigenvalues --    5.22465   5.23317   5.24069   5.25241   5.26245
 Alpha virt. eigenvalues --    5.28817   5.30663   5.33018   5.35279   5.36652
 Alpha virt. eigenvalues --    5.37985   5.38924   5.40076   5.41395   5.42831
 Alpha virt. eigenvalues --    5.45772   5.46686   5.48256   5.48819   5.51351
 Alpha virt. eigenvalues --    5.51994   5.53569   5.55684   5.56213   5.56681
 Alpha virt. eigenvalues --    5.60178   5.64795   5.67080   5.68054   5.69122
 Alpha virt. eigenvalues --    5.70769   5.77435   5.78895   5.83125   5.84700
 Alpha virt. eigenvalues --    5.85182   5.89061   5.90600   5.92411   5.92835
 Alpha virt. eigenvalues --    5.96923   5.98303   6.03081   6.08377   6.09912
 Alpha virt. eigenvalues --    6.15677   6.16773   6.19708   6.21654   6.24657
 Alpha virt. eigenvalues --    6.28192   6.28359   6.31444   6.34313   6.34814
 Alpha virt. eigenvalues --    6.42459   6.44480   6.56850   6.60349   6.74833
 Alpha virt. eigenvalues --    6.77068   6.77939   6.80574   6.82955   6.86869
 Alpha virt. eigenvalues --    6.87572   6.95226   7.02618   7.05851   7.08238
 Alpha virt. eigenvalues --    7.09602   7.10693   7.14675   7.20241   7.23647
 Alpha virt. eigenvalues --    7.27449   7.41118   7.44730   7.49200   7.60106
 Alpha virt. eigenvalues --    7.65584   7.74756   7.88569  24.40680  24.62985
 Alpha virt. eigenvalues --   24.71603  24.72421  24.86424  24.88970  24.93643
 Alpha virt. eigenvalues --   24.94662  24.99777  35.88510  36.11520  36.15803
 Alpha virt. eigenvalues --   36.38869  50.04894  50.10372  50.16551
          Condensed to atoms (all electrons):
               1          2          3          4          5          6
     1  O    8.027391   0.517710  -0.110851   0.008521  -0.032901   0.000736
     2  C    0.517710   7.128071   0.076963  -0.420754  -0.244572  -0.015014
     3  N   -0.110851   0.076963   6.848317  -0.095935  -0.110833   0.008914
     4  C    0.008521  -0.420754  -0.095935   9.190774  -1.196774  -0.011040
     5  C   -0.032901  -0.244572  -0.110833  -1.196774   6.710867   0.348401
     6  O    0.000736  -0.015014   0.008914  -0.011040   0.348401   7.681212
     7  O   -0.003758   0.030222   0.001367   0.081333   0.243132  -0.023941
     8  C   -0.005835  -0.300548   0.126081  -3.731634   1.715783  -0.125154
     9  C    0.014509   0.228163  -0.150839   1.424671  -1.136146   0.070278
    10  C   -0.002880   0.058984  -0.016264   0.078676  -0.112776   0.001804
    11  N    0.000263   0.000150   0.003945   0.008072  -0.000399  -0.000004
    12  C    0.001038   0.014105   0.043975   0.042048  -0.012201   0.000911
    13  N    0.000840  -0.020302   0.017762  -0.036228   0.049543  -0.001068
    14  C   -0.036728  -0.778603  -0.165400   0.276168  -0.221255  -0.001896
    15  C   -0.026644   0.056843  -0.012077   0.038385   0.042024   0.000644
    16  N   -0.011261  -0.097605   0.065488  -0.064270   0.029039   0.000186
    17  H    0.007278  -0.089973   0.323597  -0.079845   0.042348  -0.000172
    18  H   -0.010505   0.089557  -0.030689   0.513975  -0.084111  -0.003149
    19  H   -0.001146  -0.015302  -0.003323   0.089553   0.007891   0.182087
    20  H   -0.000218   0.008055   0.008356   0.001116  -0.024013   0.008441
    21  H   -0.000541   0.014665   0.012903  -0.021447  -0.055222  -0.003606
    22  H   -0.000192  -0.000800   0.003436  -0.015257   0.003742  -0.000008
    23  H    0.000008   0.000818   0.000852   0.002380  -0.000779   0.000044
    24  H    0.000310  -0.004091  -0.004465  -0.005385   0.001225  -0.000155
    25  H   -0.002151  -0.066900  -0.000133  -0.004457   0.003705  -0.000112
    26  H    0.001485  -0.037864   0.009766   0.002678  -0.008590   0.000004
    27  H   -0.002685  -0.000587   0.003863   0.003510  -0.002255  -0.000007
    28  H    0.000953  -0.011988  -0.001706   0.001159   0.001586  -0.000005
    29  H   -0.000559   0.018807   0.003521  -0.004910   0.005509  -0.000164
    30  H    0.013530   0.030611  -0.035879   0.048623  -0.049526   0.004035
    31  H   -0.001330   0.008968  -0.002901  -0.000521  -0.005260  -0.000022
               7          8          9         10         11         12
     1  O   -0.003758  -0.005835   0.014509  -0.002880   0.000263   0.001038
     2  C    0.030222  -0.300548   0.228163   0.058984   0.000150   0.014105
     3  N    0.001367   0.126081  -0.150839  -0.016264   0.003945   0.043975
     4  C    0.081333  -3.731634   1.424671   0.078676   0.008072   0.042048
     5  C    0.243132   1.715783  -1.136146  -0.112776  -0.000399  -0.012201
     6  O   -0.023941  -0.125154   0.070278   0.001804  -0.000004   0.000911
     7  O    8.087449  -0.021125  -0.025051  -0.001623   0.000008  -0.000992
     8  C   -0.021125  15.583044  -6.166690  -0.405508  -0.142910  -0.445278
     9  C   -0.025051  -6.166690  11.638109  -0.438187   0.122050  -0.036901
    10  C   -0.001623  -0.405508  -0.438187   6.909348   0.239400  -0.247976
    11  N    0.000008  -0.142910   0.122050   0.239400   6.816150   0.287605
    12  C   -0.000992  -0.445278  -0.036901  -0.247976   0.287605   5.401197
    13  N    0.000073  -0.067058   0.208872  -0.223093   0.055944   0.380326
    14  C   -0.049533  -0.312498   0.077803   0.030361  -0.003038   0.001991
    15  C   -0.010733   0.009722  -0.014398  -0.009275   0.000937   0.001500
    16  N    0.061364   0.025939  -0.007947   0.007261  -0.000207  -0.000246
    17  H   -0.002409   0.170141   0.042991  -0.089074  -0.005108  -0.020596
    18  H    0.011435  -0.176970  -0.058220   0.002129   0.000121   0.005821
    19  H   -0.019618  -0.070084   0.033521   0.000499   0.000021   0.000418
    20  H   -0.002963   0.280582   0.083426  -0.038780   0.003098   0.002582
    21  H    0.014888   0.387809  -0.052143   0.004171   0.000420  -0.005729
    22  H   -0.000564   0.035960  -0.209853   0.545624  -0.098873   0.032251
    23  H   -0.000049  -0.017036   0.039706   0.017902  -0.071336   0.450928
    24  H   -0.000062   0.014867  -0.082918   0.056749  -0.003494  -0.038888
    25  H   -0.002288   0.005268   0.000713  -0.003512   0.000079   0.000058
    26  H    0.004531  -0.014676  -0.003232   0.010996  -0.000341   0.000703
    27  H    0.004290  -0.000378   0.000611   0.000089  -0.000004   0.000002
    28  H   -0.002272  -0.001644  -0.001515   0.000177  -0.000012  -0.000051
    29  H   -0.000108   0.001306  -0.000563   0.000041  -0.000008   0.000020
    30  H    0.011399  -0.022253  -0.000624  -0.002231  -0.000055  -0.000607
    31  H   -0.000977  -0.000246   0.004253   0.001169   0.000028   0.000082
              13         14         15         16         17         18
     1  O    0.000840  -0.036728  -0.026644  -0.011261   0.007278  -0.010505
     2  C   -0.020302  -0.778603   0.056843  -0.097605  -0.089973   0.089557
     3  N    0.017762  -0.165400  -0.012077   0.065488   0.323597  -0.030689
     4  C   -0.036228   0.276168   0.038385  -0.064270  -0.079845   0.513975
     5  C    0.049543  -0.221255   0.042024   0.029039   0.042348  -0.084111
     6  O   -0.001068  -0.001896   0.000644   0.000186  -0.000172  -0.003149
     7  O    0.000073  -0.049533  -0.010733   0.061364  -0.002409   0.011435
     8  C   -0.067058  -0.312498   0.009722   0.025939   0.170141  -0.176970
     9  C    0.208872   0.077803  -0.014398  -0.007947   0.042991  -0.058220
    10  C   -0.223093   0.030361  -0.009275   0.007261  -0.089074   0.002129
    11  N    0.055944  -0.003038   0.000937  -0.000207  -0.005108   0.000121
    12  C    0.380326   0.001991   0.001500  -0.000246  -0.020596   0.005821
    13  N    6.265008  -0.004975   0.001281  -0.000268   0.004668   0.000131
    14  C   -0.004975   6.245479   0.079816  -0.075574  -0.046107   0.012202
    15  C    0.001281   0.079816   5.196832   0.055283   0.006809  -0.000097
    16  N   -0.000268  -0.075574   0.055283   5.943188   0.003329  -0.002989
    17  H    0.004668  -0.046107   0.006809   0.003329   0.600621  -0.017556
    18  H    0.000131   0.012202  -0.000097  -0.002989  -0.017556   0.632350
    19  H   -0.000346   0.002899   0.000377  -0.000230  -0.000246  -0.021462
    20  H   -0.001527   0.000230  -0.000667   0.000213   0.000210  -0.008065
    21  H    0.005015  -0.005679  -0.000493   0.000801  -0.006811   0.009631
    22  H    0.014692   0.004005  -0.001135   0.000149  -0.003184  -0.000912
    23  H   -0.077931   0.000856   0.000018  -0.000006  -0.003069   0.000614
    24  H    0.401399   0.000191   0.000064  -0.000113   0.002474  -0.004117
    25  H    0.000041   0.438071   0.006404  -0.009659   0.001961  -0.000434
    26  H   -0.000357   0.412630  -0.054466   0.027978  -0.011395   0.002589
    27  H    0.000002  -0.050077   0.424848  -0.002563   0.000718  -0.000265
    28  H   -0.000010  -0.026217   0.406420  -0.026979   0.000408   0.000446
    29  H   -0.000023  -0.014377  -0.035697   0.392079   0.001379  -0.000177
    30  H    0.000297   0.015326   0.003810   0.268609  -0.002320   0.005902
    31  H   -0.000062   0.023588  -0.020442   0.352378  -0.004815  -0.000669
              19         20         21         22         23         24
     1  O   -0.001146  -0.000218  -0.000541  -0.000192   0.000008   0.000310
     2  C   -0.015302   0.008055   0.014665  -0.000800   0.000818  -0.004091
     3  N   -0.003323   0.008356   0.012903   0.003436   0.000852  -0.004465
     4  C    0.089553   0.001116  -0.021447  -0.015257   0.002380  -0.005385
     5  C    0.007891  -0.024013  -0.055222   0.003742  -0.000779   0.001225
     6  O    0.182087   0.008441  -0.003606  -0.000008   0.000044  -0.000155
     7  O   -0.019618  -0.002963   0.014888  -0.000564  -0.000049  -0.000062
     8  C   -0.070084   0.280582   0.387809   0.035960  -0.017036   0.014867
     9  C    0.033521   0.083426  -0.052143  -0.209853   0.039706  -0.082918
    10  C    0.000499  -0.038780   0.004171   0.545624   0.017902   0.056749
    11  N    0.000021   0.003098   0.000420  -0.098873  -0.071336  -0.003494
    12  C    0.000418   0.002582  -0.005729   0.032251   0.450928  -0.038888
    13  N   -0.000346  -0.001527   0.005015   0.014692  -0.077931   0.401399
    14  C    0.002899   0.000230  -0.005679   0.004005   0.000856   0.000191
    15  C    0.000377  -0.000667  -0.000493  -0.001135   0.000018   0.000064
    16  N   -0.000230   0.000213   0.000801   0.000149  -0.000006  -0.000113
    17  H   -0.000246   0.000210  -0.006811  -0.003184  -0.003069   0.002474
    18  H   -0.021462  -0.008065   0.009631  -0.000912   0.000614  -0.004117
    19  H    0.595550  -0.001908  -0.000835   0.000074   0.000033   0.000778
    20  H   -0.001908   0.631604  -0.014051  -0.000831  -0.000056  -0.001339
    21  H   -0.000835  -0.014051   0.615621  -0.001907  -0.000345  -0.000761
    22  H    0.000074  -0.000831  -0.001907   0.601102   0.001478   0.001816
    23  H    0.000033  -0.000056  -0.000345   0.001478   0.540023  -0.006388
    24  H    0.000778  -0.001339  -0.000761   0.001816  -0.006388   0.530573
    25  H    0.000109   0.000096  -0.000078  -0.000111   0.000019   0.000070
    26  H   -0.000337   0.000195   0.001089   0.000250   0.000117  -0.000288
    27  H   -0.000018  -0.000024   0.000052   0.000053   0.000000   0.000005
    28  H   -0.000028   0.000000   0.000025   0.000025  -0.000001  -0.000008
    29  H    0.000023   0.000006  -0.000041  -0.000004   0.000001  -0.000014
    30  H   -0.002013   0.000467   0.000362  -0.000080  -0.000026   0.000085
    31  H    0.000228   0.000016  -0.000083  -0.000030   0.000007   0.000009
              25         26         27         28         29         30
     1  O   -0.002151   0.001485  -0.002685   0.000953  -0.000559   0.013530
     2  C   -0.066900  -0.037864  -0.000587  -0.011988   0.018807   0.030611
     3  N   -0.000133   0.009766   0.003863  -0.001706   0.003521  -0.035879
     4  C   -0.004457   0.002678   0.003510   0.001159  -0.004910   0.048623
     5  C    0.003705  -0.008590  -0.002255   0.001586   0.005509  -0.049526
     6  O   -0.000112   0.000004  -0.000007  -0.000005  -0.000164   0.004035
     7  O   -0.002288   0.004531   0.004290  -0.002272  -0.000108   0.011399
     8  C    0.005268  -0.014676  -0.000378  -0.001644   0.001306  -0.022253
     9  C    0.000713  -0.003232   0.000611  -0.001515  -0.000563  -0.000624
    10  C   -0.003512   0.010996   0.000089   0.000177   0.000041  -0.002231
    11  N    0.000079  -0.000341  -0.000004  -0.000012  -0.000008  -0.000055
    12  C    0.000058   0.000703   0.000002  -0.000051   0.000020  -0.000607
    13  N    0.000041  -0.000357   0.000002  -0.000010  -0.000023   0.000297
    14  C    0.438071   0.412630  -0.050077  -0.026217  -0.014377   0.015326
    15  C    0.006404  -0.054466   0.424848   0.406420  -0.035697   0.003810
    16  N   -0.009659   0.027978  -0.002563  -0.026979   0.392079   0.268609
    17  H    0.001961  -0.011395   0.000718   0.000408   0.001379  -0.002320
    18  H   -0.000434   0.002589  -0.000265   0.000446  -0.000177   0.005902
    19  H    0.000109  -0.000337  -0.000018  -0.000028   0.000023  -0.002013
    20  H    0.000096   0.000195  -0.000024   0.000000   0.000006   0.000467
    21  H   -0.000078   0.001089   0.000052   0.000025  -0.000041   0.000362
    22  H   -0.000111   0.000250   0.000053   0.000025  -0.000004  -0.000080
    23  H    0.000019   0.000117   0.000000  -0.000001   0.000001  -0.000026
    24  H    0.000070  -0.000288   0.000005  -0.000008  -0.000014   0.000085
    25  H    0.591286  -0.042849  -0.005469  -0.004925  -0.001637   0.002366
    26  H   -0.042849   0.646386   0.005440  -0.004025   0.001566  -0.006760
    27  H   -0.005469   0.005440   0.541949  -0.034870  -0.001238  -0.018062
    28  H   -0.004925  -0.004025  -0.034870   0.597081   0.000774   0.009742
    29  H   -0.001637   0.001566  -0.001238   0.000774   0.540840  -0.032951
    30  H    0.002366  -0.006760  -0.018062   0.009742  -0.032951   0.392225
    31  H    0.003013  -0.003602   0.004086  -0.012660  -0.037623  -0.026468
              31
     1  O   -0.001330
     2  C    0.008968
     3  N   -0.002901
     4  C   -0.000521
     5  C   -0.005260
     6  O   -0.000022
     7  O   -0.000977
     8  C   -0.000246
     9  C    0.004253
    10  C    0.001169
    11  N    0.000028
    12  C    0.000082
    13  N   -0.000062
    14  C    0.023588
    15  C   -0.020442
    16  N    0.352378
    17  H   -0.004815
    18  H   -0.000669
    19  H    0.000228
    20  H    0.000016
    21  H   -0.000083
    22  H   -0.000030
    23  H    0.000007
    24  H    0.000009
    25  H    0.003013
    26  H   -0.003602
    27  H    0.004086
    28  H   -0.012660
    29  H   -0.037623
    30  H   -0.026468
    31  H    0.582079
 Mulliken charges:
               1
     1  O   -0.344387
     2  C   -0.177790
     3  N    0.182190
     4  C   -0.123184
     5  C    0.092819
     6  O   -0.122179
     7  O   -0.383424
     8  C   -0.328977
     9  C    0.395554
    10  C   -0.374198
    11  N   -0.212506
    12  C    0.141905
    13  N    0.027356
    14  C    0.170342
    15  C   -0.145895
    16  N    0.066632
    17  H    0.173746
    18  H    0.133484
    19  H    0.222836
    20  H    0.065747
    21  H    0.102319
    22  H    0.089085
    23  H    0.121216
    24  H    0.141871
    25  H    0.091457
    26  H    0.060380
    27  H    0.128985
    28  H    0.110120
    29  H    0.164224
    30  H    0.392466
    31  H    0.137806
 Sum of Mulliken charges =   1.00000
 Mulliken charges with hydrogens summed into heavy atoms:
               1
     1  O   -0.344387
     2  C   -0.177790
     3  N    0.355936
     4  C    0.010300
     5  C    0.092819
     6  O    0.100657
     7  O   -0.383424
     8  C   -0.160911
     9  C    0.395554
    10  C   -0.285113
    11  N   -0.212506
    12  C    0.263122
    13  N    0.169226
    14  C    0.322179
    15  C    0.093210
    16  N    0.761127
 Electronic spatial extent (au):  <R**2>=           4113.2044
 Charge=              1.0000 electrons
 Dipole moment (field-independent basis, Debye):
    X=              5.0144    Y=             -1.7011    Z=             -1.3944  Tot=              5.4756
 Quadrupole moment (field-independent basis, Debye-Ang):
   XX=            -63.0236   YY=            -84.2446   ZZ=            -68.7600
   XY=            -13.1203   XZ=            -38.3016   YZ=              9.2240
 Traceless Quadrupole moment (field-independent basis, Debye-Ang):
   XX=              8.9858   YY=            -12.2352   ZZ=              3.2494
   XY=            -13.1203   XZ=            -38.3016   YZ=              9.2240
 Octapole moment (field-independent basis, Debye-Ang**2):
  XXX=            165.5654  YYY=             -1.8887  ZZZ=            -13.6532  XYY=             15.7333
  XXY=            -10.0645  XXZ=            -30.0080  XZZ=             41.1162  YZZ=            -13.5335
  YYZ=            -35.8856  XYZ=             -4.5041
 Hexadecapole moment (field-independent basis, Debye-Ang**3):
 XXXX=          -3068.5481 YYYY=           -721.4427 ZZZZ=           -890.2947 XXXY=             -2.8058
 XXXZ=           -320.0542 YYYX=            182.9159 YYYZ=            196.1093 ZZZX=            -66.9617
 ZZZY=            188.9313 XXYY=           -534.0508 XXZZ=           -712.0173 YYZZ=           -303.6698
 XXYZ=            163.5550 YYXZ=            -62.7714 ZZXY=             83.9074
 N-N= 1.165506515504D+03 E-N=-4.175070687420D+03  KE= 7.933051001812D+02
 Calling FoFJK, ICntrl=      2127 FMM=F ISym2X=0 I1Cent= 0 IOpClX= 0 NMat=1 NMatS=1 NMatT=0.
 -------------------------------------------------------------------
 Center     Atomic                   Forces (Hartrees/Bohr)
 Number     Number              X              Y              Z
 -------------------------------------------------------------------
      1        8          -0.007368355   -0.000918380   -0.009270984
      2        6           0.003670145   -0.000952838    0.004469191
      3        7           0.001259404    0.002873852    0.001805572
      4        6           0.000205756   -0.000310258    0.000159385
      5        6           0.004340295   -0.006685294   -0.003256964
      6        8          -0.001868300    0.003991804   -0.002316647
      7        8          -0.007784331    0.006534878    0.007015810
      8        6          -0.000505181   -0.001210871   -0.000326824
      9        6          -0.001349950    0.001419459   -0.003287268
     10        6           0.000933113   -0.001269142    0.002480984
     11        7           0.002315326    0.000757155    0.007908960
     12        6          -0.000004135   -0.000412332   -0.001650587
     13        7          -0.000498347   -0.001036112   -0.002363570
     14        6           0.000922495    0.001085356   -0.000094326
     15        6           0.000432721   -0.000510737    0.000317897
     16        7          -0.000123936   -0.001722943    0.000053062
     17        1           0.002749841   -0.000143366    0.001650598
     18        1           0.000222567   -0.002304717   -0.001842811
     19        1           0.002349136   -0.002369251   -0.001121854
     20        1           0.000651006    0.000843963   -0.002676773
     21        1          -0.000616609    0.002304729    0.001235214
     22        1          -0.000708641    0.002023143    0.001995982
     23        1           0.001567684   -0.002245898   -0.000341079
     24        1          -0.000299006   -0.000745677   -0.002788807
     25        1          -0.001031096   -0.002396952    0.000578958
     26        1           0.001583023    0.000475510    0.002411098
     27        1          -0.001247965   -0.000706852   -0.002423069
     28        1          -0.001359806    0.000292472    0.002402949
     29        1          -0.002467507    0.002101803   -0.000110012
     30        1           0.002195238    0.000082197   -0.003009551
     31        1           0.001835415    0.001155300    0.002395466
 -------------------------------------------------------------------
 Cartesian Forces:  Max     0.009270984 RMS     0.002717712

 GradGradGradGradGradGradGradGradGradGradGradGradGradGradGradGradGradGrad
 Berny optimization.
 FormGI is forming the generalized inverse of G from B-inverse, IUseBI=4.
 Internal  Forces:  Max     0.012330376 RMS     0.002082536
 Search for a local minimum.
 Step number   1 out of a maximum of  167
 All quantities printed in internal units (Hartrees-Bohrs-Radians)
 Mixed Optimization -- RFO/linear search
 Second derivative matrix not updated -- first step.
 ITU=  0
     Eigenvalues ---    0.00152   0.00227   0.00287   0.00321   0.00439
     Eigenvalues ---    0.00507   0.00703   0.00849   0.00974   0.01249
     Eigenvalues ---    0.02090   0.02273   0.02629   0.03711   0.03963
     Eigenvalues ---    0.04055   0.04075   0.04232   0.04456   0.04737
     Eigenvalues ---    0.04804   0.04946   0.05143   0.05193   0.05374
     Eigenvalues ---    0.05396   0.06057   0.06394   0.07223   0.07403
     Eigenvalues ---    0.08021   0.08921   0.10224   0.10651   0.11098
     Eigenvalues ---    0.11327   0.11857   0.11976   0.12476   0.13143
     Eigenvalues ---    0.14876   0.15226   0.16092   0.16773   0.18244
     Eigenvalues ---    0.19376   0.20277   0.21085   0.21810   0.22232
     Eigenvalues ---    0.22669   0.23098   0.24436   0.24501   0.25380
     Eigenvalues ---    0.26855   0.27482   0.28936   0.30644   0.32388
     Eigenvalues ---    0.33006   0.33554   0.33664   0.33845   0.34497
     Eigenvalues ---    0.34582   0.34689   0.34789   0.35335   0.35960
     Eigenvalues ---    0.37171   0.37395   0.39988   0.43384   0.43575
     Eigenvalues ---    0.44435   0.45111   0.45313   0.46384   0.46973
     Eigenvalues ---    0.47719   0.48286   0.51823   0.57734   0.83205
     Eigenvalues ---    0.84126   1.16285
 RFO step:  Lambda=-1.56954645D-03 EMin= 1.52465211D-03
 Linear search not attempted -- first point.
 Iteration  1 RMS(Cart)=  0.03883434 RMS(Int)=  0.00052841
 Iteration  2 RMS(Cart)=  0.00088663 RMS(Int)=  0.00019082
 Iteration  3 RMS(Cart)=  0.00000050 RMS(Int)=  0.00019082
 Variable       Old X    -DE/DX   Delta X   Delta X   Delta X     New X
                                 (Linear)    (Quad)   (Total)
    R1        2.31405  -0.01182   0.00000  -0.01236  -0.01236   2.30169
    R2        2.57699  -0.00337   0.00000  -0.01111  -0.01111   2.56588
    R3        2.88611  -0.00206   0.00000  -0.00644  -0.00644   2.87966
    R4        2.72888  -0.00046   0.00000  -0.00404  -0.00404   2.72485
    R5        1.91765  -0.00307   0.00000  -0.00833  -0.00833   1.90932
    R6        2.91156  -0.00285   0.00000  -0.00539  -0.00539   2.90617
    R7        2.95651  -0.00153   0.00000  -0.00722  -0.00722   2.94929
    R8        2.07513  -0.00295   0.00000  -0.00883  -0.00883   2.06630
    R9        2.50968  -0.00372   0.00000  -0.00591  -0.00591   2.50377
   R10        2.30750  -0.01233   0.00000  -0.01513  -0.01513   2.29237
   R11        1.83235  -0.00343   0.00000  -0.00708  -0.00708   1.82528
   R12        2.82054  -0.00313   0.00000  -0.00807  -0.00807   2.81247
   R13        2.07072  -0.00286   0.00000  -0.00780  -0.00780   2.06291
   R14        2.06874  -0.00267   0.00000  -0.00761  -0.00761   2.06113
   R15        2.60790  -0.00671   0.00000  -0.01279  -0.01279   2.59511
   R16        2.61656  -0.00286   0.00000  -0.00653  -0.00653   2.61002
   R17        2.59570  -0.00264   0.00000  -0.00473  -0.00473   2.59097
   R18        2.04641  -0.00293   0.00000  -0.00800  -0.00800   2.03841
   R19        2.48288  -0.00611   0.00000  -0.01083  -0.01084   2.47204
   R20        2.58636  -0.00427   0.00000  -0.00638  -0.00638   2.57998
   R21        2.04336  -0.00276   0.00000  -0.00720  -0.00720   2.03616
   R22        1.90818  -0.00288   0.00000  -0.00603  -0.00603   1.90215
   R23        2.89406  -0.00099   0.00000  -0.00803  -0.00803   2.88603
   R24        2.06652  -0.00266   0.00000  -0.00721  -0.00721   2.05932
   R25        2.06973  -0.00288   0.00000  -0.00800  -0.00800   2.06174
   R26        2.87463  -0.00204   0.00000  -0.00559  -0.00559   2.86904
   R27        2.06108  -0.00272   0.00000  -0.00759  -0.00759   2.05349
   R28        2.06184  -0.00275   0.00000  -0.00751  -0.00751   2.05433
   R29        1.93512  -0.00324   0.00000  -0.00725  -0.00725   1.92787
   R30        2.01303  -0.00369   0.00000  -0.01962  -0.01962   1.99341
   R31        1.93452  -0.00323   0.00000  -0.00699  -0.00699   1.92754
    A1        2.13209  -0.00090   0.00000   0.00085   0.00072   2.13281
    A2        2.10761  -0.00032   0.00000  -0.00330  -0.00343   2.10418
    A3        2.02643   0.00150   0.00000   0.00756   0.00743   2.03385
    A4        2.07895   0.00282   0.00000   0.01376   0.01244   2.09139
    A5        2.13630  -0.00225   0.00000  -0.00671  -0.00806   2.12824
    A6        2.05499  -0.00059   0.00000   0.00722   0.00592   2.06091
    A7        1.89257   0.00078   0.00000   0.00267   0.00267   1.89523
    A8        1.92321   0.00032   0.00000   0.00342   0.00342   1.92663
    A9        1.92685  -0.00046   0.00000  -0.00386  -0.00386   1.92299
   A10        1.90174  -0.00077   0.00000   0.00096   0.00095   1.90269
   A11        1.89392   0.00006   0.00000  -0.00077  -0.00076   1.89315
   A12        1.92484   0.00007   0.00000  -0.00235  -0.00235   1.92249
   A13        2.04350   0.00116   0.00000   0.00320   0.00317   2.04666
   A14        2.15808  -0.00137   0.00000  -0.00687  -0.00691   2.15117
   A15        2.07866   0.00023   0.00000   0.00474   0.00471   2.08338
   A16        1.95955   0.00144   0.00000   0.01128   0.01128   1.97083
   A17        1.98044  -0.00009   0.00000   0.00155   0.00155   1.98198
   A18        1.89277   0.00009   0.00000  -0.00174  -0.00174   1.89102
   A19        1.89108   0.00040   0.00000   0.00481   0.00481   1.89589
   A20        1.95277  -0.00026   0.00000  -0.00276  -0.00276   1.95001
   A21        1.88315  -0.00011   0.00000  -0.00176  -0.00177   1.88138
   A22        1.85882   0.00000   0.00000   0.00011   0.00011   1.85893
   A23        2.27795  -0.00030   0.00000  -0.00247  -0.00248   2.27547
   A24        2.18101   0.00011   0.00000   0.00047   0.00045   2.18146
   A25        1.82240   0.00019   0.00000   0.00250   0.00249   1.82489
   A26        1.94133  -0.00119   0.00000  -0.00466  -0.00466   1.93667
   A27        2.22255   0.00055   0.00000   0.00296   0.00296   2.22551
   A28        2.11827   0.00064   0.00000   0.00191   0.00190   2.12017
   A29        1.83548   0.00197   0.00000   0.00615   0.00615   1.84163
   A30        1.95325  -0.00156   0.00000  -0.00501  -0.00501   1.94824
   A31        2.19714   0.00077   0.00000   0.00273   0.00273   2.19988
   A32        2.13278   0.00080   0.00000   0.00227   0.00227   2.13505
   A33        1.87222   0.00059   0.00000   0.00108   0.00107   1.87329
   A34        2.21451   0.00003   0.00000   0.00156   0.00155   2.21606
   A35        2.19414  -0.00061   0.00000  -0.00235  -0.00235   2.19179
   A36        1.85968   0.00422   0.00000   0.01080   0.01080   1.87048
   A37        1.91514  -0.00120   0.00000  -0.00522  -0.00523   1.90991
   A38        1.97547  -0.00173   0.00000  -0.00389  -0.00392   1.97155
   A39        1.87601  -0.00132   0.00000  -0.00108  -0.00106   1.87495
   A40        1.94959  -0.00069   0.00000   0.00066   0.00066   1.95025
   A41        1.88561   0.00067   0.00000  -0.00127  -0.00129   1.88432
   A42        1.93902   0.00268   0.00000   0.00620   0.00618   1.94521
   A43        1.91084  -0.00014   0.00000   0.00449   0.00447   1.91530
   A44        1.96440  -0.00129   0.00000  -0.00562  -0.00562   1.95878
   A45        1.85244  -0.00080   0.00000   0.00086   0.00082   1.85326
   A46        1.87440  -0.00065   0.00000  -0.00085  -0.00084   1.87356
   A47        1.91922   0.00022   0.00000  -0.00488  -0.00487   1.91435
   A48        1.93097  -0.00043   0.00000  -0.00104  -0.00104   1.92993
   A49        1.97681   0.00047   0.00000   0.00030   0.00030   1.97711
   A50        1.94186   0.00002   0.00000   0.00122   0.00122   1.94308
   A51        1.86761  -0.00016   0.00000   0.00414   0.00414   1.87175
   A52        1.86944   0.00016   0.00000   0.00142   0.00142   1.87086
   A53        1.87208  -0.00007   0.00000  -0.00598  -0.00598   1.86610
    D1       -0.09559  -0.00053   0.00000  -0.04556  -0.04536  -0.14095
    D2        2.86982  -0.00071   0.00000   0.05147   0.05122   2.92104
    D3        2.84979   0.00100   0.00000  -0.01689  -0.01664   2.83315
    D4       -0.46799   0.00083   0.00000   0.08014   0.07995  -0.38804
    D5        0.99048   0.00008   0.00000  -0.01910  -0.01912   0.97136
    D6       -1.03550  -0.00007   0.00000  -0.02108  -0.02107  -1.05657
    D7        3.14002   0.00109   0.00000  -0.01312  -0.01314   3.12687
    D8       -1.95786  -0.00135   0.00000  -0.04782  -0.04781  -2.00567
    D9        2.29936  -0.00150   0.00000  -0.04979  -0.04977   2.24959
   D10        0.19169  -0.00034   0.00000  -0.04184  -0.04184   0.14985
   D11       -1.02127  -0.00083   0.00000   0.01983   0.02002  -1.00125
   D12       -3.10134  -0.00055   0.00000   0.01503   0.01521  -3.08613
   D13        1.05141  -0.00055   0.00000   0.01827   0.01846   1.06986
   D14        2.28831  -0.00047   0.00000  -0.07123  -0.07141   2.21690
   D15        0.20825  -0.00019   0.00000  -0.07604  -0.07623   0.13202
   D16       -1.92219  -0.00019   0.00000  -0.07280  -0.07298  -1.99518
   D17        2.81718  -0.00073   0.00000  -0.02542  -0.02541   2.79177
   D18       -0.40780  -0.00030   0.00000  -0.01009  -0.01010  -0.41791
   D19       -1.37248  -0.00033   0.00000  -0.01915  -0.01914  -1.39161
   D20        1.68572   0.00010   0.00000  -0.00382  -0.00383   1.68189
   D21        0.72381  -0.00066   0.00000  -0.02188  -0.02187   0.70194
   D22       -2.50117  -0.00024   0.00000  -0.00655  -0.00657  -2.50774
   D23       -0.82533   0.00017   0.00000   0.00581   0.00581  -0.81951
   D24       -3.00656   0.00051   0.00000   0.00964   0.00964  -2.99693
   D25        1.26561   0.00026   0.00000   0.00789   0.00790   1.27350
   D26       -2.89980  -0.00050   0.00000  -0.00007  -0.00008  -2.89987
   D27        1.20215  -0.00016   0.00000   0.00375   0.00375   1.20590
   D28       -0.80886  -0.00041   0.00000   0.00200   0.00201  -0.80686
   D29        1.30630  -0.00014   0.00000   0.00168   0.00168   1.30798
   D30       -0.87493   0.00020   0.00000   0.00550   0.00550  -0.86943
   D31       -2.88595  -0.00005   0.00000   0.00376   0.00376  -2.88219
   D32       -0.14936   0.00001   0.00000   0.00876   0.00880  -0.14055
   D33        3.07168  -0.00031   0.00000  -0.00527  -0.00531   3.06637
   D34        1.73352   0.00034   0.00000   0.03631   0.03631   1.76982
   D35       -1.33271   0.00021   0.00000   0.02604   0.02604  -1.30667
   D36       -2.40106   0.00019   0.00000   0.03302   0.03302  -2.36804
   D37        0.81590   0.00005   0.00000   0.02275   0.02275   0.83865
   D38       -0.36193  -0.00003   0.00000   0.03052   0.03052  -0.33141
   D39        2.85503  -0.00017   0.00000   0.02025   0.02025   2.87529
   D40       -3.08483   0.00004   0.00000  -0.00463  -0.00463  -3.08947
   D41        0.10560  -0.00005   0.00000  -0.00953  -0.00953   0.09607
   D42       -0.00700   0.00016   0.00000   0.00404   0.00403  -0.00297
   D43       -3.09975   0.00007   0.00000  -0.00087  -0.00087  -3.10062
   D44        3.09449  -0.00006   0.00000   0.00374   0.00374   3.09823
   D45       -0.11722   0.00000   0.00000   0.00788   0.00789  -0.10933
   D46        0.01203  -0.00014   0.00000  -0.00415  -0.00417   0.00786
   D47        3.08351  -0.00009   0.00000  -0.00001  -0.00002   3.08349
   D48       -0.00103  -0.00010   0.00000  -0.00226  -0.00226  -0.00329
   D49        3.09508  -0.00001   0.00000   0.00236   0.00235   3.09744
   D50        0.00909  -0.00001   0.00000  -0.00057  -0.00057   0.00852
   D51       -3.12814   0.00007   0.00000   0.00134   0.00134  -3.12680
   D52       -0.01374   0.00011   0.00000   0.00312   0.00312  -0.01062
   D53       -3.08626   0.00002   0.00000  -0.00115  -0.00115  -3.08741
   D54        3.12367   0.00004   0.00000   0.00130   0.00130   3.12497
   D55        0.05115  -0.00005   0.00000  -0.00298  -0.00297   0.04818
   D56        1.03614   0.00016   0.00000  -0.00156  -0.00154   1.03460
   D57       -1.00421  -0.00037   0.00000  -0.00902  -0.00903  -1.01324
   D58        3.13886   0.00033   0.00000  -0.00215  -0.00215   3.13672
   D59        3.08817   0.00027   0.00000  -0.00264  -0.00263   3.08554
   D60        1.04782  -0.00026   0.00000  -0.01011  -0.01012   1.03770
   D61       -1.09229   0.00044   0.00000  -0.00323  -0.00323  -1.09553
   D62       -1.12948  -0.00014   0.00000  -0.00449  -0.00448  -1.13396
   D63        3.11336  -0.00066   0.00000  -0.01195  -0.01197   3.10138
   D64        0.97324   0.00004   0.00000  -0.00508  -0.00509   0.96815
   D65       -3.01876  -0.00041   0.00000   0.01667   0.01667  -3.00209
   D66       -0.92195  -0.00061   0.00000   0.02145   0.02145  -0.90050
   D67        1.18854  -0.00034   0.00000   0.01478   0.01478   1.20332
   D68       -0.94299   0.00040   0.00000   0.02595   0.02595  -0.91704
   D69        1.15382   0.00020   0.00000   0.03073   0.03073   1.18455
   D70       -3.01888   0.00046   0.00000   0.02406   0.02406  -2.99482
   D71        1.10930  -0.00007   0.00000   0.02032   0.02032   1.12962
   D72       -3.07708  -0.00027   0.00000   0.02510   0.02510  -3.05198
   D73       -0.96659   0.00000   0.00000   0.01843   0.01843  -0.94816
         Item               Value     Threshold  Converged?
 Maximum Force            0.012330     0.000450     NO 
 RMS     Force            0.002083     0.000300     NO 
 Maximum Displacement     0.169073     0.001800     NO 
 RMS     Displacement     0.038671     0.001200     NO 
 Predicted change in Energy=-8.253308D-04
 GradGradGradGradGradGradGradGradGradGradGradGradGradGradGradGradGradGrad

                          Input orientation:                          
 ---------------------------------------------------------------------
 Center     Atomic      Atomic             Coordinates (Angstroms)
 Number     Number       Type             X           Y           Z
 ---------------------------------------------------------------------
      1          8           0        2.103104    1.147506    0.874074
      2          6           0        1.402378    0.936145   -0.099496
      3          7           0        0.169437    0.376900    0.004102
      4          6           0       -0.276886   -0.145608    1.271751
      5          6           0        0.727865   -1.209543    1.744606
      6          8           0        0.731550   -1.509884    3.035049
      7          8           0        1.453149   -1.821813    0.989207
      8          6           0       -1.683585   -0.805056    1.123102
      9          6           0       -2.656003    0.031517    0.368405
     10          6           0       -3.082086   -0.056217   -0.934145
     11          7           0       -3.944020    0.965788   -1.238187
     12          6           0       -4.052013    1.670513   -0.141395
     13          7           0       -3.286268    1.155744    0.864885
     14          6           0        1.967212    1.082756   -1.507187
     15          6           0        3.196381    0.180727   -1.596003
     16          7           0        2.841929   -1.269538   -1.320101
     17          1           0       -0.482221    0.372803   -0.768021
     18          1           0       -0.312257    0.653184    2.017598
     19          1           0        0.171130   -0.923397    3.559372
     20          1           0       -2.053124   -1.054644    2.119513
     21          1           0       -1.571006   -1.749231    0.588788
     22          1           0       -2.841057   -0.822670   -1.653870
     23          1           0       -4.662697    2.548366   -0.009405
     24          1           0       -3.246154    1.505503    1.807884
     25          1           0        2.303441    2.108319   -1.657879
     26          1           0        1.238106    0.850005   -2.284727
     27          1           0        3.917101    0.466499   -0.834605
     28          1           0        3.664703    0.219089   -2.576308
     29          1           0        3.686125   -1.838307   -1.252202
     30          1           0        2.301728   -1.403482   -0.424008
     31          1           0        2.273634   -1.661868   -2.070790
 ---------------------------------------------------------------------
                    Distance matrix (angstroms):
                    1          2          3          4          5
     1  O    0.000000
     2  C    1.218002   0.000000
     3  N    2.256049   1.357804   0.000000
     4  C    2.737635   2.422898   1.441927   0.000000
     5  C    2.864400   2.908548   2.420330   1.537879   0.000000
     6  O    3.689539   4.032176   3.614217   2.446919   1.324938
     7  O    3.041801   2.965499   2.729961   2.425390   1.213070
     8  C    4.267731   3.748292   2.466348   1.560696   2.522889
     9  C    4.914289   4.184226   2.869690   2.551001   3.858072
    10  C    5.621815   4.668173   3.411788   3.569751   4.798082
    11  N    6.407994   5.466395   4.337119   4.580706   5.954463
    12  C    6.260206   5.503765   4.417606   4.421183   5.890581
    13  N    5.389387   4.791833   3.645469   3.303852   4.741493
    14  C    2.386014   1.523852   2.452391   3.777214   4.167105
    15  C    2.869006   2.455328   3.429462   4.515982   4.380193
    16  N    3.346994   2.902967   3.406830   4.208079   3.723613
    17  H    3.159201   2.077497   1.010371   2.114612   3.206465
    18  H    2.717715   2.739002   2.088667   1.093438   2.150844
    19  H    3.902818   4.284995   3.785594   2.457413   1.919690
    20  H    4.865677   4.563742   3.385862   2.167964   2.810418
    21  H    4.687384   4.065218   2.809170   2.170897   2.629066
    22  H    5.892099   4.849356   3.640181   3.948753   4.943331
[...]
 00001959,0.00001457,-0.00024128,-0.00003686,0.00002407,-0.00003919,-0.
 00000757,-0.00001752,-0.00002808,0.00001861,-0.00002444,0.00000532,0.0
 0001625,-0.00000657,0.00002989,-0.00001919,0.00002672,0.00001145,0.009
 46404,0.03664042,-0.05274309,-0.00186350,-0.00182634,-0.00078028,0.000
 94874,-0.00062456,0.00078375,0.00000001,0.00015744,-0.00015722,0.00014
 397,0.00015017,-0.00015616,0.00002333,-0.00000757,0.00004256,0.0000789
 6,0.00005675,0.00002984,0.00000507,0.00000554,0.00000966,0.00001247,0.
 00000816,-0.00000161,0.00000297,0.00000066,0.00000339,-0.00000048,0.00
 001564,0.00000130,-0.01333879,-0.03936315,0.05436761,0.00044895,-0.000
 43818,0.00515883,0.01028505,0.00388373,0.00682465,-0.00060699,-0.00002
 830,0.00026190,0.00034933,0.00037517,-0.00030672,0.00005920,0.00009563
 ,-0.00001101,-0.00001579,-0.00002431,-0.00001754,0.00008302,-0.0000671
 2,-0.00004143,-0.00001722,-0.00001133,-0.00005370,0.00002753,0.0000196
 3,0.00005867,0.00003650,0.00000055,-0.00004771,-0.00001042,0.00003595,
 -0.00000527,-0.00001132,-0.00000243,-0.00001456,0.00000891,-0.00003609
 ,-0.00001268,-0.16457509,-0.04121717,-0.12137027,-0.01998955,-0.007870
 37,-0.01934265,0.00168650,-0.00038193,0.00038344,0.00001045,-0.0003703
 2,0.00109409,0.00004885,0.00002302,0.00003827,0.00001013,0.00001321,-0
 .00000803,0.00001128,0.00001555,0.00000284,0.00000180,0.00000457,-0.00
 000278,-0.00001767,-0.00002257,0.00000513,-0.00000157,0.00000002,-0.00
 000161,0.00000409,-0.00000117,0.00000436,-0.00572564,-0.00174130,-0.00
 599513,0.18030792,0.00018903,0.00230460,0.00048911,0.00152111,-0.00270
 900,0.00248191,0.00031349,-0.00009661,0.00000115,0.00020377,0.00006524
 ,0.00002062,-0.00007618,-0.00000720,0.00018461,0.00000658,0.00001194,-
 0.00010236,0.00007354,0.00000880,-0.00013885,-0.00007446,0.00003590,-0
 .00004358,0.00000829,0.00000505,0.00000185,-0.00003539,0.00005071,-0.0
 0001407,0.00000890,-0.00006619,0.00003987,0.00001789,-0.00004010,-0.00
 003838,0.00001223,0.00000994,0.00003489,-0.04187504,-0.06449036,-0.044
 54444,0.01473415,0.00358071,0.01539301,-0.00057717,0.00213209,0.000426
 18,-0.00019155,0.00051315,0.00024981,0.00000358,0.00002943,-0.00002238
 ,-0.00000678,-0.00000338,0.00001863,0.00002645,-0.00000108,0.00000595,
 0.00000600,-0.00001263,0.00000274,-0.00001587,-0.00000280,-0.00001110,
 0.00000634,0.00000251,-0.00000479,-0.00000440,0.00000873,-0.00000370,-
 0.01970272,-0.00497701,-0.02196809,0.04326069,0.06506494,0.00317869,0.
 00164656,-0.00891441,-0.02601962,-0.00977707,-0.01352748,0.00096633,0.
 00060453,0.00213012,0.00014118,0.00030306,0.00018433,-0.00023412,-0.00
 028563,-0.00010569,0.00006576,-0.00001348,0.00014839,0.00004471,0.0002
 0066,0.00024791,-0.00006838,-0.00000633,0.00003917,0.00001336,-0.00004
 693,-0.00007178,-0.00005544,-0.00002672,0.00002726,-0.00000172,-0.0000
 4997,0.00002980,0.00001790,0.00000775,0.00001340,-0.00001453,0.0000660
 6,0.00003945,-0.11926822,-0.04317984,-0.18108419,0.00382660,0.00204890
 ,0.00391500,-0.00007288,0.00027696,0.00003690,0.00169823,0.00019637,-0
 .00089666,-0.00014378,-0.00005192,0.00021021,-0.00005012,-0.00003407,-
 0.00001137,-0.00001689,-0.00000892,0.00000357,0.00002463,0.00002678,-0
 .00000826,0.00004099,0.00004340,0.00000859,0.00000347,0.00000086,0.000
 00264,-0.00001064,-0.00000389,-0.00001648,0.00360744,0.00034369,0.0037
 2928,0.13194300,0.04797709,0.19325964,0.00279968,-0.00013913,0.0008248
 2,-0.00221877,-0.00154475,-0.00390787,0.00067692,0.00046322,0.00030815
 ,0.00004204,-0.00004778,0.00016616,-0.00015935,-0.00009246,0.00024195,
 0.00001216,0.00003769,-0.00012118,0.00012094,0.00009138,-0.00004692,-0
 .00007745,-0.00000233,-0.00001015,0.00002233,0.00000560,-0.00001250,-0
 .00001370,0.00000292,-0.00003424,0.00002053,-0.00003665,0.00002426,0.0
 0000638,-0.00001217,-0.00000127,0.00000465,0.00003736,0.00003138,-0.02
 030624,-0.00433634,-0.01764359,-0.16773600,-0.05106637,-0.12428263,-0.
 00420682,-0.00368975,-0.00373713,0.00016030,0.00011702,-0.00012860,-0.
 00003909,-0.00000456,0.00000815,-0.00002058,-0.00001814,0.00003560,0.0
 0001628,-0.00000085,0.00000334,0.00001101,0.00000222,0.00000108,0.0000
 0353,0.00000691,-0.00000553,-0.00000054,0.00000102,0.00000074,-0.00001
 644,0.00000380,0.00000333,0.00123064,-0.00030261,0.00009939,-0.0029414
 9,0.00324189,0.00114724,0.18030669,-0.00066565,-0.00074486,-0.00065534
 ,0.00018479,0.00051590,0.00153630,-0.00024540,0.00012570,-0.00030425,-
 0.00009366,0.00001545,0.00001781,0.00016510,-0.00014381,-0.00016271,-0
 .00005412,0.00004331,0.00008657,-0.00019369,0.00010503,0.00037838,0.00
 000881,-0.00001168,-0.00001542,0.00000414,0.00001353,0.00002465,0.0000
 2421,-0.00000148,-0.00001548,0.00000124,0.00002403,-0.00001645,-0.0000
 0844,0.00000692,0.00000697,-0.00000046,-0.00001702,-0.00002022,0.01496
 160,0.00561344,0.01435210,-0.04566352,-0.06721489,-0.04531461,-0.02541
 220,-0.02121538,-0.02403718,-0.00022253,-0.00015038,0.00016021,0.00001
 204,0.00000909,-0.00003432,0.00000835,0.00000024,0.00001829,0.00000448
 ,0.00000542,-0.00000317,0.00000323,0.00000014,0.00000118,-0.00000912,-
 0.00001609,0.00000493,-0.00000191,-0.00000053,0.00000029,0.00000083,0.
 00000028,0.00000640,-0.00041689,0.00086909,0.00037478,0.00392341,-0.00
 179318,-0.00141585,0.05288345,0.08600658,0.00031706,-0.00028275,-0.000
 80276,0.00182788,0.00082571,0.00069118,-0.00075722,-0.00054074,-0.0003
 0035,0.00006207,0.00006010,-0.00018593,-0.00005261,0.00023773,0.000074
 43,0.00002396,-0.00006588,-0.00005895,0.00013596,-0.00018942,-0.000262
 92,0.00005019,0.00001040,0.00002626,-0.00001966,-0.00000918,0.00000039
 ,-0.00000141,0.00000099,0.00003345,-0.00001615,0.00001236,-0.00001346,
 0.00000268,0.00000479,0.00000026,-0.00000406,-0.00002645,-0.00001679,0
 .00080222,0.00178017,0.00217111,-0.13074640,-0.05539512,-0.19020058,0.
 00833140,0.00586454,0.00783652,-0.00004562,-0.00004317,0.00016627,0.00
 003313,-0.00000877,0.00002668,0.00001806,0.00002565,-0.00003337,-0.000
 01683,-0.00000223,-0.00000059,-0.00001023,-0.00000181,-0.00000471,0.00
 000163,0.00000238,0.00000132,0.00000226,-0.00000055,-0.00000055,0.0000
 1500,-0.00000069,-0.00000517,-0.00057520,0.00035152,0.00042964,0.00123
 853,-0.00013295,0.00052826,0.13689246,0.05366031,0.19533190,0.00149154
 ,-0.00069949,0.00071271,-0.00391728,0.00377096,-0.00331696,-0.00005380
 ,-0.00046440,0.00110724,-0.00005535,-0.00027916,-0.00022159,-0.0001555
 5,0.00006068,-0.00003364,0.00003240,-0.00005025,0.00004589,0.00003471,
 -0.00005945,0.00015308,0.00005531,-0.00002069,0.00012166,-0.00000572,-
 0.00000298,0.00000629,0.00001058,0.00000842,0.00003971,-0.00001616,0.0
 0002278,-0.00002645,-0.00000194,0.00001117,0.00000351,-0.00000200,-0.0
 0003621,-0.00003570,-0.01203187,0.00116612,0.02440913,-0.09766287,-0.0
 0385553,0.10122157,-0.00365269,-0.00332163,0.00700882,0.00005234,0.000
 11650,0.00013708,0.00002426,0.00000991,-0.00000072,-0.00000679,0.00001
 045,-0.00002877,-0.00004441,-0.00001325,-0.00000704,-0.00000470,-0.000
 00222,-0.00000245,-0.00000504,-0.00000671,0.00000775,0.00000029,-0.000
 00165,-0.00000068,0.00001156,-0.00000349,-0.00000247,0.00104390,-0.000
 24909,-0.00035064,0.00082990,-0.00102808,-0.00028755,0.01135195,0.0021
 5424,-0.01856448,0.10225066,0.00026348,0.00053304,-0.00058030,0.002758
 02,-0.00281149,0.00185632,0.00071898,0.00081095,-0.00131887,0.00002057
 ,0.00006100,0.00048727,0.00080898,-0.00107168,-0.00062014,-0.00024849,
 0.00022812,0.00046096,-0.00164524,0.00063794,0.00167906,-0.00003476,0.
 00007815,-0.00015318,0.00000758,0.00000686,0.00001188,0.00001310,0.000
 00555,-0.00004284,0.00001341,0.00000200,0.00000975,-0.00000908,-0.0000
 0767,-0.00000876,0.00000463,0.00002314,0.00001093,0.00737887,0.0013442
 2,-0.01848186,-0.00013132,-0.04947548,-0.00290958,-0.01934740,-0.01250
 590,0.03734619,-0.00009152,-0.00008652,-0.00010098,-0.00004670,0.00003
 907,-0.00006322,0.00003132,-0.00003573,0.00008691,0.00006301,0.0000243
 4,0.00000366,0.00003081,0.00000612,0.00001487,-0.00000728,-0.00000913,
 -0.00000094,-0.00000296,0.00000095,-0.00000041,-0.00001562,-0.00000117
 ,0.00001013,-0.00060317,0.00053955,-0.00004309,-0.00039562,0.00054792,
 0.00062190,0.00504607,0.00173471,-0.00745652,0.00385630,0.06200829,0.0
 0143035,-0.00012761,0.00071073,-0.00153605,0.00014419,-0.00095830,0.00
 025510,-0.00012158,0.00023154,-0.00002161,-0.00011891,0.00006560,-0.00
 007124,-0.00005854,0.00008168,0.00000150,0.00002116,-0.00004274,-0.000
 01961,0.00000374,0.00005987,-0.00002814,-0.00000561,0.00001590,0.00001
 199,0.00000500,0.00000553,0.00000213,0.00000534,-0.00001459,0.00000908
 ,-0.00000652,0.00000030,-0.00000053,-0.00000240,0.00000237,0.00000298,
 0.00000501,0.00000121,-0.00180482,-0.00037359,0.00238914,0.10332890,0.
 00759620,-0.27761309,0.00026146,0.00066635,-0.00143164,0.00000075,0.00
 003383,-0.00000866,-0.00000620,0.00000443,-0.00000675,-0.00000711,-0.0
 0000325,0.00001683,-0.00000152,-0.00000051,0.00000077,0.00000353,0.000
 00087,0.00000146,-0.00000334,-0.00000356,-0.00000030,-0.00000083,0.000
 00003,0.00000008,-0.00000572,0.00000091,0.00000358,0.00044360,-0.00042
 616,0.00003787,0.00024591,-0.00013755,0.00060404,0.00973003,0.00070913
 ,-0.01706412,-0.11220694,-0.00866538,0.29185552,0.00006342,-0.00010401
 ,-0.00033124,-0.00053802,-0.00007461,0.00062313,0.00020738,0.00015637,
 -0.00016692,0.00007568,-0.00001965,0.00005435,-0.00037206,0.00031259,0
 .00088011,0.00007553,0.00003029,-0.00053366,0.00078438,-0.00056598,-0.
 00044319,-0.00008103,-0.00003432,-0.00000836,0.00002401,0.00002987,0.0
 0001589,-0.00000126,0.00002152,-0.00004439,0.00004019,-0.00003876,0.00
 000242,0.00000496,-0.00001026,0.00001071,0.00001337,0.00001048,0.00001
 048,-0.00054760,-0.00238160,0.00038576,0.01210890,-0.00378106,0.000370
 52,-0.30818646,0.15421527,-0.02847975,-0.00008180,-0.00001163,-0.00000
 769,0.00001127,-0.00002334,-0.00000896,-0.00002038,0.00000646,0.000055
 62,0.00001616,-0.00000007,-0.00000016,-0.00001404,-0.00000697,-0.00000
 054,-0.00001521,-0.00001100,-0.00000680,-0.00000423,-0.00000015,0.0000
 0101,-0.00002003,0.00000877,0.00001564,0.00061272,-0.00057017,-0.00003
 332,0.00001573,0.00003068,0.00007795,0.00069671,-0.00052504,-0.0000368
 4,0.00024417,-0.00023743,0.00019486,0.32621293,-0.00037131,0.00016964,
 -0.00023697,-0.00038689,0.00007032,0.00096861,-0.00020338,0.00017602,0
 .00009535,0.00007301,0.00000671,-0.00013369,0.00025956,-0.00018027,-0.
 00046309,-0.00004833,-0.00001826,0.00035824,-0.00060668,-0.00033679,0.
 00100496,0.00005759,0.00001798,0.00001726,-0.00002466,-0.00002475,-0.0
 0001488,-0.00001032,-0.00001794,0.00003614,-0.00002605,0.00001338,-0.0
 0000306,0.00000158,0.00001178,0.00000040,-0.00001070,-0.00000910,-0.00
 000740,-0.00385769,-0.00584219,0.00115792,0.02777686,-0.01705296,0.001
 84694,0.15962029,-0.15390225,0.01582318,0.00012185,-0.00010648,0.00000
 961,-0.00001248,-0.00000091,0.00004040,0.00002867,0.00001922,-0.000012
 04,-0.00001645,0.00000667,0.00000578,0.00000663,0.00001886,-0.00001228
 ,0.00001870,0.00001675,0.00000226,0.00000347,0.00000083,-0.00000055,0.
 00001585,-0.00000162,-0.00001015,0.00170043,-0.00078154,-0.00017371,-0
 .00020098,0.00027668,0.00018398,0.00003278,0.00110303,-0.00125201,0.00
 002989,0.00107839,0.00058712,-0.16633000,0.16234303,-0.00025349,0.0001
 7817,-0.00026674,0.00043249,0.00025551,0.00060804,-0.00019667,-0.00023
 986,-0.00017505,-0.00003247,0.00010224,0.00013102,0.00015944,-0.000028
 16,-0.00009253,-0.00009471,-0.00008077,-0.00013889,-0.00006020,0.00098
 612,-0.00141206,0.00004737,0.00001897,-0.00000988,-0.00000544,0.000000
 63,0.00000117,0.00001000,0.00000257,0.00001305,-0.00001229,0.00001694,
 -0.00001565,-0.00000225,0.00000345,0.00000409,-0.00000357,-0.00001103,
 -0.00002092,0.00072358,0.00081326,-0.00033391,-0.00509390,0.00350347,-
 0.00104125,-0.02418691,0.01274881,-0.06112349,-0.00002876,0.00000697,-
 0.00001885,0.00000284,0.00002511,-0.00003061,0.00002797,-0.00001738,-0
 .00004104,0.00001050,0.00000278,-0.00000648,0.00000498,-0.00000524,0.0
 0000855,-0.00000011,-0.00000193,0.00000513,0.00000014,-0.00000071,0.00
 000009,0.00000563,-0.00000376,0.00000307,-0.00020235,0.00011818,0.0003
 4219,0.00023477,-0.00017458,0.00004678,0.00012282,-0.00109855,0.000544
 08,-0.00035079,0.00032652,-0.00057929,0.02970048,-0.01644555,0.0565447
 3,-0.00272289,-0.00060309,0.00045579,0.00597219,0.00421311,-0.00146967
 ,-0.00228603,-0.00323672,0.00090401,0.00105999,0.00114708,-0.00090110,
 -0.00975272,0.01029843,0.00937264,0.00223656,-0.00170126,-0.00713344,0
 .00788962,-0.00601897,-0.01008046,-0.00055572,-0.00063930,0.00017511,0
 .00015360,0.00018514,-0.00004563,-0.00011819,0.00000721,-0.00028683,0.
 00024329,-0.00036661,0.00015243,0.00009623,-0.00008807,0.00008726,0.00
 004291,0.00016289,0.00023324,0.00106984,0.00128335,-0.00041750,-0.0015
 7236,-0.00721678,0.00144666,-0.12781066,-0.00892751,0.10132780,-0.0002
 8979,0.00030803,-0.00012649,0.00035606,-0.00037155,0.00025139,-0.00025
 358,0.00022453,-0.00038842,-0.00002518,-0.00005845,0.00004139,-0.00021
 916,-0.00009117,-0.00006064,-0.00000783,0.00001149,-0.00006351,0.00000
 112,0.00000668,0.00001071,-0.00009077,0.00008617,0.00002870,-0.0006615
 8,0.00018716,0.00018317,-0.00020558,0.00001878,0.00001157,-0.00045789,
 0.00015359,-0.00006895,0.00037511,0.00157646,-0.00044026,-0.01518514,-
 0.00281421,0.02519727,0.12774196,-0.00177572,0.00057794,-0.00059838,0.
 00437022,-0.00258912,0.00077533,-0.00110637,-0.00062275,0.00004871,0.0
 0080917,-0.00018013,-0.00147046,-0.00228205,0.00375448,0.00013932,0.00
 155261,-0.00055200,-0.00208926,0.00260075,-0.00935607,-0.00045064,-0.0
 0008981,-0.00007823,0.00013864,-0.00003646,-0.00000697,-0.00004373,-0.
 00007982,-0.00001092,0.00005322,0.00002453,-0.00010340,0.00001957,0.00
 004466,-0.00000226,0.00003054,-0.00000683,-0.00002846,0.00004014,0.000
 36313,0.00150037,0.00060572,-0.01618662,-0.00170360,0.02761767,-0.0144
 9527,-0.06624572,0.02347724,0.00019628,0.00004152,0.00032691,0.0001407
 9,-0.00024767,0.00031562,0.00002866,0.00027130,-0.00023943,-0.00008980
 ,-0.00003299,0.00002520,-0.00010848,0.00000047,-0.00005936,0.00002235,
 0.00003437,-0.00001732,0.00001166,0.00000271,0.00000139,0.00001795,0.0
 0002993,-0.00002191,-0.00035221,0.00031889,-0.00018971,0.00015112,-0.0
 0012686,-0.00007265,-0.00021811,0.00084123,-0.00026224,-0.00115297,-0.
 00564238,-0.00008891,0.00933545,0.00283384,-0.01893444,0.00850194,0.07
 566543,0.00051302,0.00196533,-0.00333050,-0.00217905,-0.00184255,0.006
 66033,0.00168036,0.00114533,-0.00250586,-0.00217461,-0.00138243,0.0024
 2137,0.01300453,-0.01574611,-0.01516705,-0.00286955,0.00227475,0.00998
 646,-0.01925575,0.00869294,0.00770697,0.00091901,0.00131119,-0.0003091
 1,-0.00029781,-0.00021579,0.00009931,0.00021691,0.00008750,0.00039394,
 -0.00030824,0.00053748,-0.00024569,-0.00014703,0.00008313,-0.00017181,
 -0.00002376,-0.00030607,-0.00035853,-0.00045949,-0.00126407,-0.0005441
 7,-0.00054529,0.01155764,0.00132740,0.10079483,0.01443019,-0.23111421,
 -0.00041847,0.00037943,0.00009955,-0.00035334,0.00060054,-0.00058173,0
 .00106336,-0.00009786,0.00032242,0.00012257,0.00003204,-0.00010723,0.0
 0022153,0.00000339,0.00015261,-0.00006592,-0.00007280,0.00006118,-0.00
 000571,-0.00001039,-0.00001829,0.00011861,-0.00011413,-0.00000159,0.00
 063466,-0.00036784,-0.00022220,0.00006180,0.00017386,-0.00042957,-0.00
 035719,-0.00101620,0.00099136,-0.00016043,-0.00296278,0.00097860,-0.00
 268513,-0.00304748,0.00875366,-0.09903280,-0.01650665,0.23585086,-0.00
 070308,0.00019805,-0.00044039,0.00124044,0.00044054,0.00047309,-0.0004
 1449,-0.00071812,-0.00016116,-0.00015871,-0.00009502,0.00015237,0.0003
 3434,-0.00039361,-0.00019516,-0.00004230,0.00011932,0.00015696,-0.0017
 9640,-0.00053092,0.00064971,0.00004892,0.00014417,0.00003726,-0.000021
 52,0.00002535,0.00005433,0.00001335,0.00010386,0.00004549,0.00001907,-
 0.00000894,-0.00004742,-0.00000106,-0.00002139,-0.00002008,0.00002264,
 -0.00008681,-0.00006034,0.00170656,0.00053711,0.00119684,-0.00414106,-
 0.00502534,-0.00357878,-0.15772052,-0.06676983,-0.13734935,-0.00024096
 ,0.00038837,0.00017528,0.00000046,0.00001856,-0.00005828,0.00008017,0.
 00002914,0.00004401,0.00000587,-0.00002557,-0.00002748,-0.00002770,-0.
 00005312,0.00002935,-0.00006508,-0.00003876,-0.00001109,-0.00000180,-0
 .00000169,-0.00000602,0.00000468,0.00000557,0.00001796,-0.00038447,0.0
 0006290,-0.00014208,-0.00010682,-0.00009572,-0.00056516,0.00071163,-0.
 00098089,0.00116114,-0.00019250,0.00022501,0.00023177,-0.01614023,-0.0
 1482703,-0.02615637,0.01497659,0.00980924,0.01198840,0.16299398,0.0002
 3455,0.00000185,0.00066294,0.00013595,-0.00016681,-0.00115110,-0.00027
 222,0.00010630,0.00033238,0.00009584,0.00010635,-0.00024935,-0.0000058
 8,0.00004368,-0.00024949,0.00002464,-0.00006455,0.00021710,-0.00066361
 ,-0.00048407,0.00041770,0.00008570,0.00005488,0.00006424,-0.00004229,-
 0.00002788,-0.00002712,-0.00003817,0.00000566,0.00007942,-0.00003004,-
 0.00001563,-0.00000712,0.00001213,0.00000460,-0.00000165,-0.00001179,-
 0.00002949,-0.00001323,-0.00024025,0.00112117,-0.00071445,-0.01931664,
 -0.01313521,-0.02598012,-0.07275521,-0.11097786,-0.10601726,0.00027725
 ,-0.00008344,-0.00004179,-0.00000981,-0.00001766,0.00007435,0.00003070
 ,0.00003904,-0.00003901,-0.00003035,-0.00001010,0.00000044,-0.00001523
 ,0.00001022,-0.00000799,0.00002117,0.00003330,-0.00000539,0.00000810,0
 .00000125,-0.00000254,0.00002496,0.00000387,-0.00001389,0.00000953,0.0
 0028143,0.00051993,0.00100696,-0.00032190,0.00042472,-0.00046134,-0.00
 572381,0.00283382,0.00002981,0.00193682,0.00035676,0.01056831,0.010111
 93,0.01793223,0.00376167,0.00165705,0.00167839,0.07756557,0.11553900,0
 .00018823,0.00001235,0.00013966,-0.00064287,-0.00058608,-0.00042215,0.
 00001492,0.00055522,0.00020627,-0.00001336,0.00002264,-0.00009627,0.00
 065593,-0.00040881,-0.00074372,-0.00019161,-0.00001946,0.00052726,0.00
 052244,0.00103753,0.00070771,0.00011100,-0.00000381,0.00001023,-0.0000
 1395,-0.00002306,0.00001503,0.00001588,0.00000730,0.00007629,-0.000047
 66,0.00004983,-0.00004806,-0.00000782,0.00002726,0.00001064,-0.0000199
 5,-0.00004682,-0.00007287,0.00092860,-0.00024519,0.00021630,0.00624329
 ,0.00177255,0.00963125,-0.14223429,-0.10114253,-0.25555182,0.00021860,
 -0.00017836,0.00007451,-0.00003779,0.00001872,0.00002796,-0.00001487,-
 0.00004757,-0.00002707,-0.00002260,0.00001112,-0.00000545,0.00003549,0
 .00002432,0.00000499,0.00000527,-0.00000127,0.00002902,0.00000240,-0.0
 0000179,-0.00000202,0.00002507,-0.00001131,-0.00000813,-0.00009583,0.0
 0005615,-0.00006315,-0.00032509,-0.00016445,-0.00013883,0.00064790,0.0
 0277143,0.00009713,0.00062286,0.00048250,0.00065686,0.00038805,-0.0003
 2531,-0.00169901,-0.01936345,-0.01257014,-0.02069848,0.15240520,0.1089
 2708,0.26714593\\-0.00000034,-0.00000073,-0.00000073,0.00000419,0.0000
 0197,-0.00000198,-0.00000166,0.00000152,-0.00000010,-0.00000181,-0.000
 00331,0.00000239,-0.00000070,0.00000018,0.00000088,-0.00000017,-0.0000
 0119,-0.00000097,-0.00000073,-0.00000128,0.00000078,-0.00000036,0.0000
 0009,-0.00000011,-0.00000064,0.00000133,0.00000023,0.00000025,0.000000
 39,0.00000006,-0.00000009,0.00000155,0.00000102,0.00000004,0.00000093,
 -0.00000020,0.00000103,-0.00000125,0.00000056,0.00000239,0.00000056,0.
 00000141,0.00000007,-0.00000043,0.00000040,0.00000005,0.00000050,-0.00
 000284,-0.00000135,-0.00000036,-0.00000037,0.00000008,-0.00000129,0.00
 000024,0.00000026,-0.00000105,-0.00000017,-0.00000013,-0.00000013,-0.0
 0000033,0.00000025,0.00000008,-0.00000010,-0.00000032,0.00000085,0.000
 00004,0.00000041,0.00000054,0.00000106,0.00000026,0.00000014,0.0000004
 3,-0.00000024,0.00000025,0.00000058,-0.00000003,0.00000029,0.00000035,
 0.00000048,-0.00000027,-0.00000073,-0.00000031,0.00000061,-0.00000020,
 -0.00000039,0.00000003,-0.00000071,-0.00000034,-0.00000108,-0.00000072
 ,-0.00000014,0.00000057,-0.00000018\\\@


 DO YOU KNOW THAT THE LETTERS IN "EPISCOPAL", WHEN
 REARRANGED, SPELL "PEPSI COLA"?
 Job cpu time:       1 days  5 hours 29 minutes 17.6 seconds.
 File lengths (MBytes):  RWF=   1351 Int=      0 D2E=      0 Chk=     46 Scr=      1
 Normal termination of Gaussian 09 at Thu Jul 29 12:08:25 2021.
