 Entering Gaussian System, Link 0=g09
 Input=opt_freq-conf-715.com
 Output=opt_freq-conf-715.log
 Initial command:
 /aerosol/software/g09/l1.exe "/scratch/nicole/10754/Gau-85871.inp" -scrdir="/scratch/nicole/10754/"
 Entering Link 1 = /aerosol/software/g09/l1.exe PID=     85875.
  
 Copyright (c) 1988,1990,1992,1993,1995,1998,2003,2009,2013,
            Gaussian, Inc.  All Rights Reserved.
  
 This is part of the Gaussian(R) 09 program.  It is based on
 the Gaussian(R) 03 system (copyright 2003, Gaussian, Inc.),
 the Gaussian(R) 98 system (copyright 1998, Gaussian, Inc.),
 the Gaussian(R) 94 system (copyright 1995, Gaussian, Inc.),
 the Gaussian 92(TM) system (copyright 1992, Gaussian, Inc.),
 the Gaussian 90(TM) system (copyright 1990, Gaussian, Inc.),
 the Gaussian 88(TM) system (copyright 1988, Gaussian, Inc.),
 the Gaussian 86(TM) system (copyright 1986, Carnegie Mellon
 University), and the Gaussian 82(TM) system (copyright 1983,
 Carnegie Mellon University). Gaussian is a federally registered
 trademark of Gaussian, Inc.
  
 This software contains proprietary and confidential information,
 including trade secrets, belonging to Gaussian, Inc.
  
 This software is provided under written license and may be
 used, copied, transmitted, or stored only in accord with that
 written license.
  
 The following legend is applicable only to US Government
 contracts under FAR:
  
                    RESTRICTED RIGHTS LEGEND
  
 Use, reproduction and disclosure by the US Government is
 subject to restrictions as set forth in subparagraphs (a)
 and (c) of the Commercial Computer Software - Restricted
 Rights clause in FAR 52.227-19.
  
 Gaussian, Inc.
 340 Quinnipiac St., Bldg. 40, Wallingford CT 06492
  
  
 ---------------------------------------------------------------
 Warning -- This program may not be used in any manner that
 competes with the business of Gaussian, Inc. or will provide
 assistance to any competitor of Gaussian, Inc.  The licensee
 of this program is prohibited from giving any competitor of
 Gaussian, Inc. access to this program.  By using this program,
 the user acknowledges that Gaussian, Inc. is engaged in the
 business of creating and licensing software in the field of
 computational chemistry and represents and warrants to the
 licensee that it is not a competitor of Gaussian, Inc. and that
 it will not use this program in any manner prohibited above.
 ---------------------------------------------------------------
  

 Cite this work as:
 Gaussian 09, Revision D.01,
 M. J. Frisch, G. W. Trucks, H. B. Schlegel, G. E. Scuseria, 
 M. A. Robb, J. R. Cheeseman, G. Scalmani, V. Barone, B. Mennucci, 
 G. A. Petersson, H. Nakatsuji, M. Caricato, X. Li, H. P. Hratchian, 
 A. F. Izmaylov, J. Bloino, G. Zheng, J. L. Sonnenberg, M. Hada, 
 M. Ehara, K. Toyota, R. Fukuda, J. Hasegawa, M. Ishida, T. Nakajima, 
 Y. Honda, O. Kitao, H. Nakai, T. Vreven, J. A. Montgomery, Jr., 
 J. E. Peralta, F. Ogliaro, M. Bearpark, J. J. Heyd, E. Brothers, 
 K. N. Kudin, V. N. Staroverov, T. Keith, R. Kobayashi, J. Normand, 
 K. Raghavachari, A. Rendell, J. C. Burant, S. S. Iyengar, J. Tomasi, 
 M. Cossi, N. Rega, J. M. Millam, M. Klene, J. E. Knox, J. B. Cross, 
 V. Bakken, C. Adamo, J. Jaramillo, R. Gomperts, R. E. Stratmann, 
 O. Yazyev, A. J. Austin, R. Cammi, C. Pomelli, J. W. Ochterski, 
 R. L. Martin, K. Morokuma, V. G. Zakrzewski, G. A. Voth, 
 P. Salvador, J. J. Dannenberg, S. Dapprich, A. D. Daniels, 
 O. Farkas, J. B. Foresman, J. V. Ortiz, J. Cioslowski, 
 and D. J. Fox, Gaussian, Inc., Wallingford CT, 2013.
 
 ******************************************
 Gaussian 09:  ES64L-G09RevD.01 24-Apr-2013
                29-Jul-2021 
 ******************************************
 %mem=2gb
 %nproc=4
 Will use up to    4 processors via shared memory.
 %chk=conf-715.chk
 ----------------------------------------------------------------------
 # B3LYP/6-311++G(2df,2pd) guess=read geom=checkpoint opt=readfc freq=n
 oraman nosymm integral(ultrafinegrid)
 ----------------------------------------------------------------------
 1/10=3,14=-1,18=20,19=15,26=4,29=2,38=1/1,3;
 2/9=110,12=2,15=1,40=1/2;
 3/5=4,6=6,7=1414,11=2,14=-4,16=1,25=1,30=1,71=1,74=-5,75=-5,116=-2/1,2,3;
 4/5=1/1;
 5/5=2,38=6/2;
 6/7=2,8=2,9=2,10=2,28=1/1;
 7/30=1/1,2,3,16;
 1/14=-1,18=20,19=15,26=4/3(2);
 2/9=110,15=1/2;
 99//99;
 2/9=110,15=1/2;
 3/5=4,6=6,7=1414,11=2,14=-2,16=1,25=1,30=1,71=1,74=-5,75=-5/1,2,3;
 4/5=5,16=3,69=1/1;
 5/5=2,38=5/2;
 7/30=1/1,2,3,16;
 1/14=-1,18=20,19=15,26=4/3(-5);
 2/9=110,15=1/2;
 6/7=2,8=2,9=2,10=2,19=2,28=1/1;
 99/9=1/99;
 ------------------------------------------------------------
 Candidate Structure: Conf:715 OPT and FREQ calc in gas phase
 ------------------------------------------------------------
 Structure from the checkpoint file:  "conf-715.chk"
 Charge =  1 Multiplicity = 1
 Redundant internal coordinates found in file.
 O,0,-2.2027477374,1.1403013586,-0.2823059155
 C,0,-1.5320974502,0.360793774,0.4316699314
 N,0,-0.2312600275,0.5534037256,0.6655748356
 C,0,0.5506611724,1.4754741947,-0.1406391851
 C,0,0.5852810161,0.9534841907,-1.5967209846
 O,0,1.1809855315,1.7668180239,-2.4926582876
 O,0,0.1573580689,-0.123401269,-1.9261158553
 C,0,1.9818209178,1.6002793392,0.4648953909
 C,0,2.6553637033,0.2825742077,0.6760087318
 C,0,2.7439600199,-0.5190753491,1.7967436718
 N,0,3.3999791076,-1.6936565175,1.5162738584
 C,0,3.7125319633,-1.6168190867,0.2418901241
 N,0,3.2816431807,-0.4471539193,-0.3203385308
 C,0,-2.2102035491,-0.8551912744,1.0551572585
 C,0,-3.0882364411,-1.5486695384,0.0021052894
 N,0,-4.0783254379,-0.5469914355,-0.5525815301
 H,0,0.3070012771,-0.17807415,1.1245077393
 H,0,0.0617387252,2.4555718,-0.1326677849
 H,0,1.3883857161,2.6357634877,-2.1164210782
 H,0,2.5814531061,2.2588479881,-0.1734232364
 H,0,1.8921881926,2.1069089926,1.4298731385
 H,0,2.405283424,-0.2870702059,2.7988365916
 H,0,4.2485395077,-2.3651481009,-0.3253682387
 H,0,3.4185859293,-0.1650256302,-1.2807540029
 H,0,-1.4864873354,-1.580411998,1.4352501095
 H,0,-2.8173295632,-0.5260341861,1.9075192887
 H,0,-3.6281193772,-2.402345038,0.4135437554
 H,0,-2.4795341886,-1.8815808602,-0.8412923055
 H,0,-3.485201627,0.368924225,-0.6125408576
 H,0,-4.4408518114,-0.8228532179,-1.4673742389
 H,0,-4.8722049837,-0.3996291607,0.074963247
 Recover connectivity data from disk.

 GradGradGradGradGradGradGradGradGradGradGradGradGradGradGradGradGradGrad
 Berny optimization.
 Initialization pass.
 Force constant matrix read from checkpoint file:
 "conf-715.chk"
                           ----------------------------
                           !    Initial Parameters    !
                           ! (Angstroms and Degrees)  !
 --------------------------                            --------------------------
 ! Name  Definition              Value          Derivative Info.                !
 --------------------------------------------------------------------------------
 ! R1    R(1,2)                  1.2519         D2E/DX2 =    0.6885             !
 ! R2    R(2,3)                  1.3357         D2E/DX2 =    0.5346             !
 ! R3    R(2,14)                 1.5255         D2E/DX2 =    0.2983             !
 ! R4    R(3,4)                  1.4531         D2E/DX2 =    0.3347             !
 ! R5    R(3,17)                 1.0175         D2E/DX2 =    0.4396             !
 ! R6    R(4,5)                  1.5472         D2E/DX2 =    0.2428             !
 ! R7    R(4,8)                  1.559          D2E/DX2 =    0.2516             !
 ! R8    R(4,18)                 1.0953         D2E/DX2 =    0.3362             !
 ! R9    R(5,6)                  1.3487         D2E/DX2 =    0.4185             !
 ! R10   R(5,7)                  1.2047         D2E/DX2 =    0.8904             !
 ! R11   R(6,19)                 0.9693         D2E/DX2 =    0.5148             !
 ! R12   R(8,9)                  1.4948         D2E/DX2 =    0.3164             !
 ! R13   R(8,20)                 1.0958         D2E/DX2 =    0.3346             !
 ! R14   R(8,21)                 1.0936         D2E/DX2 =    0.3415             !
 ! R15   R(9,10)                 1.3808         D2E/DX2 =    0.3994             !
 ! R16   R(9,13)                 1.3847         D2E/DX2 =    0.3613             !
 ! R17   R(10,11)                1.3743         D2E/DX2 =    0.3401             !
 ! R18   R(10,22)                1.0829         D2E/DX2 =    0.3691             !
 ! R19   R(11,12)                1.3144         D2E/DX2 =    0.4643             !
 ! R20   R(12,13)                1.3674         D2E/DX2 =    0.3574             !
 ! R21   R(12,23)                1.0812         D2E/DX2 =    0.3754             !
 ! R22   R(13,24)                1.0103         D2E/DX2 =    0.4724             !
 ! R23   R(14,15)                1.5365         D2E/DX2 =    0.3088             !
 ! R24   R(14,25)                1.0928         D2E/DX2 =    0.3445             !
 ! R25   R(14,26)                1.097          D2E/DX2 =    0.3346             !
 ! R26   R(15,16)                1.5137         D2E/DX2 =    0.2784             !
 ! R27   R(15,27)                1.0906         D2E/DX2 =    0.349              !
 ! R28   R(15,28)                1.0921         D2E/DX2 =    0.3466             !
 ! R29   R(16,29)                1.0928         D2E/DX2 =    0.1928             !
 ! R30   R(16,30)                1.0219         D2E/DX2 =    0.4393             !
 ! R31   R(16,31)                1.0226         D2E/DX2 =    0.4367             !
 ! A1    A(1,2,3)              122.1297         D2E/DX2 =    0.2321             !
 ! A2    A(1,2,14)             119.4261         D2E/DX2 =    0.2943             !
 ! A3    A(3,2,14)             118.4436         D2E/DX2 =    0.1846             !
 ! A4    A(2,3,4)              121.2256         D2E/DX2 =    0.1345             !
 ! A5    A(2,3,17)             119.3739         D2E/DX2 =    0.0891             !
 ! A6    A(4,3,17)             114.9443         D2E/DX2 =    0.0936             !
 ! A7    A(3,4,5)              108.6688         D2E/DX2 =    0.0859             !
 ! A8    A(3,4,8)              109.2246         D2E/DX2 =    0.0991             !
 ! A9    A(3,4,18)             108.8786         D2E/DX2 =    0.0307             !
 ! A10   A(5,4,8)              111.8393         D2E/DX2 =    0.0771             !
 ! A11   A(5,4,18)             108.5859         D2E/DX2 =    0.0263             !
 ! A12   A(8,4,18)             109.5917         D2E/DX2 =    0.0308             !
 ! A13   A(4,5,6)              115.5685         D2E/DX2 =    0.1698             !
 ! A14   A(4,5,7)              123.4325         D2E/DX2 =    0.1769             !
 ! A15   A(6,5,7)              120.9516         D2E/DX2 =    0.1964             !
 ! A16   A(5,6,19)             112.1631         D2E/DX2 =    0.17               !
 ! A17   A(4,8,9)              113.4479         D2E/DX2 =    0.1683             !
 ! A18   A(4,8,20)             108.9173         D2E/DX2 =    0.0635             !
 ! A19   A(4,8,21)             107.7333         D2E/DX2 =    0.0591             !
 ! A20   A(9,8,20)             111.4377         D2E/DX2 =    0.0562             !
 ! A21   A(9,8,21)             108.7047         D2E/DX2 =    0.0506             !
 ! A22   A(20,8,21)            106.2868         D2E/DX2 =    0.0205             !
 ! A23   A(8,9,10)             130.9439         D2E/DX2 =    0.0963             !
 ! A24   A(8,9,13)             124.5209         D2E/DX2 =    0.1021             !
 ! A25   A(10,9,13)            104.421          D2E/DX2 =    0.1022             !
 ! A26   A(9,10,11)            111.1734         D2E/DX2 =    0.1138             !
 ! A27   A(9,10,22)            127.3468         D2E/DX2 =    0.0819             !
 ! A28   A(11,10,22)           121.416          D2E/DX2 =    0.0897             !
 ! A29   A(10,11,12)           105.1542         D2E/DX2 =    0.1305             !
 ! A30   A(11,12,13)           111.9447         D2E/DX2 =    0.1183             !
 ! A31   A(11,12,23)           125.8798         D2E/DX2 =    0.0896             !
 ! A32   A(13,12,23)           122.1749         D2E/DX2 =    0.0907             !
 ! A33   A(9,13,12)            107.3043         D2E/DX2 =    0.1028             !
 ! A34   A(9,13,24)            126.7364         D2E/DX2 =    0.0788             !
 ! A35   A(12,13,24)           125.944          D2E/DX2 =    0.0802             !
 ! A36   A(2,14,15)            109.4917         D2E/DX2 =    0.4208             !
 ! A37   A(2,14,25)            112.1333         D2E/DX2 =    0.0956             !
 ! A38   A(2,14,26)            108.9289         D2E/DX2 =    0.0598             !
 ! A39   A(15,14,25)           108.5004         D2E/DX2 =    0.0861             !
 ! A40   A(15,14,26)           110.5898         D2E/DX2 =    0.07               !
 ! A41   A(25,14,26)           107.1811         D2E/DX2 =    0.0263             !
 ! A42   A(14,15,16)           109.0417         D2E/DX2 =    0.3136             !
 ! A43   A(14,15,27)           112.1853         D2E/DX2 =    0.0645             !
 ! A44   A(14,15,28)           110.3873         D2E/DX2 =    0.0542             !
 ! A45   A(16,15,27)           109.4155         D2E/DX2 =    0.0865             !
 ! A46   A(16,15,28)           106.457          D2E/DX2 =    0.0615             !
 ! A47   A(27,15,28)           109.186          D2E/DX2 =    0.0233             !
 ! A48   A(15,16,29)           102.6925         D2E/DX2 =    0.1772             !
 ! A49   A(15,16,30)           112.4218         D2E/DX2 =    0.1073             !
 ! A50   A(15,16,31)           112.2258         D2E/DX2 =    0.1099             !
 ! A51   A(29,16,30)           111.6944         D2E/DX2 =    0.057              !
 ! A52   A(29,16,31)           109.5257         D2E/DX2 =    0.056              !
 ! A53   A(30,16,31)           108.2295         D2E/DX2 =    0.0585             !
 ! D1    D(1,2,3,4)            -15.1553         D2E/DX2 =    0.0135             !
 ! D2    D(1,2,3,17)          -170.2727         D2E/DX2 =    0.0143             !
 ! D3    D(14,2,3,4)           164.5743         D2E/DX2 =    0.0106             !
 ! D4    D(14,2,3,17)            9.4569         D2E/DX2 =    0.0096             !
 ! D5    D(1,2,14,15)           45.066          D2E/DX2 =    0.0223             !
 ! D6    D(1,2,14,25)          165.5531         D2E/DX2 =    0.0229             !
 ! D7    D(1,2,14,26)          -75.9827         D2E/DX2 =    0.0198             !
 ! D8    D(3,2,14,15)         -134.6712         D2E/DX2 =    0.0153             !
 ! D9    D(3,2,14,25)          -14.184          D2E/DX2 =    0.0183             !
 ! D10   D(3,2,14,26)          104.2801         D2E/DX2 =    0.0183             !
 ! D11   D(2,3,4,5)            -63.8057         D2E/DX2 =    0.0172             !
 ! D12   D(2,3,4,8)            173.94           D2E/DX2 =    0.0136             !
 ! D13   D(2,3,4,18)            54.2995         D2E/DX2 =    0.0097             !
 ! D14   D(17,3,4,5)            92.3415         D2E/DX2 =    0.0159             !
 ! D15   D(17,3,4,8)           -29.9128         D2E/DX2 =    0.0139             !
 ! D16   D(17,3,4,18)         -149.5533         D2E/DX2 =    0.0101             !
 ! D17   D(3,4,5,6)            174.5284         D2E/DX2 =    0.0241             !
 ! D18   D(3,4,5,7)             -7.9572         D2E/DX2 =    0.0237             !
 ! D19   D(8,4,5,6)            -64.8184         D2E/DX2 =    0.0224             !
 ! D20   D(8,4,5,7)            112.6961         D2E/DX2 =    0.0212             !
 ! D21   D(18,4,5,6)            56.238          D2E/DX2 =    0.0149             !
 ! D22   D(18,4,5,7)          -126.2475         D2E/DX2 =    0.0136             !
 ! D23   D(3,4,8,9)             52.5897         D2E/DX2 =    0.0208             !
 ! D24   D(3,4,8,20)           177.3246         D2E/DX2 =    0.0199             !
 ! D25   D(3,4,8,21)           -67.7877         D2E/DX2 =    0.0197             !
 ! D26   D(5,4,8,9)            -67.7394         D2E/DX2 =    0.0184             !
 ! D27   D(5,4,8,20)            56.9955         D2E/DX2 =    0.0172             !
 ! D28   D(5,4,8,21)           171.8831         D2E/DX2 =    0.0196             !
 ! D29   D(18,4,8,9)           171.7889         D2E/DX2 =    0.0145             !
 ! D30   D(18,4,8,20)          -63.4762         D2E/DX2 =    0.0134             !
 ! D31   D(18,4,8,21)           51.4115         D2E/DX2 =    0.0139             !
 ! D32   D(4,5,6,19)            -8.7327         D2E/DX2 =    0.0088             !
 ! D33   D(7,5,6,19)           173.686          D2E/DX2 =    0.0156             !
 ! D34   D(4,8,9,10)           -95.5422         D2E/DX2 =    0.0129             !
 ! D35   D(4,8,9,13)            79.9451         D2E/DX2 =    0.0131             !
 ! D36   D(20,8,9,10)          141.0937         D2E/DX2 =    0.0136             !
 ! D37   D(20,8,9,13)          -43.4191         D2E/DX2 =    0.0136             !
 ! D38   D(21,8,9,10)           24.2837         D2E/DX2 =    0.0136             !
 ! D39   D(21,8,9,13)         -160.2291         D2E/DX2 =    0.0142             !
 ! D40   D(8,9,10,11)          176.3961         D2E/DX2 =    0.0098             !
 ! D41   D(8,9,10,22)           -6.5042         D2E/DX2 =    0.0073             !
 ! D42   D(13,9,10,11)           0.2341         D2E/DX2 =    0.0142             !
 ! D43   D(13,9,10,22)         177.3338         D2E/DX2 =    0.0101             !
 ! D44   D(8,9,13,12)         -176.9143         D2E/DX2 =    0.0083             !
 ! D45   D(8,9,13,24)            4.4435         D2E/DX2 =    0.0026             !
 ! D46   D(10,9,13,12)          -0.4325         D2E/DX2 =    0.0125             !
 ! D47   D(10,9,13,24)        -179.0747         D2E/DX2 =    0.0047             !
 ! D48   D(9,10,11,12)           0.0648         D2E/DX2 =    0.0174             !
 ! D49   D(22,10,11,12)       -177.2336         D2E/DX2 =    0.0102             !
 ! D50   D(10,11,12,13)         -0.3546         D2E/DX2 =    0.0184             !
 ! D51   D(10,11,12,23)        179.3616         D2E/DX2 =    0.0106             !
 ! D52   D(11,12,13,9)           0.512          D2E/DX2 =    0.0173             !
 ! D53   D(11,12,13,24)        179.168          D2E/DX2 =    0.008              !
 ! D54   D(23,12,13,9)        -179.2163         D2E/DX2 =    0.0106             !
 ! D55   D(23,12,13,24)         -0.5603         D2E/DX2 =    0.0066             !
 ! D56   D(2,14,15,16)         -56.2282         D2E/DX2 =    0.0412             !
 ! D57   D(2,14,15,27)        -177.5955         D2E/DX2 =    0.0303             !
 ! D58   D(2,14,15,28)          60.3867         D2E/DX2 =    0.02               !
 ! D59   D(25,14,15,16)       -178.9038         D2E/DX2 =    0.0269             !
 ! D60   D(25,14,15,27)         59.729          D2E/DX2 =    0.0203             !
 ! D61   D(25,14,15,28)        -62.2889         D2E/DX2 =    0.017              !
 ! D62   D(26,14,15,16)         63.8094         D2E/DX2 =    0.0188             !
 ! D63   D(26,14,15,27)        -57.5579         D2E/DX2 =    0.0169             !
 ! D64   D(26,14,15,28)       -179.5757         D2E/DX2 =    0.0244             !
 ! D65   D(14,15,16,29)         38.4201         D2E/DX2 =    0.0258             !
 ! D66   D(14,15,16,30)        158.6078         D2E/DX2 =    0.0158             !
 ! D67   D(14,15,16,31)        -79.1045         D2E/DX2 =    0.0142             !
 ! D68   D(27,15,16,29)        161.4583         D2E/DX2 =    0.0211             !
 ! D69   D(27,15,16,30)        -78.3541         D2E/DX2 =    0.0157             !
 ! D70   D(27,15,16,31)         43.9336         D2E/DX2 =    0.0145             !
 ! D71   D(28,15,16,29)        -80.6727         D2E/DX2 =    0.0216             !
 ! D72   D(28,15,16,30)         39.515          D2E/DX2 =    0.0152             !
 ! D73   D(28,15,16,31)        161.8027         D2E/DX2 =    0.0181             !
 --------------------------------------------------------------------------------
 Trust Radius=3.00D-01 FncErr=1.00D-07 GrdErr=1.00D-06
 Number of steps in this run=    167 maximum allowed number of steps=    186.
 GradGradGradGradGradGradGradGradGradGradGradGradGradGradGradGradGradGrad

                          Input orientation:                          
 ---------------------------------------------------------------------
 Center     Atomic      Atomic             Coordinates (Angstroms)
 Number     Number       Type             X           Y           Z
 ---------------------------------------------------------------------
      1          8           0       -2.202748    1.140301   -0.282306
      2          6           0       -1.532097    0.360794    0.431670
      3          7           0       -0.231260    0.553404    0.665575
      4          6           0        0.550661    1.475474   -0.140639
      5          6           0        0.585281    0.953484   -1.596721
      6          8           0        1.180986    1.766818   -2.492658
      7          8           0        0.157358   -0.123401   -1.926116
      8          6           0        1.981821    1.600279    0.464895
      9          6           0        2.655364    0.282574    0.676009
     10          6           0        2.743960   -0.519075    1.796744
     11          7           0        3.399979   -1.693657    1.516274
     12          6           0        3.712532   -1.616819    0.241890
     13          7           0        3.281643   -0.447154   -0.320339
     14          6           0       -2.210204   -0.855191    1.055157
     15          6           0       -3.088236   -1.548670    0.002105
     16          7           0       -4.078325   -0.546991   -0.552582
     17          1           0        0.307001   -0.178074    1.124508
     18          1           0        0.061739    2.455572   -0.132668
     19          1           0        1.388386    2.635763   -2.116421
     20          1           0        2.581453    2.258848   -0.173423
     21          1           0        1.892188    2.106909    1.429873
     22          1           0        2.405283   -0.287070    2.798837
     23          1           0        4.248540   -2.365148   -0.325368
     24          1           0        3.418586   -0.165026   -1.280754
     25          1           0       -1.486487   -1.580412    1.435250
     26          1           0       -2.817330   -0.526034    1.907519
     27          1           0       -3.628119   -2.402345    0.413544
     28          1           0       -2.479534   -1.881581   -0.841292
     29          1           0       -3.485202    0.368924   -0.612541
     30          1           0       -4.440852   -0.822853   -1.467374
     31          1           0       -4.872205   -0.399629    0.074963
 ---------------------------------------------------------------------
                    Distance matrix (angstroms):
                    1          2          3          4          5
     1  O    0.000000
     2  C    1.251865   0.000000
     3  N    2.264882   1.335660   0.000000
     4  C    2.777350   2.430624   1.453133   0.000000
     5  C    3.087992   2.991478   2.438193   1.547206   0.000000
     6  O    4.089967   4.229589   3.666231   2.452383   1.348733
     7  O    3.141521   2.940724   2.706649   2.428789   1.204700
     8  C    4.275571   3.726265   2.456410   1.558995   2.572728
     9  C    5.025466   4.195313   2.899320   2.553370   3.146532
    10  C    5.616573   4.574086   3.358823   3.541503   4.282981
    11  N    6.531214   5.451836   4.354178   4.572457   4.961917
    12  C    6.547292   5.608307   4.521379   4.439148   4.445970
    13  N    5.709641   4.938663   3.783336   3.344705   3.295650
    14  C    2.402260   1.525511   2.460108   3.805825   4.256583
    15  C    2.845267   2.500429   3.608492   4.733645   4.723531
    16  N    2.537282   2.876821   4.182665   5.068292   5.009080
    17  H    3.164819   2.037814   1.017548   2.096232   2.960228
    18  H    2.623019   2.692004   2.083575   1.095308   2.161901
    19  H    4.300770   4.494160   3.833924   2.439625   1.935234
    20  H    4.914426   4.570563   3.394674   2.176893   2.777491
    21  H    4.542509   3.971279   2.739811   2.159841   3.492659
    22  H    5.724053   4.639631   3.494075   3.897012   4.916534
    23  H    7.342284   6.435808   5.437694   5.334680   5.103834
    24  H    5.856635   5.264803   4.198299   3.495153   3.062436
    25  H    3.296257   2.185757   2.592521   3.996479   4.461581
    26  H    2.819525   2.148585   3.065186   4.420899   5.103571
    27  H    3.881525   3.468223   4.509836   5.727723   5.749391
    28  H    3.085587   2.747055   3.640678   4.576332   4.242801
    29  H    1.532568   2.214737   3.500821   4.211334   4.228374
    30  H    3.204290   3.669910   4.915711   5.653117   5.332365
    31  H    3.102423   3.444097   4.774460   5.741949   5.865969
                    6          7          8          9         10
     6  O    0.000000
     7  O    2.222996   0.000000
     8  C    3.068582   3.466508   0.000000
     9  C    3.797002   3.629862   1.494850   0.000000
    10  C    5.105602   4.550467   2.616551   1.380774   0.000000
    11  N    5.741982   4.983005   3.737189   2.272880   1.374287
    12  C    5.033436   4.423778   3.659893   2.216700   2.135589
    13  N    3.746119   3.527675   2.549140   1.384715   2.185478
    14  C    5.564359   3.876707   4.893957   5.011188   5.020624
    15  C    5.953365   4.035258   5.986279   6.066015   6.188320
    16  N    6.064484   4.472923   6.509332   6.894939   7.215517
    17  H    4.198850   3.054781   2.530346   2.434780   2.550873
    18  H    2.701231   3.142722   2.185251   3.478903   4.445837
    19  H    0.969348   3.027315   2.843868   3.865281   5.206097
    20  H    2.753589   3.824040   1.095775   2.152360   3.409520
    21  H    4.000965   4.387093   1.093567   2.116352   2.784942
    22  H    5.806658   5.234991   3.031285   2.212111   1.082921
    23  H    5.583921   4.932098   4.635423   3.248292   3.189844
    24  H    3.194932   3.324730   2.868429   2.147504   3.170404
    25  H    5.809288   4.015456   4.804950   4.604573   4.376505
    26  H    6.372225   4.869049   5.443732   5.667525   5.562397
    27  H    6.996815   4.999743   6.891667   6.838117   6.786998
    28  H    5.425609   3.349812   5.808026   5.775201   6.008373
    29  H    5.221327   3.903345   5.706614   6.274899   6.737629
    30  H    6.273967   4.673672   7.131337   7.494821   7.897358
    31  H    6.922954   5.420067   7.150479   7.582279   7.809274
                   11         12         13         14         15
    11  N    0.000000
    12  C    1.314400   0.000000
    13  N    2.222817   1.367437   0.000000
    14  C    5.691204   6.026631   5.676166   0.000000
    15  C    6.664133   6.805336   6.472455   1.536480   0.000000
    16  N    7.843471   7.903997   7.364309   2.483886   1.513708
    17  H    3.466552   3.800874   3.317903   2.607608   3.829616
    18  H    5.574850   5.482057   4.339219   4.187338   5.096514
    19  H    5.998905   5.389596   4.039148   5.932581   6.483655
    20  H    4.375769   4.058648   2.798981   5.845222   6.831792
    21  H    4.089645   4.311740   3.393680   5.073861   6.340852
    22  H    2.147760   3.164665   3.243900   4.966478   6.292225
    23  H    2.136025   1.081241   2.147933   6.775041   7.389327
    24  H    3.187542   2.124277   1.010321   6.133195   6.774875
    25  H    4.888450   5.334345   5.205904   1.092786   2.149538
    26  H    6.338087   6.826655   6.493615   1.097027   2.179398
    27  H    7.149295   7.384557   7.218461   2.194502   1.090650
    28  H    6.337358   6.291666   5.959877   2.173140   1.092093
    29  H    7.496119   7.515357   6.822137   2.430081   2.052447
    30  H    8.434399   8.368371   7.816250   3.367492   2.125029
    31  H    8.495935   8.672204   8.163563   2.873077   2.123239
                   16         17         18         19         20
    16  N    0.000000
    17  H    4.709545   0.000000
    18  H    5.131456   2.928606   0.000000
    19  H    6.516169   4.426138   2.393269   0.000000
    20  H    7.236653   3.577198   2.527711   2.310999   0.000000
    21  H    6.827909   2.797716   2.431799   3.620733   1.751779
    22  H    7.303201   2.686642   4.648441   5.808338   3.917533
    23  H    8.526078   4.735098   6.387940   6.033031   4.917683
    24  H    7.541871   3.932863   4.410675   3.558718   2.793230
    25  H    3.425939   2.297763   4.598319   6.217347   5.820300
    26  H    2.764534   3.239695   4.619672   6.623979   6.421273
    27  H    2.139724   4.575809   6.124766   7.546428   7.786529
    28  H    2.102526   3.811966   5.076525   6.082200   6.572883
    29  H    1.092837   4.206822   4.143086   5.581404   6.369375
    30  H    1.021945   5.447541   5.727376   6.809060   7.777143
    31  H    1.022630   5.289122   5.704304   7.294571   7.917463
                   21         22         23         24         25
    21  H    0.000000
    22  H    2.805078   0.000000
    23  H    5.350940   4.180509   0.000000
    24  H    3.852152   4.205322   2.538134   0.000000
    25  H    5.001181   4.321803   6.050299   5.782710   0.000000
    26  H    5.416650   5.303512   7.635092   7.012992   1.762354
    27  H    7.200006   6.823925   7.911329   7.585005   2.511184
    28  H    6.338628   6.297178   6.765130   6.158531   2.501897
    29  H    6.009024   6.838541   8.207824   6.956572   3.462401
    30  H    7.555458   8.084379   8.898785   7.889127   4.210391
    31  H    7.339995   7.771357   9.338710   8.404179   3.835064
                   26         27         28         29         30
    26  H    0.000000
    27  H    2.531775   0.000000
    28  H    3.083436   1.779061   0.000000
    29  H    2.756394   2.958582   2.475574   0.000000
    30  H    3.756838   2.587118   2.315092   1.750526   0.000000
    31  H    2.756221   2.381860   2.959827   1.728327   1.656499
                   31
    31  H    0.000000
 Symmetry turned off by external request.
 Stoichiometry    C9H15N4O3(1+)
 Framework group  C1[X(C9H15N4O3)]
 Deg. of freedom    87
 Full point group                 C1      NOp   1
 Rotational constants (GHZ):      0.8194748      0.3285031      0.2802168
 Standard basis: 6-311++G(2df,2pd) (5D, 7F)
   769 basis functions,  1102 primitive gaussians,   864 cartesian basis functions
    60 alpha electrons       60 beta electrons
       nuclear repulsion energy      1167.2080914047 Hartrees.
 NAtoms=   31 NActive=   31 NUniq=   31 SFac= 1.00D+00 NAtFMM=   60 NAOKFM=F Big=F
 Integral buffers will be    131072 words long.
 Raffenetti 2 integral format.
 Two-electron integral symmetry is turned off.
 One-electron integrals computed using PRISM.
 NBasis=   769 RedAO= T EigKep=  2.66D-06  NBF=   769
 NBsUse=   769 1.00D-06 EigRej= -1.00D+00 NBFU=   769
 Initial guess from the checkpoint file:  "conf-715.chk"
 B after Tr=     0.000000    0.000000    0.000000
         Rot=    1.000000    0.000000    0.000000    0.000000 Ang=   0.00 deg.
 Requested convergence on RMS density matrix=1.00D-08 within 128 cycles.
 Requested convergence on MAX density matrix=1.00D-06.
 Requested convergence on             energy=1.00D-06.
 No special actions if energy rises.
 SCF Done:  E(RB3LYP) =  -796.757073163     A.U. after   12 cycles
            NFock= 12  Conv=0.52D-08     -V/T= 2.0043

 **********************************************************************

            Population analysis using the SCF density.

 **********************************************************************

 Alpha  occ. eigenvalues --  -19.30556 -19.26636 -19.24462 -14.57563 -14.49996
 Alpha  occ. eigenvalues --  -14.47850 -14.39779 -10.44496 -10.43879 -10.40132
 Alpha  occ. eigenvalues --  -10.37555 -10.35781 -10.32994 -10.32988 -10.32230
 Alpha  occ. eigenvalues --  -10.29475  -1.23971  -1.21399  -1.15881  -1.14661
 Alpha  occ. eigenvalues --   -1.12486  -1.09329  -0.98245  -0.96053  -0.93085
 Alpha  occ. eigenvalues --   -0.86765  -0.82945  -0.79518  -0.77070  -0.75434
 Alpha  occ. eigenvalues --   -0.74293  -0.73004  -0.72376  -0.70466  -0.68797
 Alpha  occ. eigenvalues --   -0.67218  -0.66237  -0.64860  -0.62324  -0.60477
 Alpha  occ. eigenvalues --   -0.59535  -0.58918  -0.57310  -0.57028  -0.56944
 Alpha  occ. eigenvalues --   -0.56190  -0.55489  -0.53863  -0.52983  -0.52280
 Alpha  occ. eigenvalues --   -0.51856  -0.51575  -0.51093  -0.45993  -0.44301
 Alpha  occ. eigenvalues --   -0.43388  -0.41325  -0.39545  -0.37740  -0.34485
 Alpha virt. eigenvalues --   -0.16730  -0.15480  -0.13998  -0.12700  -0.12117
 Alpha virt. eigenvalues --   -0.11708  -0.10575  -0.09519  -0.08859  -0.08489
 Alpha virt. eigenvalues --   -0.08141  -0.07355  -0.06918  -0.06543  -0.06221
 Alpha virt. eigenvalues --   -0.05613  -0.05158  -0.04771  -0.04576  -0.03966
 Alpha virt. eigenvalues --   -0.03658  -0.03171  -0.02733  -0.01873  -0.01498
 Alpha virt. eigenvalues --   -0.01251  -0.01118  -0.00637  -0.00301   0.00079
 Alpha virt. eigenvalues --    0.00245   0.00708   0.01194   0.01321   0.01358
 Alpha virt. eigenvalues --    0.01783   0.02038   0.02764   0.03022   0.03335
 Alpha virt. eigenvalues --    0.03882   0.04041   0.04310   0.04545   0.04750
 Alpha virt. eigenvalues --    0.04947   0.05093   0.05251   0.05802   0.05944
 Alpha virt. eigenvalues --    0.06245   0.06642   0.06977   0.07407   0.07560
 Alpha virt. eigenvalues --    0.07782   0.08455   0.09064   0.09186   0.09869
 Alpha virt. eigenvalues --    0.10542   0.10646   0.10910   0.11265   0.11794
 Alpha virt. eigenvalues --    0.11947   0.12558   0.12693   0.12927   0.13332
 Alpha virt. eigenvalues --    0.13832   0.14828   0.15019   0.15127   0.15822
 Alpha virt. eigenvalues --    0.16364   0.16507   0.16842   0.16974   0.17413
 Alpha virt. eigenvalues --    0.17708   0.18155   0.18672   0.18985   0.19401
 Alpha virt. eigenvalues --    0.20008   0.20245   0.20473   0.20735   0.21424
 Alpha virt. eigenvalues --    0.22165   0.22252   0.23136   0.23635   0.24176
 Alpha virt. eigenvalues --    0.24283   0.24522   0.25331   0.25555   0.26366
 Alpha virt. eigenvalues --    0.26957   0.27105   0.27702   0.28361   0.28680
 Alpha virt. eigenvalues --    0.30119   0.30601   0.31552   0.32633   0.33364
 Alpha virt. eigenvalues --    0.33631   0.34499   0.34712   0.35384   0.35897
 Alpha virt. eigenvalues --    0.36982   0.37031   0.37647   0.38218   0.39158
 Alpha virt. eigenvalues --    0.39667   0.40514   0.41004   0.42012   0.42756
 Alpha virt. eigenvalues --    0.43102   0.43666   0.44477   0.44914   0.45358
 Alpha virt. eigenvalues --    0.45556   0.45977   0.46657   0.47459   0.47967
 Alpha virt. eigenvalues --    0.48648   0.49239   0.49829   0.50230   0.50434
 Alpha virt. eigenvalues --    0.51199   0.51591   0.51896   0.52606   0.53676
 Alpha virt. eigenvalues --    0.53981   0.54608   0.54979   0.55434   0.55903
 Alpha virt. eigenvalues --    0.56439   0.57046   0.57848   0.58597   0.58931
 Alpha virt. eigenvalues --    0.59858   0.61432   0.62105   0.62403   0.62968
 Alpha virt. eigenvalues --    0.63837   0.64421   0.64853   0.65255   0.65690
 Alpha virt. eigenvalues --    0.66830   0.67368   0.68103   0.69190   0.69826
 Alpha virt. eigenvalues --    0.70934   0.71263   0.72076   0.72695   0.73651
 Alpha virt. eigenvalues --    0.74196   0.75330   0.75653   0.76483   0.77332
 Alpha virt. eigenvalues --    0.78175   0.79457   0.80000   0.80829   0.81590
 Alpha virt. eigenvalues --    0.82347   0.82517   0.83642   0.84443   0.85163
 Alpha virt. eigenvalues --    0.86250   0.87064   0.87926   0.88320   0.89498
 Alpha virt. eigenvalues --    0.90180   0.91310   0.92457   0.92923   0.94332
 Alpha virt. eigenvalues --    0.95358   0.96304   0.96598   0.96972   0.98261
 Alpha virt. eigenvalues --    0.98633   0.99656   1.00054   1.00604   1.01138
 Alpha virt. eigenvalues --    1.01188   1.02765   1.03088   1.04367   1.05652
 Alpha virt. eigenvalues --    1.06570   1.07085   1.07673   1.08208   1.08701
 Alpha virt. eigenvalues --    1.09246   1.10701   1.11041   1.12084   1.12544
 Alpha virt. eigenvalues --    1.13909   1.14106   1.14691   1.15493   1.16695
 Alpha virt. eigenvalues --    1.17547   1.17815   1.18395   1.18749   1.19146
 Alpha virt. eigenvalues --    1.19901   1.20196   1.21554   1.22660   1.23891
 Alpha virt. eigenvalues --    1.24529   1.25119   1.26154   1.26374   1.26866
 Alpha virt. eigenvalues --    1.27844   1.28258   1.29003   1.29781   1.30793
 Alpha virt. eigenvalues --    1.31239   1.31814   1.32685   1.33774   1.34718
 Alpha virt. eigenvalues --    1.35324   1.36271   1.37437   1.37611   1.38359
 Alpha virt. eigenvalues --    1.39250   1.40197   1.41080   1.42138   1.43292
 Alpha virt. eigenvalues --    1.44201   1.44820   1.45774   1.46043   1.47578
 Alpha virt. eigenvalues --    1.49420   1.49614   1.49843   1.50387   1.51197
 Alpha virt. eigenvalues --    1.53444   1.54120   1.56082   1.57789   1.58252
 Alpha virt. eigenvalues --    1.58451   1.60372   1.62495   1.62930   1.64338
 Alpha virt. eigenvalues --    1.64719   1.65190   1.66077   1.67738   1.68988
 Alpha virt. eigenvalues --    1.71981   1.73462   1.74053   1.75092   1.75387
 Alpha virt. eigenvalues --    1.77489   1.79595   1.82769   1.83840   1.86201
 Alpha virt. eigenvalues --    1.88548   1.91156   1.94558   1.95976   1.97940
 Alpha virt. eigenvalues --    1.99474   2.01472   2.03673   2.06634   2.08971
 Alpha virt. eigenvalues --    2.14898   2.15900   2.19460   2.22923   2.26034
 Alpha virt. eigenvalues --    2.27752   2.31844   2.32956   2.35985   2.36641
 Alpha virt. eigenvalues --    2.39771   2.41255   2.42417   2.43854   2.45180
 Alpha virt. eigenvalues --    2.45976   2.47453   2.49694   2.51516   2.52527
 Alpha virt. eigenvalues --    2.54694   2.55436   2.55925   2.57714   2.59416
 Alpha virt. eigenvalues --    2.60313   2.61572   2.62825   2.63849   2.64411
 Alpha virt. eigenvalues --    2.65107   2.65409   2.66806   2.68014   2.69624
 Alpha virt. eigenvalues --    2.70290   2.72123   2.73108   2.73290   2.74342
 Alpha virt. eigenvalues --    2.75967   2.76314   2.77612   2.79068   2.79381
 Alpha virt. eigenvalues --    2.80556   2.81115   2.81381   2.82677   2.83404
 Alpha virt. eigenvalues --    2.83927   2.84352   2.85557   2.86031   2.86808
 Alpha virt. eigenvalues --    2.87029   2.88603   2.89620   2.90757   2.90882
 Alpha virt. eigenvalues --    2.91624   2.92222   2.92750   2.93309   2.94477
 Alpha virt. eigenvalues --    2.95479   2.95748   2.97405   2.98530   2.98833
 Alpha virt. eigenvalues --    2.99709   3.00300   3.00865   3.01262   3.02711
 Alpha virt. eigenvalues --    3.02824   3.03495   3.04034   3.05532   3.05931
 Alpha virt. eigenvalues --    3.06809   3.07626   3.08562   3.09257   3.09351
 Alpha virt. eigenvalues --    3.09994   3.10814   3.12466   3.12967   3.14132
 Alpha virt. eigenvalues --    3.14477   3.15837   3.16082   3.16395   3.17301
 Alpha virt. eigenvalues --    3.17561   3.17971   3.19517   3.19883   3.20195
 Alpha virt. eigenvalues --    3.22208   3.23172   3.23746   3.23845   3.24785
 Alpha virt. eigenvalues --    3.25066   3.25652   3.26435   3.28018   3.28783
 Alpha virt. eigenvalues --    3.29228   3.29444   3.30572   3.31564   3.32376
 Alpha virt. eigenvalues --    3.32919   3.33863   3.34733   3.35126   3.35923
 Alpha virt. eigenvalues --    3.36505   3.37759   3.38383   3.39941   3.40996
 Alpha virt. eigenvalues --    3.41517   3.42575   3.43648   3.44250   3.45086
 Alpha virt. eigenvalues --    3.45243   3.45521   3.46420   3.47528   3.48625
 Alpha virt. eigenvalues --    3.49689   3.50339   3.51415   3.52206   3.52769
 Alpha virt. eigenvalues --    3.53711   3.54639   3.55126   3.56600   3.57157
 Alpha virt. eigenvalues --    3.57880   3.58276   3.59018   3.60301   3.61037
 Alpha virt. eigenvalues --    3.61226   3.61801   3.62688   3.64360   3.65670
 Alpha virt. eigenvalues --    3.65898   3.67161   3.67440   3.68991   3.69386
 Alpha virt. eigenvalues --    3.69859   3.70933   3.71927   3.72683   3.73104
 Alpha virt. eigenvalues --    3.74427   3.74627   3.76131   3.77715   3.78610
 Alpha virt. eigenvalues --    3.79116   3.79727   3.80628   3.81628   3.82166
 Alpha virt. eigenvalues --    3.82345   3.83765   3.84141   3.84915   3.86142
 Alpha virt. eigenvalues --    3.86986   3.87715   3.88473   3.88980   3.89998
 Alpha virt. eigenvalues --    3.90534   3.91215   3.91987   3.92165   3.93821
 Alpha virt. eigenvalues --    3.94422   3.95219   3.96233   3.96965   3.97949
 Alpha virt. eigenvalues --    3.98226   3.99554   3.99916   4.00137   4.01601
 Alpha virt. eigenvalues --    4.02762   4.03132   4.05067   4.05954   4.07085
 Alpha virt. eigenvalues --    4.08053   4.08984   4.09289   4.09549   4.11292
 Alpha virt. eigenvalues --    4.12232   4.13971   4.14619   4.16013   4.17332
 Alpha virt. eigenvalues --    4.18441   4.19346   4.21721   4.22587   4.23172
 Alpha virt. eigenvalues --    4.24868   4.26231   4.27372   4.28564   4.30539
 Alpha virt. eigenvalues --    4.31390   4.34248   4.37260   4.38034   4.38650
 Alpha virt. eigenvalues --    4.39107   4.42157   4.43000   4.44381   4.44778
 Alpha virt. eigenvalues --    4.45861   4.48265   4.49296   4.50119   4.51421
 Alpha virt. eigenvalues --    4.52983   4.54850   4.57589   4.57818   4.59559
 Alpha virt. eigenvalues --    4.63493   4.65148   4.65588   4.67025   4.68244
 Alpha virt. eigenvalues --    4.70442   4.71028   4.72648   4.73578   4.74898
 Alpha virt. eigenvalues --    4.75456   4.76082   4.78063   4.78816   4.80760
 Alpha virt. eigenvalues --    4.81965   4.82376   4.83384   4.86175   4.87738
 Alpha virt. eigenvalues --    4.88601   4.89125   4.92349   4.93269   4.93385
 Alpha virt. eigenvalues --    4.93692   4.94393   4.94817   4.95594   4.96113
 Alpha virt. eigenvalues --    4.97731   4.98383   4.99267   4.99917   5.00470
 Alpha virt. eigenvalues --    5.01875   5.02949   5.04129   5.05210   5.05409
 Alpha virt. eigenvalues --    5.07282   5.07657   5.08987   5.09752   5.11350
 Alpha virt. eigenvalues --    5.11928   5.13432   5.14066   5.14566   5.16032
 Alpha virt. eigenvalues --    5.18098   5.18603   5.18774   5.21076   5.21929
 Alpha virt. eigenvalues --    5.23753   5.25847   5.27440   5.27813   5.28900
 Alpha virt. eigenvalues --    5.29048   5.32214   5.33248   5.35630   5.37110
 Alpha virt. eigenvalues --    5.38534   5.39785   5.41160   5.41559   5.42482
 Alpha virt. eigenvalues --    5.44011   5.45802   5.48517   5.50254   5.51627
 Alpha virt. eigenvalues --    5.52549   5.55296   5.57894   5.58893   5.60714
 Alpha virt. eigenvalues --    5.64026   5.64745   5.67736   5.69724   5.73516
 Alpha virt. eigenvalues --    5.77197   5.78446   5.79075   5.82211   5.83339
 Alpha virt. eigenvalues --    5.85427   5.86446   5.89520   5.90510   5.93468
 Alpha virt. eigenvalues --    5.95370   6.00491   6.05808   6.09770   6.11450
 Alpha virt. eigenvalues --    6.16083   6.16898   6.21806   6.24276   6.26063
 Alpha virt. eigenvalues --    6.28820   6.30703   6.33082   6.34877   6.37525
 Alpha virt. eigenvalues --    6.42061   6.45325   6.54941   6.61373   6.68322
 Alpha virt. eigenvalues --    6.75599   6.80451   6.84876   6.86690   6.88439
 Alpha virt. eigenvalues --    6.89319   6.97826   7.03590   7.06318   7.06383
 Alpha virt. eigenvalues --    7.08728   7.11410   7.15901   7.20324   7.29944
 Alpha virt. eigenvalues --    7.32160   7.34458   7.46073   7.58368   7.61655
 Alpha virt. eigenvalues --    7.68225   7.72019   7.86500  24.41410  24.61718
 Alpha virt. eigenvalues --   24.69862  24.72583  24.86083  24.89999  24.91638
 Alpha virt. eigenvalues --   24.96013  25.00849  35.89097  36.12958  36.16787
 Alpha virt. eigenvalues --   36.34425  50.08473  50.08681  50.17757
          Condensed to atoms (all electrons):
               1          2          3          4          5          6
     1  O    8.052817   0.570536  -0.072880   0.000445  -0.047779   0.000277
     2  C    0.570536   6.626643   0.230031  -0.688141   0.102875   0.000942
     3  N   -0.072880   0.230031   6.497641  -0.072923   0.153702   0.001457
     4  C    0.000445  -0.688141  -0.072923   8.523917  -1.331818  -0.022070
     5  C   -0.047779   0.102875   0.153702  -1.331818   6.599233   0.330130
     6  O    0.000277   0.000942   0.001457  -0.022070   0.330130   7.713905
     7  O    0.006530   0.076629  -0.022240   0.046586   0.381093  -0.067275
     8  C    0.016522   0.006667   0.017129  -0.936484  -0.038093   0.086416
     9  C    0.016530  -0.108177   0.049540  -0.271890  -0.069111  -0.037433
    10  C   -0.002395   0.089863  -0.079410   0.144066   0.042604  -0.013854
    11  N   -0.000035  -0.004141  -0.007782   0.026564  -0.013658  -0.000354
    12  C   -0.000255  -0.014658   0.006762   0.083634  -0.006114   0.000183
    13  N   -0.000229   0.006012   0.028812  -0.098170   0.057538  -0.015070
    14  C   -0.187197  -0.402883  -0.132770  -0.150170   0.014717  -0.005568
    15  C   -0.042725  -0.169768   0.016312   0.075713  -0.035659   0.001049
    16  N   -0.012865   0.007710  -0.004631  -0.016503   0.004387  -0.000181
    17  H    0.019910  -0.122299   0.374998  -0.078325   0.001700   0.000180
    18  H   -0.007718   0.000186  -0.094189   0.565774  -0.128056  -0.003271
    19  H   -0.000426  -0.015259  -0.010427   0.096512  -0.058095   0.183909
    20  H    0.000853  -0.006259   0.013888   0.005751  -0.016466  -0.016354
    21  H    0.000415   0.021818  -0.009664  -0.036684  -0.024798   0.003621
    22  H   -0.000135   0.003360   0.005414  -0.013017   0.010943  -0.000353
    23  H   -0.000014  -0.001485   0.000797  -0.001664   0.003857  -0.000244
    24  H    0.000042   0.004239  -0.000476  -0.009454  -0.016789   0.005898
    25  H    0.001119  -0.033271  -0.015702   0.030983  -0.008311  -0.000238
    26  H    0.001758  -0.108127   0.009262  -0.016654   0.003493  -0.000061
    27  H   -0.006372   0.021700  -0.000621  -0.007197   0.001539   0.000054
    28  H    0.007507  -0.011982   0.001223   0.008419  -0.000917   0.000102
    29  H    0.074367   0.076570  -0.004454   0.001569   0.005632   0.000190
    30  H    0.004387   0.008928   0.000372  -0.000617  -0.001002  -0.000038
    31  H   -0.000393  -0.022955   0.000927   0.000337   0.000799  -0.000015
               7          8          9         10         11         12
     1  O    0.006530   0.016522   0.016530  -0.002395  -0.000035  -0.000255
     2  C    0.076629   0.006667  -0.108177   0.089863  -0.004141  -0.014658
     3  N   -0.022240   0.017129   0.049540  -0.079410  -0.007782   0.006762
     4  C    0.046586  -0.936484  -0.271890   0.144066   0.026564   0.083634
     5  C    0.381093  -0.038093  -0.069111   0.042604  -0.013658  -0.006114
     6  O   -0.067275   0.086416  -0.037433  -0.013854  -0.000354   0.000183
     7  O    7.938844  -0.066748   0.014164   0.014487  -0.000389  -0.002629
     8  C   -0.066748   9.799718  -1.973428  -0.797310  -0.073925  -0.261778
     9  C    0.014164  -1.973428   8.600703  -0.539486  -0.000638  -0.152109
    10  C    0.014487  -0.797310  -0.539486   6.900503   0.314058  -0.142453
    11  N   -0.000389  -0.073925  -0.000638   0.314058   6.830899   0.264808
    12  C   -0.002629  -0.261778  -0.152109  -0.142453   0.264808   5.336477
    13  N    0.008718  -0.234627   0.279592  -0.061541   0.061007   0.339059
    14  C   -0.024128  -0.005396  -0.046049   0.028329   0.000296   0.005680
    15  C    0.012348   0.015440   0.012480  -0.009821  -0.000725  -0.001104
    16  N   -0.002065   0.000523  -0.002892   0.001988  -0.000034  -0.000042
    17  H   -0.008264   0.004406   0.204909  -0.074585  -0.000671  -0.007990
    18  H    0.006252   0.036512  -0.130546   0.017574  -0.000746   0.000160
    19  H   -0.006786  -0.000033  -0.009418   0.003975   0.000223  -0.000933
    20  H    0.001292   0.281015   0.065812  -0.023791   0.003631  -0.000852
    21  H   -0.002101   0.592484  -0.179527  -0.033302  -0.002903  -0.009889
    22  H    0.000148  -0.040885  -0.168417   0.566985  -0.090565   0.032624
    23  H    0.000041  -0.001243   0.036625   0.021210  -0.077360   0.442779
    24  H   -0.001711   0.053217  -0.076080   0.016124  -0.001561  -0.047162
    25  H    0.000083   0.017575  -0.008588  -0.010478  -0.000137   0.000936
    26  H   -0.000365   0.001549  -0.001154   0.000620   0.000186  -0.000443
    27  H    0.000575   0.000029  -0.000498   0.000706  -0.000070   0.000014
    28  H   -0.001491  -0.006077   0.001080   0.001225   0.000060   0.000494
    29  H   -0.002185  -0.003796   0.001568   0.000760   0.000023  -0.000038
    30  H   -0.000134   0.000794  -0.000594   0.000040  -0.000006  -0.000028
    31  H    0.000077  -0.000374   0.000147  -0.000004  -0.000002  -0.000001
              13         14         15         16         17         18
     1  O   -0.000229  -0.187197  -0.042725  -0.012865   0.019910  -0.007718
     2  C    0.006012  -0.402883  -0.169768   0.007710  -0.122299   0.000186
     3  N    0.028812  -0.132770   0.016312  -0.004631   0.374998  -0.094189
     4  C   -0.098170  -0.150170   0.075713  -0.016503  -0.078325   0.565774
     5  C    0.057538   0.014717  -0.035659   0.004387   0.001700  -0.128056
     6  O   -0.015070  -0.005568   0.001049  -0.000181   0.000180  -0.003271
     7  O    0.008718  -0.024128   0.012348  -0.002065  -0.008264   0.006252
     8  C   -0.234627  -0.005396   0.015440   0.000523   0.004406   0.036512
     9  C    0.279592  -0.046049   0.012480  -0.002892   0.204909  -0.130546
    10  C   -0.061541   0.028329  -0.009821   0.001988  -0.074585   0.017574
    11  N    0.061007   0.000296  -0.000725  -0.000034  -0.000671  -0.000746
    12  C    0.339059   0.005680  -0.001104  -0.000042  -0.007990   0.000160
    13  N    6.264430   0.000330  -0.001916   0.000165   0.003726  -0.004236
    14  C    0.000330   5.923936   0.150594  -0.016339  -0.071199   0.022843
    15  C   -0.001916   0.150594   5.473217   0.003916   0.006070  -0.002034
    16  N    0.000165  -0.016339   0.003916   5.799800  -0.004525   0.001393
    17  H    0.003726  -0.071199   0.006070  -0.004525   0.649018  -0.015317
    18  H   -0.004236   0.022843  -0.002034   0.001393  -0.015317   0.655182
    19  H    0.001200   0.001417   0.000828  -0.000150  -0.000549  -0.008713
    20  H    0.007759   0.000004  -0.000344   0.000104   0.009252  -0.015538
    21  H   -0.001781   0.003468   0.001309  -0.000230  -0.017812   0.000611
    22  H    0.018649   0.000054  -0.000502   0.000131  -0.005549  -0.000253
    23  H   -0.080960   0.000707  -0.000006  -0.000005  -0.001368  -0.000084
    24  H    0.396685  -0.000994   0.000261  -0.000007   0.001658  -0.000323
    25  H   -0.001576   0.382405   0.025234  -0.005022  -0.000917   0.003505
    26  H    0.000228   0.464837  -0.065693   0.019058   0.002701  -0.001242
    27  H    0.000086  -0.047361   0.416727  -0.027093  -0.001327  -0.000181
    28  H    0.000134  -0.016444   0.375082  -0.007161  -0.000625   0.000540
    29  H    0.000027  -0.054461  -0.028780   0.338530   0.001047   0.000236
    30  H    0.000011  -0.004867  -0.022206   0.387210   0.000558   0.000096
    31  H    0.000000   0.023296  -0.014741   0.370536  -0.000569   0.000074
              19         20         21         22         23         24
     1  O   -0.000426   0.000853   0.000415  -0.000135  -0.000014   0.000042
     2  C   -0.015259  -0.006259   0.021818   0.003360  -0.001485   0.004239
     3  N   -0.010427   0.013888  -0.009664   0.005414   0.000797  -0.000476
     4  C    0.096512   0.005751  -0.036684  -0.013017  -0.001664  -0.009454
     5  C   -0.058095  -0.016466  -0.024798   0.010943   0.003857  -0.016789
     6  O    0.183909  -0.016354   0.003621  -0.000353  -0.000244   0.005898
     7  O   -0.006786   0.001292  -0.002101   0.000148   0.000041  -0.001711
     8  C   -0.000033   0.281015   0.592484  -0.040885  -0.001243   0.053217
     9  C   -0.009418   0.065812  -0.179527  -0.168417   0.036625  -0.076080
    10  C    0.003975  -0.023791  -0.033302   0.566985   0.021210   0.016124
    11  N    0.000223   0.003631  -0.002903  -0.090565  -0.077360  -0.001561
    12  C   -0.000933  -0.000852  -0.009889   0.032624   0.442779  -0.047162
    13  N    0.001200   0.007759  -0.001781   0.018649  -0.080960   0.396685
    14  C    0.001417   0.000004   0.003468   0.000054   0.000707  -0.000994
    15  C    0.000828  -0.000344   0.001309  -0.000502  -0.000006   0.000261
    16  N   -0.000150   0.000104  -0.000230   0.000131  -0.000005  -0.000007
    17  H   -0.000549   0.009252  -0.017812  -0.005549  -0.001368   0.001658
    18  H   -0.008713  -0.015538   0.000611  -0.000253  -0.000084  -0.000323
    19  H    0.612500  -0.002174   0.001381   0.000023   0.000066  -0.000747
    20  H   -0.002174   0.654456  -0.035779   0.000124  -0.000238  -0.000233
    21  H    0.001381  -0.035779   0.623536  -0.001256  -0.000326   0.002264
    22  H    0.000023   0.000124  -0.001256   0.588799   0.001414   0.001131
    23  H    0.000066  -0.000238  -0.000326   0.001414   0.542825  -0.007096
    24  H   -0.000747  -0.000233   0.002264   0.001131  -0.007096   0.519865
    25  H    0.000023  -0.000591   0.002542  -0.000842   0.000014  -0.000037
    26  H   -0.000032   0.000254  -0.000726   0.000105  -0.000024   0.000041
    27  H   -0.000002   0.000032  -0.000126   0.000065   0.000003   0.000009
    28  H   -0.000215  -0.000030  -0.000195   0.000009   0.000040  -0.000167
    29  H   -0.000128   0.000056  -0.000385   0.000049   0.000002  -0.000069
    30  H   -0.000001  -0.000010   0.000018  -0.000008  -0.000002   0.000007
    31  H   -0.000010  -0.000001   0.000022   0.000017  -0.000001   0.000001
              25         26         27         28         29         30
     1  O    0.001119   0.001758  -0.006372   0.007507   0.074367   0.004387
     2  C   -0.033271  -0.108127   0.021700  -0.011982   0.076570   0.008928
     3  N   -0.015702   0.009262  -0.000621   0.001223  -0.004454   0.000372
     4  C    0.030983  -0.016654  -0.007197   0.008419   0.001569  -0.000617
     5  C   -0.008311   0.003493   0.001539  -0.000917   0.005632  -0.001002
     6  O   -0.000238  -0.000061   0.000054   0.000102   0.000190  -0.000038
     7  O    0.000083  -0.000365   0.000575  -0.001491  -0.002185  -0.000134
     8  C    0.017575   0.001549   0.000029  -0.006077  -0.003796   0.000794
     9  C   -0.008588  -0.001154  -0.000498   0.001080   0.001568  -0.000594
    10  C   -0.010478   0.000620   0.000706   0.001225   0.000760   0.000040
    11  N   -0.000137   0.000186  -0.000070   0.000060   0.000023  -0.000006
    12  C    0.000936  -0.000443   0.000014   0.000494  -0.000038  -0.000028
    13  N   -0.001576   0.000228   0.000086   0.000134   0.000027   0.000011
    14  C    0.382405   0.464837  -0.047361  -0.016444  -0.054461  -0.004867
    15  C    0.025234  -0.065693   0.416727   0.375082  -0.028780  -0.022206
    16  N   -0.005022   0.019058  -0.027093  -0.007161   0.338530   0.387210
    17  H   -0.000917   0.002701  -0.001327  -0.000625   0.001047   0.000558
    18  H    0.003505  -0.001242  -0.000181   0.000540   0.000236   0.000096
    19  H    0.000023  -0.000032  -0.000002  -0.000215  -0.000128  -0.000001
    20  H   -0.000591   0.000254   0.000032  -0.000030   0.000056  -0.000010
    21  H    0.002542  -0.000726  -0.000126  -0.000195  -0.000385   0.000018
    22  H   -0.000842   0.000105   0.000065   0.000009   0.000049  -0.000008
    23  H    0.000014  -0.000024   0.000003   0.000040   0.000002  -0.000002
    24  H   -0.000037   0.000041   0.000009  -0.000167  -0.000069   0.000007
    25  H    0.613319  -0.035752  -0.007035  -0.008218  -0.001391  -0.001357
    26  H   -0.035752   0.627433   0.000111   0.004357  -0.004887   0.000479
    27  H   -0.007035   0.000111   0.570306  -0.026592   0.001293   0.003104
    28  H   -0.008218   0.004357  -0.026592   0.563281  -0.002015  -0.004698
    29  H   -0.001391  -0.004887   0.001293  -0.002015   0.383038  -0.021106
    30  H   -0.001357   0.000479   0.003104  -0.004698  -0.021106   0.537519
    31  H    0.001737  -0.000175  -0.010870   0.005213  -0.025017  -0.042378
              31
     1  O   -0.000393
     2  C   -0.022955
     3  N    0.000927
     4  C    0.000337
     5  C    0.000799
     6  O   -0.000015
     7  O    0.000077
     8  C   -0.000374
     9  C    0.000147
    10  C   -0.000004
    11  N   -0.000002
    12  C   -0.000001
    13  N    0.000000
    14  C    0.023296
    15  C   -0.014741
    16  N    0.370536
    17  H   -0.000569
    18  H    0.000074
    19  H   -0.000010
    20  H   -0.000001
    21  H    0.000022
    22  H    0.000017
    23  H   -0.000001
    24  H    0.000001
    25  H    0.001737
    26  H   -0.000175
    27  H   -0.010870
    28  H    0.005213
    29  H   -0.025017
    30  H   -0.042378
    31  H    0.566584
 Mulliken charges:
               1
     1  O   -0.392594
     2  C   -0.145304
     3  N    0.119901
     4  C    0.141511
     5  C    0.082423
     6  O   -0.145934
     7  O   -0.299358
     8  C   -0.489798
     9  C    0.492886
    10  C   -0.376688
    11  N   -0.226053
    12  C    0.134867
    13  N    0.025937
    14  C    0.142913
    15  C   -0.190559
    16  N    0.164295
    17  H    0.131758
    18  H    0.101510
    19  H    0.212041
    20  H    0.074377
    21  H    0.103994
    22  H    0.091738
    23  H    0.121739
    24  H    0.161465
    25  H    0.059987
    26  H    0.098864
    27  H    0.118996
    28  H    0.118061
    29  H    0.263757
    30  H    0.155528
    31  H    0.147739
 Sum of Mulliken charges =   1.00000
 Mulliken charges with hydrogens summed into heavy atoms:
               1
     1  O   -0.392594
     2  C   -0.145304
     3  N    0.251660
     4  C    0.243022
     5  C    0.082423
     6  O    0.066107
     7  O   -0.299358
     8  C   -0.311427
     9  C    0.492886
    10  C   -0.284950
    11  N   -0.226053
    12  C    0.256606
    13  N    0.187402
    14  C    0.301764
    15  C    0.046498
    16  N    0.731319
 Electronic spatial extent (au):  <R**2>=           4088.5943
 Charge=              1.0000 electrons
 Dipole moment (field-independent basis, Debye):
    X=             -9.9009    Y=              0.8731    Z=             -0.5888  Tot=              9.9567
 Quadrupole moment (field-independent basis, Debye-Ang):
   XX=            -25.8724   YY=            -79.5688   ZZ=            -92.5786
   XY=             23.4030   XZ=             -7.5288   YZ=              1.9543
 Traceless Quadrupole moment (field-independent basis, Debye-Ang):
   XX=             40.1342   YY=            -13.5622   ZZ=            -26.5720
   XY=             23.4030   XZ=             -7.5288   YZ=              1.9543
 Octapole moment (field-independent basis, Debye-Ang**2):
  XXX=           -344.2927  YYY=             17.4413  ZZZ=             19.8934  XYY=            -35.3117
  XXY=            -44.8613  XXZ=            -71.1724  XZZ=            -57.6124  YZZ=              5.9081
  YYZ=            -24.6680  XYZ=             10.7614
 Hexadecapole moment (field-independent basis, Debye-Ang**3):
 XXXX=          -2263.1857 YYYY=           -774.8241 ZZZZ=           -898.1118 XXXY=            189.4026
 XXXZ=           -207.5091 YYYX=             93.5829 YYYZ=            141.1573 ZZZX=           -128.5850
 ZZZY=            180.4290 XXYY=           -662.3516 XXZZ=           -676.7967 YYZZ=           -286.1780
 XXYZ=            142.9914 YYXZ=           -113.1059 ZZXY=             55.4435
 N-N= 1.167208091405D+03 E-N=-4.179075973181D+03  KE= 7.933095109732D+02
 Calling FoFJK, ICntrl=      2127 FMM=F ISym2X=0 I1Cent= 0 IOpClX= 0 NMat=1 NMatS=1 NMatT=0.
 -------------------------------------------------------------------
 Center     Atomic                   Forces (Hartrees/Bohr)
 Number     Number              X              Y              Z
 -------------------------------------------------------------------
      1        8           0.005491512   -0.005616609    0.005995059
      2        6          -0.001232629    0.004037016   -0.001639027
      3        7          -0.002384350   -0.001155255   -0.002076776
      4        6          -0.000055343   -0.000018010    0.000296014
      5        6          -0.002700916   -0.008417179   -0.003561718
      6        8          -0.002127806    0.001038569    0.003878189
      7        8           0.005268568    0.012426481    0.002944748
      8        6           0.000656388    0.000284133    0.000614998
      9        6           0.000855260   -0.003523282    0.002085402
     10        6          -0.000132560    0.002581662   -0.001271337
     11        7          -0.000584374    0.004606366   -0.006758469
     12        6          -0.000285427   -0.000258862    0.001238515
     13        7           0.000231646   -0.000881937    0.003020001
     14        6          -0.000311609   -0.000328995   -0.000347917
     15        6          -0.000229921   -0.000591805   -0.000319953
     16        7          -0.000800118    0.000721608   -0.000551253
     17        1          -0.002260242    0.001865147   -0.000984352
     18        1           0.001600326   -0.002432737   -0.000425703
     19        1          -0.000418654   -0.003161834   -0.002094036
     20        1          -0.001310888   -0.001809713    0.001841064
     21        1           0.000042482   -0.001290031   -0.002401268
     22        1           0.000908799   -0.000608038   -0.002720889
     23        1          -0.001367254    0.001914391    0.001483867
     24        1          -0.000110501   -0.001359304    0.002707506
     25        1          -0.001526996    0.002252954   -0.001027846
     26        1           0.001591648   -0.000475105   -0.002163773
     27        1           0.001573949    0.002251032   -0.000831749
     28        1          -0.001758156    0.000444682    0.002158538
     29        1          -0.002673049   -0.003026423   -0.000022554
     30        1           0.001403438    0.000945511    0.003030951
     31        1           0.002646776   -0.000414429   -0.002096232
 -------------------------------------------------------------------
 Cartesian Forces:  Max     0.012426481 RMS     0.002715695

 GradGradGradGradGradGradGradGradGradGradGradGradGradGradGradGradGradGrad
 Berny optimization.
 FormGI is forming the generalized inverse of G from B-inverse, IUseBI=4.
 Internal  Forces:  Max     0.013785136 RMS     0.002075689
 Search for a local minimum.
 Step number   1 out of a maximum of  167
 All quantities printed in internal units (Hartrees-Bohrs-Radians)
 Mixed Optimization -- RFO/linear search
 Second derivative matrix not updated -- first step.
 ITU=  0
     Eigenvalues ---    0.00076   0.00151   0.00293   0.00369   0.00507
     Eigenvalues ---    0.00564   0.00801   0.00841   0.01091   0.01168
     Eigenvalues ---    0.01390   0.02105   0.02263   0.02641   0.03532
     Eigenvalues ---    0.03950   0.04098   0.04217   0.04364   0.04442
     Eigenvalues ---    0.04508   0.04597   0.05054   0.05205   0.05404
     Eigenvalues ---    0.05449   0.05600   0.06073   0.06484   0.07262
     Eigenvalues ---    0.07784   0.08050   0.10158   0.10378   0.11089
     Eigenvalues ---    0.11125   0.11709   0.11868   0.12475   0.13357
     Eigenvalues ---    0.13986   0.15222   0.15846   0.16486   0.16834
     Eigenvalues ---    0.18522   0.18655   0.20921   0.21331   0.22003
     Eigenvalues ---    0.22469   0.23289   0.23623   0.24089   0.24481
     Eigenvalues ---    0.25064   0.27709   0.28403   0.30069   0.32329
     Eigenvalues ---    0.33295   0.33433   0.33586   0.33950   0.34568
     Eigenvalues ---    0.34604   0.34724   0.34897   0.35131   0.36684
     Eigenvalues ---    0.37192   0.37397   0.40023   0.43714   0.43882
     Eigenvalues ---    0.43977   0.44129   0.44525   0.45252   0.46938
     Eigenvalues ---    0.47550   0.51665   0.51928   0.57627   0.73755
     Eigenvalues ---    0.91196   1.10728
 RFO step:  Lambda=-1.93334735D-03 EMin= 7.59345136D-04
 Linear search not attempted -- first point.
 Iteration  1 RMS(Cart)=  0.07641985 RMS(Int)=  0.00188043
 Iteration  2 RMS(Cart)=  0.00339034 RMS(Int)=  0.00015829
 Iteration  3 RMS(Cart)=  0.00000248 RMS(Int)=  0.00015828
 Iteration  4 RMS(Cart)=  0.00000000 RMS(Int)=  0.00015828
 Variable       Old X    -DE/DX   Delta X   Delta X   Delta X     New X
                                 (Linear)    (Quad)   (Total)
    R1        2.36568  -0.00986   0.00000  -0.01502  -0.01502   2.35066
    R2        2.52403  -0.00448   0.00000  -0.00832  -0.00832   2.51571
    R3        2.88280  -0.00227   0.00000  -0.00549  -0.00549   2.87730
    R4        2.74602  -0.00081   0.00000  -0.00547  -0.00547   2.74056
    R5        1.92289  -0.00298   0.00000  -0.00751  -0.00751   1.91538
    R6        2.92380  -0.00174   0.00000  -0.01099  -0.01099   2.91281
    R7        2.94607  -0.00110   0.00000  -0.00366  -0.00366   2.94242
    R8        2.06983  -0.00289   0.00000  -0.00763  -0.00763   2.06220
    R9        2.54874  -0.00359   0.00000  -0.00683  -0.00683   2.54190
   R10        2.27655  -0.01379   0.00000  -0.01489  -0.01489   2.26166
   R11        1.83180  -0.00374   0.00000  -0.00771  -0.00771   1.82409
   R12        2.82486  -0.00243   0.00000  -0.00698  -0.00698   2.81787
   R13        2.07071  -0.00288   0.00000  -0.00817  -0.00817   2.06254
   R14        2.06654  -0.00272   0.00000  -0.00750  -0.00750   2.05904
   R15        2.60929  -0.00664   0.00000  -0.01142  -0.01142   2.59787
   R16        2.61673  -0.00281   0.00000  -0.00708  -0.00707   2.60966
   R17        2.59703  -0.00282   0.00000  -0.00592  -0.00593   2.59110
   R18        2.04642  -0.00293   0.00000  -0.00796  -0.00796   2.03847
   R19        2.48386  -0.00609   0.00000  -0.00999  -0.01000   2.47385
   R20        2.58408  -0.00464   0.00000  -0.00812  -0.00812   2.57596
   R21        2.04325  -0.00278   0.00000  -0.00723  -0.00723   2.03602
   R22        1.90923  -0.00297   0.00000  -0.00643  -0.00643   1.90280
   R23        2.90353  -0.00118   0.00000  -0.01003  -0.01003   2.89350
   R24        2.06507  -0.00286   0.00000  -0.00765  -0.00765   2.05741
   R25        2.07308  -0.00270   0.00000  -0.00722  -0.00722   2.06586
   R26        2.86049  -0.00168   0.00000  -0.00373  -0.00373   2.85677
   R27        2.06103  -0.00285   0.00000  -0.00781  -0.00781   2.05322
   R28        2.06376  -0.00278   0.00000  -0.00783  -0.00783   2.05592
   R29        2.06516  -0.00399   0.00000  -0.03382  -0.03382   2.03134
   R30        1.93120  -0.00347   0.00000  -0.00727  -0.00727   1.92392
   R31        1.93249  -0.00340   0.00000  -0.00714  -0.00714   1.92535
    A1        2.13157  -0.00027   0.00000   0.00526   0.00524   2.13680
    A2        2.08438   0.00070   0.00000   0.00017   0.00014   2.08452
    A3        2.06723  -0.00044   0.00000  -0.00538  -0.00540   2.06183
    A4        2.11579   0.00210   0.00000   0.01781   0.01673   2.13251
    A5        2.08347  -0.00158   0.00000   0.00252   0.00135   2.08482
    A6        2.00616  -0.00017   0.00000   0.01090   0.00983   2.01599
    A7        1.89663   0.00063   0.00000   0.01181   0.01178   1.90840
    A8        1.90633  -0.00045   0.00000   0.00166   0.00158   1.90791
    A9        1.90029   0.00001   0.00000  -0.00199  -0.00197   1.89832
   A10        1.95196   0.00073   0.00000   0.00531   0.00524   1.95721
   A11        1.89518  -0.00070   0.00000  -0.00849  -0.00848   1.88670
   A12        1.91274  -0.00023   0.00000  -0.00836  -0.00836   1.90438
   A13        2.01705   0.00124   0.00000   0.00094   0.00093   2.01798
   A14        2.15430   0.00041   0.00000   0.00051   0.00050   2.15480
   A15        2.11100  -0.00163   0.00000  -0.00111  -0.00113   2.10988
   A16        1.95762   0.00140   0.00000   0.01307   0.01307   1.97069
   A17        1.98004   0.00205   0.00000   0.01218   0.01218   1.99222
   A18        1.90097  -0.00030   0.00000  -0.00321  -0.00324   1.89773
   A19        1.88030  -0.00078   0.00000  -0.00412  -0.00410   1.87620
   A20        1.94496  -0.00068   0.00000   0.00064   0.00062   1.94557
   A21        1.89726  -0.00067   0.00000  -0.00817  -0.00816   1.88910
   A22        1.85506   0.00027   0.00000   0.00187   0.00186   1.85692
   A23        2.28540  -0.00090   0.00000  -0.00893  -0.00900   2.27640
   A24        2.17330   0.00091   0.00000   0.00894   0.00888   2.18218
   A25        1.82249   0.00000   0.00000   0.00109   0.00107   1.82356
   A26        1.94034  -0.00110   0.00000  -0.00368  -0.00367   1.93667
   A27        2.22262   0.00053   0.00000   0.00213   0.00212   2.22474
   A28        2.11911   0.00057   0.00000   0.00171   0.00170   2.12081
   A29        1.83529   0.00190   0.00000   0.00523   0.00523   1.84051
   A30        1.95380  -0.00152   0.00000  -0.00469  -0.00469   1.94911
   A31        2.19702   0.00073   0.00000   0.00235   0.00235   2.19937
   A32        2.13235   0.00079   0.00000   0.00234   0.00234   2.13470
   A33        1.87281   0.00071   0.00000   0.00209   0.00209   1.87490
   A34        2.21197   0.00023   0.00000   0.00469   0.00466   2.21663
   A35        2.19814  -0.00094   0.00000  -0.00654  -0.00657   2.19157
   A36        1.91099   0.00399   0.00000   0.01872   0.01871   1.92970
   A37        1.95709  -0.00165   0.00000  -0.00273  -0.00281   1.95429
   A38        1.90117  -0.00127   0.00000  -0.01053  -0.01054   1.89063
   A39        1.89369  -0.00099   0.00000  -0.00075  -0.00078   1.89291
   A40        1.93016  -0.00079   0.00000  -0.00244  -0.00240   1.92776
   A41        1.87066   0.00060   0.00000  -0.00281  -0.00284   1.86782
   A42        1.90314   0.00246   0.00000   0.00761   0.00759   1.91073
   A43        1.95800  -0.00100   0.00000  -0.00518  -0.00516   1.95284
   A44        1.92662  -0.00037   0.00000   0.00709   0.00706   1.93369
   A45        1.90966  -0.00082   0.00000  -0.00396  -0.00395   1.90571
   A46        1.85802  -0.00055   0.00000   0.00001  -0.00005   1.85798
   A47        1.90566   0.00029   0.00000  -0.00536  -0.00535   1.90031
   A48        1.79232   0.00096   0.00000   0.01219   0.01219   1.80451
   A49        1.96213  -0.00028   0.00000  -0.00071  -0.00071   1.96142
   A50        1.95871  -0.00001   0.00000   0.00050   0.00050   1.95921
   A51        1.94944  -0.00036   0.00000  -0.00549  -0.00550   1.94393
   A52        1.91158  -0.00038   0.00000  -0.00731  -0.00732   1.90427
   A53        1.88896   0.00007   0.00000   0.00072   0.00072   1.88968
    D1       -0.26451   0.00035   0.00000   0.06694   0.06688  -0.19763
    D2       -2.97182  -0.00049   0.00000  -0.01837  -0.01833  -2.99015
    D3        2.87236   0.00068   0.00000   0.07982   0.07978   2.95214
    D4        0.16505  -0.00016   0.00000  -0.00550  -0.00543   0.15962
    D5        0.78655   0.00042   0.00000  -0.01933  -0.01936   0.76719
    D6        2.88945   0.00081   0.00000  -0.00931  -0.00933   2.88011
    D7       -1.32615  -0.00027   0.00000  -0.02129  -0.02126  -1.34741
    D8       -2.35046   0.00009   0.00000  -0.03186  -0.03188  -2.38233
    D9       -0.24756   0.00048   0.00000  -0.02184  -0.02185  -0.26941
   D10        1.82003  -0.00060   0.00000  -0.03383  -0.03378   1.78625
   D11       -1.11362   0.00006   0.00000  -0.02846  -0.02860  -1.14222
   D12        3.03583  -0.00096   0.00000  -0.04340  -0.04357   2.99226
   D13        0.94771  -0.00042   0.00000  -0.03306  -0.03321   0.91450
   D14        1.61166   0.00050   0.00000   0.05125   0.05141   1.66308
   D15       -0.52208  -0.00051   0.00000   0.03632   0.03645  -0.48563
   D16       -2.61020   0.00002   0.00000   0.04666   0.04681  -2.56339
   D17        3.04610  -0.00072   0.00000  -0.10360  -0.10364   2.94245
   D18       -0.13888  -0.00025   0.00000  -0.09497  -0.09500  -0.23388
   D19       -1.13129  -0.00040   0.00000  -0.09031  -0.09028  -1.22158
   D20        1.96692   0.00007   0.00000  -0.08167  -0.08165   1.88527
   D21        0.98154  -0.00069   0.00000  -0.10308  -0.10307   0.87847
   D22       -2.20344  -0.00022   0.00000  -0.09445  -0.09444  -2.29787
   D23        0.91786   0.00016   0.00000  -0.04415  -0.04415   0.87371
   D24        3.09490   0.00051   0.00000  -0.03703  -0.03703   3.05787
   D25       -1.18312   0.00026   0.00000  -0.03864  -0.03864  -1.22176
   D26       -1.18228  -0.00080   0.00000  -0.06344  -0.06345  -1.24572
   D27        0.99476  -0.00044   0.00000  -0.05633  -0.05633   0.93843
   D28        2.99993  -0.00069   0.00000  -0.05794  -0.05793   2.94199
   D29        2.99828  -0.00024   0.00000  -0.05057  -0.05057   2.94771
   D30       -1.10787   0.00012   0.00000  -0.04345  -0.04345  -1.15132
   D31        0.89730  -0.00013   0.00000  -0.04506  -0.04506   0.85224
   D32       -0.15241   0.00033   0.00000   0.02729   0.02729  -0.12512
   D33        3.03139  -0.00018   0.00000   0.01885   0.01885   3.05024
   D34       -1.66753   0.00012   0.00000  -0.01911  -0.01908  -1.68661
   D35        1.39530   0.00036   0.00000   0.00278   0.00280   1.39810
   D36        2.46255  -0.00050   0.00000  -0.02456  -0.02456   2.43799
   D37       -0.75781  -0.00027   0.00000  -0.00266  -0.00268  -0.76048
   D38        0.42383  -0.00002   0.00000  -0.02221  -0.02222   0.40161
   D39       -2.79653   0.00021   0.00000  -0.00032  -0.00034  -2.79686
   D40        3.07869   0.00006   0.00000   0.01451   0.01439   3.09309
   D41       -0.11352   0.00014   0.00000   0.01809   0.01802  -0.09550
   D42        0.00409  -0.00018   0.00000  -0.00449  -0.00449  -0.00041
   D43        3.09506  -0.00011   0.00000  -0.00091  -0.00087   3.09419
   D44       -3.08774   0.00002   0.00000  -0.01211  -0.01221  -3.09995
   D45        0.07755  -0.00006   0.00000  -0.02242  -0.02255   0.05501
   D46       -0.00755   0.00015   0.00000   0.00445   0.00448  -0.00307
   D47       -3.12544   0.00008   0.00000  -0.00586  -0.00586  -3.13130
   D48        0.00113   0.00013   0.00000   0.00270   0.00270   0.00383
   D49       -3.09331   0.00006   0.00000  -0.00067  -0.00070  -3.09401
   D50       -0.00619  -0.00002   0.00000   0.00031   0.00032  -0.00587
   D51        3.13045  -0.00005   0.00000   0.00048   0.00045   3.13090
   D52        0.00894  -0.00009   0.00000  -0.00313  -0.00314   0.00579
   D53        3.12707   0.00000   0.00000   0.00727   0.00720   3.13427
   D54       -3.12791  -0.00006   0.00000  -0.00329  -0.00327  -3.13118
   D55       -0.00978   0.00003   0.00000   0.00711   0.00707  -0.00271
   D56       -0.98137  -0.00051   0.00000   0.01316   0.01315  -0.96822
   D57       -3.09963  -0.00052   0.00000   0.01630   0.01631  -3.08331
   D58        1.05395   0.00007   0.00000   0.02171   0.02174   1.07569
   D59       -3.12246  -0.00034   0.00000   0.00531   0.00528  -3.11718
   D60        1.04247  -0.00035   0.00000   0.00845   0.00844   1.05091
   D61       -1.08715   0.00023   0.00000   0.01386   0.01387  -1.07328
   D62        1.11368  -0.00003   0.00000   0.01055   0.01053   1.12422
   D63       -1.00458  -0.00004   0.00000   0.01369   0.01370  -0.99088
   D64       -3.13419   0.00055   0.00000   0.01910   0.01913  -3.11506
   D65        0.67056   0.00025   0.00000  -0.00215  -0.00214   0.66841
   D66        2.76823   0.00026   0.00000  -0.00163  -0.00162   2.76661
   D67       -1.38063   0.00015   0.00000  -0.00083  -0.00083  -1.38147
   D68        2.81798   0.00008   0.00000  -0.00620  -0.00620   2.81178
   D69       -1.36754   0.00009   0.00000  -0.00568  -0.00568  -1.37322
   D70        0.76679  -0.00002   0.00000  -0.00488  -0.00489   0.76189
   D71       -1.40800  -0.00030   0.00000  -0.01458  -0.01458  -1.42258
   D72        0.68967  -0.00029   0.00000  -0.01406  -0.01406   0.67561
   D73        2.82399  -0.00041   0.00000  -0.01327  -0.01327   2.81072
         Item               Value     Threshold  Converged?
 Maximum Force            0.013785     0.000450     NO 
 RMS     Force            0.002076     0.000300     NO 
 Maximum Displacement     0.321690     0.001800     NO 
 RMS     Displacement     0.075705     0.001200     NO 
 Predicted change in Energy=-1.075752D-03
 GradGradGradGradGradGradGradGradGradGradGradGradGradGradGradGradGradGrad

                          Input orientation:                          
 ---------------------------------------------------------------------
 Center     Atomic      Atomic             Coordinates (Angstroms)
 Number     Number       Type             X           Y           Z
 ---------------------------------------------------------------------
      1          8           0       -2.182741    1.105730   -0.338775
      2          6           0       -1.513101    0.327938    0.364038
      3          7           0       -0.210512    0.500723    0.577702
      4          6           0        0.575490    1.458612   -0.175851
      5          6           0        0.630701    1.023767   -1.653602
      6          8           0        1.121189    1.937049   -2.510734
      7          8           0        0.299891   -0.061365   -2.034956
      8          6           0        1.994092    1.571400    0.456037
      9          6           0        2.665017    0.259882    0.686944
     10          6           0        2.743116   -0.514240    1.820313
     11          7           0        3.412982   -1.684164    1.570087
     12          6           0        3.746977   -1.631258    0.305409
     13          7           0        3.316294   -0.478671   -0.281284
     14          6           0       -2.196210   -0.864546    1.019527
     15          6           0       -3.138630   -1.555315    0.029997
     16          7           0       -4.126648   -0.547801   -0.512298
     17          1           0        0.318588   -0.226472    1.045221
     18          1           0        0.084140    2.431779   -0.126939
     19          1           0        1.275220    2.795670   -2.097467
     20          1           0        2.604066    2.228037   -0.166876
     21          1           0        1.885647    2.072863    1.417285
     22          1           0        2.386310   -0.269035    2.808330
     23          1           0        4.296884   -2.382715   -0.236563
     24          1           0        3.464122   -0.220400   -1.243223
     25          1           0       -1.477249   -1.598230    1.380286
     26          1           0       -2.752105   -0.506442    1.890068
     27          1           0       -3.681756   -2.374814    0.492544
     28          1           0       -2.586904   -1.937519   -0.826244
     29          1           0       -3.535944    0.342830   -0.627810
     30          1           0       -4.532710   -0.841369   -1.398556
     31          1           0       -4.886056   -0.361909    0.141001
 ---------------------------------------------------------------------
                    Distance matrix (angstroms):
                    1          2          3          4          5
     1  O    0.000000
     2  C    1.243915   0.000000
     3  N    2.257355   1.331257   0.000000
     4  C    2.785481   2.435593   1.450239   0.000000
     5  C    3.106597   3.025052   2.441298   1.541392   0.000000
     6  O    4.040352   4.218179   3.657171   2.445070   1.345116
     7  O    3.225307   3.032107   2.720742   2.417139   1.196819
     8  C    4.277207   3.722238   2.453860   1.557059   2.570858
     9  C    5.026760   4.191130   2.887664   2.558807   3.193762
    10  C    5.616941   4.576612   3.361272   3.546184   4.346935
    11  N    6.537536   5.456134   4.346063   4.580033   5.046400
    12  C    6.562593   5.613404   4.503465   4.453901   4.538508
    13  N    5.723025   4.938635   3.759712   3.358004   3.369419
    14  C    2.393147   1.522604   2.449931   3.808978   4.324670
    15  C    2.851470   2.510094   3.619551   4.787569   4.867651
    16  N    2.557939   2.892320   4.198050   5.123377   5.138558
    17  H    3.153863   2.031370   1.013574   2.096790   2.990679
    18  H    2.634773   2.686704   2.076612   1.091270   2.147541
    19  H    4.231593   4.463567   3.825011   2.443348   1.937024
    20  H    4.919618   4.565447   3.385241   2.169612   2.748598
    21  H    4.535512   3.963026   2.751437   2.152184   3.479345
[...]
 01680,0.00001850,-0.00004079,0.00002586,-0.00001487,0.00000017,-0.0000
 0573,-0.00002749,-0.00012259,-0.05821268,0.05797175,-0.07477676,-0.013
 18014,0.01400416,-0.00708041,-0.00287585,-0.00177226,-0.00293036,0.000
 57270,0.00027156,0.00089683,-0.00009315,-0.00010407,0.00005208,-0.0000
 0572,0.00001442,-0.00000518,-0.00002113,0.00000967,-0.00001203,-0.0000
 0600,-0.00000530,-0.00000456,-0.00003592,-0.00003432,-0.00001432,0.000
 01799,0.00000080,-0.00000286,0.00003350,0.00000979,-0.00000048,0.06607
 000,-0.06417312,0.08041289,0.00083616,-0.00002437,-0.00148705,-0.01077
 012,0.00557794,0.01174062,-0.00052875,-0.00251363,-0.00014774,-0.00002
 276,-0.00074227,-0.00077736,0.00006187,0.00009412,-0.00039101,-0.00004
 009,-0.00008243,0.00014255,0.00003820,0.00004503,0.00016039,0.00004697
 ,-0.00015527,0.00019677,-0.00003405,-0.00000445,-0.00000856,-0.0000155
 5,-0.00001378,0.00009117,-0.00002824,0.00003799,-0.00001639,0.00001015
 ,0.00001592,-0.00001895,0.00001558,-0.00003256,-0.00007979,-0.11686012
 ,0.04610267,0.10831425,0.01156823,-0.00857203,-0.02050491,0.00186284,-
 0.00014568,0.00106439,0.00025251,0.00027413,0.00104140,-0.00026743,-0.
 00014782,0.00012912,0.00000836,0.00003547,-0.00003457,-0.00008109,0.00
 001696,-0.00003141,-0.00000369,-0.00000057,-0.00000537,-0.00002253,-0.
 00001121,-0.00000318,0.00000456,-0.00000032,-0.00000369,0.00002202,-0.
 00000416,-0.00000825,-0.01083075,0.00642390,0.01731985,0.12624482,0.00
 144723,-0.00209302,-0.00228266,-0.01463216,0.01123925,0.02255588,-0.00
 054793,-0.00216503,-0.00062412,-0.00018981,-0.00063973,-0.00087418,0.0
 0009520,-0.00004379,-0.00034791,-0.00002527,-0.00000320,0.00010431,0.0
 0001718,0.00014920,0.00016035,0.00004456,-0.00022238,0.00021792,-0.000
 03035,0.00000942,-0.00004674,-0.00000163,-0.00006049,0.00003892,-0.000
 01313,0.00005550,0.00001717,-0.00001070,0.00003813,-0.00000293,0.00001
 900,-0.00002208,-0.00002292,0.04278223,-0.07457625,-0.06319875,0.00903
 599,-0.00691332,-0.01306915,-0.00013053,0.00109460,0.00135493,-0.00001
 098,0.00000104,0.00042102,-0.00019670,-0.00007664,0.00008321,0.0000081
 8,0.00003387,-0.00003705,-0.00009698,0.00001706,-0.00002822,0.00000379
 ,0.00001031,-0.00000137,0.00000227,0.00000411,0.00000403,-0.00000666,-
 0.00000098,-0.00000171,0.00000366,-0.00001100,-0.00000848,0.01051826,-
 0.00661064,-0.01716021,-0.04518964,0.08069392,-0.00108622,0.00133708,0
 .00189290,0.00915619,-0.00328666,-0.01164576,-0.00090597,0.00057128,-0
 .00038820,0.00029394,0.00034155,0.00014125,-0.00006426,-0.00007739,0.0
 0007650,0.00000363,0.00002089,0.00001051,0.00001098,0.00001268,0.00000
 806,0.00001506,0.00009151,-0.00005623,-0.00001131,-0.00000747,0.000001
 60,-0.00001211,0.00000530,0.00001891,-0.00000146,-0.00000442,-0.000010
 65,0.00000509,-0.00000397,0.00000145,-0.00000136,0.00000049,-0.0000139
 0,0.10576571,-0.06672020,-0.20665100,0.00922479,-0.00889944,-0.0188614
 2,0.00076904,0.00023458,0.00123299,-0.00003364,0.00000234,0.00005537,0
 .00006763,-0.00001258,0.00000962,0.00000955,-0.00000130,-0.00000250,0.
 00002368,-0.00000186,0.00001254,0.00000110,-0.00000123,0.00000647,-0.0
 0000308,-0.00000272,0.00000158,0.00000082,-0.00000021,-0.00000091,0.00
 000330,-0.00000069,-0.00000059,-0.00536550,0.00306310,0.00967311,-0.11
 455959,0.07416117,0.22538513,0.00178767,-0.00020569,0.00128957,-0.0012
 3047,0.00098195,-0.00485500,-0.00037490,-0.00108889,0.00080843,-0.0001
 2908,0.00037913,0.00006465,-0.00002609,0.00003701,-0.00020156,-0.00003
 067,-0.00012347,0.00018043,-0.00008737,-0.00003994,0.00006515,0.000034
 43,-0.00007541,0.00009442,-0.00002288,-0.00000762,-0.00001376,-0.00000
 496,-0.00003987,0.00002912,-0.00001002,0.00005301,-0.00000869,0.000001
 36,0.00000439,0.00002531,-0.00000231,-0.00000193,-0.00004401,-0.009164
 38,-0.01421713,0.00864263,-0.12570167,-0.10982791,0.06668678,0.0104809
 9,0.02847748,-0.01487920,0.00017404,-0.00012328,0.00002486,0.00000180,
 -0.00001140,-0.00000460,0.00001024,0.00003641,-0.00002252,-0.00004243,
 0.00000619,-0.00001862,-0.00000056,0.00001020,-0.00000457,0.00000431,-
 0.00000274,0.00001039,-0.00000249,-0.00000267,-0.00000006,0.00001952,-
 0.00000755,-0.00000537,0.00012844,0.00022489,0.00018618,0.00105491,0.0
 0050105,-0.00004684,0.13281033,-0.00013114,0.00052725,-0.00038010,-0.0
 0148305,0.00049547,-0.00216090,-0.00055930,-0.00057876,0.00038888,-0.0
 0002860,0.00018600,-0.00004648,-0.00006024,-0.00022021,-0.00010198,0.0
 0001397,0.00006842,0.00002524,0.00007523,0.00013946,0.00007323,-0.0000
 1318,-0.00002610,0.00004890,-0.00000475,-0.00001158,-0.00000832,-0.000
 00222,-0.00000683,0.00001335,-0.00000376,0.00000750,0.00000216,-0.0000
 0474,0.00001374,-0.00000290,0.00000779,-0.00000423,-0.00000488,-0.0077
 2389,-0.00938249,0.00434954,-0.10043311,-0.19764284,0.08625049,-0.0057
 6230,-0.02044337,0.01155384,0.00003589,-0.00004585,-0.00000039,0.00000
 851,-0.00000194,0.00001201,0.00000291,0.00001096,-0.00001292,-0.000019
 76,0.00000013,-0.00001068,0.00000395,0.00000187,0.00000186,-0.00000108
 ,-0.00000160,0.00000169,-0.00000072,0.00000058,-0.00000087,-0.00000381
 ,-0.00000279,-0.00000289,-0.00001022,0.00051644,-0.00003520,0.00066314
 ,0.00021679,0.00046254,0.10738956,0.21528383,0.00151514,-0.00024282,0.
 00114135,-0.00314266,0.00025200,-0.00533958,-0.00088589,-0.00124483,0.
 00118885,-0.00019619,0.00037566,-0.00000251,-0.00012666,-0.00031358,-0
 .00024305,0.00001862,0.00005190,0.00010879,0.00011383,0.00018739,0.000
 14968,-0.00001680,-0.00007253,0.00011284,-0.00000615,-0.00001802,-0.00
 001866,-0.00000944,-0.00002229,0.00002661,-0.00000977,0.00002104,-0.00
 000140,-0.00000573,0.00002064,0.00000408,0.00000776,-0.00000551,-0.000
 01892,-0.01193790,-0.01940762,0.01090265,0.06102511,0.08840260,-0.1041
 8491,0.00400583,0.00977769,-0.00517304,0.00013058,-0.00010619,-0.00001
 298,0.00000535,-0.00001112,0.00001517,-0.00000180,0.00002952,-0.000030
 92,-0.00004950,-0.00000146,-0.00002328,0.00000763,0.00000584,0.0000012
 3,0.00000228,-0.00000240,0.00000676,0.00000100,0.00000039,-0.00000029,
 0.00000073,-0.00000272,-0.00000672,0.00052027,0.00067148,0.00071096,0.
 00081778,0.00026647,0.00117100,-0.06194394,-0.09694360,0.10888252,0.00
 032445,-0.00003221,0.00048975,0.00170041,0.00090305,-0.00104368,-0.000
 29564,0.00010560,0.00015870,0.00007118,0.00004463,-0.00006957,-0.00010
 813,-0.00053190,-0.00009298,0.00006770,0.00027175,-0.00007933,0.000129
 14,0.00036673,0.00012908,-0.00003905,-0.00000039,0.00001246,0.00001529
 ,-0.00001314,-0.00002955,-0.00000445,-0.00000919,-0.00001859,0.0000093
 4,-0.00000534,0.00002280,-0.00001656,0.00003098,-0.00001213,0.00002310
 ,0.00000428,0.00004921,0.01188332,-0.00918533,-0.01799011,-0.11970107,
 0.04645021,0.10660349,-0.01824104,0.01229220,0.01543110,0.00001615,-0.
 00006127,-0.00010822,-0.00000037,0.00000050,0.00001739,-0.00000138,-0.
 00000413,-0.00001907,-0.00000687,-0.00000263,-0.00000248,0.00001580,0.
 00000299,0.00001083,0.00000675,0.00000492,0.00000409,-0.00001243,0.000
 00024,-0.00000009,-0.00003490,-0.00001061,-0.00000316,0.00083182,0.000
 47397,0.00070198,-0.00268913,-0.00277226,-0.00300359,-0.00676437,0.005
 20756,0.01208466,0.13431916,-0.00048833,-0.00013057,0.00067250,0.00078
 745,0.00018986,-0.00108561,0.00000139,0.00012929,0.00005126,0.00004124
 ,-0.00007471,-0.00005713,-0.00015728,-0.00054445,-0.00002983,0.0000781
 7,0.00026824,-0.00013416,0.00032976,0.00030484,0.00009093,-0.00007510,
 0.00003514,-0.00001650,0.00002783,-0.00000282,-0.00000311,0.00000068,0
 .00002736,-0.00002080,0.00000815,-0.00004872,0.00001052,-0.00000859,0.
 00001214,-0.00001878,0.00000740,0.00000190,0.00003993,0.00568930,-0.00
 533846,-0.01218204,0.04409249,-0.08355276,-0.06727217,0.01751211,-0.01
 229801,-0.01627232,-0.00007482,0.00003275,-0.00007899,0.00000314,0.000
 00439,0.00001194,-0.00002526,-0.00001976,-0.00000694,0.00000984,-0.000
 00985,0.00000290,0.00001558,-0.00000608,0.00001052,-0.00000110,0.00000
 074,-0.00000612,0.00000496,0.00000320,0.00000098,-0.00003039,0.0000113
 5,0.00000146,0.00005477,0.00066143,0.00048167,-0.00181428,-0.00026872,
 -0.00158172,-0.01246048,0.01123480,0.01868536,-0.05601982,0.09020809,0
 .00065307,-0.00043059,0.00077337,0.00021947,0.00171072,-0.00038178,-0.
 00023134,-0.00029042,0.00017391,0.00001509,-0.00004232,-0.00010754,-0.
 00002438,-0.00005848,-0.00001324,-0.00000309,0.00002791,0.00000112,0.0
 0004248,0.00007785,-0.00004682,0.00000451,-0.00003215,0.00001897,0.000
 00116,-0.00000194,-0.00000753,0.00000516,-0.00001619,-0.00001091,0.000
 00492,0.00002025,0.00000402,-0.00000758,0.00000585,0.00001388,0.000003
 91,0.00000583,0.00000600,0.00811611,-0.00789606,-0.01662568,0.11516049
 ,-0.07557161,-0.22076539,-0.01291761,0.00912495,0.01220754,0.00006157,
 -0.00005746,-0.00004656,-0.00002707,-0.00000984,0.00000678,0.00000349,
 0.00000618,-0.00000627,-0.00001008,0.00000399,-0.00000253,0.00000382,0
 .00000434,0.00000231,0.00000528,0.00000201,0.00000475,-0.00000703,-0.0
 0000171,0.00000111,-0.00000372,-0.00000527,0.00000276,0.00004961,0.000
 23791,0.00040585,-0.00324249,-0.00158405,-0.00100998,0.00619799,-0.005
 03140,-0.00934092,-0.11170769,0.07798491,0.23349190,0.02100150,-0.0011
 5514,0.02030678,-0.02442328,0.02330469,-0.02389456,0.01230014,-0.00361
 612,0.00561863,-0.00149407,-0.00225959,0.00111090,-0.00082903,0.000083
 61,0.00221088,0.00032979,0.00065096,-0.00142586,0.00059452,-0.00038366
 ,-0.00106469,-0.00065676,-0.00002393,-0.00046555,0.00053442,0.00007428
 ,0.00036117,0.00018093,0.00045981,-0.00035984,0.00020184,-0.00041589,-
 0.00002830,-0.00000459,-0.00019054,-0.00005590,-0.00000905,0.00012455,
 0.00030410,-0.00053797,-0.00071691,0.00142359,0.02035027,0.01488699,-0
 .00038336,-0.09546389,-0.06535571,0.01644503,0.00036875,0.00083651,-0.
 00142193,-0.00022601,-0.00013199,-0.00029372,-0.00023565,-0.00037486,0
 .00030520,0.00023932,-0.00005912,0.00002310,-0.00002057,-0.00009449,-0
 .00000266,-0.00006837,-0.00000377,-0.00010934,-0.00000458,0.00001229,0
 .00000606,-0.00018067,0.00005767,0.00009554,-0.00106482,-0.00174636,0.
 00029620,0.00008569,-0.00063777,0.00038497,-0.00548374,0.00361026,-0.0
 0244645,-0.00056768,0.00099529,-0.00046141,0.09091401,0.01876532,-0.01
 921861,0.01472912,-0.00602992,0.02169777,-0.01499553,0.00926106,-0.003
 87709,0.00620229,-0.00132591,-0.00157819,0.00076251,-0.00051232,0.0007
 0933,0.00150888,0.00019994,0.00010738,-0.00080365,0.00019678,-0.000679
 95,-0.00086615,-0.00044247,-0.00001784,-0.00030347,0.00036730,0.000055
 38,0.00024820,0.00011865,0.00032404,-0.00025891,0.00013080,-0.00030985
 ,-0.00002288,0.00001159,-0.00014595,-0.00005330,-0.00001581,0.00007605
 ,0.00021392,-0.00101713,0.00000087,0.00190808,0.00218931,-0.02846797,0
 .01202610,-0.07853031,-0.18416039,0.01870811,0.00059524,0.00110795,-0.
 00061539,-0.00008603,-0.00010013,-0.00022617,-0.00021302,-0.00021711,0
 .00020104,0.00015584,-0.00004295,0.00001729,-0.00002283,-0.00006181,-0
 .00001704,-0.00004180,0.00000348,-0.00007633,0.00000505,0.00000997,0.0
 0000503,-0.00010262,0.00005333,0.00006690,-0.00138658,-0.00186846,-0.0
 0042789,0.00021999,-0.00028272,0.00030963,0.00077787,-0.00029110,-0.00
 059340,-0.00070253,0.00065934,-0.00090519,0.05291876,0.20464149,0.0093
 6568,0.00343628,-0.01082281,-0.00898272,0.00060966,-0.00448765,0.00121
 312,0.00069742,0.00101200,-0.00016827,-0.00032019,0.00016119,-0.000057
 32,0.00036306,0.00079284,-0.00002552,0.00003807,-0.00032375,-0.0001292
 9,-0.00027262,-0.00045633,-0.00008146,-0.00001418,-0.00010533,0.000049
 76,0.00001310,0.00008176,0.00004820,0.00006379,-0.00004407,0.00003997,
 -0.00003690,-0.00002691,0.00000499,-0.00004825,0.00000948,0.00000196,0
 .00000933,-0.00000626,-0.00053999,0.00063785,-0.00048425,0.00456032,0.
 01369399,-0.00251772,0.02042883,0.02164221,-0.07024984,-0.00018606,0.0
 0032948,0.00042484,0.00006403,-0.00009521,-0.00007272,0.00000324,-0.00
 006715,0.00009580,0.00005944,0.00000123,0.00000873,-0.00002102,-0.0000
 1561,-0.00001113,-0.00002494,-0.00001009,-0.00002463,-0.00000031,0.000
 00054,0.00000095,-0.00000914,0.00000386,0.00003110,0.00019056,-0.00031
 334,0.00007640,-0.00001805,0.00009076,-0.00059210,-0.00232802,0.001589
 69,-0.00045304,0.00000906,-0.00067786,0.00007267,-0.01834877,-0.035298
 45,0.08257697,-0.00144657,-0.00129759,0.00085183,0.00010525,0.00023755
 ,-0.00012304,0.00019618,-0.00002003,0.00017293,-0.00001143,-0.00002154
 ,0.00001357,-0.00015837,-0.00044532,-0.00011387,0.00008208,0.00018443,
 -0.00005716,0.00022337,0.00025527,0.00015222,-0.00004770,0.00001885,-0
 .00000231,0.00001351,-0.00000139,-0.00002206,-0.00000559,0.00000488,-0
 .00000985,0.00001445,-0.00002403,0.00001607,-0.00000670,0.00001774,-0.
 00001437,0.00001575,0.00000323,0.00004204,-0.00240823,0.00421297,-0.00
 089822,-0.00884471,-0.00841589,-0.01720177,-0.11154181,-0.04288545,-0.
 12215260,0.00003695,0.00007539,-0.00010874,-0.00000517,0.00000632,0.00
 001731,-0.00002377,-0.00002106,-0.00000746,0.00000043,-0.00000882,-0.0
 0000337,0.00001007,-0.00000412,0.00000806,-0.00000036,0.00000283,-0.00
 000184,-0.00000784,-0.00000004,-0.00000087,-0.00003306,-0.00000231,-0.
 00000519,-0.00064674,-0.00089467,-0.00072728,0.00024263,0.00016305,0.0
 0003348,0.00043520,-0.00004094,0.00039191,0.00020433,-0.00018678,0.000
 39003,-0.00434713,-0.00072218,-0.01534398,0.11308901,-0.00401282,-0.00
 147098,0.00052066,0.00050605,-0.00132874,0.00103341,-0.00010067,0.0001
 5041,-0.00018620,-0.00001357,0.00000015,-0.00000099,0.00000146,0.00006
 153,-0.00007623,0.00002792,-0.00004931,0.00003802,0.00002865,-0.000046
 10,0.00001323,-0.00000576,0.00002221,-0.00000822,-0.00000246,0.0000014
 6,0.00000609,0.00000218,0.00000872,-0.00000112,0.00000785,-0.00001279,
 -0.00000093,-0.00000427,0.00000607,-0.00000093,0.00000109,-0.00000624,
 -0.00000241,0.00314085,-0.00420011,0.00104544,0.00845721,0.01042309,0.
 02240756,-0.04167170,-0.08816769,-0.10059092,-0.00011228,0.00001776,-0
 .00004078,-0.00000240,0.00002105,-0.00000465,-0.00002939,0.00000634,-0
 .00000989,0.00000099,-0.00000289,0.00000250,-0.00000079,-0.00000266,0.
 00000008,-0.00000515,-0.00000269,-0.00000597,0.00000340,0.00000214,0.0
 0000027,-0.00000526,0.00000772,0.00000294,0.00086831,0.00076636,0.0008
 5956,-0.00023534,0.00001972,-0.00009106,0.00015363,-0.00044350,0.00083
 698,0.00000111,0.00134684,-0.00049898,-0.00399318,-0.00168471,-0.02699
 998,0.04012675,0.08696543,0.00317319,0.00115066,0.00034489,-0.00139666
 ,0.00042430,-0.00047698,0.00081640,0.00003684,0.00015495,-0.00010913,-
 0.00025041,0.00009196,-0.00000332,0.00010947,0.00037472,0.00000084,0.0
 0006111,-0.00019926,-0.00003055,-0.00008182,-0.00023263,-0.00002862,0.
 00000535,-0.00005677,0.00003300,0.00001085,0.00005658,0.00003118,0.000
 04052,-0.00002581,0.00002830,-0.00001262,-0.00002249,-0.00000150,-0.00
 002860,0.00001778,-0.00000020,0.00001171,-0.00001310,-0.00045710,0.001
 84092,0.00031396,-0.00386663,-0.00146017,-0.00729346,-0.11427006,-0.09
 617476,-0.32883405,-0.00006016,0.00006633,-0.00005688,-0.00000337,0.00
 000369,-0.00002796,-0.00000263,-0.00003462,0.00004949,0.00003259,0.000
 00187,0.00000490,-0.00001323,-0.00000961,-0.00000510,-0.00001519,-0.00
 000763,-0.00001342,-0.00000146,-0.00000038,0.00000157,-0.00000777,0.00
 000206,0.00002290,-0.00015325,-0.00044419,0.00010027,0.00016882,0.0001
 5136,0.00017551,0.00023597,-0.00009823,-0.00037677,0.00094073,-0.00074
 826,0.00184102,-0.00137990,-0.00234995,0.00770026,0.12732450,0.1052801
 2,0.34553220,0.00031789,-0.00096382,-0.00090467,-0.00105516,-0.0003479
 4,0.00008281,0.00061504,0.00025441,0.00012729,-0.00009632,-0.00017510,
 0.00009482,-0.00008626,-0.00011511,0.00018724,0.00005981,0.00011679,-0
 .00016078,0.00009325,0.00004376,-0.00007286,-0.00006038,0.00002858,-0.
 00005761,0.00003776,0.00000534,0.00004012,0.00002928,0.00004251,-0.000
 03379,0.00003331,-0.00002721,0.00000197,-0.00000755,-0.00000756,-0.000
 00617,0.00001095,0.00000480,0.00002011,-0.00017205,-0.00039152,0.00027
 479,-0.01435065,0.00371333,0.01226564,-0.25620174,0.04734675,0.1719119
 7,-0.00013827,0.00007587,-0.00005213,0.00002235,0.00001562,-0.00002499
 ,-0.00002618,-0.00004470,0.00003000,0.00002942,-0.00000583,0.00000242,
 -0.00000384,-0.00001242,0.00000212,-0.00001800,-0.00000704,-0.00001660
 ,-0.00000565,0.00000081,-0.00000059,-0.00002940,0.00000077,0.00001065,
 0.00031413,-0.00001685,-0.00019526,-0.00016120,-0.00014916,-0.00067405
 ,0.00213518,-0.00073194,0.00013039,-0.00113486,0.00168269,-0.00229469,
 -0.01148334,0.00523797,0.01022570,0.01486596,-0.00313241,-0.01098478,0
 .26646650,-0.00205582,-0.00256296,-0.00263471,0.00040885,-0.00052085,0
 .00024904,-0.00050063,0.00009671,0.00004595,0.00002243,0.00011709,-0.0
 0005544,0.00002118,0.00004444,-0.00005728,-0.00000506,-0.00004940,0.00
 005959,-0.00002297,-0.00002149,0.00000286,0.00000792,0.00000327,0.0000
 2285,-0.00001761,-0.00000257,-0.00001560,-0.00001095,-0.00000685,0.000
 01007,-0.00000458,-0.00000495,0.00000269,0.00000016,0.00000902,-0.0000
 0730,0.00000218,-0.00001091,0.00000172,-0.00075707,0.00033098,0.000457
 88,0.01896475,-0.00601288,-0.01779803,0.04112455,-0.06268479,-0.038999
 61,-0.00002358,0.00001718,0.00011884,0.00001856,-0.00000669,0.00001312
 ,-0.00001003,0.00002316,-0.00000931,-0.00001100,-0.00000057,-0.0000010
 1,-0.00000225,0.00000366,-0.00000289,0.00000225,0.00000352,0.00000079,
 0.00000136,0.00000120,-0.00000011,0.00000272,0.00000200,-0.00000179,-0
 .00011605,-0.00004988,-0.00009413,0.00018255,0.00040706,0.00007880,-0.
 00079681,0.00039994,-0.00059687,0.00319005,-0.00283679,0.00322096,-0.0
 1685663,0.01355848,0.02094951,0.00968291,-0.00240862,-0.00749591,-0.05
 244138,0.06216251,-0.00113073,-0.00021260,-0.00051668,0.00038531,-0.00
 045354,0.00045804,-0.00027138,0.00009418,-0.00016673,0.00001069,0.0000
 7507,0.00002100,0.00003803,0.00009183,0.00003125,-0.00002457,-0.000048
 61,0.00002013,-0.00005318,-0.00007370,-0.00003486,0.00002533,0.0000034
 5,0.00000976,-0.00001597,0.00000196,0.00000519,-0.00000423,-0.00000320
 ,0.00001835,-0.00000453,0.00000766,-0.00001454,0.00000360,-0.00000519,
 0.00000852,-0.00000383,-0.00000395,-0.00002964,-0.00015109,0.00076239,
 0.00130658,-0.01075932,0.00081336,0.01322131,0.16358250,-0.04272914,-0
 .20807325,-0.00001465,-0.00001315,0.00004191,0.00001257,0.00000229,0.0
 0000555,0.00001286,0.00000527,0.00000682,-0.00000054,0.00000265,0.0000
 0018,-0.00000653,0.00000112,-0.00000445,-0.00000219,-0.00000231,0.0000
 0087,0.00000416,0.00000003,0.00000012,0.00001226,0.00000166,0.00000410
 ,0.00015328,-0.00011059,-0.00044247,0.00015125,-0.00033704,-0.00064127
 ,-0.00016511,0.00006835,0.00080449,-0.00248506,0.00214746,-0.00066278,
 0.00325011,0.00090662,-0.00236642,0.02738002,-0.00352760,-0.01914830,-
 0.17992906,0.04253529,0.21613723\\-0.00000216,0.00000028,0.00000627,-0
 .00001899,-0.00000104,-0.00001020,0.00001282,-0.00000063,0.00000655,-0
 .00000086,0.00000110,-0.00000376,0.00001533,0.00001178,0.00000652,-0.0
 0000360,0.00000270,-0.00000289,-0.00000712,-0.00000644,-0.00000063,0.0
 0000068,-0.00000570,-0.00000336,0.00000442,0.00000382,-0.00000288,-0.0
 0000318,-0.00000158,0.00000092,-0.00000061,-0.00000240,0.00000219,0.00
 000193,0.00000223,-0.00000442,0.00000109,-0.00000128,0.00000064,0.0000
 0218,0.00000086,0.00000031,0.00000063,-0.00000124,0.00000219,0.0000198
 2,0.00002927,-0.00000677,0.00000326,-0.00000118,0.00000341,-0.00000085
 ,-0.00000189,-0.00000156,-0.00000184,-0.00000187,0.00000012,0.00000235
 ,0.00000385,0.00000169,0.00000026,-0.00000038,-0.00000160,-0.00000044,
 -0.00000060,-0.00000050,-0.00000027,-0.00000086,-0.00000148,-0.0000027
 7,-0.00000306,-0.00000023,-0.00000004,-0.00000098,0.00000088,0.0000004
 8,-0.00000011,0.00000048,-0.00000135,0.00000076,-0.00000034,0.00000052
 ,0.00000191,-0.00000019,-0.00002310,-0.00003330,0.00000873,-0.00000016
 ,0.00000234,-0.00000012,0.00000159,0.00000364,0.00000003\\\@


 NATURE GIVES TO EVERY TIME AND SEASON SOME BEAUTY OF ITS OWN.

                                                    --DICKENS
 Job cpu time:       1 days  4 hours  0 minutes  3.4 seconds.
 File lengths (MBytes):  RWF=   1351 Int=      0 D2E=      0 Chk=     46 Scr=      1
 Normal termination of Gaussian 09 at Thu Jul 29 12:19:49 2021.
