 Entering Gaussian System, Link 0=g09
 Input=opt_freq-conf-862.com
 Output=opt_freq-conf-862.log
 Initial command:
 /aerosol/software/g09/l1.exe "/scratch/nicole/10759/Gau-85361.inp" -scrdir="/scratch/nicole/10759/"
 Entering Link 1 = /aerosol/software/g09/l1.exe PID=     85364.
  
 Copyright (c) 1988,1990,1992,1993,1995,1998,2003,2009,2013,
            Gaussian, Inc.  All Rights Reserved.
  
 This is part of the Gaussian(R) 09 program.  It is based on
 the Gaussian(R) 03 system (copyright 2003, Gaussian, Inc.),
 the Gaussian(R) 98 system (copyright 1998, Gaussian, Inc.),
 the Gaussian(R) 94 system (copyright 1995, Gaussian, Inc.),
 the Gaussian 92(TM) system (copyright 1992, Gaussian, Inc.),
 the Gaussian 90(TM) system (copyright 1990, Gaussian, Inc.),
 the Gaussian 88(TM) system (copyright 1988, Gaussian, Inc.),
 the Gaussian 86(TM) system (copyright 1986, Carnegie Mellon
 University), and the Gaussian 82(TM) system (copyright 1983,
 Carnegie Mellon University). Gaussian is a federally registered
 trademark of Gaussian, Inc.
  
 This software contains proprietary and confidential information,
 including trade secrets, belonging to Gaussian, Inc.
  
 This software is provided under written license and may be
 used, copied, transmitted, or stored only in accord with that
 written license.
  
 The following legend is applicable only to US Government
 contracts under FAR:
  
                    RESTRICTED RIGHTS LEGEND
  
 Use, reproduction and disclosure by the US Government is
 subject to restrictions as set forth in subparagraphs (a)
 and (c) of the Commercial Computer Software - Restricted
 Rights clause in FAR 52.227-19.
  
 Gaussian, Inc.
 340 Quinnipiac St., Bldg. 40, Wallingford CT 06492
  
  
 ---------------------------------------------------------------
 Warning -- This program may not be used in any manner that
 competes with the business of Gaussian, Inc. or will provide
 assistance to any competitor of Gaussian, Inc.  The licensee
 of this program is prohibited from giving any competitor of
 Gaussian, Inc. access to this program.  By using this program,
 the user acknowledges that Gaussian, Inc. is engaged in the
 business of creating and licensing software in the field of
 computational chemistry and represents and warrants to the
 licensee that it is not a competitor of Gaussian, Inc. and that
 it will not use this program in any manner prohibited above.
 ---------------------------------------------------------------
  

 Cite this work as:
 Gaussian 09, Revision D.01,
 M. J. Frisch, G. W. Trucks, H. B. Schlegel, G. E. Scuseria, 
 M. A. Robb, J. R. Cheeseman, G. Scalmani, V. Barone, B. Mennucci, 
 G. A. Petersson, H. Nakatsuji, M. Caricato, X. Li, H. P. Hratchian, 
 A. F. Izmaylov, J. Bloino, G. Zheng, J. L. Sonnenberg, M. Hada, 
 M. Ehara, K. Toyota, R. Fukuda, J. Hasegawa, M. Ishida, T. Nakajima, 
 Y. Honda, O. Kitao, H. Nakai, T. Vreven, J. A. Montgomery, Jr., 
 J. E. Peralta, F. Ogliaro, M. Bearpark, J. J. Heyd, E. Brothers, 
 K. N. Kudin, V. N. Staroverov, T. Keith, R. Kobayashi, J. Normand, 
 K. Raghavachari, A. Rendell, J. C. Burant, S. S. Iyengar, J. Tomasi, 
 M. Cossi, N. Rega, J. M. Millam, M. Klene, J. E. Knox, J. B. Cross, 
 V. Bakken, C. Adamo, J. Jaramillo, R. Gomperts, R. E. Stratmann, 
 O. Yazyev, A. J. Austin, R. Cammi, C. Pomelli, J. W. Ochterski, 
 R. L. Martin, K. Morokuma, V. G. Zakrzewski, G. A. Voth, 
 P. Salvador, J. J. Dannenberg, S. Dapprich, A. D. Daniels, 
 O. Farkas, J. B. Foresman, J. V. Ortiz, J. Cioslowski, 
 and D. J. Fox, Gaussian, Inc., Wallingford CT, 2013.
 
 ******************************************
 Gaussian 09:  ES64L-G09RevD.01 24-Apr-2013
                29-Jul-2021 
 ******************************************
 %mem=2gb
 %nproc=4
 Will use up to    4 processors via shared memory.
 %chk=conf-862.chk
 ----------------------------------------------------------------------
 # B3LYP/6-311++G(2df,2pd) guess=read geom=checkpoint opt=readfc freq=n
 oraman nosymm integral(ultrafinegrid)
 ----------------------------------------------------------------------
 1/10=3,14=-1,18=20,19=15,26=4,29=2,38=1/1,3;
 2/9=110,12=2,15=1,40=1/2;
 3/5=4,6=6,7=1414,11=2,14=-4,16=1,25=1,30=1,71=1,74=-5,75=-5,116=-2/1,2,3;
 4/5=1/1;
 5/5=2,38=6/2;
 6/7=2,8=2,9=2,10=2,28=1/1;
 7/30=1/1,2,3,16;
 1/14=-1,18=20,19=15,26=4/3(2);
 2/9=110,15=1/2;
 99//99;
 2/9=110,15=1/2;
 3/5=4,6=6,7=1414,11=2,14=-2,16=1,25=1,30=1,71=1,74=-5,75=-5/1,2,3;
 4/5=5,16=3,69=1/1;
 5/5=2,38=5/2;
 7/30=1/1,2,3,16;
 1/14=-1,18=20,19=15,26=4/3(-5);
 2/9=110,15=1/2;
 6/7=2,8=2,9=2,10=2,19=2,28=1/1;
 99/9=1/99;
 ------------------------------------------------------------
 Candidate Structure: Conf:862 OPT and FREQ calc in gas phase
 ------------------------------------------------------------
 Structure from the checkpoint file:  "conf-862.chk"
 Charge =  1 Multiplicity = 1
 Redundant internal coordinates found in file.
 O,0,-0.7198529278,1.7909723208,-0.1575453357
 C,0,0.3486673818,1.2614165491,0.181396663
 N,0,0.4982720252,0.5782966007,1.3351707839
 C,0,-0.6284690925,0.1654827389,2.1557085085
 C,0,-0.192666219,0.2175987794,3.6143033137
 O,0,-1.2446533242,0.1919767338,4.4411713154
 O,0,0.9678567799,0.2186231666,3.9609540773
 C,0,-1.1131188065,-1.3049401792,1.8125702037
 C,0,-0.8957775872,-1.6349430412,0.368764134
 C,0,-1.4064639555,-1.0841366852,-0.7802546342
 N,0,-0.668126448,-1.4667618289,-1.8843705007
 C,0,0.2544017573,-2.2959171654,-1.4196157631
 N,0,0.1614265858,-2.4189434438,-0.0695835111
 C,0,1.5579461942,1.2533654228,-0.7616664303
 C,0,1.222536234,1.7859747423,-2.1602931745
 N,0,-0.0929798564,1.2364890673,-2.6594076275
 H,0,1.4161338374,0.3009020623,1.6631901741
 H,0,-1.4477952248,0.8631993256,1.9779940546
 H,0,-0.9105508461,0.1775653491,5.3559542773
 H,0,-2.166200483,-1.3888478219,2.0926115506
 H,0,-0.5655690313,-2.0206819935,2.4353901145
 H,0,-2.2318368383,-0.3924536037,-0.8623775895
 H,0,0.9862176815,-2.8277363218,-2.0110212428
 H,0,0.7196345811,-3.0343654176,0.5063902415
 H,0,1.9441498403,0.2309779775,-0.8261737512
 H,0,2.3661169964,1.8689343751,-0.3500801365
 H,0,2.0032035855,1.5193917143,-2.8739896887
 H,0,1.1096292966,2.8714278607,-2.1509494254
 H,0,-0.1664119229,0.1836263712,-2.6457579306
 H,0,-0.320015996,1.5821191216,-3.5935394853
 H,0,-0.7856026178,1.5715975929,-1.9567461352
 Recover connectivity data from disk.

 GradGradGradGradGradGradGradGradGradGradGradGradGradGradGradGradGradGrad
 Berny optimization.
 Initialization pass.
 Force constant matrix read from checkpoint file:
 "conf-862.chk"
                           ----------------------------
                           !    Initial Parameters    !
                           ! (Angstroms and Degrees)  !
 --------------------------                            --------------------------
 ! Name  Definition              Value          Derivative Info.                !
 --------------------------------------------------------------------------------
 ! R1    R(1,2)                  1.2398         D2E/DX2 =    0.7282             !
 ! R2    R(2,3)                  1.3492         D2E/DX2 =    0.5098             !
 ! R3    R(2,14)                 1.5336         D2E/DX2 =    0.2822             !
 ! R4    R(3,4)                  1.4537         D2E/DX2 =    0.3449             !
 ! R5    R(3,17)                 1.0134         D2E/DX2 =    0.4605             !
 ! R6    R(4,5)                  1.5232         D2E/DX2 =    0.2775             !
 ! R7    R(4,8)                  1.5858         D2E/DX2 =    0.2497             !
 ! R8    R(4,18)                 1.0907         D2E/DX2 =    0.3485             !
 ! R9    R(5,6)                  1.3383         D2E/DX2 =    0.4427             !
 ! R10   R(5,7)                  1.2112         D2E/DX2 =    0.8655             !
 ! R11   R(6,19)                 0.974          D2E/DX2 =    0.5024             !
 ! R12   R(8,9)                  1.4969         D2E/DX2 =    0.3185             !
 ! R13   R(8,20)                 1.0929         D2E/DX2 =    0.3432             !
 ! R14   R(8,21)                 1.0954         D2E/DX2 =    0.3352             !
 ! R15   R(9,10)                 1.3727         D2E/DX2 =    0.4196             !
 ! R16   R(9,13)                 1.3873         D2E/DX2 =    0.3512             !
 ! R17   R(10,11)                1.3823         D2E/DX2 =    0.333              !
 ! R18   R(10,22)                1.08           D2E/DX2 =    0.3763             !
 ! R19   R(11,12)                1.3246         D2E/DX2 =    0.4459             !
 ! R20   R(12,13)                1.3588         D2E/DX2 =    0.3846             !
 ! R21   R(12,23)                1.0808         D2E/DX2 =    0.3763             !
 ! R22   R(13,24)                1.011          D2E/DX2 =    0.4714             !
 ! R23   R(14,15)                1.5337         D2E/DX2 =    0.3117             !
 ! R24   R(14,25)                1.0948         D2E/DX2 =    0.3385             !
 ! R25   R(14,26)                1.0961         D2E/DX2 =    0.3374             !
 ! R26   R(15,16)                1.5105         D2E/DX2 =    0.2756             !
 ! R27   R(15,27)                1.0908         D2E/DX2 =    0.3488             !
 ! R28   R(15,28)                1.0913         D2E/DX2 =    0.3475             !
 ! R29   R(16,29)                1.0555         D2E/DX2 =    0.305              !
 ! R30   R(16,30)                1.0216         D2E/DX2 =    0.44               !
 ! R31   R(16,31)                1.042          D2E/DX2 =    0.3581             !
 ! A1    A(1,2,3)              123.0684         D2E/DX2 =    0.2199             !
 ! A2    A(1,2,14)             120.9134         D2E/DX2 =    0.2338             !
 ! A3    A(3,2,14)             115.836          D2E/DX2 =    0.2031             !
 ! A4    A(2,3,4)              122.7206         D2E/DX2 =    0.2318             !
 ! A5    A(2,3,17)             121.0528         D2E/DX2 =    0.1194             !
 ! A6    A(4,3,17)             116.2043         D2E/DX2 =    0.1201             !
 ! A7    A(3,4,5)              108.0009         D2E/DX2 =    0.105              !
 ! A8    A(3,4,8)              112.2134         D2E/DX2 =    0.2884             !
 ! A9    A(3,4,18)             107.9751         D2E/DX2 =    0.0493             !
 ! A10   A(5,4,8)              109.0486         D2E/DX2 =    0.1535             !
 ! A11   A(5,4,18)             110.4294         D2E/DX2 =    0.0309             !
 ! A12   A(8,4,18)             109.1663         D2E/DX2 =    0.0364             !
 ! A13   A(4,5,6)              111.4746         D2E/DX2 =    0.1586             !
 ! A14   A(4,5,7)              123.2462         D2E/DX2 =    0.1664             !
 ! A15   A(6,5,7)              125.1952         D2E/DX2 =    0.1942             !
 ! A16   A(5,6,19)             108.1156         D2E/DX2 =    0.1718             !
 ! A17   A(4,8,9)              111.6385         D2E/DX2 =    0.6105             !
 ! A18   A(4,8,20)             108.0728         D2E/DX2 =    0.0944             !
 ! A19   A(4,8,21)             109.2721         D2E/DX2 =    0.1034             !
 ! A20   A(9,8,20)             111.7233         D2E/DX2 =    0.089              !
 ! A21   A(9,8,21)             109.3763         D2E/DX2 =    0.1094             !
 ! A22   A(20,8,21)            106.6056         D2E/DX2 =    0.0287             !
 ! A23   A(8,9,10)             131.6716         D2E/DX2 =    0.1429             !
 ! A24   A(8,9,13)             122.6845         D2E/DX2 =    0.1481             !
 ! A25   A(10,9,13)            104.2283         D2E/DX2 =    0.1003             !
 ! A26   A(9,10,11)            111.0273         D2E/DX2 =    0.1169             !
 ! A27   A(9,10,22)            127.2237         D2E/DX2 =    0.0846             !
 ! A28   A(11,10,22)           121.6523         D2E/DX2 =    0.0911             !
 ! A29   A(10,11,12)           105.3687         D2E/DX2 =    0.1351             !
 ! A30   A(11,12,13)           110.954          D2E/DX2 =    0.1193             !
 ! A31   A(11,12,23)           125.9866         D2E/DX2 =    0.0895             !
 ! A32   A(13,12,23)           123.0542         D2E/DX2 =    0.0902             !
 ! A33   A(9,13,12)            108.3558         D2E/DX2 =    0.1038             !
 ! A34   A(9,13,24)            125.7876         D2E/DX2 =    0.0787             !
 ! A35   A(12,13,24)           125.688          D2E/DX2 =    0.0806             !
 ! A36   A(2,14,15)            112.7377         D2E/DX2 =    0.4015             !
 ! A37   A(2,14,25)            108.6209         D2E/DX2 =    0.071              !
 ! A38   A(2,14,26)            110.3368         D2E/DX2 =    0.0869             !
 ! A39   A(15,14,25)           110.3472         D2E/DX2 =    0.0858             !
 ! A40   A(15,14,26)           107.9772         D2E/DX2 =    0.0945             !
 ! A41   A(25,14,26)           106.6472         D2E/DX2 =    0.0249             !
 ! A42   A(14,15,16)           111.4355         D2E/DX2 =    0.3257             !
 ! A43   A(14,15,27)           110.8098         D2E/DX2 =    0.0615             !
 ! A44   A(14,15,28)           111.1128         D2E/DX2 =    0.0612             !
 ! A45   A(16,15,27)           108.5537         D2E/DX2 =    0.0823             !
 ! A46   A(16,15,28)           105.9345         D2E/DX2 =    0.0744             !
 ! A47   A(27,15,28)           108.827          D2E/DX2 =    0.0228             !
 ! A48   A(15,16,29)           114.7828         D2E/DX2 =    0.1453             !
 ! A49   A(15,16,30)           111.8774         D2E/DX2 =    0.1013             !
 ! A50   A(15,16,31)           103.8327         D2E/DX2 =    0.1192             !
 ! A51   A(29,16,30)           109.5025         D2E/DX2 =    0.0646             !
 ! A52   A(29,16,31)           105.4164         D2E/DX2 =    0.0565             !
 ! A53   A(30,16,31)           111.1056         D2E/DX2 =    0.0485             !
 ! D1    D(1,2,3,4)             12.8618         D2E/DX2 =    0.0203             !
 ! D2    D(1,2,3,17)          -168.923          D2E/DX2 =    0.0401             !
 ! D3    D(14,2,3,4)          -162.2664         D2E/DX2 =    0.0574             !
 ! D4    D(14,2,3,17)           15.9488         D2E/DX2 =    0.0227             !
 ! D5    D(1,2,14,15)           -7.3965         D2E/DX2 =    0.033              !
 ! D6    D(1,2,14,25)         -130.0149         D2E/DX2 =    0.0272             !
 ! D7    D(1,2,14,26)          113.4155         D2E/DX2 =    0.0179             !
 ! D8    D(3,2,14,15)          167.8451         D2E/DX2 =    0.0806             !
 ! D9    D(3,2,14,25)           45.2267         D2E/DX2 =    0.0333             !
 ! D10   D(3,2,14,26)          -71.3429         D2E/DX2 =    0.0421             !
 ! D11   D(2,3,4,5)           -146.3762         D2E/DX2 =    0.0434             !
 ! D12   D(2,3,4,8)             93.4006         D2E/DX2 =    0.1327             !
 ! D13   D(2,3,4,18)           -26.9518         D2E/DX2 =    0.0309             !
 ! D14   D(17,3,4,5)            35.328          D2E/DX2 =    0.0152             !
 ! D15   D(17,3,4,8)           -84.8952         D2E/DX2 =    0.0497             !
 ! D16   D(17,3,4,18)          154.7523         D2E/DX2 =    0.0154             !
 ! D17   D(3,4,5,6)            163.8989         D2E/DX2 =    0.0477             !
 ! D18   D(3,4,5,7)            -19.2805         D2E/DX2 =    0.048              !
 ! D19   D(8,4,5,6)            -73.9106         D2E/DX2 =    0.0385             !
 ! D20   D(8,4,5,7)            102.9099         D2E/DX2 =    0.0389             !
 ! D21   D(18,4,5,6)            46.0398         D2E/DX2 =    0.0163             !
 ! D22   D(18,4,5,7)          -137.1396         D2E/DX2 =    0.0152             !
 ! D23   D(3,4,8,9)            -31.4954         D2E/DX2 =    0.0488             !
 ! D24   D(3,4,8,20)          -154.7462         D2E/DX2 =    0.0383             !
 ! D25   D(3,4,8,21)            89.6238         D2E/DX2 =    0.027              !
 ! D26   D(5,4,8,9)           -151.1085         D2E/DX2 =    0.0286             !
 ! D27   D(5,4,8,20)            85.6407         D2E/DX2 =    0.0192             !
 ! D28   D(5,4,8,21)           -29.9893         D2E/DX2 =    0.0215             !
 ! D29   D(18,4,8,9)            88.1641         D2E/DX2 =    0.0333             !
 ! D30   D(18,4,8,20)          -35.0867         D2E/DX2 =    0.0137             !
 ! D31   D(18,4,8,21)         -150.7167         D2E/DX2 =    0.0292             !
 ! D32   D(4,5,6,19)           176.9273         D2E/DX2 =    0.0183             !
 ! D33   D(7,5,6,19)             0.1813         D2E/DX2 =    0.0168             !
 ! D34   D(4,8,9,10)           -62.3323         D2E/DX2 =    0.0208             !
 ! D35   D(4,8,9,13)           101.8281         D2E/DX2 =    0.0167             !
 ! D36   D(20,8,9,10)           58.8199         D2E/DX2 =    0.0178             !
 ! D37   D(20,8,9,13)         -137.0197         D2E/DX2 =    0.0268             !
 ! D38   D(21,8,9,10)          176.609          D2E/DX2 =    0.0267             !
 ! D39   D(21,8,9,13)          -19.2305         D2E/DX2 =    0.0169             !
 ! D40   D(8,9,10,11)          164.0755         D2E/DX2 =    0.0171             !
 ! D41   D(8,9,10,22)          -12.3624         D2E/DX2 =    0.0093             !
 ! D42   D(13,9,10,11)          -2.2153         D2E/DX2 =    0.0154             !
 ! D43   D(13,9,10,22)        -178.6531         D2E/DX2 =    0.0106             !
 ! D44   D(8,9,13,12)         -166.9539         D2E/DX2 =    0.02               !
 ! D45   D(8,9,13,24)           17.5596         D2E/DX2 =    0.009              !
 ! D46   D(10,9,13,12)           0.9042         D2E/DX2 =    0.0132             !
 ! D47   D(10,9,13,24)        -174.5823         D2E/DX2 =    0.0057             !
 ! D48   D(9,10,11,12)           2.6892         D2E/DX2 =    0.0191             !
 ! D49   D(22,10,11,12)        179.3573         D2E/DX2 =    0.0109             !
 ! D50   D(10,11,12,13)         -2.0661         D2E/DX2 =    0.0193             !
 ! D51   D(10,11,12,23)        177.1269         D2E/DX2 =    0.0104             !
 ! D52   D(11,12,13,9)           0.754          D2E/DX2 =    0.0177             !
 ! D53   D(11,12,13,24)        176.2462         D2E/DX2 =    0.0098             !
 ! D54   D(23,12,13,9)        -178.4669         D2E/DX2 =    0.0108             !
 ! D55   D(23,12,13,24)         -2.9747         D2E/DX2 =    0.0068             !
 ! D56   D(2,14,15,16)         -43.4833         D2E/DX2 =    0.0382             !
 ! D57   D(2,14,15,27)        -164.4748         D2E/DX2 =    0.0266             !
 ! D58   D(2,14,15,28)          74.4056         D2E/DX2 =    0.019              !
 ! D59   D(25,14,15,16)         78.1626         D2E/DX2 =    0.0239             !
 ! D60   D(25,14,15,27)        -42.8289         D2E/DX2 =    0.0163             !
 ! D61   D(25,14,15,28)       -163.9485         D2E/DX2 =    0.0248             !
 ! D62   D(26,14,15,16)       -165.6341         D2E/DX2 =    0.0292             !
 ! D63   D(26,14,15,27)         73.3744         D2E/DX2 =    0.0192             !
 ! D64   D(26,14,15,28)        -47.7452         D2E/DX2 =    0.0176             !
 ! D65   D(14,15,16,29)        -54.0483         D2E/DX2 =    0.0195             !
 ! D66   D(14,15,16,30)       -179.6143         D2E/DX2 =    0.0153             !
 ! D67   D(14,15,16,31)         60.4853         D2E/DX2 =    0.0182             !
 ! D68   D(27,15,16,29)         68.2527         D2E/DX2 =    0.0185             !
 ! D69   D(27,15,16,30)        -57.3133         D2E/DX2 =    0.0148             !
 ! D70   D(27,15,16,31)       -177.2137         D2E/DX2 =    0.0189             !
 ! D71   D(28,15,16,29)       -175.0142         D2E/DX2 =    0.0207             !
 ! D72   D(28,15,16,30)         59.4198         D2E/DX2 =    0.0155             !
 ! D73   D(28,15,16,31)        -60.4806         D2E/DX2 =    0.0181             !
 --------------------------------------------------------------------------------
 Trust Radius=3.00D-01 FncErr=1.00D-07 GrdErr=1.00D-06
 Number of steps in this run=    167 maximum allowed number of steps=    186.
 GradGradGradGradGradGradGradGradGradGradGradGradGradGradGradGradGradGrad

                          Input orientation:                          
 ---------------------------------------------------------------------
 Center     Atomic      Atomic             Coordinates (Angstroms)
 Number     Number       Type             X           Y           Z
 ---------------------------------------------------------------------
      1          8           0       -0.719853    1.790972   -0.157545
      2          6           0        0.348667    1.261417    0.181397
      3          7           0        0.498272    0.578297    1.335171
      4          6           0       -0.628469    0.165483    2.155709
      5          6           0       -0.192666    0.217599    3.614303
      6          8           0       -1.244653    0.191977    4.441171
      7          8           0        0.967857    0.218623    3.960954
      8          6           0       -1.113119   -1.304940    1.812570
      9          6           0       -0.895778   -1.634943    0.368764
     10          6           0       -1.406464   -1.084137   -0.780255
     11          7           0       -0.668126   -1.466762   -1.884371
     12          6           0        0.254402   -2.295917   -1.419616
     13          7           0        0.161427   -2.418943   -0.069584
     14          6           0        1.557946    1.253365   -0.761666
     15          6           0        1.222536    1.785975   -2.160293
     16          7           0       -0.092980    1.236489   -2.659408
     17          1           0        1.416134    0.300902    1.663190
     18          1           0       -1.447795    0.863199    1.977994
     19          1           0       -0.910551    0.177565    5.355954
     20          1           0       -2.166200   -1.388848    2.092612
     21          1           0       -0.565569   -2.020682    2.435390
     22          1           0       -2.231837   -0.392454   -0.862378
     23          1           0        0.986218   -2.827736   -2.011021
     24          1           0        0.719635   -3.034365    0.506390
     25          1           0        1.944150    0.230978   -0.826174
     26          1           0        2.366117    1.868934   -0.350080
     27          1           0        2.003204    1.519392   -2.873990
     28          1           0        1.109629    2.871428   -2.150949
     29          1           0       -0.166412    0.183626   -2.645758
     30          1           0       -0.320016    1.582119   -3.593539
     31          1           0       -0.785603    1.571598   -1.956746
 ---------------------------------------------------------------------
                    Distance matrix (angstroms):
                    1          2          3          4          5
     1  O    0.000000
     2  C    1.239777   0.000000
     3  N    2.276535   1.349159   0.000000
     4  C    2.828730   2.460442   1.453700   0.000000
     5  C    4.120713   3.628698   2.408722   1.523200   0.000000
     6  O    4.896978   4.672050   3.582495   2.367219   1.338299
     7  O    4.720454   3.969366   2.691582   2.410392   1.211190
     8  C    3.690622   3.373979   2.524098   1.585804   2.532114
     9  C    3.470569   3.157950   2.788502   2.550717   3.802605
    10  C    3.020837   3.083323   3.296472   3.284312   4.741304
    11  N    3.687470   3.569905   3.988508   4.357526   5.770489
    12  C    4.386874   3.902147   3.988662   4.429548   5.644287
    13  N    4.302067   3.693657   3.327198   3.500731   4.543980
    14  C    2.417096   1.533554   2.444454   3.804599   4.825616
    15  C    2.789964   2.553883   3.768463   4.967906   6.148867
    16  N    2.638131   2.875038   4.091388   4.961769   6.356691
    17  H    3.177708   2.063440   1.013417   2.107442   2.530221
    18  H    2.439506   2.571695   2.069195   1.090727   2.160939
    19  H    5.747880   5.434741   4.279260   3.212676   1.884226
    20  H    4.155284   4.123252   3.397468   2.187360   2.964971
    21  H    4.612573   4.085154   3.016112   2.204880   2.557107
    22  H    2.747769   3.237862   3.636629   3.462791   4.956920
    23  H    5.261038   4.683411   4.799599   5.378495   6.504468
    24  H    5.079057   4.324000   3.713113   3.844042   4.589846
    25  H    3.158727   2.150015   2.623472   3.938817   4.927880
    26  H    3.092953   2.172935   2.827483   4.260079   4.999062
    27  H    3.855887   3.484168   4.568097   5.835806   6.972407
    28  H    2.913426   2.934457   4.217255   5.374982   6.478960
    29  H    3.013480   3.069160   4.055288   4.823682   6.260208
    30  H    3.465479   3.847094   5.096022   5.929237   7.336970
    31  H    1.813718   2.440171   3.670381   4.349038   5.763808
                    6          7          8          9         10
     6  O    0.000000
     7  O    2.264182   0.000000
     8  C    3.027805   3.356674   0.000000
     9  C    4.477036   4.451142   1.496902   0.000000
    10  C    5.377540   5.460187   2.618692   1.372746   0.000000
    11  N    6.564775   6.299586   3.727140   2.270842   1.382250
    12  C    6.541071   5.981844   3.646803   2.226680   2.153060
    13  N    5.398229   4.883884   2.531397   1.387258   2.178312
    14  C    6.004218   4.870528   4.506241   3.954865   3.775181
    15  C    7.225454   6.323853   5.549116   4.752480   4.129611
    16  N    7.268809   6.781638   5.243866   4.249639   3.262171
    17  H    3.848225   2.342529   2.999694   3.281458   3.981936
    18  H    2.561064   3.191079   2.200046   3.022426   3.376649
    19  H    0.973992   2.340112   3.846352   5.306361   6.284177
    20  H    2.977245   3.987102   1.092907   2.155502   2.987207
    21  H    3.062707   3.113395   1.095446   2.128092   3.453200
    22  H    5.426207   5.820308   3.039656   2.201033   1.080005
    23  H    7.465001   6.704113   4.620170   3.260068   3.206221
    24  H    5.454376   4.751585   2.838310   2.141700   3.158978
    25  H    6.157508   4.885683   4.320753   3.602045   3.599757
    26  H    6.229441   4.823243   5.182241   4.840852   4.810202
    27  H    8.113087   7.034230   6.296996   5.373023   4.773669
    28  H    7.495209   6.664296   6.171884   5.538772   4.884263
    29  H    7.168489   6.703464   4.794661   3.595346   2.573918
    30  H    8.206341   7.783836   6.179818   5.136228   4.025402
    31  H    6.561054   6.318571   4.752839   3.962580   2.970274
                   11         12         13         14         15
    11  N    0.000000
    12  C    1.324596   0.000000
    13  N    2.210941   1.358811   0.000000
    14  C    3.689845   3.837907   3.989373   0.000000
    15  C    3.772404   4.260015   4.814391   1.533731   0.000000
    16  N    2.870373   3.759741   4.487104   2.515405   1.510507
    17  H    4.478165   4.194852   3.460398   2.609066   4.106330
    18  H    4.577604   4.941786   4.189825   4.085640   5.010749
    19  H    7.428653   7.306407   6.109620   6.684019   7.976905
    20  H    4.250492   4.360944   3.339765   5.384929   6.296843
    21  H    4.356338   3.950845   2.638565   5.044787   6.229628
    22  H    2.154947   3.180420   3.234640   4.132955   4.285187
    23  H    2.145961   1.080808   2.148621   4.306176   4.622170
    24  H    3.177892   2.114532   1.010983   4.549216   5.531708
    25  H    3.290302   3.097196   3.282166   1.094802   2.172238
    26  H    4.763145   4.790536   4.829621   1.096115   2.142786
    27  H    4.127040   4.441857   5.173714   2.175071   1.090812
    28  H    4.695889   5.288451   5.763610   2.179271   1.091350
    29  H    1.885526   2.797972   3.676618   2.769035   2.175402
    30  H    3.512565   4.482752   5.353369   3.413843   2.115471
    31  H    3.041491   4.040766   4.514716   2.649851   2.029781
                   16         17         18         19         20
    16  N    0.000000
    17  H    4.673072   0.000000
    18  H    4.845654   2.935536   0.000000
    19  H    8.126239   4.366369   3.488458   0.000000
    20  H    5.811396   3.984065   2.366635   3.831411   0.000000
    21  H    6.065432   3.148522   3.050296   3.671648   1.754632
    22  H    3.233803   4.490760   3.202982   6.382662   3.119146
    23  H    4.254762   4.844898   5.954802   8.179358   5.371028
    24  H    5.377994   3.598237   4.696209   6.040884   3.681286
    25  H    2.919194   2.545707   4.446162   6.809616   5.295104
    26  H    3.432221   2.722949   4.580105   6.793829   6.092765
    27  H    2.126044   4.734487   5.990136   8.833031   7.106962
    28  H    2.092325   4.609686   5.255623   8.227492   6.847541
    29  H    1.055509   4.591867   4.845910   8.036242   5.378101
    30  H    1.021571   5.682336   5.729810   9.078268   6.675879
    31  H    1.041997   4.423375   4.052469   7.445437   5.202652
                   21         22         23         24         25
    21  H    0.000000
    22  H    4.037679   0.000000
    23  H    4.778070   4.195934   0.000000
    24  H    2.529890   4.190991   2.539906   0.000000
    25  H    4.691104   4.222421   3.417196   3.733314   0.000000
    26  H    5.610948   5.149515   5.169290   5.242785   1.757163
    27  H    6.878970   5.063329   4.547142   5.814742   2.420134
    28  H    6.911840   4.845486   5.702217   6.487830   3.069761
    29  H    5.553050   2.788959   3.286297   4.590924   2.787041
    30  H    7.027693   3.874692   4.863891   6.261168   3.822348
    31  H    5.678358   2.673337   4.743040   5.435777   3.244534
                   26         27         28         29         30
    26  H    0.000000
    27  H    2.573714   0.000000
    28  H    2.413894   1.774617   0.000000
    29  H    3.811050   2.558044   3.016189   0.000000
    30  H    4.221090   2.432907   2.405674   1.696368   0.000000
    31  H    3.550088   2.936239   2.306334   1.668712   1.701756
                   31
    31  H    0.000000
 Symmetry turned off by external request.
 Stoichiometry    C9H15N4O3(1+)
 Framework group  C1[X(C9H15N4O3)]
 Deg. of freedom    87
 Full point group                 C1      NOp   1
 Rotational constants (GHZ):      0.8129303      0.3961337      0.3166669
 Standard basis: 6-311++G(2df,2pd) (5D, 7F)
   769 basis functions,  1102 primitive gaussians,   864 cartesian basis functions
    60 alpha electrons       60 beta electrons
       nuclear repulsion energy      1199.5298232134 Hartrees.
 NAtoms=   31 NActive=   31 NUniq=   31 SFac= 1.00D+00 NAtFMM=   60 NAOKFM=F Big=F
 Integral buffers will be    131072 words long.
 Raffenetti 2 integral format.
 Two-electron integral symmetry is turned off.
 One-electron integrals computed using PRISM.
 NBasis=   769 RedAO= T EigKep=  2.16D-06  NBF=   769
 NBsUse=   769 1.00D-06 EigRej= -1.00D+00 NBFU=   769
 Initial guess from the checkpoint file:  "conf-862.chk"
 B after Tr=     0.000000    0.000000    0.000000
         Rot=    1.000000    0.000000    0.000000    0.000000 Ang=   0.00 deg.
 Requested convergence on RMS density matrix=1.00D-08 within 128 cycles.
 Requested convergence on MAX density matrix=1.00D-06.
 Requested convergence on             energy=1.00D-06.
 No special actions if energy rises.
 SCF Done:  E(RB3LYP) =  -796.771128839     A.U. after   13 cycles
            NFock= 13  Conv=0.39D-08     -V/T= 2.0043

 **********************************************************************

            Population analysis using the SCF density.

 **********************************************************************

 Alpha  occ. eigenvalues --  -19.30056 -19.24655 -19.24437 -14.55970 -14.51103
 Alpha  occ. eigenvalues --  -14.48719 -14.44520 -10.43623 -10.43201 -10.38878
 Alpha  occ. eigenvalues --  -10.36881 -10.36685 -10.34651 -10.34565 -10.32956
 Alpha  occ. eigenvalues --  -10.32109  -1.24014  -1.19578  -1.15949  -1.15283
 Alpha  occ. eigenvalues --   -1.13311  -1.07895  -1.01707  -0.95062  -0.92892
 Alpha  occ. eigenvalues --   -0.88618  -0.82771  -0.80946  -0.76184  -0.75573
 Alpha  occ. eigenvalues --   -0.74049  -0.73107  -0.72245  -0.71369  -0.68317
 Alpha  occ. eigenvalues --   -0.66450  -0.64188  -0.63317  -0.62361  -0.61518
 Alpha  occ. eigenvalues --   -0.60434  -0.59229  -0.59098  -0.57953  -0.56419
 Alpha  occ. eigenvalues --   -0.55709  -0.55171  -0.54652  -0.54459  -0.53834
 Alpha  occ. eigenvalues --   -0.53001  -0.51114  -0.50601  -0.45601  -0.43961
 Alpha  occ. eigenvalues --   -0.42853  -0.42465  -0.41427  -0.41233  -0.36905
 Alpha virt. eigenvalues --   -0.15061  -0.14392  -0.14169  -0.12720  -0.12162
 Alpha virt. eigenvalues --   -0.11012  -0.10420  -0.10175  -0.09353  -0.09260
 Alpha virt. eigenvalues --   -0.08452  -0.07681  -0.06930  -0.06676  -0.06317
 Alpha virt. eigenvalues --   -0.05871  -0.05570  -0.04902  -0.04311  -0.03750
 Alpha virt. eigenvalues --   -0.03078  -0.02546  -0.02074  -0.01829  -0.01526
 Alpha virt. eigenvalues --   -0.00914  -0.00781  -0.00117   0.00056   0.00368
 Alpha virt. eigenvalues --    0.00673   0.01109   0.01369   0.01493   0.01759
 Alpha virt. eigenvalues --    0.02202   0.02521   0.02770   0.02879   0.03244
 Alpha virt. eigenvalues --    0.03444   0.03843   0.04138   0.04365   0.04519
 Alpha virt. eigenvalues --    0.04708   0.05228   0.05554   0.05895   0.06348
 Alpha virt. eigenvalues --    0.06706   0.06811   0.07634   0.08044   0.08214
 Alpha virt. eigenvalues --    0.08684   0.08927   0.09193   0.09291   0.09992
 Alpha virt. eigenvalues --    0.10456   0.10895   0.11236   0.11433   0.11617
 Alpha virt. eigenvalues --    0.12022   0.12118   0.12864   0.13290   0.13458
 Alpha virt. eigenvalues --    0.14129   0.14414   0.14611   0.15150   0.15259
 Alpha virt. eigenvalues --    0.16170   0.16705   0.17274   0.17350   0.17828
 Alpha virt. eigenvalues --    0.18476   0.18623   0.18959   0.19241   0.19505
 Alpha virt. eigenvalues --    0.19956   0.20373   0.20538   0.21286   0.21982
 Alpha virt. eigenvalues --    0.22438   0.22578   0.22819   0.23296   0.23644
 Alpha virt. eigenvalues --    0.24098   0.24385   0.24945   0.25115   0.25815
 Alpha virt. eigenvalues --    0.26209   0.27023   0.27647   0.28409   0.29035
 Alpha virt. eigenvalues --    0.30160   0.30636   0.30993   0.31958   0.32505
 Alpha virt. eigenvalues --    0.33702   0.33790   0.34242   0.35521   0.36202
 Alpha virt. eigenvalues --    0.37261   0.37761   0.38197   0.38542   0.39283
 Alpha virt. eigenvalues --    0.40394   0.40842   0.41573   0.41787   0.42360
 Alpha virt. eigenvalues --    0.43620   0.44242   0.45025   0.45303   0.45852
 Alpha virt. eigenvalues --    0.45932   0.47162   0.47546   0.48140   0.48863
 Alpha virt. eigenvalues --    0.49894   0.50181   0.50297   0.50454   0.51085
 Alpha virt. eigenvalues --    0.51789   0.52919   0.53257   0.53781   0.54188
 Alpha virt. eigenvalues --    0.54536   0.54836   0.55398   0.56067   0.56663
 Alpha virt. eigenvalues --    0.56820   0.57307   0.57978   0.58350   0.59807
 Alpha virt. eigenvalues --    0.60122   0.60733   0.62022   0.63257   0.63361
 Alpha virt. eigenvalues --    0.64291   0.64591   0.65316   0.65698   0.66195
 Alpha virt. eigenvalues --    0.66682   0.67403   0.68538   0.69094   0.70335
 Alpha virt. eigenvalues --    0.70896   0.71763   0.72262   0.73348   0.74521
 Alpha virt. eigenvalues --    0.74553   0.75573   0.76643   0.77393   0.77748
 Alpha virt. eigenvalues --    0.78669   0.79487   0.80761   0.81652   0.82092
 Alpha virt. eigenvalues --    0.82715   0.83442   0.84235   0.84995   0.85653
 Alpha virt. eigenvalues --    0.86726   0.87696   0.89745   0.91077   0.91792
 Alpha virt. eigenvalues --    0.92676   0.93899   0.95082   0.95608   0.96294
 Alpha virt. eigenvalues --    0.97073   0.98482   0.98645   0.98908   0.99533
 Alpha virt. eigenvalues --    1.00519   1.01002   1.01484   1.01847   1.02398
 Alpha virt. eigenvalues --    1.02956   1.04447   1.04708   1.06297   1.06884
 Alpha virt. eigenvalues --    1.07085   1.07851   1.08091   1.09498   1.10092
 Alpha virt. eigenvalues --    1.11066   1.11594   1.11751   1.12296   1.12945
 Alpha virt. eigenvalues --    1.13553   1.14314   1.15626   1.16029   1.16656
 Alpha virt. eigenvalues --    1.17712   1.18932   1.19183   1.19430   1.20602
 Alpha virt. eigenvalues --    1.21870   1.22731   1.23051   1.24378   1.24842
 Alpha virt. eigenvalues --    1.25688   1.26436   1.27389   1.29068   1.29240
 Alpha virt. eigenvalues --    1.30137   1.30223   1.31041   1.31513   1.32206
 Alpha virt. eigenvalues --    1.32865   1.33919   1.34888   1.35591   1.35958
 Alpha virt. eigenvalues --    1.36636   1.37202   1.38380   1.38571   1.39845
 Alpha virt. eigenvalues --    1.40602   1.41143   1.42498   1.43217   1.44232
 Alpha virt. eigenvalues --    1.44804   1.45304   1.46592   1.46826   1.47380
 Alpha virt. eigenvalues --    1.48876   1.49891   1.50834   1.50967   1.52410
 Alpha virt. eigenvalues --    1.54016   1.55760   1.56486   1.56967   1.59003
 Alpha virt. eigenvalues --    1.60194   1.62614   1.62734   1.63983   1.65864
 Alpha virt. eigenvalues --    1.66714   1.67189   1.68624   1.70424   1.71625
 Alpha virt. eigenvalues --    1.72834   1.74122   1.74739   1.76049   1.77328
 Alpha virt. eigenvalues --    1.79294   1.80800   1.83879   1.85378   1.86035
 Alpha virt. eigenvalues --    1.88337   1.91273   1.93039   1.94221   1.96361
 Alpha virt. eigenvalues --    1.99422   2.00876   2.03365   2.04120   2.05017
 Alpha virt. eigenvalues --    2.07286   2.08906   2.19199   2.21190   2.28158
 Alpha virt. eigenvalues --    2.29875   2.34225   2.36451   2.37770   2.39819
 Alpha virt. eigenvalues --    2.41606   2.43000   2.43431   2.44715   2.46375
 Alpha virt. eigenvalues --    2.47961   2.48251   2.50001   2.53001   2.54850
 Alpha virt. eigenvalues --    2.55072   2.55593   2.57800   2.58760   2.59829
 Alpha virt. eigenvalues --    2.60948   2.61633   2.62861   2.62927   2.64134
 Alpha virt. eigenvalues --    2.65026   2.66789   2.67403   2.68729   2.70247
 Alpha virt. eigenvalues --    2.71287   2.72181   2.72623   2.73807   2.75087
 Alpha virt. eigenvalues --    2.76241   2.76833   2.77916   2.78586   2.79959
 Alpha virt. eigenvalues --    2.79987   2.80577   2.81148   2.81828   2.83063
 Alpha virt. eigenvalues --    2.83487   2.83998   2.84802   2.85949   2.87565
 Alpha virt. eigenvalues --    2.87797   2.88626   2.89050   2.89297   2.90395
 Alpha virt. eigenvalues --    2.91483   2.92124   2.93615   2.94235   2.95115
 Alpha virt. eigenvalues --    2.95945   2.97214   2.97586   2.98066   2.98498
 Alpha virt. eigenvalues --    3.00246   3.00698   3.01324   3.02614   3.03333
 Alpha virt. eigenvalues --    3.03763   3.04961   3.05659   3.06267   3.07465
 Alpha virt. eigenvalues --    3.07607   3.08002   3.08997   3.09237   3.10503
 Alpha virt. eigenvalues --    3.11565   3.12358   3.14022   3.14219   3.14676
 Alpha virt. eigenvalues --    3.14977   3.15625   3.16342   3.17312   3.17811
 Alpha virt. eigenvalues --    3.19393   3.20668   3.20780   3.21092   3.22368
 Alpha virt. eigenvalues --    3.23022   3.23222   3.24046   3.24845   3.25261
 Alpha virt. eigenvalues --    3.26542   3.27567   3.28460   3.28930   3.29923
 Alpha virt. eigenvalues --    3.30686   3.31646   3.31900   3.32262   3.33494
 Alpha virt. eigenvalues --    3.34387   3.35158   3.36109   3.37087   3.37622
 Alpha virt. eigenvalues --    3.38555   3.38667   3.38864   3.40532   3.41152
 Alpha virt. eigenvalues --    3.41347   3.42879   3.44048   3.44686   3.45892
 Alpha virt. eigenvalues --    3.46838   3.47609   3.48144   3.48615   3.49645
 Alpha virt. eigenvalues --    3.50565   3.50952   3.52144   3.52610   3.53496
 Alpha virt. eigenvalues --    3.54149   3.55128   3.56076   3.56597   3.57994
 Alpha virt. eigenvalues --    3.58579   3.59714   3.59791   3.60985   3.61715
 Alpha virt. eigenvalues --    3.62865   3.63587   3.64132   3.64492   3.66206
 Alpha virt. eigenvalues --    3.66452   3.67748   3.68811   3.68935   3.70916
 Alpha virt. eigenvalues --    3.71167   3.72625   3.73743   3.74713   3.75143
 Alpha virt. eigenvalues --    3.76131   3.76492   3.77156   3.77668   3.77883
 Alpha virt. eigenvalues --    3.79400   3.80194   3.81286   3.82041   3.82530
 Alpha virt. eigenvalues --    3.84332   3.84994   3.85574   3.87188   3.87287
 Alpha virt. eigenvalues --    3.87528   3.88332   3.89970   3.90311   3.91817
 Alpha virt. eigenvalues --    3.92089   3.92261   3.92994   3.94157   3.95968
 Alpha virt. eigenvalues --    3.97102   3.97969   3.98026   3.98833   4.00001
 Alpha virt. eigenvalues --    4.01219   4.02305   4.03866   4.04234   4.04979
 Alpha virt. eigenvalues --    4.05539   4.06399   4.06595   4.07500   4.09020
 Alpha virt. eigenvalues --    4.09165   4.11453   4.13375   4.14322   4.14895
 Alpha virt. eigenvalues --    4.15777   4.16556   4.17327   4.18285   4.19131
 Alpha virt. eigenvalues --    4.19500   4.21526   4.21954   4.22900   4.24518
 Alpha virt. eigenvalues --    4.25592   4.26310   4.27180   4.28575   4.31404
 Alpha virt. eigenvalues --    4.32518   4.33918   4.35882   4.36391   4.38800
 Alpha virt. eigenvalues --    4.39542   4.40475   4.41987   4.43159   4.46025
 Alpha virt. eigenvalues --    4.47326   4.48101   4.49399   4.50933   4.51120
 Alpha virt. eigenvalues --    4.52978   4.54950   4.55046   4.57137   4.60443
 Alpha virt. eigenvalues --    4.62218   4.62913   4.65031   4.68575   4.68777
 Alpha virt. eigenvalues --    4.69354   4.71316   4.71988   4.74011   4.75746
 Alpha virt. eigenvalues --    4.76485   4.77608   4.79540   4.79973   4.80992
 Alpha virt. eigenvalues --    4.81821   4.83354   4.84777   4.85545   4.86942
 Alpha virt. eigenvalues --    4.88188   4.89499   4.89728   4.90230   4.92854
 Alpha virt. eigenvalues --    4.93432   4.94883   4.95259   4.96537   4.96999
 Alpha virt. eigenvalues --    4.97736   4.98160   4.99464   5.00247   5.00750
 Alpha virt. eigenvalues --    5.02431   5.03011   5.04425   5.05717   5.05983
 Alpha virt. eigenvalues --    5.06896   5.07473   5.09135   5.09827   5.10461
 Alpha virt. eigenvalues --    5.11756   5.15188   5.16184   5.17044   5.18205
 Alpha virt. eigenvalues --    5.18482   5.20164   5.21269   5.21923   5.22899
 Alpha virt. eigenvalues --    5.24222   5.25688   5.26879   5.27673   5.29226
 Alpha virt. eigenvalues --    5.30581   5.33039   5.33141   5.35938   5.37477
 Alpha virt. eigenvalues --    5.38327   5.38715   5.40687   5.41738   5.43268
 Alpha virt. eigenvalues --    5.45898   5.45949   5.48220   5.50334   5.52127
 Alpha virt. eigenvalues --    5.54278   5.54552   5.57826   5.59028   5.61262
 Alpha virt. eigenvalues --    5.65276   5.67206   5.68135   5.69656   5.72009
 Alpha virt. eigenvalues --    5.74871   5.78455   5.81181   5.82520   5.82875
 Alpha virt. eigenvalues --    5.87210   5.88281   5.91166   5.92973   5.94438
 Alpha virt. eigenvalues --    5.96095   6.00805   6.06852   6.07421   6.10798
 Alpha virt. eigenvalues --    6.14724   6.15699   6.19573   6.21085   6.23277
 Alpha virt. eigenvalues --    6.26187   6.29711   6.31313   6.33481   6.35873
 Alpha virt. eigenvalues --    6.37229   6.43614   6.56387   6.58452   6.70476
 Alpha virt. eigenvalues --    6.73596   6.80956   6.84611   6.86020   6.90045
 Alpha virt. eigenvalues --    6.93559   7.00225   7.05486   7.06817   7.08049
 Alpha virt. eigenvalues --    7.09161   7.11777   7.11915   7.18588   7.19771
 Alpha virt. eigenvalues --    7.25108   7.45572   7.46020   7.49199   7.57660
 Alpha virt. eigenvalues --    7.62996   7.64770   7.87740  24.41188  24.61121
 Alpha virt. eigenvalues --   24.68734  24.74312  24.88414  24.90703  24.94435
 Alpha virt. eigenvalues --   24.95664  25.00083  35.85249  36.13002  36.14501
 Alpha virt. eigenvalues --   36.40526  50.06022  50.09514  50.16813
          Condensed to atoms (all electrons):
               1          2          3          4          5          6
     1  O    8.104619   0.487712  -0.108171   0.030290  -0.006306  -0.000418
     2  C    0.487712   7.737014   0.018095  -1.343779   0.218856   0.001415
     3  N   -0.108171   0.018095   6.642506  -0.086761   0.015181  -0.005814
     4  C    0.030290  -1.343779  -0.086761   9.923793  -1.370274   0.212892
     5  C   -0.006306   0.218856   0.015181  -1.370274   5.959309   0.141612
     6  O   -0.000418   0.001415  -0.005814   0.212892   0.141612   7.776232
     7  O   -0.000681   0.030780   0.005079   0.019972   0.407015  -0.101516
     8  C   -0.037474   0.475707   0.025435  -2.060284   0.306959  -0.166874
     9  C   -0.040367   0.289862   0.004231  -0.262388   0.110832   0.057582
    10  C    0.051506  -1.080999  -0.014165   0.936655  -0.161748   0.009497
    11  N   -0.009537   0.037730   0.005796  -0.019499   0.009643  -0.000011
    12  C    0.003916   0.143930   0.004756   0.007790   0.009330   0.000459
    13  N    0.001994  -0.019049   0.005026   0.044294   0.000834   0.000235
    14  C   -0.041108  -0.925946   0.023447   0.030461  -0.005277  -0.000504
    15  C   -0.013445   0.245371  -0.045099  -0.013496  -0.009349  -0.000190
    16  N   -0.076417  -0.139888   0.026423  -0.011085   0.002268  -0.000012
    17  H    0.001172  -0.112639   0.350341   0.035730  -0.014568  -0.002498
    18  H   -0.005485  -0.031155  -0.031617   0.378453   0.001961  -0.009925
    19  H   -0.000148   0.003812   0.003807  -0.158234   0.107874   0.237355
    20  H    0.000731   0.025554   0.010594  -0.093731   0.011206  -0.005562
    21  H   -0.001267   0.008950   0.003847   0.022207  -0.034329   0.004402
    22  H   -0.011397  -0.033156  -0.002319   0.033511  -0.012887   0.001063
    23  H    0.000480   0.000212  -0.000329  -0.001285  -0.000760   0.000028
    24  H   -0.000239   0.007802  -0.001593  -0.016284   0.003834   0.000184
    25  H   -0.009104  -0.026312  -0.005083   0.011404  -0.006445   0.000029
    26  H    0.004205  -0.109489   0.008119   0.007464   0.000596   0.000134
    27  H    0.001803   0.003753  -0.000791  -0.004111   0.001213  -0.000013
    28  H   -0.008648   0.029653  -0.004179  -0.000760  -0.001511   0.000026
    29  H    0.010218  -0.005569  -0.001079   0.006656   0.000757  -0.000014
    30  H   -0.001000   0.013057  -0.000579  -0.001412  -0.000021   0.000001
    31  H    0.080775   0.009489  -0.004298   0.011590   0.002256  -0.000023
               7          8          9         10         11         12
     1  O   -0.000681  -0.037474  -0.040367   0.051506  -0.009537   0.003916
     2  C    0.030780   0.475707   0.289862  -1.080999   0.037730   0.143930
     3  N    0.005079   0.025435   0.004231  -0.014165   0.005796   0.004756
     4  C    0.019972  -2.060284  -0.262388   0.936655  -0.019499   0.007790
     5  C    0.407015   0.306959   0.110832  -0.161748   0.009643   0.009330
     6  O   -0.101516  -0.166874   0.057582   0.009497  -0.000011   0.000459
     7  O    8.042541  -0.088235   0.014737  -0.003502   0.000273   0.001115
     8  C   -0.088235   9.741230  -1.456277  -1.103199  -0.103122  -0.008629
     9  C    0.014737  -1.456277  10.794480  -4.337050   0.396085   0.215595
    10  C   -0.003502  -1.103199  -4.337050  13.098373  -0.504786  -1.087237
    11  N    0.000273  -0.103122   0.396085  -0.504786   7.173672   0.373224
    12  C    0.001115  -0.008629   0.215595  -1.087237   0.373224   5.653884
    13  N   -0.001901   0.009411   0.082696  -0.085450   0.016521   0.356320
    14  C   -0.019744  -0.059667   0.081944  -0.051981   0.030264  -0.075765
    15  C   -0.000995  -0.040240  -0.032637   0.110023  -0.023447   0.026069
    16  N   -0.000102   0.022974   0.090433  -0.173067  -0.013396   0.022304
    17  H    0.014098   0.017045  -0.014200  -0.003201   0.003635   0.002006
    18  H    0.004121   0.046255  -0.123914   0.091316  -0.003750  -0.006420
    19  H    0.026676   0.022225  -0.000025  -0.002674   0.000049   0.000100
    20  H   -0.002406   0.502898  -0.094174  -0.020908  -0.003045  -0.009600
    21  H    0.004208   0.251422   0.057365  -0.027466   0.003449   0.012247
    22  H   -0.000424  -0.069268  -0.127087   0.624745  -0.102186  -0.009552
    23  H    0.000045   0.007382   0.054969  -0.019268  -0.070601   0.450489
    24  H    0.000012  -0.038882  -0.048922   0.065122  -0.002274  -0.044866
    25  H    0.000557  -0.011553   0.008308  -0.005423  -0.004635  -0.008746
    26  H   -0.000382   0.002113  -0.000825   0.006888   0.000564  -0.002841
    27  H   -0.000148   0.002318  -0.000072   0.004038  -0.001504  -0.007329
    28  H    0.000223  -0.000317  -0.003312   0.003781  -0.001412   0.000074
    29  H    0.000031  -0.008919   0.011574  -0.057414   0.105493   0.006919
    30  H   -0.000007   0.003277   0.000205   0.004763  -0.004435  -0.003741
    31  H   -0.000083   0.001985  -0.016333   0.027823  -0.017592   0.001398
              13         14         15         16         17         18
     1  O    0.001994  -0.041108  -0.013445  -0.076417   0.001172  -0.005485
     2  C   -0.019049  -0.925946   0.245371  -0.139888  -0.112639  -0.031155
     3  N    0.005026   0.023447  -0.045099   0.026423   0.350341  -0.031617
     4  C    0.044294   0.030461  -0.013496  -0.011085   0.035730   0.378453
     5  C    0.000834  -0.005277  -0.009349   0.002268  -0.014568   0.001961
     6  O    0.000235  -0.000504  -0.000190  -0.000012  -0.002498  -0.009925
     7  O   -0.001901  -0.019744  -0.000995  -0.000102   0.014098   0.004121
     8  C    0.009411  -0.059667  -0.040240   0.022974   0.017045   0.046255
     9  C    0.082696   0.081944  -0.032637   0.090433  -0.014200  -0.123914
    10  C   -0.085450  -0.051981   0.110023  -0.173067  -0.003201   0.091316
    11  N    0.016521   0.030264  -0.023447  -0.013396   0.003635  -0.003750
    12  C    0.356320  -0.075765   0.026069   0.022304   0.002006  -0.006420
    13  N    6.186520   0.002536  -0.012097  -0.000805   0.002169   0.002190
    14  C    0.002536   6.113252  -0.252684   0.162545   0.024915  -0.016648
    15  C   -0.012097  -0.252684   5.769395  -0.016687  -0.007485  -0.003704
    16  N   -0.000805   0.162545  -0.016687   5.917133   0.002554  -0.001607
    17  H    0.002169   0.024915  -0.007485   0.002554   0.537944   0.007494
    18  H    0.002190  -0.016648  -0.003704  -0.001607   0.007494   0.578739
    19  H   -0.000083  -0.000538  -0.000089   0.000005   0.001894   0.001901
    20  H    0.002791  -0.000479   0.002283  -0.000475   0.000530  -0.009930
    21  H   -0.004018  -0.004251  -0.000180   0.000000  -0.001142   0.004029
    22  H    0.011885   0.001817   0.008825   0.001741  -0.000420  -0.004618
    23  H   -0.071410   0.001950  -0.001563   0.004503  -0.000254  -0.000007
    24  H    0.391253  -0.002035   0.001322  -0.000011  -0.000929  -0.000832
    25  H    0.007917   0.429340  -0.037702  -0.006021   0.003060  -0.000225
    26  H   -0.000937   0.501689  -0.071197   0.009076  -0.002287   0.000506
    27  H    0.001201  -0.008487   0.387779  -0.018099  -0.000320  -0.000128
    28  H   -0.000624  -0.055897   0.439867  -0.032035   0.000148   0.000451
    29  H    0.000853   0.019576  -0.038067   0.339611   0.000392   0.000759
    30  H    0.000269  -0.001439  -0.051530   0.384042   0.000023  -0.000125
    31  H    0.001052  -0.003461  -0.059240   0.330045  -0.000843   0.001857
              19         20         21         22         23         24
     1  O   -0.000148   0.000731  -0.001267  -0.011397   0.000480  -0.000239
     2  C    0.003812   0.025554   0.008950  -0.033156   0.000212   0.007802
     3  N    0.003807   0.010594   0.003847  -0.002319  -0.000329  -0.001593
     4  C   -0.158234  -0.093731   0.022207   0.033511  -0.001285  -0.016284
     5  C    0.107874   0.011206  -0.034329  -0.012887  -0.000760   0.003834
     6  O    0.237355  -0.005562   0.004402   0.001063   0.000028   0.000184
     7  O    0.026676  -0.002406   0.004208  -0.000424   0.000045   0.000012
     8  C    0.022225   0.502898   0.251422  -0.069268   0.007382  -0.038882
     9  C   -0.000025  -0.094174   0.057365  -0.127087   0.054969  -0.048922
    10  C   -0.002674  -0.020908  -0.027466   0.624745  -0.019268   0.065122
    11  N    0.000049  -0.003045   0.003449  -0.102186  -0.070601  -0.002274
    12  C    0.000100  -0.009600   0.012247  -0.009552   0.450489  -0.044866
    13  N   -0.000083   0.002791  -0.004018   0.011885  -0.071410   0.391253
    14  C   -0.000538  -0.000479  -0.004251   0.001817   0.001950  -0.002035
    15  C   -0.000089   0.002283  -0.000180   0.008825  -0.001563   0.001322
    16  N    0.000005  -0.000475   0.000000   0.001741   0.004503  -0.000011
    17  H    0.001894   0.000530  -0.001142  -0.000420  -0.000254  -0.000929
    18  H    0.001901  -0.009930   0.004029  -0.004618  -0.000007  -0.000832
    19  H    0.506909   0.000254  -0.001711  -0.000252   0.000000   0.000051
    20  H    0.000254   0.596067  -0.034485   0.002642  -0.000433   0.001852
    21  H   -0.001711  -0.034485   0.681598  -0.001233   0.000002  -0.001004
    22  H   -0.000252   0.002642  -0.001233   0.575966  -0.000992   0.001555
    23  H    0.000000  -0.000433   0.000002  -0.000992   0.520467  -0.002939
    24  H    0.000051   0.001852  -0.001004   0.001555  -0.002939   0.522528
    25  H   -0.000053   0.000601  -0.000371   0.000750  -0.002880  -0.000681
    26  H   -0.000028  -0.000301  -0.000135  -0.000189   0.000450  -0.000081
    27  H    0.000003   0.000000   0.000033   0.000368  -0.000731   0.000089
    28  H   -0.000002   0.000025   0.000028   0.000039  -0.000035  -0.000034
    29  H    0.000011  -0.000804   0.000347  -0.006229  -0.000207  -0.000687
    30  H   -0.000001   0.000040  -0.000004   0.000773  -0.000135   0.000039
    31  H    0.000006  -0.000123  -0.000010  -0.002108   0.000183   0.000114
              25         26         27         28         29         30
     1  O   -0.009104   0.004205   0.001803  -0.008648   0.010218  -0.001000
     2  C   -0.026312  -0.109489   0.003753   0.029653  -0.005569   0.013057
     3  N   -0.005083   0.008119  -0.000791  -0.004179  -0.001079  -0.000579
     4  C    0.011404   0.007464  -0.004111  -0.000760   0.006656  -0.001412
     5  C   -0.006445   0.000596   0.001213  -0.001511   0.000757  -0.000021
     6  O    0.000029   0.000134  -0.000013   0.000026  -0.000014   0.000001
     7  O    0.000557  -0.000382  -0.000148   0.000223   0.000031  -0.000007
     8  C   -0.011553   0.002113   0.002318  -0.000317  -0.008919   0.003277
     9  C    0.008308  -0.000825  -0.000072  -0.003312   0.011574   0.000205
    10  C   -0.005423   0.006888   0.004038   0.003781  -0.057414   0.004763
    11  N   -0.004635   0.000564  -0.001504  -0.001412   0.105493  -0.004435
    12  C   -0.008746  -0.002841  -0.007329   0.000074   0.006919  -0.003741
    13  N    0.007917  -0.000937   0.001201  -0.000624   0.000853   0.000269
    14  C    0.429340   0.501689  -0.008487  -0.055897   0.019576  -0.001439
    15  C   -0.037702  -0.071197   0.387779   0.439867  -0.038067  -0.051530
    16  N   -0.006021   0.009076  -0.018099  -0.032035   0.339611   0.384042
    17  H    0.003060  -0.002287  -0.000320   0.000148   0.000392   0.000023
    18  H   -0.000225   0.000506  -0.000128   0.000451   0.000759  -0.000125
    19  H   -0.000053  -0.000028   0.000003  -0.000002   0.000011  -0.000001
    20  H    0.000601  -0.000301   0.000000   0.000025  -0.000804   0.000040
    21  H   -0.000371  -0.000135   0.000033   0.000028   0.000347  -0.000004
    22  H    0.000750  -0.000189   0.000368   0.000039  -0.006229   0.000773
    23  H   -0.002880   0.000450  -0.000731  -0.000035  -0.000207  -0.000135
    24  H   -0.000681  -0.000081   0.000089  -0.000034  -0.000687   0.000039
    25  H    0.638293  -0.050617  -0.009203   0.006948   0.003089  -0.000061
    26  H   -0.050617   0.610292   0.001555  -0.007656   0.000099  -0.000634
    27  H   -0.009203   0.001555   0.593648  -0.041037  -0.007276   0.000858
    28  H    0.006948  -0.007656  -0.041037   0.574140   0.005665   0.000508
    29  H    0.003089   0.000099  -0.007276   0.005665   0.443919  -0.033612
    30  H   -0.000061  -0.000634   0.000858   0.000508  -0.033612   0.528408
    31  H   -0.004708   0.003954   0.004380  -0.007440  -0.012949  -0.023982
              31
     1  O    0.080775
     2  C    0.009489
     3  N   -0.004298
     4  C    0.011590
     5  C    0.002256
     6  O   -0.000023
     7  O   -0.000083
     8  C    0.001985
     9  C   -0.016333
    10  C    0.027823
    11  N   -0.017592
    12  C    0.001398
    13  N    0.001052
    14  C   -0.003461
    15  C   -0.059240
    16  N    0.330045
    17  H   -0.000843
    18  H    0.001857
    19  H    0.000006
    20  H   -0.000123
    21  H   -0.000010
    22  H   -0.002108
    23  H    0.000183
    24  H    0.000114
    25  H   -0.004708
    26  H    0.003954
    27  H    0.004380
    28  H   -0.007440
    29  H   -0.012949
    30  H   -0.023982
    31  H    0.502541
 Mulliken charges:
               1
     1  O   -0.408210
     2  C    0.039223
     3  N    0.159196
     4  C   -0.269781
     5  C    0.311940
     6  O   -0.149775
     7  O   -0.351356
     8  C   -0.185698
     9  C    0.286686
    10  C   -0.294993
    11  N   -0.271166
    12  C   -0.027198
    13  N    0.068406
    14  C    0.102174
    15  C   -0.259811
    16  N    0.174052
    17  H    0.155637
    18  H    0.130057
    19  H    0.250906
    20  H    0.118388
    21  H    0.057471
    22  H    0.118638
    23  H    0.132669
    24  H    0.166537
    25  H    0.079526
    26  H    0.089896
    27  H    0.096210
    28  H    0.103322
    29  H    0.216855
    30  H    0.186456
    31  H    0.173744
 Sum of Mulliken charges =   1.00000
 Mulliken charges with hydrogens summed into heavy atoms:
               1
     1  O   -0.408210
     2  C    0.039223
     3  N    0.314832
     4  C   -0.139723
     5  C    0.311940
     6  O    0.101131
     7  O   -0.351356
     8  C   -0.009840
     9  C    0.286686
    10  C   -0.176355
    11  N   -0.271166
    12  C    0.105470
    13  N    0.234944
    14  C    0.271596
    15  C   -0.060279
    16  N    0.751107
 Electronic spatial extent (au):  <R**2>=           3683.8568
 Charge=              1.0000 electrons
 Dipole moment (field-independent basis, Debye):
    X=              2.4060    Y=              0.2629    Z=             -3.2162  Tot=              4.0251
 Quadrupole moment (field-independent basis, Debye-Ang):
   XX=            -85.4611   YY=            -74.6144   ZZ=            -52.7994
   XY=             -0.0570   XZ=            -12.0052   YZ=            -16.2742
 Traceless Quadrupole moment (field-independent basis, Debye-Ang):
   XX=            -14.5028   YY=             -3.6562   ZZ=             18.1589
   XY=             -0.0570   XZ=            -12.0052   YZ=            -16.2742
 Octapole moment (field-independent basis, Debye-Ang**2):
  XXX=             35.4421  YYY=             -3.8469  ZZZ=            -89.0030  XYY=             38.2690
  XXY=             12.2473  XXZ=            -55.5737  XZZ=            -22.1002  YZZ=             45.8872
  YYZ=            -56.7777  XYZ=              3.9694
 Hexadecapole moment (field-independent basis, Debye-Ang**3):
 XXXX=           -563.3417 YYYY=          -1054.9082 ZZZZ=          -1881.9104 XXXY=           -121.5534
 XXXZ=            126.9226 YYYX=           -163.3375 YYYZ=            -14.1330 ZZZX=            -83.4892
 ZZZY=            -91.2430 XXYY=           -278.9102 XXZZ=           -591.8122 YYZZ=           -582.3640
 XXYZ=             -7.4027 YYXZ=             22.6681 ZZXY=            -68.7349
 N-N= 1.199529823213D+03 E-N=-4.243338112645D+03  KE= 7.933209883909D+02
 Calling FoFJK, ICntrl=      2127 FMM=F ISym2X=0 I1Cent= 0 IOpClX= 0 NMat=1 NMatS=1 NMatT=0.
 -------------------------------------------------------------------
 Center     Atomic                   Forces (Hartrees/Bohr)
 Number     Number              X              Y              Z
 -------------------------------------------------------------------
      1        8           0.009850949   -0.004006350    0.003587590
      2        6          -0.005275933    0.001502710   -0.000397930
      3        7          -0.000862057    0.001474085   -0.001824019
      4        6           0.000682460    0.001351005   -0.000022600
      5        6           0.007985918   -0.000959938    0.001375861
      6        8           0.005885830    0.000268212    0.002203775
      7        8          -0.013199207    0.000179369   -0.002823246
      8        6          -0.000687801   -0.001149042    0.000023256
      9        6           0.000262327    0.001129410   -0.003669942
     10        6           0.001295589   -0.000878370    0.002428467
     11        7           0.002531893   -0.003983181    0.006022780
     12        6          -0.002202106    0.001241863    0.000272048
     13        7          -0.001296946    0.000498436   -0.002038827
     14        6           0.000157370    0.000793355   -0.000248326
     15        6           0.000393530    0.000131913   -0.000448496
     16        7          -0.001384139   -0.000209368    0.000010591
     17        1          -0.002099880    0.000830506   -0.002060328
     18        1           0.001866680   -0.001970650    0.001030466
     19        1          -0.002276193    0.000057578   -0.002385836
     20        1           0.002723264    0.000312196   -0.000959207
     21        1          -0.001390135    0.001781196   -0.001591872
     22        1           0.001946442   -0.002168548    0.000210151
     23        1          -0.001850612    0.001256066    0.001506646
     24        1          -0.001329005    0.001823996   -0.001745671
     25        1          -0.000999110    0.002718561    0.000361682
     26        1          -0.002270848   -0.001597517   -0.000690845
     27        1          -0.001836602    0.000711716    0.001921007
     28        1           0.000527004   -0.002722185   -0.000089972
     29        1           0.000528358    0.003765783   -0.000206841
     30        1           0.000702291   -0.001117276    0.003128446
     31        1           0.001620667   -0.001065528   -0.002878807
 -------------------------------------------------------------------
 Cartesian Forces:  Max     0.013199207 RMS     0.002725750

 GradGradGradGradGradGradGradGradGradGradGradGradGradGradGradGradGradGrad
 Berny optimization.
 FormGI is forming the generalized inverse of G from B-inverse, IUseBI=4.
 Internal  Forces:  Max     0.013454820 RMS     0.002265303
 Search for a local minimum.
 Step number   1 out of a maximum of  167
 All quantities printed in internal units (Hartrees-Bohrs-Radians)
 Mixed Optimization -- RFO/linear search
 Second derivative matrix not updated -- first step.
 ITU=  0
     Eigenvalues ---    0.00123   0.00203   0.00235   0.00468   0.00562
     Eigenvalues ---    0.00711   0.01138   0.01308   0.01440   0.01993
     Eigenvalues ---    0.02217   0.02456   0.02731   0.03093   0.03963
     Eigenvalues ---    0.04165   0.04255   0.04332   0.04374   0.04522
     Eigenvalues ---    0.04658   0.05141   0.05393   0.05506   0.05781
     Eigenvalues ---    0.05870   0.06329   0.06735   0.07320   0.07649
     Eigenvalues ---    0.07804   0.08256   0.10438   0.11204   0.11733
     Eigenvalues ---    0.11756   0.11936   0.12186   0.12524   0.14679
     Eigenvalues ---    0.14974   0.15396   0.15626   0.16526   0.18941
     Eigenvalues ---    0.19788   0.20961   0.21643   0.22418   0.22956
     Eigenvalues ---    0.23566   0.24197   0.24303   0.24881   0.27020
     Eigenvalues ---    0.28151   0.29493   0.32108   0.33160   0.33500
     Eigenvalues ---    0.33596   0.34159   0.34187   0.34403   0.34622
     Eigenvalues ---    0.34653   0.35019   0.35259   0.36395   0.37583
     Eigenvalues ---    0.37736   0.38147   0.41031   0.44057   0.44181
     Eigenvalues ---    0.45055   0.46147   0.47159   0.47360   0.50130
     Eigenvalues ---    0.50944   0.55623   0.57046   0.75914   0.88429
     Eigenvalues ---    0.88890   1.97763
 RFO step:  Lambda=-1.50407669D-03 EMin= 1.23492013D-03
 Linear search not attempted -- first point.
 Iteration  1 RMS(Cart)=  0.02194836 RMS(Int)=  0.00018894
 Iteration  2 RMS(Cart)=  0.00034151 RMS(Int)=  0.00002552
 Iteration  3 RMS(Cart)=  0.00000006 RMS(Int)=  0.00002552
 Variable       Old X    -DE/DX   Delta X   Delta X   Delta X     New X
                                 (Linear)    (Quad)   (Total)
    R1        2.34284  -0.01118   0.00000  -0.01560  -0.01560   2.32724
    R2        2.54954  -0.00424   0.00000  -0.00626  -0.00626   2.54328
    R3        2.89800  -0.00255   0.00000  -0.00835  -0.00835   2.88965
    R4        2.74709  -0.00048   0.00000  -0.00591  -0.00591   2.74118
    R5        1.91508  -0.00280   0.00000  -0.00672  -0.00672   1.90836
    R6        2.87843  -0.00203   0.00000  -0.00602  -0.00602   2.87242
    R7        2.99673   0.00003   0.00000  -0.00440  -0.00440   2.99233
    R8        2.06118  -0.00283   0.00000  -0.00793  -0.00793   2.05324
    R9        2.52902  -0.00296   0.00000  -0.00371  -0.00371   2.52531
   R10        2.28882  -0.01345   0.00000  -0.01535  -0.01535   2.27347
   R11        1.84058  -0.00302   0.00000  -0.00709  -0.00709   1.83349
   R12        2.82873  -0.00273   0.00000  -0.00875  -0.00875   2.81999
   R13        2.06529  -0.00289   0.00000  -0.00818  -0.00818   2.05712
   R14        2.07009  -0.00276   0.00000  -0.00792  -0.00792   2.06217
   R15        2.59411  -0.00657   0.00000  -0.01117  -0.01116   2.58296
   R16        2.62154  -0.00296   0.00000  -0.00694  -0.00693   2.61461
   R17        2.61207  -0.00305   0.00000  -0.00585  -0.00585   2.60623
   R18        2.04091  -0.00289   0.00000  -0.00723  -0.00723   2.03369
   R19        2.50312  -0.00628   0.00000  -0.01116  -0.01117   2.49195
   R20        2.56778  -0.00500   0.00000  -0.00702  -0.00703   2.56076
   R21        2.04243  -0.00270   0.00000  -0.00693  -0.00693   2.03551
   R22        1.91048  -0.00284   0.00000  -0.00604  -0.00604   1.90444
   R23        2.89833  -0.00161   0.00000  -0.00897  -0.00897   2.88936
   R24        2.06888  -0.00291   0.00000  -0.00789  -0.00789   2.06098
   R25        2.07136  -0.00283   0.00000  -0.00794  -0.00794   2.06341
   R26        2.85445  -0.00180   0.00000  -0.00430  -0.00430   2.85014
   R27        2.06134  -0.00275   0.00000  -0.00761  -0.00761   2.05373
   R28        2.06235  -0.00276   0.00000  -0.00791  -0.00791   2.05444
   R29        1.99462  -0.00380   0.00000  -0.01418  -0.01418   1.98044
   R30        1.93049  -0.00339   0.00000  -0.00702  -0.00702   1.92347
   R31        1.96909  -0.00336   0.00000  -0.01320  -0.01320   1.95588
    A1        2.14795  -0.00036   0.00000   0.00404   0.00403   2.15198
    A2        2.11034   0.00000   0.00000  -0.00265  -0.00266   2.10767
    A3        2.02172   0.00046   0.00000  -0.00059  -0.00060   2.02112
    A4        2.14188   0.00225   0.00000   0.00490   0.00481   2.14669
    A5        2.11277  -0.00217   0.00000  -0.01326  -0.01334   2.09943
    A6        2.02815  -0.00005   0.00000   0.00770   0.00760   2.03575
    A7        1.88497  -0.00036   0.00000   0.00852   0.00852   1.89349
    A8        1.95849   0.00412   0.00000   0.00376   0.00376   1.96225
    A9        1.88452  -0.00121   0.00000   0.00009   0.00011   1.88463
   A10        1.90326  -0.00315   0.00000  -0.00305  -0.00309   1.90016
   A11        1.92736   0.00046   0.00000  -0.00673  -0.00675   1.92061
   A12        1.90531   0.00017   0.00000  -0.00266  -0.00268   1.90263
   A13        1.94560   0.00110   0.00000  -0.00084  -0.00084   1.94476
   A14        2.15105   0.00069   0.00000   0.00446   0.00446   2.15551
   A15        2.18507  -0.00178   0.00000  -0.00333  -0.00334   2.18173
   A16        1.88697   0.00243   0.00000   0.01509   0.01509   1.90206
   A17        1.94846   0.00722   0.00000   0.00423   0.00423   1.95269
   A18        1.88623  -0.00205   0.00000  -0.00207  -0.00206   1.88416
   A19        1.90716  -0.00208   0.00000   0.00041   0.00040   1.90756
   A20        1.94994  -0.00209   0.00000  -0.00305  -0.00304   1.94689
   A21        1.90898  -0.00232   0.00000   0.00042   0.00042   1.90939
   A22        1.86062   0.00101   0.00000  -0.00012  -0.00012   1.86050
   A23        2.29810   0.00111   0.00000  -0.00126  -0.00132   2.29678
   A24        2.14125  -0.00084   0.00000   0.00314   0.00310   2.14435
   A25        1.81913  -0.00012   0.00000   0.00135   0.00135   1.82047
   A26        1.93779  -0.00071   0.00000  -0.00220  -0.00221   1.93559
   A27        2.22047   0.00033   0.00000   0.00123   0.00119   2.22166
   A28        2.12323   0.00042   0.00000   0.00175   0.00171   2.12494
   A29        1.83903   0.00124   0.00000   0.00262   0.00262   1.84166
   A30        1.93651  -0.00081   0.00000  -0.00141  -0.00141   1.93511
   A31        2.19888   0.00045   0.00000   0.00151   0.00151   2.20039
   A32        2.14770   0.00036   0.00000  -0.00008  -0.00008   2.14762
   A33        1.89117   0.00041   0.00000  -0.00035  -0.00035   1.89082
   A34        2.19541   0.00000   0.00000   0.00157   0.00154   2.19695
   A35        2.19367  -0.00043   0.00000  -0.00043  -0.00046   2.19321
   A36        1.96764   0.00275   0.00000   0.00193   0.00192   1.96957
   A37        1.89579  -0.00090   0.00000   0.00372   0.00371   1.89950
   A38        1.92574  -0.00116   0.00000  -0.00559  -0.00559   1.92015
   A39        1.92592  -0.00033   0.00000   0.00048   0.00048   1.92640
   A40        1.88456  -0.00083   0.00000   0.00062   0.00062   1.88518
   A41        1.86135   0.00033   0.00000  -0.00143  -0.00143   1.85992
   A42        1.94492   0.00228   0.00000   0.00548   0.00548   1.95039
   A43        1.93400  -0.00082   0.00000  -0.00195  -0.00194   1.93205
   A44        1.93928  -0.00054   0.00000   0.00086   0.00086   1.94014
   A45        1.89462  -0.00064   0.00000  -0.00248  -0.00248   1.89214
   A46        1.84891  -0.00058   0.00000  -0.00025  -0.00026   1.84864
   A47        1.89939   0.00028   0.00000  -0.00179  -0.00179   1.89760
   A48        2.00334  -0.00038   0.00000  -0.00044  -0.00047   2.00287
   A49        1.95263  -0.00014   0.00000  -0.00240  -0.00241   1.95022
   A50        1.81222   0.00114   0.00000   0.01291   0.01289   1.82512
   A51        1.91118   0.00007   0.00000  -0.00564  -0.00565   1.90552
   A52        1.83986  -0.00013   0.00000   0.00432   0.00428   1.84414
   A53        1.93916  -0.00054   0.00000  -0.00786  -0.00785   1.93131
    D1        0.22448  -0.00024   0.00000  -0.00073  -0.00080   0.22368
    D2       -2.94826   0.00107   0.00000  -0.02675  -0.02665  -2.97491
    D3       -2.83208  -0.00162   0.00000  -0.01137  -0.01148  -2.84356
    D4        0.27836  -0.00032   0.00000  -0.03739  -0.03732   0.24104
    D5       -0.12909  -0.00009   0.00000  -0.03559  -0.03558  -0.16467
    D6       -2.26919  -0.00088   0.00000  -0.04015  -0.04015  -2.30933
    D7        1.97947  -0.00010   0.00000  -0.03745  -0.03744   1.94204
    D8        2.92945   0.00124   0.00000  -0.02485  -0.02485   2.90460
    D9        0.78936   0.00046   0.00000  -0.02940  -0.02942   0.75994
   D10       -1.24517   0.00123   0.00000  -0.02670  -0.02671  -1.27188
   D11       -2.55475   0.00131   0.00000   0.01208   0.01203  -2.54272
   D12        1.63015   0.00294   0.00000   0.00793   0.00785   1.63800
   D13       -0.47040   0.00099   0.00000   0.00886   0.00880  -0.46160
   D14        0.61659   0.00011   0.00000   0.03727   0.03734   0.65393
   D15       -1.48170   0.00173   0.00000   0.03312   0.03317  -1.44853
   D16        2.70094  -0.00022   0.00000   0.03405   0.03411   2.73505
   D17        2.86058  -0.00159   0.00000  -0.01445  -0.01446   2.84612
   D18       -0.33651  -0.00136   0.00000  -0.00908  -0.00908  -0.34559
   D19       -1.28998   0.00130   0.00000  -0.00649  -0.00651  -1.29649
   D20        1.79612   0.00154   0.00000  -0.00112  -0.00113   1.79499
   D21        0.80355  -0.00018   0.00000  -0.01581  -0.01580   0.78775
   D22       -2.39354   0.00005   0.00000  -0.01044  -0.01042  -2.40396
   D23       -0.54970  -0.00014   0.00000   0.01426   0.01425  -0.53545
   D24       -2.70083  -0.00079   0.00000   0.01676   0.01676  -2.68407
   D25        1.56423   0.00023   0.00000   0.01781   0.01780   1.58204
   D26       -2.63734  -0.00018   0.00000   0.00328   0.00328  -2.63406
   D27        1.49471  -0.00083   0.00000   0.00578   0.00579   1.50050
   D28       -0.52341   0.00019   0.00000   0.00683   0.00683  -0.51658
   D29        1.53875   0.00107   0.00000   0.01498   0.01497   1.55373
   D30       -0.61238   0.00042   0.00000   0.01748   0.01748  -0.59490
   D31       -2.63050   0.00144   0.00000   0.01853   0.01853  -2.61198
   D32        3.08796   0.00020   0.00000   0.00247   0.00246   3.09043
   D33        0.00316  -0.00014   0.00000  -0.00332  -0.00331  -0.00014
   D34       -1.08790  -0.00065   0.00000  -0.00817  -0.00817  -1.09607
   D35        1.77724   0.00017   0.00000   0.00989   0.00990   1.78713
   D36        1.02660   0.00033   0.00000  -0.00999  -0.00999   1.01661
   D37       -2.39144   0.00115   0.00000   0.00807   0.00807  -2.38337
   D38        3.08241  -0.00117   0.00000  -0.01172  -0.01172   3.07069
   D39       -0.33564  -0.00035   0.00000   0.00635   0.00635  -0.32929
   D40        2.86366   0.00087   0.00000   0.01549   0.01547   2.87912
   D41       -0.21576   0.00017   0.00000   0.00109   0.00108  -0.21469
   D42       -0.03866   0.00029   0.00000  -0.00045  -0.00045  -0.03911
   D43       -3.11808  -0.00041   0.00000  -0.01485  -0.01484  -3.13292
   D44       -2.91390  -0.00100   0.00000  -0.01234  -0.01237  -2.92626
   D45        0.30647  -0.00073   0.00000  -0.02286  -0.02288   0.28359
   D46        0.01578  -0.00016   0.00000   0.00104   0.00104   0.01682
   D47       -3.04704   0.00011   0.00000  -0.00948  -0.00948  -3.05651
   D48        0.04694  -0.00022   0.00000  -0.00018  -0.00018   0.04676
   D49        3.13038   0.00043   0.00000   0.01328   0.01327  -3.13954
   D50       -0.03606   0.00013   0.00000   0.00085   0.00085  -0.03521
   D51        3.09145  -0.00002   0.00000   0.00220   0.00219   3.09364
   D52        0.01316   0.00003   0.00000  -0.00121  -0.00121   0.01195
   D53        3.07608  -0.00021   0.00000   0.00941   0.00939   3.08547
   D54       -3.11484   0.00017   0.00000  -0.00253  -0.00252  -3.11736
   D55       -0.05192  -0.00007   0.00000   0.00809   0.00808  -0.04384
   D56       -0.75893  -0.00035   0.00000   0.00177   0.00176  -0.75716
   D57       -2.87063  -0.00051   0.00000   0.00253   0.00253  -2.86810
   D58        1.29862   0.00005   0.00000   0.00554   0.00554   1.30417
   D59        1.36419   0.00018   0.00000   0.00824   0.00824   1.37243
   D60       -0.74751   0.00001   0.00000   0.00900   0.00900  -0.73850
   D61       -2.86144   0.00057   0.00000   0.01201   0.01202  -2.84943
   D62       -2.89086  -0.00009   0.00000   0.00714   0.00714  -2.88372
   D63        1.28063  -0.00025   0.00000   0.00791   0.00791   1.28854
   D64       -0.83331   0.00031   0.00000   0.01092   0.01092  -0.82239
   D65       -0.94332  -0.00011   0.00000   0.00106   0.00106  -0.94226
   D66       -3.13486   0.00022   0.00000   0.01124   0.01123  -3.12363
   D67        1.05567   0.00025   0.00000   0.01405   0.01407   1.06973
   D68        1.19123  -0.00010   0.00000   0.00048   0.00047   1.19171
   D69       -1.00031   0.00023   0.00000   0.01066   0.01065  -0.98966
   D70       -3.09296   0.00026   0.00000   0.01347   0.01348  -3.07948
   D71       -3.05457  -0.00039   0.00000  -0.00294  -0.00295  -3.05753
   D72        1.03707  -0.00006   0.00000   0.00723   0.00723   1.04430
   D73       -1.05559  -0.00003   0.00000   0.01004   0.01006  -1.04553
         Item               Value     Threshold  Converged?
 Maximum Force            0.013455     0.000450     NO 
 RMS     Force            0.002265     0.000300     NO 
 Maximum Displacement     0.086775     0.001800     NO 
 RMS     Displacement     0.021969     0.001200     NO 
 Predicted change in Energy=-7.686120D-04
 GradGradGradGradGradGradGradGradGradGradGradGradGradGradGradGradGradGrad

                          Input orientation:                          
 ---------------------------------------------------------------------
 Center     Atomic      Atomic             Coordinates (Angstroms)
 Number     Number       Type             X           Y           Z
 ---------------------------------------------------------------------
      1          8           0       -0.705499    1.817808   -0.142627
      2          6           0        0.351458    1.277546    0.185412
      3          7           0        0.501773    0.580329    1.326725
      4          6           0       -0.616667    0.164672    2.151633
      5          6           0       -0.183656    0.207695    3.608034
      6          8           0       -1.236489    0.194729    4.430935
      7          8           0        0.966952    0.197836    3.959280
      8          6           0       -1.110045   -1.299989    1.807049
      9          6           0       -0.892795   -1.636206    0.369468
     10          6           0       -1.401459   -1.092089   -0.776591
     11          7           0       -0.675401   -1.495980   -1.877400
     12          6           0        0.235305   -2.329035   -1.413116
     13          7           0        0.148149   -2.437358   -0.065174
     14          6           0        1.557508    1.283510   -0.754621
     15          6           0        1.217792    1.800359   -2.152926
     16          7           0       -0.086327    1.234231   -2.656448
     17          1           0        1.419091    0.278578    1.622174
     18          1           0       -1.433436    0.861630    1.985244
     19          1           0       -0.920061    0.176122    5.347939
     20          1           0       -2.161242   -1.372966    2.080298
     21          1           0       -0.575023   -2.017055    2.431873
     22          1           0       -2.222913   -0.402108   -0.862057
     23          1           0        0.955381   -2.873365   -2.000850
     24          1           0        0.705148   -3.047011    0.512505
     25          1           0        1.964403    0.273244   -0.811704
     26          1           0        2.348197    1.914854   -0.344150
     27          1           0        2.000991    1.539304   -2.859719
     28          1           0        1.093713    2.880418   -2.152713
     29          1           0       -0.146917    0.188146   -2.637909
     30          1           0       -0.304004    1.565213   -3.594050
     31          1           0       -0.793825    1.567146   -1.978318
 ---------------------------------------------------------------------
                    Distance matrix (angstroms):
                    1          2          3          4          5
     1  O    0.000000
     2  C    1.231523   0.000000
     3  N    2.268888   1.345846   0.000000
     4  C    2.829201   2.458004   1.450570   0.000000
     5  C    4.114881   3.625641   2.411025   1.520017   0.000000
     6  O    4.881988   4.660315   3.578598   2.362265   1.336335
     7  O    4.716677   3.973247   2.700563   2.403443   1.203068
     8  C    3.699399   3.377778   2.522750   1.583475   2.524847
     9  C    3.496789   3.173640   2.788223   2.548631   3.793567
    10  C    3.058393   3.100538   3.292903   3.281745   4.732591
    11  N    3.740526   3.605840   3.995399   4.358248   5.764920
    12  C    4.437968   3.946671   4.005263   4.433044   5.641142
    13  N    4.340639   3.728893   3.341985   3.502819   4.538596
    14  C    2.404415   1.529135   2.437424   3.798045   4.818899
    15  C    2.782203   2.547880   3.756211   4.956808   6.139161
    16  N    2.653908   2.875708   4.079107   4.954075   6.348778
    17  H    3.161903   2.049893   1.009859   2.106564   2.552932
    18  H    2.443768   2.568702   2.063447   1.086529   2.150122
    19  H    5.734761   5.429695   4.284292   3.210693   1.889592
    20  H    4.152303   4.114544   3.387460   2.180626   2.956909
    21  H    4.620742   4.093819   3.021134   2.200047   2.546769
    22  H    2.783550   3.247432   3.630408   3.461733   4.950973
[...]
 029227,-0.00013678,0.00008677,0.00003538,-0.00019265,-0.00021601,-0.00
 005393,0.00003906,0.00002314,-0.00004074,0.00039174,-0.00032565,-0.000
 01617,0.00000002,0.00599772,-0.01574026,-0.05166040,-0.01086635,0.0325
 4867,-0.00048043,0.00048568,-0.00036133,0.00110395,0.00055071,-0.00012
 736,-0.00106976,-0.00001533,-0.00010484,0.00014527,0.00000422,0.000001
 81,0.00000953,0.00002037,0.00008126,0.00001177,0.00000660,0.00004948,-
 0.00001381,-0.00003714,-0.00000042,-0.00004297,-0.00003331,-0.00010014
 ,-0.00001715,0.00010475,0.00012727,0.00001421,-0.00792961,0.01148253,0
 .05807579,-0.00135891,0.00240901,0.00340960,-0.01964006,-0.01538678,-0
 .01127504,0.00122582,0.00122021,0.00031978,-0.00018722,0.00048357,0.00
 085449,-0.00020930,-0.00001982,0.00004859,0.00001970,-0.00000357,0.000
 05592,0.00001802,0.00004058,-0.00000781,0.00022057,0.00010443,-0.00005
 893,-0.00000117,-0.00000743,-0.00007268,-0.00003152,-0.00000762,0.0000
 0566,-0.00000255,0.00010144,0.00002575,0.00010715,-0.00001333,0.000000
 65,0.00001434,0.00000593,0.00005571,-0.17893417,-0.11458318,-0.0714572
 6,-0.00592871,-0.00388029,-0.00372070,0.00086461,0.00067462,-0.0011342
 0,0.00001410,-0.00067853,0.00003074,0.00003560,0.00000255,-0.00000184,
 -0.00001052,-0.00001156,0.00001563,0.00000972,0.00004548,0.00000887,-0
 .00000254,-0.00000115,-0.00000149,0.00001345,0.00000700,-0.00000069,-0
 .00000645,-0.00002989,-0.00001167,0.00001199,-0.00001038,0.00000583,0.
 01010096,0.00734730,0.00516320,0.19318287,0.00111268,-0.00132955,-0.00
 070762,0.00140942,0.00081674,0.00177943,-0.00048802,0.00080240,0.00077
 436,0.00012557,-0.00009956,0.00016138,-0.00020529,0.00002087,-0.000064
 86,0.00007295,-0.00000673,0.00000110,0.00013709,-0.00001962,0.00002397
 ,-0.00000016,0.00000004,-0.00005261,-0.00001111,0.00004367,0.00000617,
 0.00010507,-0.00004480,-0.00004060,-0.00004368,-0.00010496,-0.00002045
 ,-0.00021126,0.00009072,-0.00000154,0.00003013,-0.00000298,-0.00011881
 ,-0.11366547,-0.13709461,-0.05955398,0.00896142,0.00621775,0.00392270,
 0.00206883,0.00008375,0.00384709,-0.00042039,-0.00041926,0.00028836,0.
 00003739,0.00001072,-0.00000982,-0.00000848,0.00000390,0.00000644,-0.0
 0000261,0.00000225,0.00000788,-0.00000536,-0.00000997,0.00000619,-0.00
 001734,-0.00000223,0.00001179,0.00001166,0.00004832,0.00002305,-0.0000
 3864,0.00000477,-0.00002745,-0.02185129,-0.01775208,-0.01142392,0.1220
 6578,0.14772643,0.00145966,-0.00243561,-0.00196221,0.01293081,0.014853
 47,0.01238339,-0.00038130,-0.00094440,-0.00232571,-0.00047358,-0.00028
 065,-0.00008628,0.00036967,0.00003765,0.00019756,-0.00004321,0.0000127
 5,-0.00017313,-0.00014776,-0.00005293,-0.00013484,0.00001400,-0.000079
 42,-0.00006688,-0.00002167,-0.00005580,-0.00000377,0.00003136,0.000009
 77,-0.00007369,-0.00001212,-0.00028044,0.00012921,-0.00017379,0.000075
 48,-0.00008234,0.00008954,-0.00003300,0.00012637,-0.06653269,-0.055252
 55,-0.08243710,-0.02169932,-0.01776353,-0.01027110,-0.00145524,0.00231
 552,-0.00657144,0.00032572,0.00039409,-0.00021059,-0.00001755,-0.00001
 255,0.00000844,0.00002235,0.00000981,-0.00001267,0.00001015,0.00004697
 ,0.00000405,0.00000846,0.00003245,0.00000660,-0.00000807,-0.00000142,-
 0.00002096,0.00000068,0.00000173,0.00000274,0.00000401,-0.00000802,0.0
 0000449,-0.00103462,-0.00140782,-0.00070095,0.07705428,0.06119560,0.09
 125068,0.00098762,-0.00022687,0.00078805,-0.00196956,0.00110256,-0.002
 07361,0.00097866,0.00011894,-0.00037872,-0.00018799,0.00007941,-0.0000
 9460,0.00005488,0.00003512,0.00007782,0.00001764,-0.00000250,-0.000077
 52,-0.00000277,0.00000247,-0.00004071,0.00003004,-0.00003087,-0.000057
 70,-0.00001189,-0.00003206,-0.00005437,-0.00003251,0.00002524,-0.00006
 386,-0.00000997,-0.00024655,0.00009045,-0.00007980,0.00002428,0.000005
 04,0.00011211,-0.00003992,0.00011013,0.00878877,-0.00167097,-0.0055547
 0,-0.18620886,0.04713554,0.12283318,-0.02843950,0.00528749,0.01683833,
 0.00002946,-0.00003534,0.00005095,0.00000455,-0.00000312,0.00000123,0.
 00000231,-0.00000443,0.00000147,0.00000428,0.00002529,0.00000571,0.000
 00163,0.00000951,0.00000754,0.00004935,0.00001588,-0.00003414,0.000000
 55,-0.00003510,0.00000748,0.00000344,-0.00000216,-0.00000086,0.0005483
 6,-0.00020390,0.00006215,0.00006703,-0.00030430,0.00069984,0.20839031,
 -0.00005915,0.00082218,-0.00074663,0.00236822,-0.00064644,0.00262247,-
 0.00079138,-0.00026324,0.00038503,0.00009775,-0.00016186,0.00001388,-0
 .00003919,-0.00002647,-0.00000454,0.00000580,0.00000410,0.00001537,0.0
 0000573,-0.00000303,0.00000029,-0.00004692,0.00001132,0.00005618,0.000
 02898,-0.00002681,-0.00003132,-0.00004154,0.00004881,-0.00006041,0.000
 06075,-0.00003747,-0.00001659,0.00004826,0.00000646,0.00004392,0.00002
 941,-0.00001035,0.00006982,-0.00899984,0.00242237,0.01052127,0.0536027
 2,-0.07090204,-0.04947908,-0.01605839,0.00339831,0.01012988,-0.0000345
 0,0.00005929,0.00001295,-0.00000796,0.00000616,-0.00000468,-0.00000309
 ,0.00000410,0.00000586,-0.00000287,-0.00002259,-0.00001173,-0.00000171
 ,-0.00000538,-0.00000238,0.00003458,-0.00000184,-0.00001960,-0.0000249
 5,-0.00006910,-0.00000035,-0.00000783,-0.00000831,0.00001559,-0.000729
 13,0.00063214,-0.00026611,0.00013118,0.00016282,-0.00038379,-0.0511036
 8,0.07025987,0.00044464,-0.00009162,0.00095607,-0.00474963,0.00164171,
 -0.00338544,0.00197263,0.00041396,-0.00103237,-0.00047084,0.00015991,-
 0.00006716,0.00012830,0.00008074,0.00019898,0.00003235,-0.00000413,-0.
 00017086,-0.00002536,0.00000653,-0.00010658,0.00007475,-0.00003603,-0.
 00011020,-0.00002196,-0.00002732,-0.00005058,0.00002239,0.00001112,-0.
 00004889,-0.00003949,-0.00019025,0.00011566,-0.00012757,0.00005542,-0.
 00005776,0.00009136,-0.00003950,0.00008235,0.02093535,-0.00646465,-0.0
 1902298,0.13156363,-0.04700524,-0.16816591,-0.01541917,0.00352028,0.01
 027457,0.00011052,-0.00015036,0.00005971,-0.00000634,-0.00000128,0.000
 01333,0.00000535,-0.00000932,0.00000719,0.00000922,0.00005435,0.000018
 73,0.00000411,0.00002627,0.00001345,0.00000484,0.00000968,-0.00002760,
 0.00001372,0.00002834,0.00001240,0.00001158,-0.00000507,-0.00001434,0.
 00019810,0.00024028,0.00149835,-0.00016382,-0.00038868,0.00034082,-0.1
 3238979,0.04873370,0.17844038,0.00044349,0.00044145,0.00021402,-0.0006
 1056,-0.00042225,0.00037956,0.00011719,0.00017671,-0.00047805,-0.00018
 700,-0.00007771,0.00011945,-0.00002310,0.00003268,0.00009312,0.0000387
 5,0.00000324,-0.00008354,0.00002764,-0.00000299,-0.00006295,0.00005369
 ,-0.00005406,-0.00006612,0.00001250,-0.00006301,0.00003861,0.00020531,
 -0.00012853,-0.00027739,-0.00010304,-0.00129956,0.00046842,-0.00045710
 ,0.00025946,-0.00017151,0.00024044,-0.00003522,0.00047612,-0.00151514,
 0.00717832,-0.00113453,-0.05500999,0.04374411,0.00328321,-0.00654366,-
 0.04154208,-0.00357552,0.00005761,0.00001402,0.00010011,0.00001861,-0.
 00000236,0.00000252,-0.00000160,-0.00000346,0.00000957,0.00000737,0.00
 003308,0.00001359,-0.00000413,0.00001553,0.00001993,-0.00001137,0.0000
 0182,-0.00002597,-0.00002378,-0.00007578,-0.00000704,-0.00002213,-0.00
 000273,0.00002779,0.00066657,0.00038708,-0.00184223,0.00049314,0.00051
 009,-0.00033367,-0.00065370,0.02323360,-0.00075211,0.06452534,-0.00033
 155,0.00097519,-0.00054573,0.00108539,-0.00059491,0.00017538,-0.000167
 68,0.00013878,-0.00018536,-0.00002571,0.00002771,0.00004633,0.00000067
 ,0.00000546,0.00001069,0.00000048,0.00000152,-0.00000585,0.00000035,0.
 00000310,-0.00001130,0.00001673,-0.00000811,-0.00003091,0.00000325,-0.
 00002245,0.00000847,0.00005332,0.00000028,-0.00004461,0.00001256,-0.00
 026240,0.00007351,-0.00010374,0.00006583,0.00000125,0.00003145,-0.0000
 1696,0.00005146,0.00285015,-0.00811793,0.00177440,0.03243847,-0.317130
 31,-0.00100992,-0.00327126,-0.01280713,-0.00191550,-0.00002249,-0.0000
 3981,-0.00009718,-0.00001740,0.00000308,0.00000402,0.00000058,-0.00000
 100,0.00000032,0.00000146,0.00001079,0.00000474,0.00000168,0.00000785,
 0.00000436,-0.00000774,-0.00000337,-0.00000781,0.00000206,0.00000624,0
 .00000393,0.00000119,0.00001107,0.00000095,0.00020779,0.00104202,0.001
 44070,0.00001705,0.00093184,0.00002066,0.00154095,-0.00553459,0.000053
 51,-0.03297064,0.33995734,0.00119580,-0.00096537,0.00046763,-0.0019795
 8,0.00158051,0.00036670,0.00050391,-0.00039809,-0.00014675,-0.00000054
 ,-0.00019967,-0.00005229,-0.00001032,0.00002092,-0.00002809,0.00001389
 ,-0.00000613,-0.00001554,0.00003439,-0.00001717,0.00001047,-0.00001187
 ,-0.00000121,0.00001899,-0.00002963,-0.00000144,0.00005400,0.00003990,
 -0.00004248,-0.00010672,-0.00005516,-0.00050935,0.00016662,-0.00011088
 ,0.00009175,-0.00016381,0.00011780,-0.00001765,0.00025912,-0.00593053,
 0.03133892,-0.00121829,0.00161706,0.00075139,-0.05067094,-0.00252188,-
 0.01470657,-0.00071497,-0.00001790,0.00010041,0.00032992,0.00004981,0.
 00003428,-0.00004786,0.00000050,0.00000434,-0.00000692,-0.00000020,-0.
 00000422,0.00000110,-0.00000225,-0.00000638,0.00000801,0.00001329,0.00
 000197,-0.00000429,-0.00001384,-0.00002601,-0.00001501,-0.00002918,-0.
 00001641,0.00001315,-0.00051547,0.00165191,-0.00550536,0.00017014,-0.0
 0019426,0.00171615,0.00190177,-0.02095769,0.00078835,0.00633928,0.0016
 3971,0.05492316,-0.00027588,-0.00087216,0.00111396,0.00065683,0.000636
 32,-0.00120294,-0.00011111,-0.00054838,0.00057826,0.00028692,0.0000929
 3,-0.00020410,0.00012278,-0.00004693,0.00010072,-0.00004977,-0.0000200
 7,0.00002903,-0.00013749,-0.00001384,-0.00002174,-0.00005295,0.0002546
 9,0.00016752,0.00000189,0.00028727,0.00050991,-0.00092657,-0.00156659,
 0.00242144,-0.00542368,0.00483656,0.00114280,0.00180051,-0.00008107,-0
 .00192741,-0.00163061,0.00118697,-0.00211698,0.00168902,0.00052752,0.0
 0046488,0.00182391,-0.03051148,0.00135979,-0.06167241,-0.00629256,-0.0
 0276446,-0.00001226,0.00005505,-0.00004445,-0.00001227,0.00002326,-0.0
 0000396,-0.00000017,0.00002067,0.00001319,-0.00000677,-0.00008654,-0.0
 0003066,0.00000189,-0.00004583,-0.00006671,-0.00017169,-0.00000921,0.0
 0022181,0.00003663,0.00041524,0.00000204,0.00001741,-0.00017844,-0.000
 22473,-0.00037898,0.00048749,-0.00040843,0.00003660,0.00014270,0.00044
 987,0.00052751,-0.00004568,0.00079615,-0.00509696,-0.00129102,-0.00174
 520,0.06692880,0.00166056,-0.00163201,0.00482215,-0.00127288,0.0040531
 6,-0.00519555,-0.00044395,-0.00286384,0.00298429,0.00116233,0.00039966
 ,-0.00127263,0.00037566,-0.00031949,0.00063159,-0.00008158,-0.00008205
 ,-0.00001630,-0.00052511,-0.00005886,-0.00015963,-0.00075059,0.0004434
 7,0.00080806,-0.00196712,0.00156180,-0.00275306,-0.00488293,0.00232393
 ,0.00501979,0.00530718,0.01177293,-0.00195402,0.00758236,-0.00622721,0
 .00422622,-0.00130762,0.00000861,-0.00759406,0.00003193,0.00201058,-0.
 00062030,-0.00898871,-0.00340035,-0.00449676,-0.00219593,-0.31284318,0
 .00561140,-0.00006277,0.00041682,0.00002585,-0.00005851,0.00006820,-0.
 00007137,-0.00001753,0.00010892,0.00007226,-0.00001552,-0.00035547,-0.
 00019916,-0.00000613,-0.00019425,-0.00025329,0.00135177,0.00059456,-0.
 00033727,0.00041871,0.00089435,-0.00007532,0.00032541,-0.00052248,-0.0
 0032458,0.00023042,-0.00026693,0.00014695,0.00020197,-0.00045476,0.000
 74721,0.00085963,0.00062303,0.00067906,0.00162619,0.00170843,0.0010193
 2,-0.00225074,0.31783243,-0.00016337,0.00117956,-0.00139860,0.00006429
 ,-0.00119613,-0.00028429,0.00001168,0.00062867,-0.00042000,-0.00008356
 ,-0.00007634,0.00018813,-0.00008015,0.00007561,-0.00046334,-0.00005460
 ,0.00001987,0.00018275,0.00014933,0.00000503,0.00019641,0.00000490,-0.
 00007474,-0.00035108,0.00056173,-0.00038774,-0.00056046,0.00143427,0.0
 0131655,-0.00391520,-0.00011504,-0.00459862,-0.00247901,-0.00249385,0.
 00154592,-0.00219548,0.00092935,0.00010084,0.00226885,0.00032316,-0.00
 106151,0.00032055,0.00314866,-0.01143840,0.00057168,-0.00288039,-0.001
 00137,-0.06588536,-0.00006180,-0.00008367,-0.00009325,0.00001155,-0.00
 002415,0.00000291,0.00001332,-0.00002796,-0.00005152,-0.00000322,0.000
 08585,0.00008490,0.00001382,0.00001128,0.00002258,0.00007261,-0.000074
 49,0.00011898,-0.00016617,-0.00029954,0.00013821,-0.00008960,0.0003016
 5,-0.00012575,-0.00044148,0.00030863,-0.00009775,-0.00000474,0.0003045
 1,-0.00011221,0.00042274,0.00077959,0.00010348,-0.00277332,-0.00092570
 ,-0.00059252,0.00365525,0.00285206,0.06848388,0.00132175,0.00054722,0.
 00343711,-0.00229026,0.00111913,0.00010620,0.00025049,-0.00050108,0.00
 037412,0.00013804,0.00001109,-0.00003841,0.00002726,-0.00001275,-0.000
 12525,-0.00003696,0.00000078,0.00007371,-0.00000253,0.00000419,0.00006
 143,-0.00000608,0.00001868,-0.00000195,-0.00013089,0.00004004,-0.00001
 954,0.00006084,-0.00027128,0.00006692,-0.00032182,-0.00038791,0.000106
 92,-0.00005879,0.00002960,-0.00012449,0.00005614,0.00002665,0.00003486
 ,-0.00527381,-0.00406298,-0.00061614,-0.00491152,0.01209004,-0.0293294
 6,-0.07073038,0.02408466,-0.06652382,-0.00004401,-0.00008471,0.0000463
 9,0.00002328,0.00002063,-0.00002645,0.00000499,-0.00000169,-0.00001021
 ,-0.00000403,-0.00001145,0.00000564,-0.00000163,-0.00000572,0.00000028
 ,0.00010320,0.00001644,0.00010303,0.00000035,0.00001984,-0.00001249,0.
 00000655,0.00002809,-0.00001015,0.00002065,0.00001957,0.00017168,-0.00
 025218,0.00074811,-0.00165063,0.00021995,0.00106408,0.00046584,0.00142
 047,-0.00021263,0.00035046,-0.00048364,0.00121474,0.00103545,0.0704990
 1,-0.00001349,-0.00041827,-0.00196493,0.00026024,-0.00060056,0.0005613
 6,0.00005228,0.00028997,-0.00031225,-0.00013025,-0.00000204,0.00006036
 ,-0.00003238,0.00001831,0.00013069,0.00004322,-0.00000737,-0.00008421,
 0.00001006,-0.00000414,-0.00006820,0.00001784,-0.00000133,-0.00001623,
 0.00009675,0.00000208,-0.00013548,0.00004577,-0.00014201,-0.00030508,-
 0.00069740,-0.00188599,0.00003311,-0.00040302,0.00009291,-0.00036253,0
 .00011847,0.00009373,0.00029147,-0.00210497,-0.00130323,-0.00047477,-0
 .00113305,0.00552474,-0.01384143,0.02381070,-0.09796023,0.10936097,-0.
 00000154,-0.00001498,0.00004792,-0.00000187,-0.00000199,0.00001438,-0.
 00000458,0.00000570,0.00001305,0.00000245,0.00001711,0.00000493,-0.000
 00231,0.00000517,-0.00000252,-0.00001322,0.00001389,0.00005905,-0.0000
 1924,-0.00005286,0.00003270,0.00001149,0.00003517,-0.00001127,-0.00015
 972,0.00002252,-0.00008099,-0.00023793,0.00038970,-0.00062393,0.000446
 34,0.00042279,0.00033915,0.00003393,-0.00021700,-0.00071478,0.00811115
 ,-0.00421997,0.03517673,-0.02212193,0.09490729,-0.00027949,-0.00046477
 ,-0.00139031,0.00107093,-0.00052032,0.00000099,-0.00018882,0.00013970,
 0.00012621,0.00006744,0.00001395,0.00003283,-0.00000634,0.00000763,-0.
 00019120,-0.00004473,0.00000018,0.00011082,0.00001992,-0.00000828,0.00
 009339,0.00001893,-0.00000014,-0.00002482,0.00005922,-0.00003861,0.000
 01305,0.00001134,-0.00000898,-0.00017594,-0.00031572,-0.00099829,0.000
 15117,-0.00030526,0.00020796,-0.00014976,0.00013413,-0.00004774,0.0002
 6762,-0.00051170,-0.00090087,0.00096092,-0.00264120,0.00091284,-0.0058
 4730,-0.06419998,0.10769947,-0.36194250,-0.00004666,0.00001476,-0.0000
 4702,-0.00000625,-0.00000758,-0.00000514,0.00000665,-0.00000059,-0.000
 02455,-0.00000163,0.00000897,0.00000774,0.00000552,-0.00000486,0.00000
 985,0.00004176,0.00001544,-0.00004185,-0.00000065,-0.00000886,0.000033
 51,-0.00001437,0.00004986,-0.00000078,-0.00010839,-0.00005287,0.000070
 98,0.00014982,0.00025030,-0.00007817,0.00063233,0.00025145,0.00098084,
 0.00047463,-0.00030823,0.00023171,0.00179694,0.00129553,0.00238354,0.0
 7171382,-0.11650227,0.38142333,-0.00740323,0.00107937,0.00402556,0.002
 21237,-0.00052476,-0.00428754,-0.00120318,0.00052453,-0.00034471,0.000
 06380,-0.00010011,0.00010449,0.00010800,-0.00000746,0.00003340,-0.0000
 5203,0.00000954,0.00001690,-0.00008150,-0.00000131,-0.00003382,0.00006
 142,-0.00002033,-0.00000596,-0.00002291,0.00003711,0.00033185,0.000991
 83,-0.00078584,-0.00032576,-0.00059591,-0.00114045,0.00041616,-0.00069
 354,0.00045083,-0.00035436,-0.00017517,0.00016515,0.00031762,0.0002277
 6,0.00137184,0.00026372,-0.03256453,0.00662256,0.01618204,-0.20084146,
 0.07237120,0.13342871,0.00014117,0.00021111,-0.00008119,0.00005510,0.0
 0000911,0.00001308,0.00000650,-0.00000112,0.00000465,-0.00000105,-0.00
 000780,0.00003035,-0.00001811,0.00000950,-0.00000453,-0.00040432,-0.00
 053106,0.00032376,-0.00001334,0.00003347,-0.00002216,-0.00000766,0.000
 04918,0.00004132,-0.00006676,-0.00009586,0.00024703,0.00012962,-0.0002
 6549,0.00051481,-0.00322189,-0.00271326,-0.00271872,0.00193517,0.00015
 629,0.00062643,0.00251251,0.00247873,-0.00244081,0.01039554,-0.0059837
 7,-0.00753218,0.22852579,0.00383761,-0.00610018,0.00211712,-0.00462980
 ,0.00300188,0.00090215,0.00170693,-0.00136225,0.00117313,0.00030103,0.
 00013102,-0.00034710,0.00009715,-0.00008915,0.00000083,-0.00003859,-0.
 00003123,0.00005161,-0.00008808,-0.00000460,0.00007222,-0.00008045,0.0
 0018663,0.00036952,0.00048540,0.00010653,0.00065097,0.00026189,-0.0004
 3443,0.00041402,-0.00066793,0.00077940,-0.00018715,0.00043989,-0.00015
 982,-0.00006966,-0.00100642,0.00043767,-0.00055684,0.00154866,-0.00026
 462,-0.00031464,-0.01139308,0.00569775,0.00943453,0.07356488,-0.093052
 21,-0.05915708,-0.00007707,-0.00009164,0.00030991,0.00004859,0.0000709
 4,-0.00008569,-0.00000118,0.00003045,-0.00000064,-0.00002169,-0.000099
 23,-0.00005409,-0.00000612,-0.00005235,-0.00006839,-0.00077881,-0.0002
 3001,0.00031581,-0.00000439,0.00006961,-0.00002746,0.00001910,-0.00003
 723,0.00007210,0.00029453,-0.00005627,0.00002403,0.00001338,-0.0000155
 9,-0.00013729,-0.00276687,-0.00116421,-0.00164056,-0.00101095,-0.00014
 055,0.00054948,0.02678273,-0.01138001,-0.02342197,-0.01342946,0.004990
 89,0.00900520,-0.07340090,0.09926280,0.01718618,-0.00387189,0.00897599
 ,-0.02227602,0.01284472,-0.00795498,0.00440594,-0.00612571,0.00563947,
 0.00166247,0.00034981,-0.00133822,0.00024569,-0.00025618,-0.00138565,-
 0.00037099,-0.00002740,0.00086218,-0.00003576,-0.00001083,0.00083189,-
 0.00050483,0.00042351,0.00062256,-0.00009649,0.00039378,-0.00016688,-0
 .00078671,0.00037698,0.00069547,0.00035086,0.00277844,-0.00125801,0.00
 166665,-0.00094124,0.00081771,-0.00051162,0.00006903,-0.00140496,0.001
 43254,-0.00025942,0.00055057,-0.00352040,0.00610960,0.01315468,0.12696
 283,-0.05410563,-0.17040085,-0.00068176,-0.00041264,0.00038508,0.00010
 256,0.00018055,-0.00031754,0.00003069,0.00002530,-0.00013197,-0.000084
 31,-0.00029296,-0.00011348,0.00002751,-0.00014721,-0.00008941,0.000498
 62,0.00038477,0.00032776,0.00000209,0.00001902,0.00003013,0.00001937,0
 .00008396,-0.00001371,0.00042707,-0.00004650,-0.00052522,0.00053626,-0
 .00000572,-0.00084647,-0.00371563,-0.00167233,-0.00164399,-0.00047598,
 -0.00022631,-0.00006574,-0.00406180,-0.00561845,0.00395897,0.02033513,
 -0.01062500,-0.01697918,-0.13877016,0.06060594,0.16778379\\0.00000519,
 -0.00000285,0.00000261,-0.00000648,0.00000454,-0.00000241,0.00000023,-
 0.00000159,-0.00000058,0.00000047,-0.00000007,0.00000133,0.00000806,-0
 .00000202,0.00000041,0.00000129,-0.00000080,0.00000142,-0.00000819,-0.
 00000156,-0.00000144,-0.00000181,-0.00000129,-0.00000050,-0.00000001,0
 .00000196,-0.00000224,-0.00000072,0.00000039,0.00000296,0.00000007,-0.
 00000037,0.00000320,-0.00000142,0.00000188,-0.00000097,-0.00000156,0.0
 0000045,-0.00000328,0.00000137,-0.00000136,-0.00000030,0.00000042,0.00
 000018,0.00000111,-0.00000293,0.00000460,0.00000182,-0.00000020,-0.000
 00076,0.00000009,0.00000081,-0.00000139,0.00000057,-0.00000068,-0.0000
 0145,-0.00000046,0.00000032,0.00000074,-0.00000088,-0.00000147,0.00000
 021,-0.00000106,0.00000070,0.00000029,0.00000004,-0.00000182,0.0000011
 2,-0.00000039,-0.00000129,0.00000046,-0.00000168,-0.00000025,-0.000000
 16,0.00000039,0.00000006,-0.00000103,-0.00000016,-0.00000033,0.0000004
 5,0.00000122,0.00000142,-0.00000055,0.00000105,0.00000368,-0.00000109,
 -0.00000328,0.00000122,0.00000099,0.00000132,0.00000385,0.00000006,0.0
 0000011\\\@


 THE PROBLEM WITH THE LADDER OF SUCCESS IS YOU CAN'T
 CLIMB IT WHILE YOU'RE TWIDDLING YOUR THUMBS.
 Job cpu time:       1 days  7 hours 30 minutes 28.7 seconds.
 File lengths (MBytes):  RWF=   1351 Int=      0 D2E=      0 Chk=     46 Scr=      1
 Normal termination of Gaussian 09 at Thu Jul 29 12:17:50 2021.
