 Entering Gaussian System, Link 0=g09
 Input=opt_freq-conf-55.com
 Output=opt_freq-conf-55.log
 Initial command:
 /aerosol/software/g09/l1.exe "/scratch/nicole/10758/Gau-85359.inp" -scrdir="/scratch/nicole/10758/"
 Entering Link 1 = /aerosol/software/g09/l1.exe PID=     85362.
  
 Copyright (c) 1988,1990,1992,1993,1995,1998,2003,2009,2013,
            Gaussian, Inc.  All Rights Reserved.
  
 This is part of the Gaussian(R) 09 program.  It is based on
 the Gaussian(R) 03 system (copyright 2003, Gaussian, Inc.),
 the Gaussian(R) 98 system (copyright 1998, Gaussian, Inc.),
 the Gaussian(R) 94 system (copyright 1995, Gaussian, Inc.),
 the Gaussian 92(TM) system (copyright 1992, Gaussian, Inc.),
 the Gaussian 90(TM) system (copyright 1990, Gaussian, Inc.),
 the Gaussian 88(TM) system (copyright 1988, Gaussian, Inc.),
 the Gaussian 86(TM) system (copyright 1986, Carnegie Mellon
 University), and the Gaussian 82(TM) system (copyright 1983,
 Carnegie Mellon University). Gaussian is a federally registered
 trademark of Gaussian, Inc.
  
 This software contains proprietary and confidential information,
 including trade secrets, belonging to Gaussian, Inc.
  
 This software is provided under written license and may be
 used, copied, transmitted, or stored only in accord with that
 written license.
  
 The following legend is applicable only to US Government
 contracts under FAR:
  
                    RESTRICTED RIGHTS LEGEND
  
 Use, reproduction and disclosure by the US Government is
 subject to restrictions as set forth in subparagraphs (a)
 and (c) of the Commercial Computer Software - Restricted
 Rights clause in FAR 52.227-19.
  
 Gaussian, Inc.
 340 Quinnipiac St., Bldg. 40, Wallingford CT 06492
  
  
 ---------------------------------------------------------------
 Warning -- This program may not be used in any manner that
 competes with the business of Gaussian, Inc. or will provide
 assistance to any competitor of Gaussian, Inc.  The licensee
 of this program is prohibited from giving any competitor of
 Gaussian, Inc. access to this program.  By using this program,
 the user acknowledges that Gaussian, Inc. is engaged in the
 business of creating and licensing software in the field of
 computational chemistry and represents and warrants to the
 licensee that it is not a competitor of Gaussian, Inc. and that
 it will not use this program in any manner prohibited above.
 ---------------------------------------------------------------
  

 Cite this work as:
 Gaussian 09, Revision D.01,
 M. J. Frisch, G. W. Trucks, H. B. Schlegel, G. E. Scuseria, 
 M. A. Robb, J. R. Cheeseman, G. Scalmani, V. Barone, B. Mennucci, 
 G. A. Petersson, H. Nakatsuji, M. Caricato, X. Li, H. P. Hratchian, 
 A. F. Izmaylov, J. Bloino, G. Zheng, J. L. Sonnenberg, M. Hada, 
 M. Ehara, K. Toyota, R. Fukuda, J. Hasegawa, M. Ishida, T. Nakajima, 
 Y. Honda, O. Kitao, H. Nakai, T. Vreven, J. A. Montgomery, Jr., 
 J. E. Peralta, F. Ogliaro, M. Bearpark, J. J. Heyd, E. Brothers, 
 K. N. Kudin, V. N. Staroverov, T. Keith, R. Kobayashi, J. Normand, 
 K. Raghavachari, A. Rendell, J. C. Burant, S. S. Iyengar, J. Tomasi, 
 M. Cossi, N. Rega, J. M. Millam, M. Klene, J. E. Knox, J. B. Cross, 
 V. Bakken, C. Adamo, J. Jaramillo, R. Gomperts, R. E. Stratmann, 
 O. Yazyev, A. J. Austin, R. Cammi, C. Pomelli, J. W. Ochterski, 
 R. L. Martin, K. Morokuma, V. G. Zakrzewski, G. A. Voth, 
 P. Salvador, J. J. Dannenberg, S. Dapprich, A. D. Daniels, 
 O. Farkas, J. B. Foresman, J. V. Ortiz, J. Cioslowski, 
 and D. J. Fox, Gaussian, Inc., Wallingford CT, 2013.
 
 ******************************************
 Gaussian 09:  ES64L-G09RevD.01 24-Apr-2013
                29-Jul-2021 
 ******************************************
 %mem=2gb
 %nproc=4
 Will use up to    4 processors via shared memory.
 %chk=conf-55.chk
 ----------------------------------------------------------------------
 # B3LYP/6-311++G(2df,2pd) guess=read geom=checkpoint opt=readfc freq=n
 oraman nosymm integral(ultrafinegrid)
 ----------------------------------------------------------------------
 1/10=3,14=-1,18=20,19=15,26=4,29=2,38=1/1,3;
 2/9=110,12=2,15=1,40=1/2;
 3/5=4,6=6,7=1414,11=2,14=-4,16=1,25=1,30=1,71=1,74=-5,75=-5,116=-2/1,2,3;
 4/5=1/1;
 5/5=2,38=6/2;
 6/7=2,8=2,9=2,10=2,28=1/1;
 7/30=1/1,2,3,16;
 1/14=-1,18=20,19=15,26=4/3(2);
 2/9=110,15=1/2;
 99//99;
 2/9=110,15=1/2;
 3/5=4,6=6,7=1414,11=2,14=-2,16=1,25=1,30=1,71=1,74=-5,75=-5/1,2,3;
 4/5=5,16=3,69=1/1;
 5/5=2,38=5/2;
 7/30=1/1,2,3,16;
 1/14=-1,18=20,19=15,26=4/3(-5);
 2/9=110,15=1/2;
 6/7=2,8=2,9=2,10=2,19=2,28=1/1;
 99/9=1/99;
 -----------------------------------------------------------
 Candidate Structure: Conf:55 OPT and FREQ calc in gas phase
 -----------------------------------------------------------
 Structure from the checkpoint file:  "conf-55.chk"
 Charge =  1 Multiplicity = 1
 Redundant internal coordinates found in file.
 O,0,1.4212203696,0.7077885858,1.0598158785
 C,0,1.5322462242,0.1010920572,-0.0022896847
 N,0,0.5315977493,-0.5389216589,-0.6319438646
 C,0,-0.7998318383,-0.6794492975,-0.0586539859
 C,0,-1.4414318296,-1.873368585,-0.7954589664
 O,0,-2.641046725,-2.2670079868,-0.3753893454
 O,0,-0.872697895,-2.419730282,-1.716890488
 C,0,-1.6308369412,0.6283943873,-0.1814520311
 C,0,-2.9526538076,0.5499286387,0.5254867016
 C,0,-3.307744412,0.1369874215,1.7969456224
 N,0,-4.6635799866,0.2633986305,1.9984301466
 C,0,-5.1359494367,0.7500183353,0.8736214988
 N,0,-4.1472873282,0.9372622997,-0.0527168425
 C,0,2.8997923905,0.0640973199,-0.7250001437
 C,0,3.9762916574,0.2130228456,0.340993181
 N,0,5.3325341691,0.5485146725,-0.2756422476
 H,0,0.6836398035,-1.1363538581,-1.441697925
 H,0,-0.7008574626,-0.9242512529,1.0058076736
 H,0,-2.9742209767,-1.6848657203,0.3378911755
 H,0,-1.7764892709,0.8553294915,-1.243654371
 H,0,-1.0169531323,1.4312666652,0.2403300264
 H,0,-2.6568862278,-0.2128676131,2.5878331379
 H,0,-6.1721936103,0.9784502108,0.6667159532
 H,0,-4.2683617916,1.2907314469,-0.9908607185
 H,0,3.0233160033,-0.8538581038,-1.3088730594
 H,0,2.9266722688,0.9119872951,-1.4230153463
 H,0,3.7161321268,1.0238231886,1.0227367788
 H,0,4.1232553539,-0.701114963,0.9188903522
 H,0,5.6502965281,-0.1857305145,-0.9178075032
 H,0,5.2897999038,1.4243160847,-0.8085986716
 H,0,6.0520637138,0.6611103991,0.4472179383
 Recover connectivity data from disk.

 GradGradGradGradGradGradGradGradGradGradGradGradGradGradGradGradGradGrad
 Berny optimization.
 Initialization pass.
 Force constant matrix read from checkpoint file:
 "conf-55.chk"
                           ----------------------------
                           !    Initial Parameters    !
                           ! (Angstroms and Degrees)  !
 --------------------------                            --------------------------
 ! Name  Definition              Value          Derivative Info.                !
 --------------------------------------------------------------------------------
 ! R1    R(1,2)                  1.2282         D2E/DX2 =    0.7855             !
 ! R2    R(2,3)                  1.3444         D2E/DX2 =    0.5066             !
 ! R3    R(2,14)                 1.5472         D2E/DX2 =    0.2483             !
 ! R4    R(3,4)                  1.4564         D2E/DX2 =    0.3347             !
 ! R5    R(3,17)                 1.0177         D2E/DX2 =    0.4415             !
 ! R6    R(4,5)                  1.5427         D2E/DX2 =    0.2687             !
 ! R7    R(4,8)                  1.5544         D2E/DX2 =    0.2557             !
 ! R8    R(4,18)                 1.0967         D2E/DX2 =    0.3324             !
 ! R9    R(5,6)                  1.3306         D2E/DX2 =    0.4689             !
 ! R10   R(5,7)                  1.2129         D2E/DX2 =    0.8533             !
 ! R11   R(6,19)                 0.9791         D2E/DX2 =    0.4598             !
 ! R12   R(8,9)                  1.501          D2E/DX2 =    0.3103             !
 ! R13   R(8,20)                 1.0959         D2E/DX2 =    0.3345             !
 ! R14   R(8,21)                 1.0952         D2E/DX2 =    0.3358             !
 ! R15   R(9,10)                 1.3832         D2E/DX2 =    0.3932             !
 ! R16   R(9,13)                 1.3826         D2E/DX2 =    0.3648             !
 ! R17   R(10,11)                1.3765         D2E/DX2 =    0.3368             !
 ! R18   R(10,22)                1.0824         D2E/DX2 =    0.3703             !
 ! R19   R(11,12)                1.3134         D2E/DX2 =    0.467              !
 ! R20   R(12,13)                1.3677         D2E/DX2 =    0.357              !
 ! R21   R(12,23)                1.0811         D2E/DX2 =    0.3756             !
 ! R22   R(13,24)                1.0098         D2E/DX2 =    0.4741             !
 ! R23   R(14,15)                1.5223         D2E/DX2 =    0.2901             !
 ! R24   R(14,25)                1.0949         D2E/DX2 =    0.3382             !
 ! R25   R(14,26)                1.0986         D2E/DX2 =    0.3301             !
 ! R26   R(15,16)                1.5272         D2E/DX2 =    0.2342             !
 ! R27   R(15,27)                1.0908         D2E/DX2 =    0.3516             !
 ! R28   R(15,28)                1.0914         D2E/DX2 =    0.3486             !
 ! R29   R(16,29)                1.0259         D2E/DX2 =    0.4282             !
 ! R30   R(16,30)                1.0261         D2E/DX2 =    0.4278             !
 ! R31   R(16,31)                1.0261         D2E/DX2 =    0.428              !
 ! A1    A(1,2,3)              124.9525         D2E/DX2 =    0.1941             !
 ! A2    A(1,2,14)             119.7125         D2E/DX2 =    0.1853             !
 ! A3    A(3,2,14)             115.3235         D2E/DX2 =    0.1641             !
 ! A4    A(2,3,4)              122.8212         D2E/DX2 =    0.1232             !
 ! A5    A(2,3,17)             122.7463         D2E/DX2 =    0.0866             !
 ! A6    A(4,3,17)             113.1495         D2E/DX2 =    0.0953             !
 ! A7    A(3,4,5)              105.4784         D2E/DX2 =    0.1127             !
 ! A8    A(3,4,8)              112.1147         D2E/DX2 =    0.0914             !
 ! A9    A(3,4,18)             108.7289         D2E/DX2 =    0.0305             !
 ! A10   A(5,4,8)              113.022          D2E/DX2 =    0.0994             !
 ! A11   A(5,4,18)             109.168          D2E/DX2 =    0.0246             !
 ! A12   A(8,4,18)             108.224          D2E/DX2 =    0.0335             !
 ! A13   A(4,5,6)              116.9441         D2E/DX2 =    0.201              !
 ! A14   A(4,5,7)              121.0946         D2E/DX2 =    0.2192             !
 ! A15   A(6,5,7)              121.9609         D2E/DX2 =    0.2072             !
 ! A16   A(5,6,19)             111.1541         D2E/DX2 =    0.2039             !
 ! A17   A(4,8,9)              112.9295         D2E/DX2 =    0.1822             !
 ! A18   A(4,8,20)             108.7755         D2E/DX2 =    0.0642             !
 ! A19   A(4,8,21)             106.6623         D2E/DX2 =    0.0609             !
 ! A20   A(9,8,20)             110.504          D2E/DX2 =    0.0533             !
 ! A21   A(9,8,21)             110.5213         D2E/DX2 =    0.0562             !
 ! A22   A(20,8,21)            107.2165         D2E/DX2 =    0.0211             !
 ! A23   A(8,9,10)             132.4227         D2E/DX2 =    0.0993             !
 ! A24   A(8,9,13)             123.3184         D2E/DX2 =    0.1062             !
 ! A25   A(10,9,13)            104.2553         D2E/DX2 =    0.1025             !
 ! A26   A(9,10,11)            111.0994         D2E/DX2 =    0.1136             !
 ! A27   A(9,10,22)            127.865          D2E/DX2 =    0.0821             !
 ! A28   A(11,10,22)           120.9984         D2E/DX2 =    0.0904             !
 ! A29   A(10,11,12)           105.2426         D2E/DX2 =    0.1306             !
 ! A30   A(11,12,13)           111.7633         D2E/DX2 =    0.1183             !
 ! A31   A(11,12,23)           125.9372         D2E/DX2 =    0.0895             !
 ! A32   A(13,12,23)           122.2975         D2E/DX2 =    0.0904             !
 ! A33   A(9,13,12)            107.6377         D2E/DX2 =    0.1032             !
 ! A34   A(9,13,24)            126.1708         D2E/DX2 =    0.0785             !
 ! A35   A(12,13,24)           126.191          D2E/DX2 =    0.0797             !
 ! A36   A(2,14,15)            107.194          D2E/DX2 =    0.1688             !
 ! A37   A(2,14,25)            111.645          D2E/DX2 =    0.0542             !
 ! A38   A(2,14,26)            107.4554         D2E/DX2 =    0.0432             !
 ! A39   A(15,14,25)           112.0653         D2E/DX2 =    0.058              !
 ! A40   A(15,14,26)           110.6171         D2E/DX2 =    0.0531             !
 ! A41   A(25,14,26)           107.7877         D2E/DX2 =    0.0227             !
 ! A42   A(14,15,16)           111.5158         D2E/DX2 =    0.1465             !
 ! A43   A(14,15,27)           109.9813         D2E/DX2 =    0.0436             !
 ! A44   A(14,15,28)           112.5853         D2E/DX2 =    0.0454             !
 ! A45   A(16,15,27)           107.5104         D2E/DX2 =    0.0536             !
 ! A46   A(16,15,28)           106.1536         D2E/DX2 =    0.0579             !
 ! A47   A(27,15,28)           108.8901         D2E/DX2 =    0.0191             !
 ! A48   A(15,16,29)           111.7523         D2E/DX2 =    0.0972             !
 ! A49   A(15,16,30)           111.115          D2E/DX2 =    0.0972             !
 ! A50   A(15,16,31)           111.2474         D2E/DX2 =    0.0963             !
 ! A51   A(29,16,30)           107.3767         D2E/DX2 =    0.054              !
 ! A52   A(29,16,31)           107.5957         D2E/DX2 =    0.0537             !
 ! A53   A(30,16,31)           107.5441         D2E/DX2 =    0.053              !
 ! D1    D(1,2,3,4)             -5.2483         D2E/DX2 =    0.0118             !
 ! D2    D(1,2,3,17)          -171.4188         D2E/DX2 =    0.0108             !
 ! D3    D(14,2,3,4)           175.9932         D2E/DX2 =    0.0112             !
 ! D4    D(14,2,3,17)            9.8227         D2E/DX2 =    0.0075             !
 ! D5    D(1,2,14,15)           27.4229         D2E/DX2 =    0.0152             !
 ! D6    D(1,2,14,25)          150.5067         D2E/DX2 =    0.016              !
 ! D7    D(1,2,14,26)          -91.5036         D2E/DX2 =    0.0165             !
 ! D8    D(3,2,14,15)         -153.7487         D2E/DX2 =    0.0152             !
 ! D9    D(3,2,14,25)          -30.665          D2E/DX2 =    0.0164             !
 ! D10   D(3,2,14,26)           87.3247         D2E/DX2 =    0.0155             !
 ! D11   D(2,3,4,5)           -159.1831         D2E/DX2 =    0.0149             !
 ! D12   D(2,3,4,8)             77.4118         D2E/DX2 =    0.0145             !
 ! D13   D(2,3,4,18)           -42.2061         D2E/DX2 =    0.0084             !
 ! D14   D(17,3,4,5)             8.1871         D2E/DX2 =    0.0167             !
 ! D15   D(17,3,4,8)          -115.218          D2E/DX2 =    0.015              !
 ! D16   D(17,3,4,18)          125.1641         D2E/DX2 =    0.0103             !
 ! D17   D(3,4,5,6)            175.1864         D2E/DX2 =    0.023              !
 ! D18   D(3,4,5,7)             -5.0136         D2E/DX2 =    0.0228             !
 ! D19   D(8,4,5,6)            -61.9866         D2E/DX2 =    0.0249             !
 ! D20   D(8,4,5,7)            117.8134         D2E/DX2 =    0.0222             !
 ! D21   D(18,4,5,6)            58.5075         D2E/DX2 =    0.0166             !
 ! D22   D(18,4,5,7)          -121.6925         D2E/DX2 =    0.016              !
 ! D23   D(3,4,8,9)           -174.1585         D2E/DX2 =    0.0217             !
 ! D24   D(3,4,8,20)            62.7822         D2E/DX2 =    0.0207             !
 ! D25   D(3,4,8,21)           -52.5627         D2E/DX2 =    0.0212             !
 ! D26   D(5,4,8,9)             66.7852         D2E/DX2 =    0.0287             !
 ! D27   D(5,4,8,20)           -56.2741         D2E/DX2 =    0.0224             !
 ! D28   D(5,4,8,21)          -171.619          D2E/DX2 =    0.025              !
 ! D29   D(18,4,8,9)           -54.2456         D2E/DX2 =    0.0133             !
 ! D30   D(18,4,8,20)         -177.3049         D2E/DX2 =    0.0143             !
 ! D31   D(18,4,8,21)           67.3502         D2E/DX2 =    0.0135             !
 ! D32   D(4,5,6,19)             3.2155         D2E/DX2 =    0.0142             !
 ! D33   D(7,5,6,19)          -176.5826         D2E/DX2 =    0.0219             !
 ! D34   D(4,8,9,10)            48.6242         D2E/DX2 =    0.0122             !
 ! D35   D(4,8,9,13)          -132.1746         D2E/DX2 =    0.0119             !
 ! D36   D(20,8,9,10)          170.718          D2E/DX2 =    0.0147             !
 ! D37   D(20,8,9,13)          -10.0808         D2E/DX2 =    0.0135             !
 ! D38   D(21,8,9,10)          -70.7667         D2E/DX2 =    0.014              !
 ! D39   D(21,8,9,13)          108.4345         D2E/DX2 =    0.0141             !
 ! D40   D(8,9,10,11)          179.2854         D2E/DX2 =    0.0093             !
 ! D41   D(8,9,10,22)            1.5125         D2E/DX2 =    0.007              !
 ! D42   D(13,9,10,11)          -0.0259         D2E/DX2 =    0.0139             !
 ! D43   D(13,9,10,22)        -177.7988         D2E/DX2 =    0.01               !
 ! D44   D(8,9,13,12)         -179.1381         D2E/DX2 =    0.008              !
 ! D45   D(8,9,13,24)            1.1045         D2E/DX2 =    0.0025             !
 ! D46   D(10,9,13,12)           0.2535         D2E/DX2 =    0.0124             !
 ! D47   D(10,9,13,24)        -179.5039         D2E/DX2 =    0.0045             !
 ! D48   D(9,10,11,12)          -0.2187         D2E/DX2 =    0.0172             !
 ! D49   D(22,10,11,12)        177.7303         D2E/DX2 =    0.0101             !
 ! D50   D(10,11,12,13)          0.3872         D2E/DX2 =    0.0184             !
 ! D51   D(10,11,12,23)        179.888          D2E/DX2 =    0.0105             !
 ! D52   D(11,12,13,9)          -0.417          D2E/DX2 =    0.0173             !
 ! D53   D(11,12,13,24)        179.3404         D2E/DX2 =    0.0079             !
 ! D54   D(23,12,13,9)        -179.9388         D2E/DX2 =    0.0105             !
 ! D55   D(23,12,13,24)         -0.1814         D2E/DX2 =    0.0065             !
 ! D56   D(2,14,15,16)        -165.3638         D2E/DX2 =    0.0147             !
 ! D57   D(2,14,15,27)         -46.1893         D2E/DX2 =    0.0145             !
 ! D58   D(2,14,15,28)          75.435          D2E/DX2 =    0.0145             !
 ! D59   D(25,14,15,16)         71.8125         D2E/DX2 =    0.0159             !
 ! D60   D(25,14,15,27)       -169.013          D2E/DX2 =    0.0152             !
 ! D61   D(25,14,15,28)        -47.3887         D2E/DX2 =    0.0163             !
 ! D62   D(26,14,15,16)        -48.4983         D2E/DX2 =    0.0156             !
 ! D63   D(26,14,15,27)         70.6762         D2E/DX2 =    0.0166             !
 ! D64   D(26,14,15,28)       -167.6995         D2E/DX2 =    0.0157             !
 ! D65   D(14,15,16,29)        -60.5198         D2E/DX2 =    0.014              !
 ! D66   D(14,15,16,30)         59.3993         D2E/DX2 =    0.014              !
 ! D67   D(14,15,16,31)        179.1915         D2E/DX2 =    0.0141             !
 ! D68   D(27,15,16,29)        178.8474         D2E/DX2 =    0.0148             !
 ! D69   D(27,15,16,30)        -61.2335         D2E/DX2 =    0.0153             !
 ! D70   D(27,15,16,31)         58.5587         D2E/DX2 =    0.0151             !
 ! D71   D(28,15,16,29)         62.4354         D2E/DX2 =    0.0154             !
 ! D72   D(28,15,16,30)       -177.6455         D2E/DX2 =    0.0147             !
 ! D73   D(28,15,16,31)        -57.8533         D2E/DX2 =    0.015              !
 --------------------------------------------------------------------------------
 Trust Radius=3.00D-01 FncErr=1.00D-07 GrdErr=1.00D-06
 Number of steps in this run=    167 maximum allowed number of steps=    186.
 GradGradGradGradGradGradGradGradGradGradGradGradGradGradGradGradGradGrad

                          Input orientation:                          
 ---------------------------------------------------------------------
 Center     Atomic      Atomic             Coordinates (Angstroms)
 Number     Number       Type             X           Y           Z
 ---------------------------------------------------------------------
      1          8           0        1.421220    0.707789    1.059816
      2          6           0        1.532246    0.101092   -0.002290
      3          7           0        0.531598   -0.538922   -0.631944
      4          6           0       -0.799832   -0.679449   -0.058654
      5          6           0       -1.441432   -1.873369   -0.795459
      6          8           0       -2.641047   -2.267008   -0.375389
      7          8           0       -0.872698   -2.419730   -1.716890
      8          6           0       -1.630837    0.628394   -0.181452
      9          6           0       -2.952654    0.549929    0.525487
     10          6           0       -3.307744    0.136987    1.796946
     11          7           0       -4.663580    0.263399    1.998430
     12          6           0       -5.135949    0.750018    0.873621
     13          7           0       -4.147287    0.937262   -0.052717
     14          6           0        2.899792    0.064097   -0.725000
     15          6           0        3.976292    0.213023    0.340993
     16          7           0        5.332534    0.548515   -0.275642
     17          1           0        0.683640   -1.136354   -1.441698
     18          1           0       -0.700857   -0.924251    1.005808
     19          1           0       -2.974221   -1.684866    0.337891
     20          1           0       -1.776489    0.855329   -1.243654
     21          1           0       -1.016953    1.431267    0.240330
     22          1           0       -2.656886   -0.212868    2.587833
     23          1           0       -6.172194    0.978450    0.666716
     24          1           0       -4.268362    1.290731   -0.990861
     25          1           0        3.023316   -0.853858   -1.308873
     26          1           0        2.926672    0.911987   -1.423015
     27          1           0        3.716132    1.023823    1.022737
     28          1           0        4.123255   -0.701115    0.918890
     29          1           0        5.650297   -0.185731   -0.917808
     30          1           0        5.289800    1.424316   -0.808599
     31          1           0        6.052064    0.661110    0.447218
 ---------------------------------------------------------------------
                    Distance matrix (angstroms):
                    1          2          3          4          5
     1  O    0.000000
     2  C    1.228200   0.000000
     3  N    2.282053   1.344388   0.000000
     4  C    2.847539   2.459880   1.456404   0.000000
     5  C    4.277756   3.656552   2.387537   1.542717   0.000000
     6  O    5.235575   4.812845   3.621847   2.451680   1.330596
     7  O    4.770066   3.883060   2.585845   2.404919   1.212850
     8  C    3.295771   3.211735   2.498338   1.554382   2.582963
     9  C    4.409218   4.538098   3.829523   2.547005   3.146595
    10  C    4.819988   5.163724   4.593137   3.224817   3.774283
    11  N    6.172785   6.512871   5.878134   4.477623   4.770097
    12  C    6.559949   6.756712   6.004097   4.659875   4.828814
    13  N    5.683191   5.740978   4.940302   3.717425   3.971519
    14  C    2.405428   1.547211   2.445534   3.831984   4.754468
    15  C    2.699979   2.470573   3.657587   4.875201   5.915765
    16  N    4.136084   3.836287   4.935429   6.257866   7.212652
    17  H    3.194129   2.079255   1.017715   2.079005   2.340245
    18  H    2.677627   2.656001   2.085583   1.096724   2.166526
    19  H    5.056271   4.859384   3.813730   2.428184   1.915583
    20  H    3.943741   3.613529   2.765030   2.171090   2.785487
    21  H    2.672016   2.885593   2.653397   2.142815   3.489077
    22  H    4.451224   4.935194   4.543094   3.266534   3.959957
    23  H    7.608398   7.783040   6.994981   5.668956   5.714099
    24  H    6.075890   6.003296   5.149375   4.096501   4.247499
    25  H    3.258242   2.200541   2.601169   4.026155   4.608359
    26  H    2.910762   2.149520   2.909865   4.275627   5.218464
    27  H    2.316867   2.582919   3.914256   4.946157   6.188701
    28  H    3.050551   2.864513   3.915533   5.019248   5.939606
    29  H    4.753363   4.228330   5.138827   6.525799   7.290796
    30  H    4.355490   4.064513   5.150340   6.486282   7.495624
    31  H    4.671420   4.576508   5.751540   7.000106   8.007516
                    6          7          8          9         10
     6  O    0.000000
     7  O    2.224861   0.000000
     8  C    3.072701   3.496199   0.000000
     9  C    2.973854   4.263021   1.501039   0.000000
    10  C    3.307978   4.981295   2.639613   1.383191   0.000000
    11  N    4.016045   5.947569   3.752684   2.275726   1.376541
    12  C    4.109381   5.910446   3.662484   2.219913   2.137912
    13  N    3.555310   4.976124   2.538601   1.382569   2.183237
    14  C    6.021393   4.624384   4.597878   6.004238   6.700674
    15  C    7.103022   5.888886   5.646714   6.939584   7.428510
    16  N    8.456661   7.027985   6.964466   8.323830   8.894908
    17  H    3.670005   2.035921   3.171649   4.464974   5.295409
    18  H    2.734051   3.111121   2.164522   2.733953   2.923694
    19  H    0.979114   3.029613   2.724990   2.242758   2.357801
    20  H    3.354152   3.430278   1.095896   2.146274   3.479369
    21  H    4.085832   4.322233   1.095152   2.145928   3.057112
    22  H    3.605611   5.155988   3.070739   2.218695   1.082367
    23  H    4.907951   6.731557   4.633125   3.251002   3.192264
    24  H    3.960362   5.081848   2.837317   2.139903   3.166350
    25  H    5.912139   4.218692   5.012912   6.406849   7.121110
    26  H    6.496386   5.061810   4.732103   6.204371   7.059513
    27  H    7.293699   6.357750   5.495135   6.704069   7.121848
    28  H    7.062787   5.904280   6.007323   7.196413   7.529486
    29  H    8.565764   6.941091   7.363418   8.754145   9.365924
    30  H    8.758531   7.319704   6.994428   8.395379   9.075453
    31  H    9.209817   7.882085   7.708648   9.005744   9.471139
                   11         12         13         14         15
    11  N    0.000000
    12  C    1.313441   0.000000
    13  N    2.219877   1.367705   0.000000
    14  C    8.041231   8.221875   7.132721   0.000000
    15  C    8.797557   9.143577   8.165296   1.522291   0.000000
    16  N   10.255486  10.533307   9.490408   2.520876   1.527150
    17  H    6.510495   6.541156   5.437555   2.620319   3.979995
    18  H    4.254290   4.742435   4.057534   4.115484   4.859125
    19  H    3.067093   3.299809   2.899002   6.220341   7.204972
    20  H    4.381414   3.972395   2.654379   4.771023   6.001513
    21  H    4.213398   4.222711   3.182595   4.259332   5.140695
    22  H    2.145005   3.164084   3.242931   6.475203   7.016318
    23  H    2.135574   1.081107   2.149308   9.223548  10.182521
    24  H    3.185509   2.126352   1.009809   7.277207   8.420784
    25  H    8.442446   8.597053   7.496906   1.094901   2.183680
    26  H    8.350981   8.384906   7.205502   1.098574   2.168405
    27  H    8.470525   8.857570   7.937094   2.154546   1.090805
    28  H    8.905289   9.372338   8.487059   2.187416   1.091426
    29  H   10.727638  10.973967   9.899603   2.768549   2.132106
    30  H   10.406580  10.582098   9.479831   2.751240   2.124640
    31  H   10.834641  11.196489  10.215329   3.415748   2.126240
                   16         17         18         19         20
    16  N    0.000000
    17  H    5.080422   0.000000
    18  H    6.341370   2.819947   0.000000
    19  H    8.623607   4.104601   2.488539   0.000000
    20  H    7.181184   3.171476   3.063327   3.223110   0.000000
    21  H    6.431288   3.509118   2.496865   3.681127   1.763748
    22  H    8.521152   5.314985   2.614368   2.707345   4.073873
    23  H   11.551262   7.477985   5.802652   4.174734   4.794465
    24  H    9.656067   5.533201   4.649723   3.506360   2.542225
    25  H    2.892526   2.360409   4.385450   6.274779   5.095459
    26  H    2.690121   3.037638   4.736024   6.683186   4.706921
    27  H    2.127078   4.464954   4.827533   7.250299   5.944225
    28  H    2.109701   4.194373   4.830053   7.188845   6.473493
    29  H    1.025897   5.083879   6.677040   8.843443   7.506473
    30  H    1.026108   5.307971   6.685493   8.903679   7.102497
    31  H    1.026123   5.968153   6.958975   9.326809   8.011430
                   21         22         23         24         25
    21  H    0.000000
    22  H    3.302019   0.000000
    23  H    5.192625   4.179392   0.000000
    24  H    3.479546   4.202941   2.543552   0.000000
    25  H    4.893424   6.918084   9.582155   7.607165   0.000000
    26  H    4.311444   6.966228   9.335992   7.217944   1.772168
    27  H    4.814589   6.677896   9.894837   8.238808   3.072798
    28  H    5.606179   6.999577  10.434596   8.833676   2.489202
    29  H    6.957599   9.016626  11.984878  10.028213   2.738677
    30  H    6.393390   8.795791  11.565148   9.560833   3.252276
    31  H    7.113856   9.010654  12.230346  10.439142   3.814747
                   26         27         28         29         30
    26  H    0.000000
    27  H    2.572442   0.000000
    28  H    3.085196   1.775372   0.000000
    29  H    2.979656   2.994950   2.443550   0.000000
    30  H    2.494867   2.447573   2.976995   1.653522   0.000000
    31  H    3.650861   2.432973   2.407994   1.655854   1.655477
                   31
    31  H    0.000000
 Symmetry turned off by external request.
 Stoichiometry    C9H15N4O3(1+)
 Framework group  C1[X(C9H15N4O3)]
 Deg. of freedom    87
 Full point group                 C1      NOp   1
 Rotational constants (GHZ):      1.0858206      0.2212415      0.1961514
 Standard basis: 6-311++G(2df,2pd) (5D, 7F)
   769 basis functions,  1102 primitive gaussians,   864 cartesian basis functions
    60 alpha electrons       60 beta electrons
       nuclear repulsion energy      1111.1511946022 Hartrees.
 NAtoms=   31 NActive=   31 NUniq=   31 SFac= 1.00D+00 NAtFMM=   60 NAOKFM=F Big=F
 Integral buffers will be    131072 words long.
 Raffenetti 2 integral format.
 Two-electron integral symmetry is turned off.
 One-electron integrals computed using PRISM.
 NBasis=   769 RedAO= T EigKep=  1.28D-06  NBF=   769
 NBsUse=   769 1.00D-06 EigRej= -1.00D+00 NBFU=   769
 Initial guess from the checkpoint file:  "conf-55.chk"
 B after Tr=     0.000000    0.000000    0.000000
         Rot=    1.000000    0.000000    0.000000    0.000000 Ang=   0.00 deg.
 Requested convergence on RMS density matrix=1.00D-08 within 128 cycles.
 Requested convergence on MAX density matrix=1.00D-06.
 Requested convergence on             energy=1.00D-06.
 No special actions if energy rises.
 SCF Done:  E(RB3LYP) =  -796.736544089     A.U. after   14 cycles
            NFock= 14  Conv=0.15D-08     -V/T= 2.0044

 **********************************************************************

            Population analysis using the SCF density.

 **********************************************************************

 Alpha  occ. eigenvalues --  -19.27377 -19.23057 -19.22193 -14.64013 -14.47377
 Alpha  occ. eigenvalues --  -14.46663 -14.38545 -10.42010 -10.41704 -10.41643
 Alpha  occ. eigenvalues --  -10.35931 -10.35257 -10.31638 -10.31099 -10.30641
 Alpha  occ. eigenvalues --  -10.28135  -1.21477  -1.20367  -1.18046  -1.13465
 Alpha  occ. eigenvalues --   -1.11251  -1.06504  -0.96947  -0.96663  -0.91657
 Alpha  occ. eigenvalues --   -0.86028  -0.83206  -0.78953  -0.78890  -0.77735
 Alpha  occ. eigenvalues --   -0.73534  -0.71719  -0.71156  -0.69403  -0.68516
 Alpha  occ. eigenvalues --   -0.67653  -0.65162  -0.63761  -0.60958  -0.60609
 Alpha  occ. eigenvalues --   -0.58579  -0.57845  -0.56692  -0.55801  -0.54721
 Alpha  occ. eigenvalues --   -0.54379  -0.53640  -0.52602  -0.51538  -0.51202
 Alpha  occ. eigenvalues --   -0.50303  -0.49208  -0.48454  -0.43264  -0.40756
 Alpha  occ. eigenvalues --   -0.40130  -0.39475  -0.38286  -0.36429  -0.32982
 Alpha virt. eigenvalues --   -0.20171  -0.14820  -0.14226  -0.13623  -0.12290
 Alpha virt. eigenvalues --   -0.11324  -0.10688  -0.09538  -0.09286  -0.08509
 Alpha virt. eigenvalues --   -0.08393  -0.08070  -0.07281  -0.06401  -0.06081
 Alpha virt. eigenvalues --   -0.05958  -0.05429  -0.05086  -0.04749  -0.03870
 Alpha virt. eigenvalues --   -0.03365  -0.03058  -0.02620  -0.02283  -0.01607
 Alpha virt. eigenvalues --   -0.01183  -0.00700  -0.00389   0.00097   0.00490
 Alpha virt. eigenvalues --    0.00652   0.00873   0.01154   0.01613   0.02129
 Alpha virt. eigenvalues --    0.02271   0.02555   0.02801   0.03037   0.03238
 Alpha virt. eigenvalues --    0.03459   0.03966   0.04522   0.04679   0.04944
 Alpha virt. eigenvalues --    0.05360   0.05591   0.05925   0.06188   0.06778
 Alpha virt. eigenvalues --    0.06826   0.07081   0.07378   0.07691   0.07990
 Alpha virt. eigenvalues --    0.08474   0.09024   0.09267   0.09491   0.10307
 Alpha virt. eigenvalues --    0.10545   0.10896   0.11165   0.11377   0.12124
 Alpha virt. eigenvalues --    0.12617   0.13042   0.13199   0.14133   0.14854
 Alpha virt. eigenvalues --    0.15364   0.15776   0.15988   0.16371   0.16775
 Alpha virt. eigenvalues --    0.17134   0.17451   0.18064   0.18308   0.18668
 Alpha virt. eigenvalues --    0.19378   0.19585   0.20149   0.20390   0.20538
 Alpha virt. eigenvalues --    0.20723   0.21879   0.21975   0.22090   0.22714
 Alpha virt. eigenvalues --    0.22865   0.23478   0.23825   0.24328   0.24952
 Alpha virt. eigenvalues --    0.25347   0.25843   0.26362   0.26976   0.27572
 Alpha virt. eigenvalues --    0.27747   0.28032   0.28706   0.29129   0.29276
 Alpha virt. eigenvalues --    0.29799   0.30510   0.30630   0.31660   0.31962
 Alpha virt. eigenvalues --    0.32736   0.33914   0.35026   0.36071   0.36262
 Alpha virt. eigenvalues --    0.36705   0.37227   0.37692   0.38199   0.39090
 Alpha virt. eigenvalues --    0.39816   0.40675   0.40729   0.41396   0.42275
 Alpha virt. eigenvalues --    0.43022   0.43208   0.43416   0.44423   0.45768
 Alpha virt. eigenvalues --    0.45990   0.46685   0.47089   0.47658   0.47920
 Alpha virt. eigenvalues --    0.48358   0.48631   0.49411   0.49927   0.50792
 Alpha virt. eigenvalues --    0.51146   0.51376   0.52203   0.52639   0.53279
 Alpha virt. eigenvalues --    0.53665   0.55420   0.55671   0.56084   0.56774
 Alpha virt. eigenvalues --    0.57212   0.57313   0.58839   0.59451   0.60306
 Alpha virt. eigenvalues --    0.60634   0.61042   0.61257   0.62318   0.62876
 Alpha virt. eigenvalues --    0.63846   0.64510   0.65253   0.65632   0.66357
 Alpha virt. eigenvalues --    0.67024   0.67689   0.68311   0.68852   0.70053
 Alpha virt. eigenvalues --    0.70659   0.71236   0.72123   0.72678   0.73454
 Alpha virt. eigenvalues --    0.73840   0.75192   0.75723   0.76044   0.77235
 Alpha virt. eigenvalues --    0.77375   0.78846   0.79542   0.80949   0.81455
 Alpha virt. eigenvalues --    0.82262   0.82684   0.84072   0.84365   0.85445
 Alpha virt. eigenvalues --    0.87215   0.88166   0.88568   0.89379   0.90067
 Alpha virt. eigenvalues --    0.91541   0.92259   0.93672   0.94171   0.94648
 Alpha virt. eigenvalues --    0.94754   0.94984   0.96061   0.96942   0.98548
 Alpha virt. eigenvalues --    0.98779   0.99207   0.99999   1.00724   1.00880
 Alpha virt. eigenvalues --    1.01344   1.02293   1.02917   1.03584   1.04370
 Alpha virt. eigenvalues --    1.04490   1.05268   1.06275   1.06484   1.07182
 Alpha virt. eigenvalues --    1.08063   1.08372   1.09294   1.10261   1.11187
 Alpha virt. eigenvalues --    1.11667   1.12637   1.12725   1.13109   1.13511
 Alpha virt. eigenvalues --    1.15643   1.16448   1.17061   1.18260   1.18833
 Alpha virt. eigenvalues --    1.19248   1.21083   1.21874   1.22847   1.23594
 Alpha virt. eigenvalues --    1.24496   1.25527   1.26565   1.27127   1.27606
 Alpha virt. eigenvalues --    1.27850   1.28238   1.30339   1.30514   1.31154
 Alpha virt. eigenvalues --    1.31971   1.32733   1.33405   1.33903   1.34981
 Alpha virt. eigenvalues --    1.35241   1.35745   1.37060   1.38227   1.39194
 Alpha virt. eigenvalues --    1.40017   1.40346   1.40779   1.41608   1.41914
 Alpha virt. eigenvalues --    1.42988   1.43877   1.45460   1.46491   1.47459
 Alpha virt. eigenvalues --    1.48837   1.49344   1.50026   1.51170   1.52000
 Alpha virt. eigenvalues --    1.53378   1.54068   1.54533   1.56807   1.57908
 Alpha virt. eigenvalues --    1.58527   1.59468   1.61210   1.61307   1.63831
 Alpha virt. eigenvalues --    1.64918   1.65567   1.67517   1.67777   1.69158
 Alpha virt. eigenvalues --    1.70515   1.71350   1.72718   1.74694   1.74852
 Alpha virt. eigenvalues --    1.77050   1.78853   1.83517   1.84121   1.86581
 Alpha virt. eigenvalues --    1.88735   1.90195   1.93264   1.96541   1.98898
 Alpha virt. eigenvalues --    2.00552   2.03674   2.04817   2.06360   2.08090
 Alpha virt. eigenvalues --    2.12590   2.17212   2.17470   2.23277   2.25869
 Alpha virt. eigenvalues --    2.26478   2.29565   2.31819   2.34520   2.38091
 Alpha virt. eigenvalues --    2.39516   2.40038   2.41020   2.45694   2.46373
 Alpha virt. eigenvalues --    2.47871   2.50593   2.51392   2.52943   2.54468
 Alpha virt. eigenvalues --    2.54564   2.56103   2.57419   2.59363   2.59961
 Alpha virt. eigenvalues --    2.60875   2.62318   2.63866   2.64358   2.64692
 Alpha virt. eigenvalues --    2.65534   2.66669   2.67528   2.68831   2.69670
 Alpha virt. eigenvalues --    2.70327   2.71397   2.73541   2.73954   2.74317
 Alpha virt. eigenvalues --    2.75154   2.76481   2.77382   2.77407   2.78538
 Alpha virt. eigenvalues --    2.79167   2.80174   2.80536   2.81206   2.81888
 Alpha virt. eigenvalues --    2.83183   2.83612   2.85163   2.85377   2.86840
 Alpha virt. eigenvalues --    2.87293   2.87938   2.88243   2.88793   2.89896
 Alpha virt. eigenvalues --    2.90693   2.91517   2.92100   2.92588   2.93780
 Alpha virt. eigenvalues --    2.93986   2.95811   2.96384   2.97263   2.98829
 Alpha virt. eigenvalues --    2.99216   2.99989   3.01404   3.02006   3.02203
 Alpha virt. eigenvalues --    3.03481   3.03868   3.04337   3.04761   3.05507
 Alpha virt. eigenvalues --    3.06137   3.06634   3.07772   3.08032   3.08790
 Alpha virt. eigenvalues --    3.09133   3.10233   3.11914   3.13077   3.13859
 Alpha virt. eigenvalues --    3.14623   3.15277   3.15904   3.16558   3.17074
 Alpha virt. eigenvalues --    3.17855   3.18845   3.19302   3.19703   3.20202
 Alpha virt. eigenvalues --    3.21410   3.22549   3.23172   3.23869   3.25001
 Alpha virt. eigenvalues --    3.25823   3.25981   3.26622   3.27802   3.28514
 Alpha virt. eigenvalues --    3.30288   3.30995   3.31329   3.32335   3.33102
 Alpha virt. eigenvalues --    3.34228   3.35395   3.35643   3.36134   3.36470
 Alpha virt. eigenvalues --    3.36910   3.37534   3.38960   3.39176   3.39240
 Alpha virt. eigenvalues --    3.40100   3.40937   3.41454   3.43033   3.43842
 Alpha virt. eigenvalues --    3.44230   3.45470   3.45879   3.46315   3.47065
 Alpha virt. eigenvalues --    3.48535   3.49447   3.50500   3.51713   3.52039
 Alpha virt. eigenvalues --    3.53282   3.53701   3.55769   3.56468   3.57201
 Alpha virt. eigenvalues --    3.57815   3.58252   3.59718   3.60561   3.61099
 Alpha virt. eigenvalues --    3.61631   3.62763   3.63760   3.64447   3.64884
 Alpha virt. eigenvalues --    3.65923   3.66807   3.68747   3.69219   3.70422
 Alpha virt. eigenvalues --    3.70654   3.72056   3.72489   3.73496   3.73815
 Alpha virt. eigenvalues --    3.75031   3.75801   3.76192   3.76840   3.77729
 Alpha virt. eigenvalues --    3.78590   3.78656   3.80913   3.81230   3.81854
 Alpha virt. eigenvalues --    3.82166   3.82767   3.83927   3.84862   3.85588
 Alpha virt. eigenvalues --    3.86265   3.87119   3.88045   3.88573   3.89373
 Alpha virt. eigenvalues --    3.89500   3.90381   3.90830   3.92491   3.92930
 Alpha virt. eigenvalues --    3.93224   3.93438   3.95080   3.95962   3.98330
 Alpha virt. eigenvalues --    3.99869   4.00454   4.00787   4.01740   4.02695
 Alpha virt. eigenvalues --    4.03251   4.04089   4.04859   4.06456   4.07462
 Alpha virt. eigenvalues --    4.07933   4.09016   4.10632   4.11106   4.12623
 Alpha virt. eigenvalues --    4.14209   4.15956   4.16527   4.17003   4.17833
 Alpha virt. eigenvalues --    4.18323   4.19375   4.20724   4.22511   4.23645
 Alpha virt. eigenvalues --    4.25207   4.25998   4.27957   4.29750   4.30970
 Alpha virt. eigenvalues --    4.32896   4.33895   4.35158   4.37732   4.39433
 Alpha virt. eigenvalues --    4.40678   4.41543   4.42942   4.43984   4.44793
 Alpha virt. eigenvalues --    4.46860   4.48666   4.49956   4.51622   4.53311
 Alpha virt. eigenvalues --    4.53882   4.54957   4.56293   4.57717   4.61791
 Alpha virt. eigenvalues --    4.63473   4.64967   4.66836   4.68352   4.70127
 Alpha virt. eigenvalues --    4.71732   4.72443   4.73098   4.75029   4.76319
 Alpha virt. eigenvalues --    4.77752   4.78345   4.78609   4.79695   4.81187
 Alpha virt. eigenvalues --    4.81576   4.82963   4.83989   4.87237   4.87930
 Alpha virt. eigenvalues --    4.89597   4.91741   4.93211   4.93742   4.94247
 Alpha virt. eigenvalues --    4.95239   4.96081   4.96264   4.97538   4.99049
 Alpha virt. eigenvalues --    4.99216   4.99650   5.00181   5.00305   5.01280
 Alpha virt. eigenvalues --    5.02480   5.03931   5.04344   5.05990   5.06478
 Alpha virt. eigenvalues --    5.06789   5.07297   5.08752   5.09471   5.10596
 Alpha virt. eigenvalues --    5.11392   5.13160   5.13422   5.15396   5.16204
 Alpha virt. eigenvalues --    5.17200   5.18852   5.19794   5.22227   5.23689
 Alpha virt. eigenvalues --    5.24102   5.26143   5.27317   5.29060   5.29698
 Alpha virt. eigenvalues --    5.30829   5.33278   5.33874   5.34889   5.36093
 Alpha virt. eigenvalues --    5.39334   5.40276   5.40543   5.41956   5.42256
 Alpha virt. eigenvalues --    5.43191   5.45212   5.45495   5.47122   5.48899
 Alpha virt. eigenvalues --    5.51146   5.51822   5.55341   5.56835   5.57137
 Alpha virt. eigenvalues --    5.59053   5.65649   5.68836   5.70697   5.74036
 Alpha virt. eigenvalues --    5.76294   5.79566   5.80647   5.82335   5.83093
 Alpha virt. eigenvalues --    5.84209   5.85000   5.87690   5.88629   5.90440
 Alpha virt. eigenvalues --    5.95983   5.97603   6.00419   6.09890   6.13648
 Alpha virt. eigenvalues --    6.16501   6.18748   6.19767   6.21665   6.24864
 Alpha virt. eigenvalues --    6.25796   6.31553   6.33450   6.34975   6.36763
 Alpha virt. eigenvalues --    6.44159   6.47050   6.61025   6.62928   6.74447
 Alpha virt. eigenvalues --    6.77469   6.79348   6.84036   6.91125   6.91387
 Alpha virt. eigenvalues --    6.95464   6.96175   6.98477   6.99603   7.05109
 Alpha virt. eigenvalues --    7.12163   7.13300   7.16269   7.19176   7.20480
 Alpha virt. eigenvalues --    7.34969   7.39627   7.46184   7.54093   7.59144
 Alpha virt. eigenvalues --    7.62503   7.70689   7.87778  24.42808  24.64432
 Alpha virt. eigenvalues --   24.68731  24.76815  24.85031  24.90417  24.91808
 Alpha virt. eigenvalues --   24.99097  25.00829  35.91100  36.12507  36.18285
 Alpha virt. eigenvalues --   36.36324  50.08624  50.09264  50.20390
          Condensed to atoms (all electrons):
               1          2          3          4          5          6
     1  O    8.175370   0.265310  -0.049067   0.014746  -0.003961  -0.000104
     2  C    0.265310   7.770734  -0.101762  -0.756561   0.074857   0.001091
     3  N   -0.049067  -0.101762   6.598700   0.067624  -0.105412   0.001128
     4  C    0.014746  -0.756561   0.067624   8.138451  -0.555079  -0.095593
     5  C   -0.003961   0.074857  -0.105412  -0.555079   6.081439   0.388120
     6  O   -0.000104   0.001091   0.001128  -0.095593   0.388120   7.749753
     7  O    0.000087   0.049364  -0.009349  -0.026325   0.319569  -0.054051
     8  C    0.034396   0.497950  -0.087594  -0.291405   0.223981   0.110442
     9  C   -0.046497  -0.592912   0.241496  -0.476881  -0.323492  -0.029602
    10  C   -0.003588  -0.191870   0.030034  -0.629608   0.057108  -0.064787
    11  N   -0.000017  -0.000329   0.001222   0.006366   0.000006  -0.003970
    12  C   -0.000021  -0.006584   0.001180  -0.004158   0.006120  -0.009369
    13  N   -0.000155   0.000065  -0.001803   0.037303   0.024019  -0.000702
    14  C    0.083067  -1.095367   0.013701   0.101647  -0.069498  -0.001468
    15  C   -0.081651   0.320289  -0.037890  -0.139030   0.023214  -0.000126
    16  N    0.005651  -0.027743   0.004123   0.007372   0.000221   0.000001
    17  H    0.001602   0.012140   0.302541   0.042151  -0.025072   0.004681
    18  H   -0.006028   0.012856  -0.058768   0.513847  -0.087196  -0.006034
    19  H    0.000200   0.009495   0.002052   0.094939  -0.133325   0.199070
    20  H    0.006315   0.022400   0.003665   0.023521  -0.021466  -0.002704
    21  H   -0.021055  -0.002501   0.019696  -0.135266  -0.001651  -0.001413
    22  H   -0.001159  -0.000180   0.000990  -0.005648   0.003148   0.000964
    23  H   -0.000003  -0.000348  -0.000095  -0.002599   0.000323   0.000144
    24  H   -0.000091   0.001475   0.000513  -0.001515  -0.002800  -0.000168
    25  H    0.004096  -0.035759   0.018038  -0.003509   0.000270  -0.000248
    26  H   -0.003936  -0.188544   0.007355   0.023642   0.004547  -0.000052
    27  H    0.019862   0.024357   0.002809   0.003158  -0.000950   0.000015
    28  H   -0.008080  -0.013406   0.000816   0.005998  -0.000134   0.000017
    29  H   -0.001096  -0.008098  -0.000997   0.000105   0.000042   0.000001
    30  H    0.001036   0.008040  -0.000563   0.000041  -0.000143   0.000001
    31  H    0.001505  -0.004165   0.000773   0.000098   0.000081   0.000000
               7          8          9         10         11         12
     1  O    0.000087   0.034396  -0.046497  -0.003588  -0.000017  -0.000021
     2  C    0.049364   0.497950  -0.592912  -0.191870  -0.000329  -0.006584
     3  N   -0.009349  -0.087594   0.241496   0.030034   0.001222   0.001180
     4  C   -0.026325  -0.291405  -0.476881  -0.629608   0.006366  -0.004158
     5  C    0.319569   0.223981  -0.323492   0.057108   0.000006   0.006120
     6  O   -0.054051   0.110442  -0.029602  -0.064787  -0.003970  -0.009369
     7  O    8.072984  -0.017926  -0.013027  -0.010522  -0.000028  -0.001709
     8  C   -0.017926  14.090419  -6.853840  -1.401094  -0.252495  -0.346107
     9  C   -0.013027  -6.853840  14.711316  -0.602340   0.082142  -0.207722
    10  C   -0.010522  -1.401094  -0.602340   8.516290   0.387924  -0.098832
    11  N   -0.000028  -0.252495   0.082142   0.387924   6.859140   0.278130
    12  C   -0.001709  -0.346107  -0.207722  -0.098832   0.278130   5.389685
    13  N   -0.000324  -0.213608   0.134284  -0.097867   0.051099   0.434013
    14  C   -0.013858  -0.170644   0.136419  -0.003106   0.000552   0.001287
    15  C    0.000813  -0.009847   0.007643  -0.006329  -0.000037  -0.000060
    16  N    0.000007   0.000637   0.000617   0.000072   0.000000   0.000001
    17  H    0.049573   0.017711  -0.067212  -0.007224  -0.000190  -0.001371
    18  H   -0.004841   0.126793  -0.127497  -0.086604   0.002807  -0.007297
    19  H    0.014239  -0.165628   0.142857   0.017774   0.006123   0.004997
    20  H   -0.003135   0.484286  -0.198700  -0.006823   0.001419  -0.003034
    21  H   -0.001113   0.338105   0.103772  -0.027987  -0.000669  -0.001520
    22  H   -0.000062  -0.009890  -0.148927   0.528240  -0.101467   0.037028
    23  H   -0.000064   0.014948   0.018689   0.020740  -0.075660   0.440074
    24  H    0.000502  -0.024827  -0.062787   0.045358  -0.003359  -0.025384
    25  H   -0.004347  -0.004507   0.011250   0.000130   0.000026   0.000179
    26  H    0.000077  -0.003967  -0.004895  -0.001181  -0.000010  -0.000104
    27  H   -0.000012   0.003001   0.000707   0.001234  -0.000005   0.000027
    28  H    0.000163   0.000718  -0.003191  -0.000131  -0.000004  -0.000033
    29  H    0.000019  -0.000222  -0.000311  -0.000038   0.000000  -0.000002
    30  H    0.000017   0.000150   0.000183   0.000024   0.000000   0.000001
    31  H    0.000001  -0.000015   0.000337   0.000021   0.000000   0.000001
              13         14         15         16         17         18
     1  O   -0.000155   0.083067  -0.081651   0.005651   0.001602  -0.006028
     2  C    0.000065  -1.095367   0.320289  -0.027743   0.012140   0.012856
     3  N   -0.001803   0.013701  -0.037890   0.004123   0.302541  -0.058768
     4  C    0.037303   0.101647  -0.139030   0.007372   0.042151   0.513847
     5  C    0.024019  -0.069498   0.023214   0.000221  -0.025072  -0.087196
     6  O   -0.000702  -0.001468  -0.000126   0.000001   0.004681  -0.006034
     7  O   -0.000324  -0.013858   0.000813   0.000007   0.049573  -0.004841
     8  C   -0.213608  -0.170644  -0.009847   0.000637   0.017711   0.126793
     9  C    0.134284   0.136419   0.007643   0.000617  -0.067212  -0.127497
    10  C   -0.097867  -0.003106  -0.006329   0.000072  -0.007224  -0.086604
    11  N    0.051099   0.000552  -0.000037   0.000000  -0.000190   0.002807
    12  C    0.434013   0.001287  -0.000060   0.000001  -0.001371  -0.007297
    13  N    6.267830  -0.000160  -0.000212   0.000001   0.000352  -0.000923
    14  C   -0.000160   6.261117  -0.225760   0.000037   0.002486  -0.008281
    15  C   -0.000212  -0.225760   5.776085   0.095711  -0.040174  -0.007763
    16  N    0.000001   0.000037   0.095711   5.485797   0.000853  -0.000510
    17  H    0.000352   0.002486  -0.040174   0.000853   0.565783   0.009430
    18  H   -0.000923  -0.008281  -0.007763  -0.000510   0.009430   0.628411
    19  H   -0.005968   0.003400   0.000860   0.000006  -0.008003  -0.003431
    20  H   -0.011798   0.006363  -0.002774  -0.000112  -0.001214   0.012894
    21  H    0.002774  -0.002131   0.008509   0.000309  -0.000996  -0.014014
    22  H    0.014130  -0.003003   0.000541   0.000010  -0.000306  -0.009445
    23  H   -0.075336   0.000013  -0.000002   0.000000  -0.000056   0.000274
    24  H    0.406154  -0.000318   0.000031   0.000000   0.000421  -0.000948
    25  H    0.000026   0.394059   0.000500   0.003415  -0.009875  -0.000720
    26  H    0.000067   0.501126  -0.045920   0.013124   0.002131  -0.002095
    27  H   -0.000002  -0.033313   0.352400  -0.010161   0.000877  -0.000004
    28  H    0.000009   0.027297   0.349965  -0.020837   0.002687   0.000473
    29  H    0.000000   0.012694  -0.025007   0.376572   0.000449   0.000074
    30  H    0.000000  -0.001433  -0.024672   0.369151   0.000210   0.000038
    31  H   -0.000001  -0.004612  -0.023093   0.399974  -0.000341  -0.000139
              19         20         21         22         23         24
     1  O    0.000200   0.006315  -0.021055  -0.001159  -0.000003  -0.000091
     2  C    0.009495   0.022400  -0.002501  -0.000180  -0.000348   0.001475
     3  N    0.002052   0.003665   0.019696   0.000990  -0.000095   0.000513
     4  C    0.094939   0.023521  -0.135266  -0.005648  -0.002599  -0.001515
     5  C   -0.133325  -0.021466  -0.001651   0.003148   0.000323  -0.002800
     6  O    0.199070  -0.002704  -0.001413   0.000964   0.000144  -0.000168
     7  O    0.014239  -0.003135  -0.001113  -0.000062  -0.000064   0.000502
     8  C   -0.165628   0.484286   0.338105  -0.009890   0.014948  -0.024827
     9  C    0.142857  -0.198700   0.103772  -0.148927   0.018689  -0.062787
    10  C    0.017774  -0.006823  -0.027987   0.528240   0.020740   0.045358
    11  N    0.006123   0.001419  -0.000669  -0.101467  -0.075660  -0.003359
    12  C    0.004997  -0.003034  -0.001520   0.037028   0.440074  -0.025384
    13  N   -0.005968  -0.011798   0.002774   0.014130  -0.075336   0.406154
    14  C    0.003400   0.006363  -0.002131  -0.003003   0.000013  -0.000318
    15  C    0.000860  -0.002774   0.008509   0.000541  -0.000002   0.000031
    16  N    0.000006  -0.000112   0.000309   0.000010   0.000000   0.000000
    17  H   -0.008003  -0.001214  -0.000996  -0.000306  -0.000056   0.000421
    18  H   -0.003431   0.012894  -0.014014  -0.009445   0.000274  -0.000948
    19  H    0.526700   0.003751  -0.000731  -0.003693  -0.001183  -0.000324
    20  H    0.003751   0.741633  -0.089383  -0.003974   0.000697  -0.004226
    21  H   -0.000731  -0.089383   0.703693   0.005601  -0.001066   0.003484
    22  H   -0.003693  -0.003974   0.005601   0.601946   0.001465   0.002186
    23  H   -0.001183   0.000697  -0.001066   0.001465   0.544794  -0.004498
    24  H   -0.000324  -0.004226   0.003484   0.002186  -0.004498   0.534013
    25  H    0.000616   0.000031   0.000440   0.000088   0.000004  -0.000018
    26  H    0.000000  -0.000281   0.000541  -0.000042  -0.000003  -0.000004
    27  H   -0.000001   0.000079  -0.000981   0.000099   0.000002  -0.000003
    28  H   -0.000082   0.000164  -0.000276  -0.000079  -0.000001   0.000000
    29  H   -0.000003   0.000021  -0.000011  -0.000007   0.000000   0.000000
    30  H   -0.000002  -0.000015  -0.000025  -0.000001   0.000000   0.000000
    31  H    0.000004  -0.000044   0.000083   0.000008   0.000000   0.000000
              25         26         27         28         29         30
     1  O    0.004096  -0.003936   0.019862  -0.008080  -0.001096   0.001036
     2  C   -0.035759  -0.188544   0.024357  -0.013406  -0.008098   0.008040
     3  N    0.018038   0.007355   0.002809   0.000816  -0.000997  -0.000563
     4  C   -0.003509   0.023642   0.003158   0.005998   0.000105   0.000041
     5  C    0.000270   0.004547  -0.000950  -0.000134   0.000042  -0.000143
     6  O   -0.000248  -0.000052   0.000015   0.000017   0.000001   0.000001
     7  O   -0.004347   0.000077  -0.000012   0.000163   0.000019   0.000017
     8  C   -0.004507  -0.003967   0.003001   0.000718  -0.000222   0.000150
     9  C    0.011250  -0.004895   0.000707  -0.003191  -0.000311   0.000183
    10  C    0.000130  -0.001181   0.001234  -0.000131  -0.000038   0.000024
    11  N    0.000026  -0.000010  -0.000005  -0.000004   0.000000   0.000000
    12  C    0.000179  -0.000104   0.000027  -0.000033  -0.000002   0.000001
    13  N    0.000026   0.000067  -0.000002   0.000009   0.000000   0.000000
    14  C    0.394059   0.501126  -0.033313   0.027297   0.012694  -0.001433
    15  C    0.000500  -0.045920   0.352400   0.349965  -0.025007  -0.024672
    16  N    0.003415   0.013124  -0.010161  -0.020837   0.376572   0.369151
    17  H   -0.009875   0.002131   0.000877   0.002687   0.000449   0.000210
    18  H   -0.000720  -0.002095  -0.000004   0.000473   0.000074   0.000038
    19  H    0.000616   0.000000  -0.000001  -0.000082  -0.000003  -0.000002
    20  H    0.000031  -0.000281   0.000079   0.000164   0.000021  -0.000015
    21  H    0.000440   0.000541  -0.000981  -0.000276  -0.000011  -0.000025
    22  H    0.000088  -0.000042   0.000099  -0.000079  -0.000007  -0.000001
    23  H    0.000004  -0.000003   0.000002  -0.000001   0.000000   0.000000
    24  H   -0.000018  -0.000004  -0.000003   0.000000   0.000000   0.000000
    25  H    0.647947  -0.068452   0.011166  -0.024557   0.000845  -0.002624
    26  H   -0.068452   0.717789  -0.019230   0.014317  -0.002055   0.000553
    27  H    0.011166  -0.019230   0.542885  -0.027479   0.002367  -0.004612
    28  H   -0.024557   0.014317  -0.027479   0.598409  -0.005170   0.004255
    29  H    0.000845  -0.002055   0.002367  -0.005170   0.538097  -0.027289
    30  H   -0.002624   0.000553  -0.004612   0.004255  -0.027289   0.535353
    31  H    0.002423   0.000202  -0.000539  -0.005189  -0.027159  -0.021071
              31
     1  O    0.001505
     2  C   -0.004165
     3  N    0.000773
     4  C    0.000098
     5  C    0.000081
     6  O    0.000000
     7  O    0.000001
     8  C   -0.000015
     9  C    0.000337
    10  C    0.000021
    11  N    0.000000
    12  C    0.000001
    13  N   -0.000001
    14  C   -0.004612
    15  C   -0.023093
    16  N    0.399974
    17  H   -0.000341
    18  H   -0.000139
    19  H    0.000004
    20  H   -0.000044
    21  H    0.000083
    22  H    0.000008
    23  H    0.000000
    24  H    0.000000
    25  H    0.002423
    26  H    0.000202
    27  H   -0.000539
    28  H   -0.005189
    29  H   -0.027159
    30  H   -0.021071
    31  H    0.518134
 Mulliken charges:
               1
     1  O   -0.386736
     2  C   -0.044293
     3  N    0.134844
     4  C    0.042167
     5  C    0.123115
     6  O   -0.185035
     7  O   -0.346722
     8  C   -0.089922
     9  C    0.168120
    10  C   -0.365020
    11  N   -0.238716
    12  C    0.120584
    13  N    0.036732
    14  C    0.087687
    15  C   -0.266215
    16  N    0.295703
    17  H    0.145956
    18  H    0.124643
    19  H    0.295291
    20  H    0.042443
    21  H    0.115782
    22  H    0.091440
    23  H    0.118746
    24  H    0.137132
    25  H    0.059067
    26  H    0.055301
    27  H    0.132248
    28  H    0.103363
    29  H    0.166178
    30  H    0.163397
    31  H    0.162721
 Sum of Mulliken charges =   1.00000
 Mulliken charges with hydrogens summed into heavy atoms:
               1
     1  O   -0.386736
     2  C   -0.044293
     3  N    0.280801
     4  C    0.166810
     5  C    0.123115
     6  O    0.110256
     7  O   -0.346722
     8  C    0.068303
     9  C    0.168120
    10  C   -0.273580
    11  N   -0.238716
    12  C    0.239330
    13  N    0.173864
    14  C    0.202056
    15  C   -0.030604
    16  N    0.787999
 Electronic spatial extent (au):  <R**2>=           5511.7821
 Charge=              1.0000 electrons
 Dipole moment (field-independent basis, Debye):
    X=             19.7081    Y=              4.2793    Z=             -3.8804  Tot=             20.5372
 Quadrupole moment (field-independent basis, Debye-Ang):
   XX=             40.3671   YY=            -96.4041   ZZ=            -97.9578
   XY=             -0.6034   XZ=              2.4557   YZ=            -11.3956
 Traceless Quadrupole moment (field-independent basis, Debye-Ang):
   XX=             91.6987   YY=            -45.0725   ZZ=            -46.6262
   XY=             -0.6034   XZ=              2.4557   YZ=            -11.3956
 Octapole moment (field-independent basis, Debye-Ang**2):
  XXX=            791.9305  YYY=             75.0217  ZZZ=            -42.6953  XYY=             90.3779
  XXY=            121.6110  XXZ=           -111.7571  XZZ=            105.8842  YZZ=             22.9420
  YYZ=              1.2469  XYZ=             13.6613
 Hexadecapole moment (field-independent basis, Debye-Ang**3):
 XXXX=          -1474.8103 YYYY=           -815.5677 ZZZZ=           -684.3602 XXXY=             47.7487
 XXXZ=            507.5045 YYYX=            -87.3030 YYYZ=           -201.5878 ZZZX=            394.5302
 ZZZY=           -178.7541 XXYY=           -959.7408 XXZZ=          -1127.1813 YYZZ=           -256.9734
 XXYZ=           -110.5775 YYXZ=             84.0977 ZZXY=            -30.4445
 N-N= 1.111151194602D+03 E-N=-4.068258317744D+03  KE= 7.932827855262D+02
 Calling FoFJK, ICntrl=      2127 FMM=F ISym2X=0 I1Cent= 0 IOpClX= 0 NMat=1 NMatS=1 NMatT=0.
 -------------------------------------------------------------------
 Center     Atomic                   Forces (Hartrees/Bohr)
 Number     Number              X              Y              Z
 -------------------------------------------------------------------
      1        8           0.000337454   -0.005701979   -0.009656256
      2        6          -0.001493862    0.002110368    0.004002790
      3        7           0.001517420    0.001308848    0.002199414
      4        6          -0.000702218   -0.000517546    0.000495930
      5        6           0.004015754   -0.004628703   -0.007031903
      6        8           0.003280698    0.002580190    0.000778695
      7        8          -0.006874267    0.005351133    0.009812654
      8        6           0.000041262    0.000069133   -0.000102080
      9        6          -0.002534323   -0.000344582    0.003594056
     10        6           0.001808134    0.000862985   -0.002042814
     11        7           0.001964344    0.002638039   -0.007639721
     12        6           0.000197488   -0.000885987    0.001553213
     13        7           0.000194677   -0.000596648    0.002272354
     14        6           0.000224564    0.000146145    0.000621294
     15        6           0.000226468   -0.000097702    0.000322779
     16        7           0.001392327    0.000452640   -0.000999590
     17        1           0.000646564    0.002101320    0.002287894
     18        1          -0.000447046    0.000257863   -0.003034874
     19        1           0.000417593   -0.001950583   -0.002270820
     20        1           0.000028383   -0.000566173    0.002671478
     21        1          -0.001878520   -0.001847347   -0.001148691
     22        1          -0.001774053    0.000888891   -0.002269559
     23        1           0.002658081   -0.000567171    0.000548740
     24        1           0.000029332   -0.001008292    0.002727601
     25        1          -0.000533366    0.002277729    0.001528804
     26        1          -0.000403418   -0.001950854    0.001899572
     27        1           0.001647472   -0.001816035   -0.001492314
     28        1          -0.000429706    0.002281232   -0.001369603
     29        1          -0.001021367    0.002250440    0.002092239
     30        1          -0.000040947   -0.002665095    0.001766100
     31        1          -0.002494917   -0.000432260   -0.002117385
 -------------------------------------------------------------------
 Cartesian Forces:  Max     0.009812654 RMS     0.002698415

 GradGradGradGradGradGradGradGradGradGradGradGradGradGradGradGradGradGrad
 Berny optimization.
 FormGI is forming the generalized inverse of G from B-inverse, IUseBI=4.
 GSVD:  received Info=                   1 from GESDD.
 Internal  Forces:  Max     0.013089036 RMS     0.002044085
 Search for a local minimum.
 Step number   1 out of a maximum of  167
 All quantities printed in internal units (Hartrees-Bohrs-Radians)
 Mixed Optimization -- RFO/linear search
 Second derivative matrix not updated -- first step.
 ITU=  0
     Eigenvalues ---    0.00089   0.00102   0.00184   0.00202   0.00355
     Eigenvalues ---    0.00391   0.00551   0.00771   0.00836   0.01013
     Eigenvalues ---    0.01988   0.02058   0.02454   0.02625   0.03453
     Eigenvalues ---    0.03776   0.04033   0.04115   0.04193   0.04319
     Eigenvalues ---    0.04440   0.04617   0.04888   0.04999   0.05006
     Eigenvalues ---    0.05198   0.05464   0.06078   0.06270   0.06933
     Eigenvalues ---    0.07630   0.07916   0.10192   0.10319   0.11135
     Eigenvalues ---    0.11396   0.11816   0.12239   0.12537   0.12751
     Eigenvalues ---    0.13171   0.15110   0.15351   0.16740   0.17623
     Eigenvalues ---    0.18291   0.19003   0.19590   0.21320   0.22423
     Eigenvalues ---    0.22593   0.22737   0.23134   0.24441   0.24479
     Eigenvalues ---    0.25544   0.25855   0.30459   0.31458   0.32828
     Eigenvalues ---    0.33014   0.33311   0.33971   0.34106   0.34468
     Eigenvalues ---    0.34526   0.34967   0.35417   0.36992   0.37234
     Eigenvalues ---    0.37411   0.38206   0.39890   0.41196   0.42714
     Eigenvalues ---    0.42730   0.43217   0.44548   0.45337   0.45807
     Eigenvalues ---    0.46897   0.47722   0.50573   0.50642   0.57765
     Eigenvalues ---    0.81858   0.87946
 RFO step:  Lambda=-1.38900083D-03 EMin= 8.93490096D-04
 Linear search not attempted -- first point.
 Iteration  1 RMS(Cart)=  0.03367818 RMS(Int)=  0.00039550
 Iteration  2 RMS(Cart)=  0.00105817 RMS(Int)=  0.00001247
 Iteration  3 RMS(Cart)=  0.00000064 RMS(Int)=  0.00001247
 Variable       Old X    -DE/DX   Delta X   Delta X   Delta X     New X
                                 (Linear)    (Quad)   (Total)
    R1        2.32096  -0.01120   0.00000  -0.01400  -0.01400   2.30696
    R2        2.54053  -0.00502   0.00000  -0.00556  -0.00556   2.53497
    R3        2.92380  -0.00233   0.00000  -0.00932  -0.00932   2.91448
    R4        2.75221  -0.00079   0.00000  -0.00317  -0.00317   2.74904
    R5        1.92320  -0.00296   0.00000  -0.00814  -0.00814   1.91506
    R6        2.91531  -0.00201   0.00000  -0.00854  -0.00854   2.90678
    R7        2.93736  -0.00155   0.00000  -0.00737  -0.00737   2.92999
    R8        2.07251  -0.00304   0.00000  -0.00918  -0.00918   2.06333
    R9        2.51446  -0.00399   0.00000  -0.00400  -0.00400   2.51046
   R10        2.29195  -0.01309   0.00000  -0.01551  -0.01551   2.27645
   R11        1.85026  -0.00296   0.00000  -0.00789  -0.00789   1.84236
   R12        2.83655  -0.00288   0.00000  -0.00774  -0.00774   2.82881
   R13        2.07094  -0.00271   0.00000  -0.00752  -0.00752   2.06343
   R14        2.06954  -0.00285   0.00000  -0.00751  -0.00751   2.06202
   R15        2.61385  -0.00687   0.00000  -0.01312  -0.01312   2.60073
   R16        2.61268  -0.00283   0.00000  -0.00606  -0.00606   2.60662
   R17        2.60129  -0.00278   0.00000  -0.00545  -0.00545   2.59584
   R18        2.04538  -0.00301   0.00000  -0.00816  -0.00816   2.03722
   R19        2.48204  -0.00613   0.00000  -0.01067  -0.01067   2.47137
   R20        2.58459  -0.00429   0.00000  -0.00656  -0.00656   2.57802
   R21        2.04300  -0.00277   0.00000  -0.00722  -0.00722   2.03578
   R22        1.90826  -0.00289   0.00000  -0.00599  -0.00599   1.90227
   R23        2.87671  -0.00177   0.00000  -0.00764  -0.00764   2.86908
   R24        2.06906  -0.00278   0.00000  -0.00742  -0.00742   2.06164
   R25        2.07600  -0.00272   0.00000  -0.00775  -0.00775   2.06825
   R26        2.88590  -0.00231   0.00000  -0.00779  -0.00779   2.87811
   R27        2.06132  -0.00268   0.00000  -0.00751  -0.00751   2.05381
   R28        2.06250  -0.00269   0.00000  -0.00733  -0.00733   2.05516
   R29        1.93866  -0.00324   0.00000  -0.00741  -0.00741   1.93126
   R30        1.93906  -0.00319   0.00000  -0.00734  -0.00734   1.93172
   R31        1.93909  -0.00329   0.00000  -0.00752  -0.00752   1.93157
    A1        2.18083  -0.00097   0.00000  -0.00156  -0.00157   2.17927
    A2        2.08938   0.00064   0.00000   0.00142   0.00141   2.09079
    A3        2.01278   0.00033   0.00000   0.00005   0.00004   2.01282
    A4        2.14363   0.00122   0.00000   0.00333   0.00331   2.14694
    A5        2.14233  -0.00175   0.00000  -0.01511  -0.01512   2.12721
    A6        1.97483   0.00055   0.00000   0.00901   0.00897   1.98380
    A7        1.84095   0.00033   0.00000   0.00622   0.00622   1.84717
    A8        1.95677  -0.00049   0.00000  -0.00139  -0.00139   1.95538
    A9        1.89768  -0.00006   0.00000  -0.00330  -0.00329   1.89439
   A10        1.97261   0.00034   0.00000  -0.00078  -0.00078   1.97183
   A11        1.90534  -0.00045   0.00000  -0.00410  -0.00409   1.90125
   A12        1.88887   0.00030   0.00000   0.00304   0.00303   1.89190
   A13        2.04106   0.00096   0.00000  -0.00234  -0.00234   2.03872
   A14        2.11350   0.00058   0.00000   0.00598   0.00598   2.11948
   A15        2.12862  -0.00154   0.00000  -0.00364  -0.00364   2.12498
   A16        1.94001   0.00109   0.00000   0.00958   0.00958   1.94959
   A17        1.97099   0.00130   0.00000   0.00500   0.00500   1.97599
   A18        1.89849  -0.00028   0.00000   0.00123   0.00123   1.89972
   A19        1.86161  -0.00005   0.00000   0.00243   0.00243   1.86404
   A20        1.92866  -0.00039   0.00000  -0.00197  -0.00199   1.92667
   A21        1.92896  -0.00077   0.00000  -0.00428  -0.00429   1.92467
   A22        1.87128   0.00015   0.00000  -0.00258  -0.00259   1.86869
   A23        2.31121  -0.00025   0.00000  -0.00126  -0.00127   2.30995
   A24        2.15231  -0.00005   0.00000  -0.00147  -0.00148   2.15083
   A25        1.81960   0.00030   0.00000   0.00267   0.00267   1.82227
   A26        1.93905  -0.00120   0.00000  -0.00458  -0.00458   1.93447
   A27        2.23167   0.00054   0.00000   0.00302   0.00302   2.23469
   A28        2.11182   0.00066   0.00000   0.00167   0.00166   2.11348
   A29        1.83683   0.00196   0.00000   0.00618   0.00618   1.84301
   A30        1.95064  -0.00151   0.00000  -0.00483  -0.00484   1.94580
   A31        2.19802   0.00074   0.00000   0.00255   0.00255   2.20057
   A32        2.13449   0.00077   0.00000   0.00230   0.00230   2.13680
   A33        1.87863   0.00045   0.00000   0.00058   0.00058   1.87921
   A34        2.20210   0.00008   0.00000   0.00136   0.00136   2.20346
   A35        2.20245  -0.00053   0.00000  -0.00195  -0.00195   2.20049
   A36        1.87089   0.00295   0.00000   0.01387   0.01387   1.88476
   A37        1.94857  -0.00115   0.00000  -0.00301  -0.00302   1.94555
   A38        1.87545  -0.00104   0.00000  -0.00653  -0.00655   1.86890
   A39        1.95591  -0.00076   0.00000  -0.00338  -0.00338   1.95253
   A40        1.93063  -0.00054   0.00000  -0.00091  -0.00089   1.92974
   A41        1.88125   0.00049   0.00000  -0.00031  -0.00033   1.88092
   A42        1.94632  -0.00056   0.00000  -0.00354  -0.00353   1.94279
   A43        1.91953   0.00090   0.00000   0.01073   0.01072   1.93026
   A44        1.96498  -0.00003   0.00000  -0.00102  -0.00103   1.96396
   A45        1.87641  -0.00051   0.00000  -0.00611  -0.00610   1.87031
   A46        1.85273   0.00031   0.00000   0.00155   0.00155   1.85428
   A47        1.90049  -0.00015   0.00000  -0.00226  -0.00227   1.89822
   A48        1.95045   0.00004   0.00000   0.00033   0.00033   1.95078
   A49        1.93932  -0.00018   0.00000  -0.00140  -0.00140   1.93793
   A50        1.94163  -0.00035   0.00000  -0.00252  -0.00252   1.93911
   A51        1.87408   0.00016   0.00000   0.00175   0.00175   1.87582
   A52        1.87790   0.00015   0.00000   0.00083   0.00083   1.87873
   A53        1.87700   0.00022   0.00000   0.00125   0.00125   1.87825
    D1       -0.09160   0.00023   0.00000  -0.00147  -0.00142  -0.09302
    D2       -2.99182   0.00006   0.00000   0.01203   0.01198  -2.97985
    D3        3.07166   0.00030   0.00000   0.00373   0.00378   3.07544
    D4        0.17144   0.00012   0.00000   0.01723   0.01718   0.18862
    D5        0.47862   0.00012   0.00000   0.00856   0.00855   0.48717
    D6        2.62684   0.00044   0.00000   0.01182   0.01182   2.63866
    D7       -1.59704  -0.00026   0.00000   0.00571   0.00573  -1.59131
    D8       -2.68342   0.00004   0.00000   0.00360   0.00359  -2.67983
    D9       -0.53520   0.00035   0.00000   0.00687   0.00686  -0.52834
   D10        1.52410  -0.00034   0.00000   0.00076   0.00077   1.52488
   D11       -2.77827   0.00054   0.00000   0.04826   0.04830  -2.72997
   D12        1.35109   0.00019   0.00000   0.04589   0.04592   1.39701
   D13       -0.73664   0.00015   0.00000   0.04515   0.04518  -0.69146
   D14        0.14289   0.00039   0.00000   0.03293   0.03290   0.17579
   D15       -2.01093   0.00004   0.00000   0.03056   0.03053  -1.98041
   D16        2.18452   0.00001   0.00000   0.02982   0.02978   2.21431
   D17        3.05758  -0.00012   0.00000  -0.01442  -0.01443   3.04315
   D18       -0.08750   0.00002   0.00000  -0.01308  -0.01308  -0.10059
   D19       -1.08187  -0.00029   0.00000  -0.01236  -0.01236  -1.09423
   D20        2.05623  -0.00015   0.00000  -0.01102  -0.01102   2.04521
   D21        1.02115   0.00000   0.00000  -0.01188  -0.01188   1.00927
   D22       -2.12394   0.00014   0.00000  -0.01054  -0.01054  -2.13447
   D23       -3.03964   0.00050   0.00000   0.03023   0.03023  -3.00941
   D24        1.09576   0.00031   0.00000   0.02846   0.02846   1.12421
   D25       -0.91739   0.00030   0.00000   0.02960   0.02961  -0.88778
   D26        1.16562   0.00018   0.00000   0.02372   0.02372   1.18934
   D27       -0.98217  -0.00001   0.00000   0.02195   0.02195  -0.96022
   D28       -2.99532  -0.00002   0.00000   0.02310   0.02310  -2.97221
   D29       -0.94676   0.00032   0.00000   0.02728   0.02728  -0.91949
   D30       -3.09455   0.00014   0.00000   0.02551   0.02551  -3.06905
   D31        1.17548   0.00013   0.00000   0.02666   0.02666   1.20214
   D32        0.05612   0.00026   0.00000   0.00884   0.00884   0.06496
   D33       -3.08195   0.00012   0.00000   0.00746   0.00747  -3.07448
   D34        0.84865   0.00004   0.00000  -0.01327  -0.01328   0.83537
   D35       -2.30688  -0.00002   0.00000  -0.02009  -0.02009  -2.32697
   D36        2.97959   0.00031   0.00000  -0.00960  -0.00961   2.96998
   D37       -0.17594   0.00025   0.00000  -0.01642  -0.01642  -0.19236
   D38       -1.23511  -0.00023   0.00000  -0.01673  -0.01672  -1.25184
   D39        1.89254  -0.00029   0.00000  -0.02355  -0.02354   1.86900
   D40        3.12912  -0.00002   0.00000  -0.00505  -0.00506   3.12406
   D41        0.02640  -0.00007   0.00000  -0.00825  -0.00826   0.01814
   D42       -0.00045   0.00004   0.00000   0.00085   0.00085   0.00040
   D43       -3.10317  -0.00001   0.00000  -0.00235  -0.00235  -3.10553
   D44       -3.12655  -0.00002   0.00000   0.00368   0.00368  -3.12287
   D45        0.01928   0.00004   0.00000   0.00602   0.00603   0.02530
   D46        0.00443  -0.00007   0.00000  -0.00154  -0.00154   0.00288
   D47       -3.13293  -0.00001   0.00000   0.00081   0.00081  -3.13213
   D48       -0.00382   0.00001   0.00000   0.00019   0.00019  -0.00362
   D49        3.10198   0.00006   0.00000   0.00319   0.00318   3.10516
   D50        0.00676  -0.00006   0.00000  -0.00123  -0.00123   0.00553
   D51        3.13964   0.00001   0.00000   0.00100   0.00100   3.14063
   D52       -0.00728   0.00009   0.00000   0.00182   0.00182  -0.00545
   D53        3.13008   0.00003   0.00000  -0.00051  -0.00051   3.12957
   D54       -3.14052   0.00002   0.00000  -0.00031  -0.00031  -3.14084
   D55       -0.00317  -0.00004   0.00000  -0.00265  -0.00265  -0.00581
   D56       -2.88614   0.00004   0.00000  -0.01947  -0.01947  -2.90561
   D57       -0.80616  -0.00037   0.00000  -0.02234  -0.02235  -0.82851
   D58        1.31659   0.00006   0.00000  -0.01829  -0.01830   1.29829
   D59        1.25336  -0.00005   0.00000  -0.02304  -0.02304   1.23033
   D60       -2.94983  -0.00046   0.00000  -0.02591  -0.02592  -2.97575
   D61       -0.82709  -0.00004   0.00000  -0.02187  -0.02186  -0.84895
   D62       -0.84646   0.00021   0.00000  -0.01975  -0.01974  -0.86620
   D63        1.23353  -0.00020   0.00000  -0.02262  -0.02262   1.21091
   D64       -2.92691   0.00023   0.00000  -0.01857  -0.01857  -2.94548
   D65       -1.05627   0.00016   0.00000   0.00402   0.00402  -1.05225
   D66        1.03671   0.00027   0.00000   0.00551   0.00551   1.04223
   D67        3.12748   0.00019   0.00000   0.00448   0.00448   3.13196
   D68        3.12148  -0.00028   0.00000  -0.00312  -0.00312   3.11836
   D69       -1.06873  -0.00017   0.00000  -0.00163  -0.00163  -1.07036
   D70        1.02204  -0.00025   0.00000  -0.00266  -0.00266   1.01938
   D71        1.08970  -0.00001   0.00000   0.00166   0.00166   1.09136
   D72       -3.10050   0.00010   0.00000   0.00315   0.00314  -3.09735
   D73       -1.00973   0.00002   0.00000   0.00211   0.00211  -1.00762
         Item               Value     Threshold  Converged?
 Maximum Force            0.013089     0.000450     NO 
 RMS     Force            0.002044     0.000300     NO 
 Maximum Displacement     0.125613     0.001800     NO 
 RMS     Displacement     0.033469     0.001200     NO 
 Predicted change in Energy=-7.132479D-04
 GradGradGradGradGradGradGradGradGradGradGradGradGradGradGradGradGradGrad

                          Input orientation:                          
 ---------------------------------------------------------------------
 Center     Atomic      Atomic             Coordinates (Angstroms)
 Number     Number       Type             X           Y           Z
 ---------------------------------------------------------------------
      1          8           0        1.414780    0.676955    1.090559
      2          6           0        1.528458    0.105402    0.017833
      3          7           0        0.530353   -0.512562   -0.631312
      4          6           0       -0.802139   -0.670917   -0.069508
      5          6           0       -1.420085   -1.881573   -0.789588
      6          8           0       -2.606784   -2.294011   -0.357741
      7          8           0       -0.853449   -2.426007   -1.702650
      8          6           0       -1.651587    0.618018   -0.214687
      9          6           0       -2.959253    0.547745    0.510509
     10          6           0       -3.291138    0.158180    1.788065
     11          7           0       -4.641216    0.290666    2.004110
     12          6           0       -5.132315    0.756594    0.885157
     13          7           0       -4.158718    0.927194   -0.055125
     14          6           0        2.891676    0.093303   -0.703356
     15          6           0        3.980140    0.201220    0.349584
     16          7           0        5.328224    0.528071   -0.279271
     17          1           0        0.698838   -1.089203   -1.447457
     18          1           0       -0.705626   -0.902145    0.993219
     19          1           0       -2.956450   -1.714487    0.343963
     20          1           0       -1.815327    0.814832   -1.276167
     21          1           0       -1.047391    1.439386    0.173859
     22          1           0       -2.632540   -0.180503    2.571475
     23          1           0       -6.167819    0.982456    0.692121
     24          1           0       -4.293943    1.263618   -0.994194
     25          1           0        3.009489   -0.799147   -1.319698
     26          1           0        2.911694    0.962962   -1.367558
     27          1           0        3.753294    0.997396    1.053748
     28          1           0        4.118795   -0.725272    0.901981
     29          1           0        5.621857   -0.192169   -0.942198
     30          1           0        5.291298    1.415065   -0.786042
     31          1           0        6.056720    0.608933    0.433142
 ---------------------------------------------------------------------
                    Distance matrix (angstroms):
                    1          2          3          4          5
     1  O    0.000000
     2  C    1.220793   0.000000
     3  N    2.272003   1.341447   0.000000
     4  C    2.842049   2.458044   1.454729   0.000000
     5  C    4.256463   3.646080   2.388190   1.538200   0.000000
     6  O    5.205496   4.795672   3.618015   2.444229   1.328477
     7  O    4.751341   3.878346   2.593057   2.397942   1.204644
     8  C    3.333128   3.229477   2.492519   1.550481   2.575279
     9  C    4.414218   4.536292   3.821695   2.544543   3.156086
    10  C    4.785531   5.134687   4.572425   3.214513   3.782291
    11  N    6.136683   6.484172   5.859671   4.468002   4.785296
    12  C    6.550800   6.748495   5.998019   4.658282   4.852354
    13  N    5.695533   5.746706   4.938853   3.717632   3.991080
    14  C    2.395830   1.542278   2.438874   3.824927   4.743296
    15  C    2.712276   2.475881   3.656867   4.879187   5.898998
    16  N    4.148933   3.834729   4.922034   6.250035   7.183766
    17  H    3.173863   2.064564   1.013407   2.080057   2.355945
    18  H    2.645591   2.637737   2.078105   1.091866   2.155953
    19  H    5.038258   4.851056   3.814915   2.429207   1.916578
    20  H    4.006743   3.654945   2.771286   2.165647   2.768316
    21  H    2.735677   2.904970   2.635844   2.138400   3.477916
    22  H    4.394217   4.890473   4.513535   3.250486   3.957326
[...]
 673,0.00003522,-0.00004523,-0.00016083,-0.00007216,0.00010533,-0.00002
 291,0.00005257,-0.00002978,0.00000131,0.00000910,-0.00001765,-0.000014
 45,0.00000984,0.00000540,-0.00001250,-0.00000368,0.00000350,-0.0000045
 0,0.00000395,0.00002398,0.01375234,-0.11758833,-0.12526699,0.00346325,
 -0.01832268,-0.01375541,0.00008833,0.00039475,0.00080513,0.00020916,-0
 .00005262,0.00108138,0.00003201,-0.00003860,0.00004070,0.00001713,-0.0
 0001501,-0.00001073,0.00000723,0.00000689,0.00000247,-0.00001532,0.000
 01245,-0.00002474,-0.00000386,-0.00000848,-0.00000067,-0.00000103,-0.0
 0000410,0.00000094,0.00000417,-0.00000292,0.00000372,-0.01393447,0.130
 51287,0.13678237,-0.00180797,0.00321866,-0.00133970,-0.00003007,-0.025
 76175,0.01904041,-0.00165410,0.00148276,-0.00091810,-0.00034337,0.0012
 2272,-0.00060817,0.00022299,0.00024291,0.00001154,-0.00010310,-0.00006
 982,0.00004054,-0.00011114,-0.00010009,-0.00009509,-0.00035333,-0.0003
 2902,0.00015710,-0.00002459,0.00013848,-0.00007341,0.00002253,0.000001
 22,-0.00000753,-0.00004431,0.00001171,-0.00000842,-0.00004196,-0.00000
 476,0.00001369,-0.00002741,0.00001867,0.00004534,-0.04439594,-0.008803
 29,0.00514180,-0.00271066,0.02145710,-0.01738313,0.00237027,0.00134531
 ,0.00035310,0.00000068,-0.00052377,0.00064993,0.00006320,0.00001280,-0
 .00000323,0.00003431,-0.00000627,-0.00001349,-0.00005567,-0.00002080,-
 0.00005265,0.00002146,-0.00006158,0.00008056,-0.00000035,0.00000556,-0
 .00001422,-0.00000320,-0.00000772,0.00000176,0.00000367,-0.00001464,0.
 00001445,-0.00011617,0.00314294,-0.00225900,0.05203057,0.00051900,-0.0
 0037249,-0.00024449,-0.00119954,-0.00031956,-0.00059480,-0.00069301,0.
 00082241,0.00008568,-0.00011884,0.00021056,-0.00022135,0.00008007,0.00
 008287,0.00007062,-0.00007630,-0.00004439,0.00000215,-0.00006384,-0.00
 001391,-0.00006525,-0.00009262,-0.00008632,0.00010688,0.00000122,0.000
 04508,-0.00003714,0.00000671,0.00000148,-0.00001314,-0.00002776,0.0000
 0727,0.00000133,-0.00001742,-0.00000213,0.00000792,-0.00000728,-0.0000
 0186,0.00002171,-0.00405830,-0.20998162,0.12130578,0.00039860,0.003303
 40,-0.00209899,0.00028361,0.00091040,-0.00077106,0.00014071,-0.0004018
 6,0.00050487,0.00004041,-0.00002435,-0.00001285,0.00002165,-0.00000691
 ,-0.00000942,-0.00000326,0.00000089,-0.00000969,-0.00000333,-0.0000215
 5,-0.00001474,0.00000009,-0.00000053,-0.00000512,-0.00000072,-0.000002
 16,0.00000135,0.00000672,-0.00000268,0.00000858,-0.00108033,-0.0202513
 9,0.01629875,0.00535166,0.22435517,0.00170849,-0.00216691,0.00110573,0
 .00213039,0.01182658,-0.01079738,-0.00063789,-0.00063171,0.00028313,0.
 00040634,-0.00035091,0.00008670,0.00001620,0.00002665,0.00008666,-0.00
 005378,-0.00002568,-0.00001740,-0.00002939,-0.00000742,-0.00003103,0.0
 0007425,0.00003850,-0.00000281,0.00000572,-0.00000219,0.00001456,0.000
 00246,-0.00000045,-0.00001073,-0.00001121,0.00000355,0.00000162,-0.000
 00406,-0.00000243,0.00000605,0.00000681,-0.00000621,-0.00000003,-0.000
 18900,0.12220307,-0.13948856,0.00021207,0.01944881,-0.01585767,0.00113
 990,-0.00044205,0.00173795,0.00001372,-0.00007109,0.00013134,-0.000113
 38,-0.00004793,-0.00000108,0.00001380,-0.00000468,-0.00000651,0.000007
 26,0.00000906,0.00001172,-0.00000336,0.00003594,-0.00002757,-0.0000007
 3,-0.00000013,-0.00000142,0.00000027,0.00000022,0.00000050,0.00000353,
 0.00000247,0.00000487,-0.00074656,-0.01407246,0.01221611,-0.00004663,-
 0.13449374,0.15159901,-0.00130618,0.00215844,0.00262020,0.00049572,-0.
 00273792,-0.00454905,0.00084649,0.00111935,0.00188427,-0.00027388,0.00
 002389,0.00014591,-0.00004565,-0.00021318,-0.00013125,0.00004703,0.000
 06643,0.00003612,0.00001540,0.00018280,0.00012576,-0.00001210,-0.00001
 223,-0.00001826,-0.00002819,-0.00000346,0.00000733,-0.00002101,0.00001
 562,0.00000995,0.00004999,-0.00000476,0.00000383,0.00002301,-0.0000023
 0,-0.00001499,0.00000365,0.00000546,-0.00000822,0.00557308,-0.01941314
 ,-0.01419168,-0.05314510,0.03318660,0.02583885,-0.01578420,0.02339432,
 0.02380328,0.00053874,0.00004686,-0.00014161,-0.00005576,-0.00004645,-
 0.00002031,-0.00002553,-0.00002189,-0.00000339,0.00001685,0.00001026,0
 .00001046,-0.00003261,0.00005042,-0.00002549,-0.00000742,-0.00001504,0
 .00001335,-0.00000031,-0.00000044,-0.00000048,-0.00001182,0.00000264,-
 0.00001157,-0.00438837,0.00036350,-0.00308617,0.00088639,0.00045311,0.
 00022455,0.06841984,0.00187176,-0.00029900,0.00132135,0.00049525,-0.00
 051957,-0.00210785,-0.00010079,0.00018950,0.00012640,0.00002359,-0.000
 01804,-0.00004608,0.00001803,0.00000138,0.00000080,-0.00001843,-0.0000
 1159,0.00000512,-0.00001097,0.00000609,0.00000835,0.00000327,0.0000051
 2,0.00000481,0.00000152,0.00000095,-0.00000052,-0.00000296,-0.00000034
 ,-0.00000777,-0.00000536,-0.00000269,0.00000505,0.00000160,0.00000084,
 -0.00000131,0.00000286,-0.00000610,0.00000759,-0.00203133,-0.00061562,
 -0.00081018,0.04233110,-0.21689151,-0.13240616,-0.00572479,0.00976329,
 0.01041809,-0.00003250,0.00008504,0.00003016,-0.00000122,-0.00000322,0
 .00001223,0.00000176,0.00000330,-0.00000339,0.00000472,0.00000266,0.00
 000342,-0.00000450,0.00001157,-0.00000574,-0.00000105,0.00000220,-0.00
 000094,0.00000058,0.00000077,0.00000041,0.00000338,0.00000295,0.000000
 60,0.00023747,0.00140521,-0.00015391,-0.00045606,0.00071146,0.00010995
 ,-0.04015757,0.22313517,0.00232800,0.00109970,0.00008418,0.00080729,-0
 .00075553,-0.00064358,0.00004023,-0.00026797,-0.00029212,0.00001724,0.
 00004915,0.00007654,0.00001801,-0.00002902,-0.00002378,0.00000395,0.00
 000961,0.00000132,-0.00001824,0.00000498,0.00001294,-0.00000425,0.0000
 0227,0.00000453,-0.00000238,-0.00000179,0.00000757,0.00000583,-0.00000
 525,0.00000995,0.00000479,-0.00000075,-0.00001096,0.00000053,-0.000000
 27,0.00000184,-0.00000663,0.00000817,-0.00001511,0.00027123,-0.0184543
 1,-0.01480769,0.03037788,-0.12661784,-0.15436833,0.00613163,-0.0080619
 1,-0.00936865,0.00002319,0.00001213,0.00007563,-0.00002094,0.00000181,
 0.00000984,-0.00000217,0.00000113,0.00000570,-0.00000154,-0.00000391,-
 0.00000349,-0.00000943,0.00000766,0.00001039,0.00000271,0.00000473,0.0
 0000242,-0.00000016,0.00000042,-0.00000055,-0.00000257,-0.00000132,0.0
 0000267,-0.00267628,0.00055667,-0.00200219,0.00072874,0.00019253,0.000
 52761,-0.03509669,0.13888623,0.16789807,-0.00021336,-0.00024865,0.0011
 9536,0.00187112,0.00019698,-0.00185354,-0.00051435,-0.00035973,0.00023
 630,0.00007575,0.00003124,-0.00013363,0.00001470,0.00006282,0.00000367
 ,-0.00004301,-0.00003877,0.00001083,-0.00001519,-0.00005428,0.00001867
 ,-0.00002431,-0.00000364,0.00001848,0.00000305,0.00001274,-0.00000883,
 -0.00000539,-0.00000156,-0.00001755,-0.00001593,-0.00000203,0.00001154
 ,-0.00000317,-0.00000007,0.00000125,0.00000518,-0.00000974,0.00001951,
 -0.00176458,0.02077205,-0.01267180,-0.05391624,0.03665322,-0.02083540,
 -0.00608269,-0.03328559,0.02249392,0.00003626,0.00014659,-0.00001826,-
 0.00004930,0.00001657,0.00002704,0.00000122,0.00001184,-0.00000917,0.0
 0001574,-0.00000074,0.00000705,-0.00000047,-0.00000509,-0.00001332,-0.
 00000159,0.00000419,-0.00000072,0.00000016,-0.00000029,0.00000107,0.00
 000647,0.00000202,-0.00000090,0.00095077,-0.00053543,0.00072148,-0.003
 45312,-0.00107045,-0.00300104,0.00094979,0.00482652,-0.00428086,0.0652
 7625,-0.00005417,0.00042852,-0.00084661,0.00032304,0.00068125,0.000941
 17,0.00013126,-0.00033726,-0.00013940,-0.00001035,-0.00001896,0.000031
 36,-0.00004190,0.00002086,0.00003081,0.00002960,-0.00000152,-0.0000160
 8,0.00002607,-0.00003041,-0.00001836,0.00000905,0.00001980,-0.00001133
 ,0.00000063,-0.00000974,0.00000410,0.00000116,-0.00000567,0.00000538,0
 .00000262,-0.00000239,-0.00000455,0.00000192,0.00000048,0.00000160,-0.
 00000079,-0.00000006,-0.00000815,0.00043124,0.00549981,-0.00308617,0.0
 2570473,-0.24939309,0.12006382,-0.00086598,-0.00273494,0.00128081,-0.0
 0004642,-0.00000266,-0.00002425,-0.00000610,0.00000771,-0.00000525,-0.
 00000684,0.00001138,0.00000740,-0.00000036,-0.00000045,0.00000058,0.00
 000159,-0.00000471,0.00000001,0.00000157,0.00000296,0.00000243,0.00000
 003,0.00000124,0.,-0.00000128,0.00000204,0.00000016,0.00046292,0.00093
 520,0.00001352,-0.00127856,0.00117816,-0.00114981,0.00224376,-0.018182
 15,0.01298862,-0.02610199,0.26050922,0.00005187,0.00046633,0.00004593,
 0.00041296,-0.00009701,-0.00009054,-0.00001322,-0.00018361,0.00008078,
 -0.00002281,-0.00002873,0.00002295,-0.00007004,0.00003023,0.00006968,0
 .00004101,0.00000098,-0.00003213,0.00004960,-0.00004189,-0.00003237,-0
 .00000335,0.00000152,-0.00000924,-0.00000155,-0.00000965,0.00000175,0.
 00000194,-0.00000494,0.00000822,0.00000223,-0.00000097,-0.00000550,0.0
 0000257,0.00000053,0.00000111,-0.00000393,0.00000210,-0.00000915,-0.00
 411903,0.01820491,-0.01163927,-0.01553547,0.11553843,-0.12146294,0.003
 08787,0.01275326,-0.00918568,-0.00006319,0.00008016,-0.00005835,-0.000
 00748,-0.00000272,0.00000810,-0.00000519,0.00001033,0.00001021,0.00000
 403,0.00000455,0.00000130,-0.00000036,-0.00000186,-0.00000502,0.000001
 25,0.00000043,0.00000316,-0.00000014,0.00000089,-0.00000013,-0.0000007
 6,0.00000184,0.00000027,0.00111600,0.00001563,0.00071510,-0.00336666,-
 0.00069217,-0.00172417,0.00080904,-0.01656924,0.01273713,0.01606328,-0
 .12986172,0.13074658,-0.00017233,-0.00055684,-0.00142514,-0.00169355,0
 .00022290,0.00201891,0.00062589,-0.00000842,-0.00027735,-0.00018823,0.
 00003795,0.00014027,-0.00019555,-0.00013008,0.00002015,0.00019038,0.00
 007968,-0.00004840,0.00013328,0.00005548,-0.00002384,0.00002641,0.0000
 4243,-0.00001914,-0.00002305,-0.00003594,0.00001051,-0.00001449,-0.000
 00466,0.00002132,0.00005170,-0.00001048,-0.00001208,0.00002082,0.00000
 157,-0.00000405,0.00000274,0.00000242,-0.00002857,0.00258393,0.0013607
 7,-0.00020319,-0.00747857,0.02403855,0.01967471,-0.08172199,0.07257730
 ,0.05700620,-0.00013936,-0.00010170,-0.00010036,0.00002777,0.00000086,
 -0.00001766,-0.00004346,0.00001654,0.00002912,-0.00000250,-0.00000300,
 0.00000021,-0.00000222,0.00001836,0.00000126,-0.00000228,-0.00000152,0
 .00001454,-0.00000019,0.00000273,-0.00000016,-0.00001636,0.00000847,-0
 .00000670,-0.00051126,-0.00086560,-0.00066197,-0.00028040,0.00012199,-
 0.00013727,-0.00473916,-0.00314781,0.00144277,0.00157220,-0.00027900,-
 0.00042001,0.08314472,-0.00060872,-0.00016220,-0.00022379,0.00045327,0
 .00008666,0.00020602,-0.00044247,-0.00023239,-0.00012943,0.00010235,-0
 .00001857,-0.00009879,0.00000262,0.00016110,0.00011621,-0.00002957,-0.
 00006000,-0.00002623,0.00000538,-0.00012865,-0.00007204,-0.00001708,-0
 .00000772,0.00001166,0.00001117,0.00000605,-0.00001157,0.00000628,-0.0
 0000937,-0.00000894,-0.00002634,-0.00000146,0.00000293,-0.00000857,0.0
 0000204,0.00000407,-0.00000206,-0.00000739,0.00001147,0.00015681,0.001
 02828,0.00140838,0.00132572,0.01027516,0.00517531,0.06487540,-0.245555
 04,-0.15448471,-0.00003839,0.00009912,0.00005148,-0.00000941,0.0000107
 8,0.00001193,0.00001102,0.00002261,0.00000111,0.00000030,0.00000168,-0
 .00000119,0.00000904,-0.00002152,0.00000061,0.00000302,0.00000781,-0.0
 0000448,0.00000032,0.00000109,0.00000092,0.00000819,0.00000378,0.00000
 447,0.00003507,-0.00037892,-0.00037723,0.00019874,-0.00032844,0.000000
 14,-0.00234759,-0.00001718,0.00088715,-0.00033478,0.00047865,0.0006335
 6,-0.07133760,0.25800378,0.00005555,-0.00003671,-0.00005217,0.00007250
 ,-0.00005117,-0.00057998,-0.00033370,-0.00004084,0.00000032,0.00004945
 ,-0.00005364,-0.00004465,-0.00002481,0.00007769,0.00010740,-0.00000058
 ,-0.00002263,-0.00003378,0.00000969,-0.00005063,-0.00008093,-0.0000013
 4,-0.00000745,0.00001015,0.00000519,0.00000114,0.00000065,0.00000801,-
 0.00000453,0.00000160,-0.00001101,0.00000323,-0.00000927,-0.00000741,-
 0.00000156,0.00000881,-0.00000451,0.00000228,-0.00000753,-0.00077863,0
 .00119740,0.00185324,0.00586774,-0.00841019,-0.00864903,0.05174014,-0.
 15920230,-0.19518220,-0.00003777,0.00001743,0.00008736,0.00000033,-0.0
 0000430,-0.00000003,0.00001068,0.00000450,0.00000598,-0.00000529,0.000
 00215,-0.00000426,0.00000473,-0.00000654,0.00000277,0.00000150,0.00000
 226,-0.00000191,-0.00000022,0.00000048,0.00000038,0.00000215,0.0000001
 2,0.00000712,0.00031801,-0.00056774,0.00027524,-0.00005375,0.00022640,
 0.00005364,0.00178717,0.00169414,0.00009310,-0.00054866,0.00014863,-0.
 00037327,-0.06074359,0.16946313,0.20205267,0.00032645,-0.00001476,-0.0
 0064954,-0.00115427,0.00065986,0.00078783,0.00064049,0.00009075,-0.000
 08182,-0.00017804,-0.00003405,0.00018083,-0.00016660,-0.00017424,-0.00
 002191,0.00016375,0.00008734,-0.00003163,0.00010416,0.00010049,0.00001
 048,0.00003965,0.00004304,-0.00002665,-0.00002342,-0.00003362,0.000017
 35,-0.00001307,0.00000074,0.00002581,0.00005845,-0.00000798,-0.0000145
 4,0.00002069,-0.00000020,-0.00000592,0.00000093,0.00000894,-0.00003375
 ,0.00231100,-0.00119661,0.00062084,0.00322538,-0.02896177,0.01649037,-
 0.05705231,0.00566804,-0.00538476,-0.00006698,-0.00012466,-0.00009769,
 0.00002411,-0.00000598,-0.00002129,-0.00003837,0.00000184,0.00002318,-
 0.00000632,-0.00000353,-0.00000153,-0.00000859,0.00002680,0.00000643,-
 0.00000281,-0.00000538,0.00001387,-0.00000044,0.00000218,-0.00000077,-
 0.00001927,0.00000481,-0.00000726,-0.00000587,0.00023706,-0.00018593,-
 0.00061787,0.00097569,-0.00130200,0.00119392,0.00058489,-0.00007017,-0
 .00616925,-0.00007231,0.00216447,-0.00099287,0.00837866,-0.00637284,0.
 05807523,0.00043153,-0.00029703,-0.00025626,-0.00070742,0.00027458,0.0
 0066350,0.00054983,0.00004615,-0.00010771,-0.00015731,0.00004165,0.000
 11238,-0.00013173,-0.00008030,0.00002306,0.00014166,0.00004592,-0.0000
 3712,0.00010096,0.00002456,-0.00001934,0.00002096,0.00004298,-0.000012
 75,-0.00001956,-0.00003002,0.00000160,-0.00001478,-0.00000917,0.000009
 06,0.00003210,-0.00001511,-0.00000039,0.00002160,0.00000391,-0.0000090
 9,0.00000451,-0.00001028,-0.00001171,0.00077146,0.00050339,-0.00183367
 ,-0.00424755,-0.00279536,0.00376585,0.01399520,-0.31295219,0.14786391,
 -0.00007897,-0.00004253,-0.00007743,0.00001370,-0.00000156,-0.00000749
 ,-0.00003684,0.00002901,0.00002425,0.00000758,0.00000451,0.00000754,-0
 .00000782,0.00002010,-0.00001165,-0.00000151,0.00000338,0.00001164,0.0
 0000126,0.00000460,0.00000050,-0.00000675,0.00001622,-0.00000546,-0.00
 006508,-0.00026512,0.00013019,-0.00041328,-0.00000911,-0.00003367,0.00
 064231,0.00106705,-0.00054501,-0.00021080,0.00144939,-0.00017774,0.000
 54442,-0.02252123,0.01582944,-0.01183645,0.32941191,-0.00007537,-0.000
 33913,-0.00045176,-0.00040701,0.00033681,0.00013461,-0.00022631,-0.000
 05114,-0.00007517,0.00003453,-0.00005131,-0.00003445,-0.00001772,0.000
 04373,0.00006021,-0.00000302,-0.00001406,-0.00001858,-0.00000040,-0.00
 002280,-0.00004869,0.00000620,0.00000089,0.00001473,0.00000378,-0.0000
 0112,0.00000409,0.00000690,-0.00000371,0.00000268,-0.00000502,0.000002
 05,-0.00001217,-0.00000633,-0.00000185,0.00000971,-0.00000364,0.000004
 18,-0.00001184,-0.00016028,-0.00156412,0.00183030,0.00197254,0.0121125
 0,-0.00809172,-0.01092534,0.15044226,-0.15099616,-0.00000151,-0.000017
 80,0.00005411,0.00000236,0.00000302,-0.00000199,0.00000616,0.00000188,
 0.00000464,-0.00000828,-0.00000332,-0.00000623,0.00000528,-0.00000245,
 0.00000895,0.00000131,0.00000337,-0.00000080,-0.00000027,0.00000053,0.
 00000033,-0.00000046,-0.00000127,0.00000749,-0.00013458,-0.00008582,-0
 .00008099,0.00013037,0.00064797,0.00021863,-0.00028000,-0.00028009,-0.
 00047836,0.00244868,-0.00072422,-0.00021588,0.00031607,-0.02252629,0.0
 1633813,0.00646775,-0.16214809,0.15474230,0.00072540,0.00036309,0.0008
 7358,-0.00017665,-0.00115732,-0.00311507,-0.00048374,0.00019932,0.0006
 3922,-0.00003553,-0.00008566,-0.00012235,-0.00013516,-0.00000506,0.000
 08372,0.00005214,0.00000046,-0.00003008,0.00006307,0.00000900,-0.00002
 263,-0.00000897,-0.00000806,0.00000381,-0.00001253,0.00000060,-0.00000
 049,-0.00001034,0.00000273,0.00000338,0.00002430,-0.00000246,-0.000002
 68,0.00000485,-0.00000116,-0.00000103,0.00000313,0.00000349,-0.0000049
 7,-0.00487009,-0.00063361,0.00484017,-0.01988533,-0.00212208,-0.019437
 56,-0.22618391,-0.01848031,-0.17729294,-0.00001229,0.00002327,-0.00000
 175,-0.00000883,-0.00000339,-0.00000086,-0.00000997,0.00000274,0.00000
 261,0.00000013,0.00000075,0.00000024,-0.00000586,0.00001401,-0.0000040
 4,-0.00000315,-0.00000380,0.00000594,-0.00000073,-0.00000037,0.0000002
 6,-0.00000869,0.00000175,-0.00000349,0.00021837,-0.00018314,0.00003832
 ,0.00051866,0.00011176,0.00031055,0.00081740,0.00128701,-0.00001173,0.
 00149329,-0.00060515,-0.00017494,0.00983797,-0.00038079,0.00899126,0.0
 0033215,0.00065678,0.00085359,0.23776090,0.00008501,-0.00009382,0.0001
 5883,0.00000978,0.00036487,-0.00063074,-0.00012993,-0.00004251,0.00005
 733,0.00001186,-0.00005961,-0.00002012,-0.00003336,0.00003949,0.000050
 03,0.00000911,-0.00001904,-0.00001445,0.00001930,-0.00003425,-0.000021
 58,0.00000803,0.00001062,0.00000062,-0.00000106,-0.00000554,-0.0000031
 9,-0.00000273,-0.00000534,-0.00000239,0.00000048,-0.00000597,0.0000008
 4,0.00000258,0.00000161,-0.00000111,0.00000145,-0.00000495,0.00000180,
 -0.00115134,-0.00011348,0.00133387,-0.00435459,-0.00084028,-0.00459460
 ,-0.01922205,-0.06493986,-0.02186050,-0.00001582,0.00002943,-0.0000094
 4,-0.00001277,0.00000413,0.00000261,-0.00000378,0.00001499,0.00000320,
 0.00000128,0.00000054,0.00000095,-0.00000059,0.00000150,-0.00000087,0.
 00000041,0.00000526,0.00000152,0.00000050,0.00000186,0.00000060,0.0000
 0054,0.00000549,0.00000045,0.00029419,0.00016300,0.00008742,0.00000016
 ,0.00024211,-0.00019544,0.00101021,0.00017246,0.00003194,-0.00047313,-
 0.00050266,-0.00007342,-0.02264978,-0.00073848,-0.02021018,0.02560040,
 0.00603970,0.02423938,0.02099562,0.06030872,0.00013898,-0.00000537,-0.
 00028923,0.00022992,0.00014121,0.00137915,0.00063088,0.00003419,-0.000
 28269,-0.00012261,0.00008269,0.00011104,-0.00011331,-0.00009373,0.0000
 0847,0.00013305,0.00006031,-0.00003519,0.00008129,0.00004185,-0.000022
 64,0.00000807,0.00003086,-0.00000651,-0.00001435,-0.00002839,0.0000111
 1,-0.00000430,-0.00000665,0.00002009,0.00003136,-0.00000661,-0.0000175
 6,0.00001321,-0.00000013,0.00000186,-0.00000333,0.00000661,-0.00003008
 ,0.00264141,0.00059662,-0.00265671,0.00938257,0.00056177,0.01647745,-0
 .16766164,-0.01987781,-0.23097802,-0.00007080,-0.00010329,-0.00005776,
 0.00002961,0.00000375,-0.00000957,-0.00002912,0.00001293,0.00002580,-0
 .00000337,-0.00000268,-0.00000255,-0.00000282,0.00001116,0.00000488,-0
 .00000053,0.00000136,0.00001102,-0.00000007,0.00000262,-0.00000006,-0.
 00001019,0.00000530,-0.00000040,-0.00000665,0.00010348,-0.00002299,-0.
 00016611,-0.00019855,-0.00011947,0.00025909,-0.00024154,0.00045339,0.0
 0011554,0.00037551,0.00039137,-0.01656653,-0.00002584,-0.01587957,-0.0
 1249921,-0.00314831,-0.01290610,0.18357996,0.02166668,0.24442147\\-0.0
 0000016,0.00000071,0.00000105,-0.00000010,-0.00000113,-0.00000142,0.00
 000045,-0.00000027,0.00000087,0.00000008,0.00000041,-0.00000044,0.0000
 0031,0.00000049,0.00000040,-0.00000074,-0.00000002,0.00000013,-0.00000
 001,-0.00000053,-0.00000014,-0.00000079,0.00000026,0.00000033,0.000000
 48,0.00000031,0.00000050,0.00000037,-0.00000028,-0.00000023,-0.0000001
 9,-0.00000009,0.00000016,0.,-0.00000003,0.00000015,0.00000008,-0.00000
 023,-0.00000030,0.00000006,0.00000055,0.00000022,0.00000057,-0.0000006
 0,-0.00000004,-0.00000022,-0.00000013,-0.00000020,0.00000005,0.0000007
 1,-0.00000050,-0.00000019,-0.00000028,0.,0.00000014,0.00000016,0.00000
 004,0.00000002,-0.00000006,-0.00000010,-0.00000014,-0.00000012,-0.0000
 0015,-0.00000002,-0.00000003,0.00000005,-0.00000002,0.00000003,0.00000
 013,-0.00000006,0.00000010,0.00000012,0.,0.,-0.00000009,-0.00000017,-0
 .00000001,-0.00000023,0.00000004,0.00000023,-0.00000005,0.00000012,-0.
 00000013,-0.00000005,0.00000001,-0.00000005,-0.00000009,0.00000002,0.0
 0000003,-0.00000005,0.,0.,-0.00000008\\\@


 TO ERR IS HUMAN - AND TO BLAME IT ON A COMPUTER IS EVEN MORE SO.
 Job cpu time:       1 days  1 hours 56 minutes 35.7 seconds.
 File lengths (MBytes):  RWF=   1351 Int=      0 D2E=      0 Chk=     46 Scr=      1
 Normal termination of Gaussian 09 at Thu Jul 29 11:15:46 2021.
