 Entering Gaussian System, Link 0=g09
 Input=opt_freq-conf-342.com
 Output=opt_freq-conf-342.log
 Initial command:
 /aerosol/software/g09/l1.exe "/scratch/nicole/10757/Gau-85358.inp" -scrdir="/scratch/nicole/10757/"
 Entering Link 1 = /aerosol/software/g09/l1.exe PID=     85363.
  
 Copyright (c) 1988,1990,1992,1993,1995,1998,2003,2009,2013,
            Gaussian, Inc.  All Rights Reserved.
  
 This is part of the Gaussian(R) 09 program.  It is based on
 the Gaussian(R) 03 system (copyright 2003, Gaussian, Inc.),
 the Gaussian(R) 98 system (copyright 1998, Gaussian, Inc.),
 the Gaussian(R) 94 system (copyright 1995, Gaussian, Inc.),
 the Gaussian 92(TM) system (copyright 1992, Gaussian, Inc.),
 the Gaussian 90(TM) system (copyright 1990, Gaussian, Inc.),
 the Gaussian 88(TM) system (copyright 1988, Gaussian, Inc.),
 the Gaussian 86(TM) system (copyright 1986, Carnegie Mellon
 University), and the Gaussian 82(TM) system (copyright 1983,
 Carnegie Mellon University). Gaussian is a federally registered
 trademark of Gaussian, Inc.
  
 This software contains proprietary and confidential information,
 including trade secrets, belonging to Gaussian, Inc.
  
 This software is provided under written license and may be
 used, copied, transmitted, or stored only in accord with that
 written license.
  
 The following legend is applicable only to US Government
 contracts under FAR:
  
                    RESTRICTED RIGHTS LEGEND
  
 Use, reproduction and disclosure by the US Government is
 subject to restrictions as set forth in subparagraphs (a)
 and (c) of the Commercial Computer Software - Restricted
 Rights clause in FAR 52.227-19.
  
 Gaussian, Inc.
 340 Quinnipiac St., Bldg. 40, Wallingford CT 06492
  
  
 ---------------------------------------------------------------
 Warning -- This program may not be used in any manner that
 competes with the business of Gaussian, Inc. or will provide
 assistance to any competitor of Gaussian, Inc.  The licensee
 of this program is prohibited from giving any competitor of
 Gaussian, Inc. access to this program.  By using this program,
 the user acknowledges that Gaussian, Inc. is engaged in the
 business of creating and licensing software in the field of
 computational chemistry and represents and warrants to the
 licensee that it is not a competitor of Gaussian, Inc. and that
 it will not use this program in any manner prohibited above.
 ---------------------------------------------------------------
  

 Cite this work as:
 Gaussian 09, Revision D.01,
 M. J. Frisch, G. W. Trucks, H. B. Schlegel, G. E. Scuseria, 
 M. A. Robb, J. R. Cheeseman, G. Scalmani, V. Barone, B. Mennucci, 
 G. A. Petersson, H. Nakatsuji, M. Caricato, X. Li, H. P. Hratchian, 
 A. F. Izmaylov, J. Bloino, G. Zheng, J. L. Sonnenberg, M. Hada, 
 M. Ehara, K. Toyota, R. Fukuda, J. Hasegawa, M. Ishida, T. Nakajima, 
 Y. Honda, O. Kitao, H. Nakai, T. Vreven, J. A. Montgomery, Jr., 
 J. E. Peralta, F. Ogliaro, M. Bearpark, J. J. Heyd, E. Brothers, 
 K. N. Kudin, V. N. Staroverov, T. Keith, R. Kobayashi, J. Normand, 
 K. Raghavachari, A. Rendell, J. C. Burant, S. S. Iyengar, J. Tomasi, 
 M. Cossi, N. Rega, J. M. Millam, M. Klene, J. E. Knox, J. B. Cross, 
 V. Bakken, C. Adamo, J. Jaramillo, R. Gomperts, R. E. Stratmann, 
 O. Yazyev, A. J. Austin, R. Cammi, C. Pomelli, J. W. Ochterski, 
 R. L. Martin, K. Morokuma, V. G. Zakrzewski, G. A. Voth, 
 P. Salvador, J. J. Dannenberg, S. Dapprich, A. D. Daniels, 
 O. Farkas, J. B. Foresman, J. V. Ortiz, J. Cioslowski, 
 and D. J. Fox, Gaussian, Inc., Wallingford CT, 2013.
 
 ******************************************
 Gaussian 09:  ES64L-G09RevD.01 24-Apr-2013
                29-Jul-2021 
 ******************************************
 %mem=2gb
 %nproc=4
 Will use up to    4 processors via shared memory.
 %chk=conf-342.chk
 ----------------------------------------------------------------------
 # B3LYP/6-311++G(2df,2pd) guess=read geom=checkpoint opt=readfc freq=n
 oraman nosymm integral(ultrafinegrid)
 ----------------------------------------------------------------------
 1/10=3,14=-1,18=20,19=15,26=4,29=2,38=1/1,3;
 2/9=110,12=2,15=1,40=1/2;
 3/5=4,6=6,7=1414,11=2,14=-4,16=1,25=1,30=1,71=1,74=-5,75=-5,116=-2/1,2,3;
 4/5=1/1;
 5/5=2,38=6/2;
 6/7=2,8=2,9=2,10=2,28=1/1;
 7/30=1/1,2,3,16;
 1/14=-1,18=20,19=15,26=4/3(2);
 2/9=110,15=1/2;
 99//99;
 2/9=110,15=1/2;
 3/5=4,6=6,7=1414,11=2,14=-2,16=1,25=1,30=1,71=1,74=-5,75=-5/1,2,3;
 4/5=5,16=3,69=1/1;
 5/5=2,38=5/2;
 7/30=1/1,2,3,16;
 1/14=-1,18=20,19=15,26=4/3(-5);
 2/9=110,15=1/2;
 6/7=2,8=2,9=2,10=2,19=2,28=1/1;
 99/9=1/99;
 ------------------------------------------------------------
 Candidate Structure: Conf:342 OPT and FREQ calc in gas phase
 ------------------------------------------------------------
 Structure from the checkpoint file:  "conf-342.chk"
 Charge =  1 Multiplicity = 1
 Redundant internal coordinates found in file.
 O,0,1.0703445206,-1.2179921998,0.1306516178
 C,0,1.4195620794,-0.088284412,-0.2088262737
 N,0,0.580617312,0.9147142795,-0.5166969646
 C,0,-0.8570070029,0.7191804364,-0.6431910472
 C,0,-1.3680394485,1.9269172775,-1.4540519604
 O,0,-2.6781539887,1.9981038275,-1.671722013
 O,0,-0.6013759972,2.7683109074,-1.8722254963
 C,0,-1.5624521617,0.567322012,0.7392537201
 C,0,-2.9335761188,-0.0236149999,0.6436409597
 C,0,-4.2019344385,0.5214600948,0.709458874
 N,0,-5.1665687877,-0.4482288482,0.5600530492
 C,0,-4.5056737439,-1.572537136,0.4062840916
 N,0,-3.1520843958,-1.3769632942,0.4403226262
 C,0,2.9229256857,0.2546948775,-0.3158971897
 C,0,3.6812400579,-0.6925961523,0.6027473002
 N,0,5.1782735156,-0.6804258894,0.3009596001
 H,0,0.9016066381,1.7940165581,-0.9182217722
 H,0,-1.0415269367,-0.1934484708,-1.2245912448
 H,0,-3.1702376198,1.3003556922,-1.1921043037
 H,0,-1.6148951377,1.5419284817,1.2336619818
 H,0,-0.9237512946,-0.0739368456,1.3540446257
 H,0,-4.4658013858,1.5558323518,0.8891400943
 H,0,-4.9446364617,-2.5505431937,0.2643483741
 H,0,-2.4396901949,-2.0904994544,0.379267847
 H,0,3.1093398073,1.3046787569,-0.0681549342
 H,0,3.2207500343,0.0996076043,-1.3622089171
 H,0,3.3271567227,-1.714691147,0.4629626997
 H,0,3.5811556835,-0.4254831105,1.6561901731
 H,0,5.3623023748,-0.9612161932,-0.6687982184
 H,0,5.5845024651,0.2526548298,0.4312479936
 H,0,5.6873564578,-1.3283747905,0.9124446671
 Recover connectivity data from disk.

 GradGradGradGradGradGradGradGradGradGradGradGradGradGradGradGradGradGrad
 Berny optimization.
 Initialization pass.
 Force constant matrix read from checkpoint file:
 "conf-342.chk"
                           ----------------------------
                           !    Initial Parameters    !
                           ! (Angstroms and Degrees)  !
 --------------------------                            --------------------------
 ! Name  Definition              Value          Derivative Info.                !
 --------------------------------------------------------------------------------
 ! R1    R(1,2)                  1.2302         D2E/DX2 =    0.7763             !
 ! R2    R(2,3)                  1.3434         D2E/DX2 =    0.5096             !
 ! R3    R(2,14)                 1.5457         D2E/DX2 =    0.2496             !
 ! R4    R(3,4)                  1.4564         D2E/DX2 =    0.3337             !
 ! R5    R(3,17)                 1.0185         D2E/DX2 =    0.4387             !
 ! R6    R(4,5)                  1.5418         D2E/DX2 =    0.268              !
 ! R7    R(4,8)                  1.5594         D2E/DX2 =    0.2505             !
 ! R8    R(4,18)                 1.0977         D2E/DX2 =    0.3292             !
 ! R9    R(5,6)                  1.33           D2E/DX2 =    0.4716             !
 ! R10   R(5,7)                  1.2127         D2E/DX2 =    0.8538             !
 ! R11   R(6,19)                 0.9793         D2E/DX2 =    0.458              !
 ! R12   R(8,9)                  1.4961         D2E/DX2 =    0.3151             !
 ! R13   R(8,20)                 1.0941         D2E/DX2 =    0.3399             !
 ! R14   R(8,21)                 1.0941         D2E/DX2 =    0.3385             !
 ! R15   R(9,10)                 1.3821         D2E/DX2 =    0.3965             !
 ! R16   R(9,13)                 1.3859         D2E/DX2 =    0.3587             !
 ! R17   R(10,11)                1.3759         D2E/DX2 =    0.3373             !
 ! R18   R(10,22)                1.0825         D2E/DX2 =    0.3708             !
 ! R19   R(11,12)                1.3132         D2E/DX2 =    0.467              !
 ! R20   R(12,13)                1.3681         D2E/DX2 =    0.3563             !
 ! R21   R(12,23)                1.0814         D2E/DX2 =    0.3749             !
 ! R22   R(13,24)                1.0101         D2E/DX2 =    0.4728             !
 ! R23   R(14,15)                1.5219         D2E/DX2 =    0.2906             !
 ! R24   R(14,25)                1.0948         D2E/DX2 =    0.3387             !
 ! R25   R(14,26)                1.0989         D2E/DX2 =    0.3295             !
 ! R26   R(15,16)                1.5272         D2E/DX2 =    0.2345             !
 ! R27   R(15,27)                1.0907         D2E/DX2 =    0.3519             !
 ! R28   R(15,28)                1.0914         D2E/DX2 =    0.3487             !
 ! R29   R(16,29)                1.0262         D2E/DX2 =    0.4275             !
 ! R30   R(16,30)                1.026          D2E/DX2 =    0.428              !
 ! R31   R(16,31)                1.0261         D2E/DX2 =    0.428              !
 ! A1    A(1,2,3)              124.8616         D2E/DX2 =    0.1967             !
 ! A2    A(1,2,14)             119.9318         D2E/DX2 =    0.1842             !
 ! A3    A(3,2,14)             115.205          D2E/DX2 =    0.1644             !
 ! A4    A(2,3,4)              122.4211         D2E/DX2 =    0.1269             !
 ! A5    A(2,3,17)             122.5543         D2E/DX2 =    0.0865             !
 ! A6    A(4,3,17)             113.1262         D2E/DX2 =    0.0946             !
 ! A7    A(3,4,5)              105.5267         D2E/DX2 =    0.116              !
 ! A8    A(3,4,8)              112.4964         D2E/DX2 =    0.0941             !
 ! A9    A(3,4,18)             108.8784         D2E/DX2 =    0.0308             !
 ! A10   A(5,4,8)              113.1137         D2E/DX2 =    0.11               !
 ! A11   A(5,4,18)             108.4803         D2E/DX2 =    0.0248             !
 ! A12   A(8,4,18)             108.2118         D2E/DX2 =    0.0342             !
 ! A13   A(4,5,6)              117.0321         D2E/DX2 =    0.1971             !
 ! A14   A(4,5,7)              121.0171         D2E/DX2 =    0.2184             !
 ! A15   A(6,5,7)              121.9508         D2E/DX2 =    0.2074             !
 ! A16   A(5,6,19)             112.1286         D2E/DX2 =    0.1981             !
 ! A17   A(4,8,9)              113.3526         D2E/DX2 =    0.1746             !
 ! A18   A(4,8,20)             109.6051         D2E/DX2 =    0.0613             !
 ! A19   A(4,8,21)             106.9253         D2E/DX2 =    0.0622             !
 ! A20   A(9,8,20)             109.6818         D2E/DX2 =    0.0525             !
 ! A21   A(9,8,21)             109.8404         D2E/DX2 =    0.0563             !
 ! A22   A(20,8,21)            107.2263         D2E/DX2 =    0.0209             !
 ! A23   A(8,9,10)             133.018          D2E/DX2 =    0.0952             !
 ! A24   A(8,9,13)             122.6556         D2E/DX2 =    0.1014             !
 ! A25   A(10,9,13)            104.325          D2E/DX2 =    0.1022             !
 ! A26   A(9,10,11)            111.1172         D2E/DX2 =    0.1137             !
 ! A27   A(9,10,22)            127.4772         D2E/DX2 =    0.0822             !
 ! A28   A(11,10,22)           121.3691         D2E/DX2 =    0.0899             !
 ! A29   A(10,11,12)           105.2639         D2E/DX2 =    0.1302             !
 ! A30   A(11,12,13)           111.8784         D2E/DX2 =    0.1182             !
 ! A31   A(11,12,23)           125.8316         D2E/DX2 =    0.0897             !
 ! A32   A(13,12,23)           122.2897         D2E/DX2 =    0.0905             !
 ! A33   A(9,13,12)            107.4127         D2E/DX2 =    0.1028             !
 ! A34   A(9,13,24)            125.978          D2E/DX2 =    0.0779             !
 ! A35   A(12,13,24)           126.534          D2E/DX2 =    0.0784             !
 ! A36   A(2,14,15)            107.7392         D2E/DX2 =    0.1655             !
 ! A37   A(2,14,25)            111.2686         D2E/DX2 =    0.0537             !
 ! A38   A(2,14,26)            107.3521         D2E/DX2 =    0.0438             !
 ! A39   A(15,14,25)           112.0561         D2E/DX2 =    0.0578             !
 ! A40   A(15,14,26)           110.6002         D2E/DX2 =    0.0533             !
 ! A41   A(25,14,26)           107.7385         D2E/DX2 =    0.0225             !
 ! A42   A(14,15,16)           111.3569         D2E/DX2 =    0.1471             !
 ! A43   A(14,15,27)           110.1309         D2E/DX2 =    0.0435             !
 ! A44   A(14,15,28)           112.6183         D2E/DX2 =    0.0452             !
 ! A45   A(16,15,27)           107.48           D2E/DX2 =    0.0537             !
 ! A46   A(16,15,28)           106.1816         D2E/DX2 =    0.0578             !
 ! A47   A(27,15,28)           108.8622         D2E/DX2 =    0.0192             !
 ! A48   A(15,16,29)           111.121          D2E/DX2 =    0.0973             !
 ! A49   A(15,16,30)           111.7326         D2E/DX2 =    0.0973             !
 ! A50   A(15,16,31)           111.3174         D2E/DX2 =    0.0963             !
 ! A51   A(29,16,30)           107.3278         D2E/DX2 =    0.054              !
 ! A52   A(29,16,31)           107.5409         D2E/DX2 =    0.0531             !
 ! A53   A(30,16,31)           107.5878         D2E/DX2 =    0.0538             !
 ! D1    D(1,2,3,4)             -7.944          D2E/DX2 =    0.0128             !
 ! D2    D(1,2,3,17)          -171.1767         D2E/DX2 =    0.0115             !
 ! D3    D(14,2,3,4)           171.5904         D2E/DX2 =    0.0117             !
 ! D4    D(14,2,3,17)            8.3577         D2E/DX2 =    0.008              !
 ! D5    D(1,2,14,15)          -24.8943         D2E/DX2 =    0.0149             !
 ! D6    D(1,2,14,25)         -148.0965         D2E/DX2 =    0.0158             !
 ! D7    D(1,2,14,26)           94.2478         D2E/DX2 =    0.0164             !
 ! D8    D(3,2,14,15)          155.5465         D2E/DX2 =    0.015              !
 ! D9    D(3,2,14,25)           32.3443         D2E/DX2 =    0.0163             !
 ! D10   D(3,2,14,26)          -85.3114         D2E/DX2 =    0.0154             !
 ! D11   D(2,3,4,5)           -160.963          D2E/DX2 =    0.0165             !
 ! D12   D(2,3,4,8)             75.2545         D2E/DX2 =    0.0168             !
 ! D13   D(2,3,4,18)           -44.6872         D2E/DX2 =    0.0087             !
 ! D14   D(17,3,4,5)             3.7052         D2E/DX2 =    0.0184             !
 ! D15   D(17,3,4,8)          -120.0772         D2E/DX2 =    0.0169             !
 ! D16   D(17,3,4,18)          119.981          D2E/DX2 =    0.0106             !
 ! D17   D(3,4,5,6)           -178.0646         D2E/DX2 =    0.0236             !
 ! D18   D(3,4,5,7)              2.0413         D2E/DX2 =    0.0229             !
 ! D19   D(8,4,5,6)            -54.6729         D2E/DX2 =    0.0264             !
 ! D20   D(8,4,5,7)            125.433          D2E/DX2 =    0.0227             !
 ! D21   D(18,4,5,6)            65.3887         D2E/DX2 =    0.0171             !
 ! D22   D(18,4,5,7)          -114.5054         D2E/DX2 =    0.016              !
 ! D23   D(3,4,8,9)           -163.0988         D2E/DX2 =    0.0206             !
 ! D24   D(3,4,8,20)            73.9988         D2E/DX2 =    0.02               !
 ! D25   D(3,4,8,21)           -41.9134         D2E/DX2 =    0.0207             !
 ! D26   D(5,4,8,9)             77.4432         D2E/DX2 =    0.0285             !
 ! D27   D(5,4,8,20)           -45.4592         D2E/DX2 =    0.021              !
 ! D28   D(5,4,8,21)          -161.3714         D2E/DX2 =    0.0237             !
 ! D29   D(18,4,8,9)           -42.7718         D2E/DX2 =    0.0132             !
 ! D30   D(18,4,8,20)         -165.6742         D2E/DX2 =    0.0149             !
 ! D31   D(18,4,8,21)           78.4135         D2E/DX2 =    0.0137             !
 ! D32   D(4,5,6,19)             6.1938         D2E/DX2 =    0.0141             !
 ! D33   D(7,5,6,19)          -173.9132         D2E/DX2 =    0.0229             !
 ! D34   D(4,8,9,10)          -102.7838         D2E/DX2 =    0.0147             !
 ! D35   D(4,8,9,13)            76.7225         D2E/DX2 =    0.0142             !
 ! D36   D(20,8,9,10)           20.0762         D2E/DX2 =    0.0132             !
 ! D37   D(20,8,9,13)         -160.4175         D2E/DX2 =    0.0143             !
 ! D38   D(21,8,9,10)          137.6851         D2E/DX2 =    0.0143             !
 ! D39   D(21,8,9,13)          -42.8087         D2E/DX2 =    0.0141             !
 ! D40   D(8,9,10,11)          179.8292         D2E/DX2 =    0.0097             !
 ! D41   D(8,9,10,22)           -2.3681         D2E/DX2 =    0.0073             !
 ! D42   D(13,9,10,11)           0.2582         D2E/DX2 =    0.0141             !
 ! D43   D(13,9,10,22)         178.0609         D2E/DX2 =    0.0103             !
 ! D44   D(8,9,13,12)          179.8947         D2E/DX2 =    0.0082             !
 ! D45   D(8,9,13,24)            2.8925         D2E/DX2 =    0.0027             !
 ! D46   D(10,9,13,12)          -0.4779         D2E/DX2 =    0.0124             !
 ! D47   D(10,9,13,24)        -177.48           D2E/DX2 =    0.0047             !
 ! D48   D(9,10,11,12)           0.072          D2E/DX2 =    0.0173             !
 ! D49   D(22,10,11,12)       -177.8858         D2E/DX2 =    0.0103             !
 ! D50   D(10,11,12,13)         -0.3918         D2E/DX2 =    0.0184             !
 ! D51   D(10,11,12,23)        179.8116         D2E/DX2 =    0.0106             !
 ! D52   D(11,12,13,9)           0.566          D2E/DX2 =    0.0172             !
 ! D53   D(11,12,13,24)        177.5468         D2E/DX2 =    0.0081             !
 ! D54   D(23,12,13,9)        -179.6291         D2E/DX2 =    0.0106             !
 ! D55   D(23,12,13,24)         -2.6483         D2E/DX2 =    0.0066             !
 ! D56   D(2,14,15,16)         165.2699         D2E/DX2 =    0.0147             !
 ! D57   D(2,14,15,27)          46.1368         D2E/DX2 =    0.0143             !
 ! D58   D(2,14,15,28)         -75.5813         D2E/DX2 =    0.0144             !
 ! D59   D(25,14,15,16)        -72.0102         D2E/DX2 =    0.0158             !
 ! D60   D(25,14,15,27)        168.8566         D2E/DX2 =    0.0151             !
 ! D61   D(25,14,15,28)         47.1386         D2E/DX2 =    0.0162             !
 ! D62   D(26,14,15,16)         48.2202         D2E/DX2 =    0.0157             !
 ! D63   D(26,14,15,27)        -70.9129         D2E/DX2 =    0.0166             !
 ! D64   D(26,14,15,28)        167.369          D2E/DX2 =    0.0157             !
 ! D65   D(14,15,16,29)        -59.4212         D2E/DX2 =    0.014              !
 ! D66   D(14,15,16,30)         60.4264         D2E/DX2 =    0.014              !
 ! D67   D(14,15,16,31)       -179.2602         D2E/DX2 =    0.0141             !
 ! D68   D(27,15,16,29)         61.2809         D2E/DX2 =    0.0154             !
 ! D69   D(27,15,16,30)       -178.8714         D2E/DX2 =    0.0148             !
 ! D70   D(27,15,16,31)        -58.5581         D2E/DX2 =    0.0151             !
 ! D71   D(28,15,16,29)        177.66           D2E/DX2 =    0.0147             !
 ! D72   D(28,15,16,30)        -62.4924         D2E/DX2 =    0.0154             !
 ! D73   D(28,15,16,31)         57.821          D2E/DX2 =    0.015              !
 --------------------------------------------------------------------------------
 Trust Radius=3.00D-01 FncErr=1.00D-07 GrdErr=1.00D-06
 Number of steps in this run=    167 maximum allowed number of steps=    186.
 GradGradGradGradGradGradGradGradGradGradGradGradGradGradGradGradGradGrad

                          Input orientation:                          
 ---------------------------------------------------------------------
 Center     Atomic      Atomic             Coordinates (Angstroms)
 Number     Number       Type             X           Y           Z
 ---------------------------------------------------------------------
      1          8           0        1.070345   -1.217992    0.130652
      2          6           0        1.419562   -0.088284   -0.208826
      3          7           0        0.580617    0.914714   -0.516697
      4          6           0       -0.857007    0.719180   -0.643191
      5          6           0       -1.368039    1.926917   -1.454052
      6          8           0       -2.678154    1.998104   -1.671722
      7          8           0       -0.601376    2.768311   -1.872225
      8          6           0       -1.562452    0.567322    0.739254
      9          6           0       -2.933576   -0.023615    0.643641
     10          6           0       -4.201934    0.521460    0.709459
     11          7           0       -5.166569   -0.448229    0.560053
     12          6           0       -4.505674   -1.572537    0.406284
     13          7           0       -3.152084   -1.376963    0.440323
     14          6           0        2.922926    0.254695   -0.315897
     15          6           0        3.681240   -0.692596    0.602747
     16          7           0        5.178274   -0.680426    0.300960
     17          1           0        0.901607    1.794017   -0.918222
     18          1           0       -1.041527   -0.193448   -1.224591
     19          1           0       -3.170238    1.300356   -1.192104
     20          1           0       -1.614895    1.541928    1.233662
     21          1           0       -0.923751   -0.073937    1.354045
     22          1           0       -4.465801    1.555832    0.889140
     23          1           0       -4.944636   -2.550543    0.264348
     24          1           0       -2.439690   -2.090499    0.379268
     25          1           0        3.109340    1.304679   -0.068155
     26          1           0        3.220750    0.099608   -1.362209
     27          1           0        3.327157   -1.714691    0.462963
     28          1           0        3.581156   -0.425483    1.656190
     29          1           0        5.362302   -0.961216   -0.668798
     30          1           0        5.584502    0.252655    0.431248
     31          1           0        5.687356   -1.328375    0.912445
 ---------------------------------------------------------------------
                    Distance matrix (angstroms):
                    1          2          3          4          5
     1  O    0.000000
     2  C    1.230219   0.000000
     3  N    2.281957   1.343361   0.000000
     4  C    2.840098   2.454270   1.456365   0.000000
     5  C    4.283393   3.658189   2.387562   1.541842   0.000000
     6  O    5.257667   4.825387   3.623176   2.451550   1.329980
     7  O    4.764114   3.874432   2.582709   2.403083   1.212677
     8  C    3.238728   3.197043   2.508155   1.559445   2.587834
     9  C    4.209641   4.436293   3.817905   2.553394   3.264322
    10  C    5.581903   5.728548   4.952869   3.613488   3.832369
    11  N    6.298889   6.640622   6.003928   4.624172   4.911900
    12  C    5.594073   6.139201   5.736608   4.434652   5.054877
    13  N    4.236753   4.793959   4.483384   3.291687   4.205603
    14  C    2.408375   1.545704   2.441793   3.822402   4.743849
    15  C    2.704753   2.477707   3.667487   4.913366   6.048760
    16  N    4.146452   3.839066   4.934722   6.266971   7.261716
    17  H    3.193870   2.077156   1.018542   2.079336   2.335823
    18  H    2.710420   2.664544   2.088179   1.097709   2.157594
    19  H    5.106300   4.895040   3.830641   2.447469   1.925906
    20  H    4.005534   3.734474   2.877052   2.184922   2.726346
    21  H    2.604222   2.816716   2.596195   2.149986   3.476523
    22  H    6.238455   6.208555   5.277665   4.008918   3.901843
    23  H    6.162269   6.840295   6.568597   5.312573   5.982692
    24  H    3.625386   4.387317   4.353886   3.382988   4.544132
    25  H    3.249753   2.194421   2.597633   4.050356   4.728088
    26  H    2.930690   2.147061   2.889566   4.186760   4.940090
    27  H    2.334597   2.595268   3.926447   4.965333   6.243487
    28  H    3.042945   2.874800   3.939644   5.127835   6.300946
    29  H    4.373323   4.064331   5.138751   6.442375   7.365829
    30  H    4.757182   4.227607   5.135736   6.547145   7.395630
    31  H    4.684035   4.583573   5.757836   7.031442   8.122552
                    6          7          8          9         10
     6  O    0.000000
     7  O    2.224057   0.000000
     8  C    3.017405   3.547935   0.000000
     9  C    3.084395   4.423075   1.496105   0.000000
    10  C    3.189421   4.967641   2.640049   1.382090   0.000000
    11  N    4.142170   6.091231   3.748748   2.274542   1.375914
    12  C    4.517457   6.267225   3.654096   2.219682   2.137521
    13  N    4.009541   5.388626   2.529137   1.385870   2.186008
    14  C    6.020783   4.600122   4.618408   5.941110   7.203204
    15  C    7.270142   6.036901   5.394658   6.648684   7.976826
    16  N    8.531673   7.072543   6.869233   8.145608   9.465712
    17  H    3.663891   2.029367   3.213034   4.522370   5.505895
    18  H    2.771529   3.063524   2.169521   2.664392   3.773569
    19  H    0.979302   3.035870   2.617720   2.275713   2.299352
    20  H    3.127279   3.489666   1.094097   2.130251   2.830003
    21  H    4.065285   4.311742   1.094130   2.132276   3.393593
    22  H    3.154251   4.901941   3.070677   2.214190   1.082514
    23  H    5.438336   7.191597   4.624477   3.251706   3.191698
    24  H    4.580404   5.661860   2.821906   2.141455   3.168101
    25  H    6.045440   4.377933   4.798046   6.227989   7.394109
    26  H    6.204608   4.689429   5.245372   6.474129   7.717902
    27  H    7.376007   6.401858   5.402980   6.487616   7.858012
    28  H    7.491844   6.335898   5.318189   6.605186   7.897436
    29  H    8.626260   7.136040   7.229887   8.451224   9.776121
    30  H    8.702906   7.063965   7.160506   8.525204   9.794080
    31  H    9.366170   8.005334   7.495558   8.723252  10.062861
                   11         12         13         14         15
    11  N    0.000000
    12  C    1.313201   0.000000
    13  N    2.221493   1.368069   0.000000
    14  C    8.167087   7.684036   6.335608   0.000000
    15  C    8.851286   8.236410   6.869430   1.521942   0.000000
    16  N   10.350691   9.725523   8.360589   2.518245   1.527198
    17  H    6.635941   6.505896   5.322891   2.611137   4.027773
    18  H    4.501759   4.069638   2.937192   4.091875   5.088501
    19  H    3.180085   3.548485   3.135791   6.244020   7.357724
    20  H    4.126604   4.329094   3.392973   4.964869   5.782750
    21  H    4.332669   3.996776   2.738290   4.206379   4.706711
    22  H    2.148403   3.165665   3.244777   7.598576   8.456461
    23  H    2.134577   1.081356   2.149767   8.372848   8.830188
    24  H    3.188354   2.130095   1.010132   5.894136   6.282505
    25  H    8.482806   8.154256   6.830460   1.094803   2.183183
    26  H    8.622200   8.100695   6.785455   1.098872   2.168108
    27  H    8.588174   7.834325   6.488077   2.156040   1.090685
    28  H    8.816162   8.262857   6.907979   2.187473   1.091379
    29  H   10.612745   9.945173   8.596382   2.748370   2.124842
    30  H   10.774663  10.253956   8.887277   2.764457   2.131975
    31  H   10.895253  10.208510   8.852173   3.414236   2.127118
                   16         17         18         19         20
    16  N    0.000000
    17  H    5.089121   0.000000
    18  H    6.422645   2.796363   0.000000
    19  H    8.709212   4.110794   2.600753   0.000000
    20  H    7.208046   3.320683   3.063216   2.891676   0.000000
    21  H    6.221859   3.461846   2.584089   3.663094   1.761588
    22  H    9.917408   5.668541   4.387881   2.464819   2.871682
    23  H   10.294270   7.379175   4.796572   4.483210   5.364240
    24  H    7.747762   5.285566   2.850619   3.807993   3.821624
    25  H    2.890912   2.415813   4.561954   6.379371   4.906059
    26  H    2.684489   2.906299   4.274556   6.505033   5.674707
    27  H    2.126637   4.483525   4.924166   7.351591   5.968536
    28  H    2.110078   4.328251   5.451783   7.528121   5.572090
    29  H    1.026226   5.248936   6.473593   8.842669   7.652867
    30  H    1.025981   5.111397   6.844346   8.965401   7.357814
    31  H    1.026118   6.000339   7.150724   9.476092   7.852687
                   21         22         23         24         25
    21  H    0.000000
    22  H    3.926627   0.000000
    23  H    4.846497   4.181144   0.000000
    24  H    2.704586   4.202479   2.549432   0.000000
    25  H    4.493223   7.639519   8.935314   6.520671   0.000000
    26  H    4.958331   8.140776   8.737421   6.314261   1.771774
    27  H    4.642878   8.462160   8.316289   5.779685   3.073455
    28  H    4.528693   8.322710   8.896192   6.376002   2.487858
    29  H    6.662854  10.264226  10.470421   7.952661   3.251291
    30  H    6.581457  10.144779  10.897180   8.359470   2.735432
    31  H    6.743543  10.554895  10.721614   8.180098   3.813229
                   26         27         28         29         30
    26  H    0.000000
    27  H    2.575705   0.000000
    28  H    3.084857   1.774927   0.000000
    29  H    2.488456   2.447534   2.977426   0.000000
    30  H    2.971067   2.994506   2.444126   1.653166   0.000000
    31  H    3.646550   2.433478   2.409243   1.655535   1.655833
                   31
    31  H    0.000000
 Symmetry turned off by external request.
 Stoichiometry    C9H15N4O3(1+)
 Framework group  C1[X(C9H15N4O3)]
 Deg. of freedom    87
 Full point group                 C1      NOp   1
 Rotational constants (GHZ):      0.9301064      0.2404222      0.1987105
 Standard basis: 6-311++G(2df,2pd) (5D, 7F)
   769 basis functions,  1102 primitive gaussians,   864 cartesian basis functions
    60 alpha electrons       60 beta electrons
       nuclear repulsion energy      1113.1696754731 Hartrees.
 NAtoms=   31 NActive=   31 NUniq=   31 SFac= 1.00D+00 NAtFMM=   60 NAOKFM=F Big=F
 Integral buffers will be    131072 words long.
 Raffenetti 2 integral format.
 Two-electron integral symmetry is turned off.
 One-electron integrals computed using PRISM.
 NBasis=   769 RedAO= T EigKep=  2.21D-06  NBF=   769
 NBsUse=   769 1.00D-06 EigRej= -1.00D+00 NBFU=   769
 Initial guess from the checkpoint file:  "conf-342.chk"
 B after Tr=     0.000000    0.000000    0.000000
         Rot=    1.000000    0.000000    0.000000    0.000000 Ang=   0.00 deg.
 Requested convergence on RMS density matrix=1.00D-08 within 128 cycles.
 Requested convergence on MAX density matrix=1.00D-06.
 Requested convergence on             energy=1.00D-06.
 No special actions if energy rises.
 SCF Done:  E(RB3LYP) =  -796.736993019     A.U. after   13 cycles
            NFock= 13  Conv=0.38D-08     -V/T= 2.0044

 **********************************************************************

            Population analysis using the SCF density.

 **********************************************************************

 Alpha  occ. eigenvalues --  -19.27366 -19.23565 -19.22182 -14.64306 -14.47652
 Alpha  occ. eigenvalues --  -14.46624 -14.38519 -10.42410 -10.42009 -10.41738
 Alpha  occ. eigenvalues --  -10.36242 -10.35328 -10.31837 -10.30996 -10.30565
 Alpha  occ. eigenvalues --  -10.28186  -1.21471  -1.20662  -1.18437  -1.13465
 Alpha  occ. eigenvalues --   -1.11242  -1.06775  -0.97147  -0.96865  -0.91613
 Alpha  occ. eigenvalues --   -0.86324  -0.83501  -0.79219  -0.79072  -0.77905
 Alpha  occ. eigenvalues --   -0.73756  -0.71658  -0.71058  -0.69690  -0.69012
 Alpha  occ. eigenvalues --   -0.67795  -0.65202  -0.64076  -0.61352  -0.60690
 Alpha  occ. eigenvalues --   -0.58792  -0.57860  -0.57351  -0.55635  -0.55268
 Alpha  occ. eigenvalues --   -0.54555  -0.53725  -0.52440  -0.51358  -0.51190
 Alpha  occ. eigenvalues --   -0.50379  -0.49536  -0.48215  -0.43243  -0.41203
 Alpha  occ. eigenvalues --   -0.40550  -0.39583  -0.38217  -0.36409  -0.33209
 Alpha virt. eigenvalues --   -0.20419  -0.14996  -0.14503  -0.13814  -0.12953
 Alpha virt. eigenvalues --   -0.11402  -0.10771  -0.09866  -0.09600  -0.08873
 Alpha virt. eigenvalues --   -0.08439  -0.07885  -0.07233  -0.06631  -0.06328
 Alpha virt. eigenvalues --   -0.06142  -0.05712  -0.05216  -0.04360  -0.04232
 Alpha virt. eigenvalues --   -0.03877  -0.03238  -0.02762  -0.01731  -0.01511
 Alpha virt. eigenvalues --   -0.01338  -0.00865  -0.00645  -0.00229   0.00152
 Alpha virt. eigenvalues --    0.00170   0.00534   0.00905   0.01344   0.01517
 Alpha virt. eigenvalues --    0.01748   0.02525   0.02594   0.02968   0.03374
 Alpha virt. eigenvalues --    0.03470   0.03925   0.04149   0.04612   0.04929
 Alpha virt. eigenvalues --    0.05172   0.05559   0.05661   0.06227   0.06275
 Alpha virt. eigenvalues --    0.06658   0.06909   0.07516   0.07931   0.08180
 Alpha virt. eigenvalues --    0.08443   0.08958   0.09385   0.09893   0.10167
 Alpha virt. eigenvalues --    0.10670   0.10965   0.11306   0.11478   0.11967
 Alpha virt. eigenvalues --    0.12855   0.13406   0.13697   0.13777   0.14257
 Alpha virt. eigenvalues --    0.14486   0.14902   0.15213   0.16198   0.16782
 Alpha virt. eigenvalues --    0.16865   0.17366   0.17698   0.18313   0.18689
 Alpha virt. eigenvalues --    0.19044   0.19161   0.19396   0.20068   0.20689
 Alpha virt. eigenvalues --    0.20943   0.21272   0.22146   0.22509   0.22725
 Alpha virt. eigenvalues --    0.22770   0.23653   0.23797   0.24232   0.24593
 Alpha virt. eigenvalues --    0.24685   0.24875   0.25701   0.26231   0.26711
 Alpha virt. eigenvalues --    0.27254   0.27727   0.28034   0.28571   0.29723
 Alpha virt. eigenvalues --    0.30218   0.30606   0.30977   0.31274   0.31374
 Alpha virt. eigenvalues --    0.32503   0.33673   0.34390   0.35038   0.36111
 Alpha virt. eigenvalues --    0.36478   0.37262   0.38070   0.38311   0.38648
 Alpha virt. eigenvalues --    0.39189   0.40256   0.40755   0.41564   0.42167
 Alpha virt. eigenvalues --    0.42605   0.42700   0.43845   0.43929   0.44436
 Alpha virt. eigenvalues --    0.45413   0.45903   0.46996   0.47385   0.48449
 Alpha virt. eigenvalues --    0.49169   0.49671   0.49951   0.50569   0.50888
 Alpha virt. eigenvalues --    0.51237   0.52006   0.52518   0.53044   0.53173
 Alpha virt. eigenvalues --    0.53462   0.54750   0.55212   0.56501   0.57314
 Alpha virt. eigenvalues --    0.57775   0.58061   0.59012   0.59245   0.59796
 Alpha virt. eigenvalues --    0.60399   0.60605   0.61665   0.62294   0.63071
 Alpha virt. eigenvalues --    0.63243   0.64078   0.64754   0.65153   0.66250
 Alpha virt. eigenvalues --    0.66650   0.67190   0.68286   0.69140   0.70258
 Alpha virt. eigenvalues --    0.70675   0.71265   0.72242   0.72698   0.73925
 Alpha virt. eigenvalues --    0.73977   0.74860   0.75354   0.76139   0.76807
 Alpha virt. eigenvalues --    0.77708   0.79553   0.80097   0.80825   0.81429
 Alpha virt. eigenvalues --    0.81594   0.82251   0.83791   0.84240   0.84820
 Alpha virt. eigenvalues --    0.86380   0.86801   0.87901   0.89940   0.90820
 Alpha virt. eigenvalues --    0.91645   0.92061   0.93109   0.93529   0.93896
 Alpha virt. eigenvalues --    0.94489   0.95668   0.96384   0.97040   0.98167
 Alpha virt. eigenvalues --    0.98197   0.99256   0.99331   0.99842   1.00865
 Alpha virt. eigenvalues --    1.01280   1.01716   1.03412   1.03518   1.03848
 Alpha virt. eigenvalues --    1.04397   1.04980   1.05522   1.06514   1.07538
 Alpha virt. eigenvalues --    1.08222   1.09092   1.09377   1.10492   1.10849
 Alpha virt. eigenvalues --    1.11284   1.12341   1.12748   1.13014   1.14763
 Alpha virt. eigenvalues --    1.15035   1.15473   1.16599   1.18194   1.18644
 Alpha virt. eigenvalues --    1.19585   1.20605   1.22146   1.22455   1.23076
 Alpha virt. eigenvalues --    1.24769   1.25091   1.25536   1.26019   1.26910
 Alpha virt. eigenvalues --    1.27475   1.28252   1.28911   1.30260   1.30817
 Alpha virt. eigenvalues --    1.31628   1.32567   1.33603   1.34517   1.35510
 Alpha virt. eigenvalues --    1.36193   1.36847   1.36992   1.37995   1.38747
 Alpha virt. eigenvalues --    1.39289   1.39952   1.40200   1.41059   1.41512
 Alpha virt. eigenvalues --    1.43362   1.43657   1.44500   1.46438   1.46946
 Alpha virt. eigenvalues --    1.47722   1.48630   1.49495   1.51140   1.51993
 Alpha virt. eigenvalues --    1.52629   1.53689   1.55178   1.55533   1.56375
 Alpha virt. eigenvalues --    1.58617   1.58978   1.60225   1.60768   1.61858
 Alpha virt. eigenvalues --    1.64335   1.64697   1.66986   1.67995   1.69052
 Alpha virt. eigenvalues --    1.71077   1.72154   1.73485   1.76303   1.76619
 Alpha virt. eigenvalues --    1.78387   1.81150   1.81444   1.84168   1.85974
 Alpha virt. eigenvalues --    1.87953   1.91342   1.93280   1.95441   1.96521
 Alpha virt. eigenvalues --    2.01854   2.02679   2.02865   2.05538   2.07485
 Alpha virt. eigenvalues --    2.10980   2.15082   2.18788   2.23566   2.24403
 Alpha virt. eigenvalues --    2.25488   2.28721   2.31310   2.34850   2.36781
 Alpha virt. eigenvalues --    2.38372   2.39716   2.41928   2.45130   2.46389
 Alpha virt. eigenvalues --    2.47500   2.48675   2.49959   2.51662   2.53372
 Alpha virt. eigenvalues --    2.54021   2.56809   2.57331   2.57835   2.60078
 Alpha virt. eigenvalues --    2.61145   2.62699   2.63886   2.63993   2.64453
 Alpha virt. eigenvalues --    2.65667   2.66095   2.68138   2.68355   2.69784
 Alpha virt. eigenvalues --    2.70974   2.71406   2.72068   2.73112   2.74411
 Alpha virt. eigenvalues --    2.76007   2.76853   2.77017   2.78072   2.78837
 Alpha virt. eigenvalues --    2.79015   2.80073   2.80747   2.80923   2.82315
 Alpha virt. eigenvalues --    2.83375   2.84030   2.84785   2.85711   2.86035
 Alpha virt. eigenvalues --    2.86848   2.87898   2.88634   2.89250   2.89714
 Alpha virt. eigenvalues --    2.90776   2.91737   2.92201   2.92648   2.93634
 Alpha virt. eigenvalues --    2.94672   2.95740   2.96170   2.98011   2.98591
 Alpha virt. eigenvalues --    2.99367   2.99518   3.01198   3.01555   3.01895
 Alpha virt. eigenvalues --    3.02121   3.03073   3.04170   3.04712   3.05178
 Alpha virt. eigenvalues --    3.05694   3.07243   3.07920   3.08239   3.09040
 Alpha virt. eigenvalues --    3.09547   3.10754   3.12482   3.12997   3.13634
 Alpha virt. eigenvalues --    3.14066   3.14663   3.15671   3.15936   3.16796
 Alpha virt. eigenvalues --    3.17816   3.18772   3.18882   3.19274   3.20621
 Alpha virt. eigenvalues --    3.21038   3.21785   3.22377   3.23575   3.24110
 Alpha virt. eigenvalues --    3.25616   3.26018   3.26797   3.27670   3.29153
 Alpha virt. eigenvalues --    3.29658   3.30829   3.31185   3.31672   3.32657
 Alpha virt. eigenvalues --    3.32936   3.34476   3.34575   3.35575   3.35802
 Alpha virt. eigenvalues --    3.36427   3.37004   3.39167   3.39380   3.40141
 Alpha virt. eigenvalues --    3.41213   3.41381   3.41824   3.42873   3.43735
 Alpha virt. eigenvalues --    3.44133   3.45031   3.46885   3.47111   3.47981
 Alpha virt. eigenvalues --    3.48913   3.49761   3.50872   3.51563   3.52144
 Alpha virt. eigenvalues --    3.52976   3.53641   3.54641   3.55448   3.56980
 Alpha virt. eigenvalues --    3.57691   3.58318   3.59477   3.60295   3.60634
 Alpha virt. eigenvalues --    3.61972   3.62639   3.63223   3.63668   3.64249
 Alpha virt. eigenvalues --    3.65323   3.66220   3.67478   3.68996   3.69861
 Alpha virt. eigenvalues --    3.71040   3.71808   3.72415   3.73630   3.73991
 Alpha virt. eigenvalues --    3.74539   3.75894   3.76783   3.77105   3.77632
 Alpha virt. eigenvalues --    3.78349   3.79513   3.79780   3.80289   3.81480
 Alpha virt. eigenvalues --    3.82259   3.82831   3.83666   3.83982   3.85300
 Alpha virt. eigenvalues --    3.86173   3.87380   3.88553   3.88880   3.89627
 Alpha virt. eigenvalues --    3.90150   3.90245   3.91451   3.91783   3.92294
 Alpha virt. eigenvalues --    3.93622   3.94235   3.94632   3.96639   3.98299
 Alpha virt. eigenvalues --    3.98704   3.99734   4.00202   4.00896   4.02059
 Alpha virt. eigenvalues --    4.03064   4.04424   4.05372   4.06292   4.06820
 Alpha virt. eigenvalues --    4.07740   4.09242   4.10726   4.11859   4.12251
 Alpha virt. eigenvalues --    4.13297   4.15522   4.15929   4.17794   4.18242
 Alpha virt. eigenvalues --    4.18625   4.20792   4.21405   4.22547   4.24495
 Alpha virt. eigenvalues --    4.25066   4.27386   4.27893   4.29000   4.31159
 Alpha virt. eigenvalues --    4.32822   4.34942   4.35826   4.37475   4.39323
 Alpha virt. eigenvalues --    4.40524   4.41796   4.42518   4.44348   4.45213
 Alpha virt. eigenvalues --    4.45649   4.47395   4.49646   4.51368   4.52553
 Alpha virt. eigenvalues --    4.54782   4.55495   4.55718   4.58654   4.59396
 Alpha virt. eigenvalues --    4.61053   4.64718   4.67543   4.68218   4.69140
 Alpha virt. eigenvalues --    4.70592   4.72331   4.73114   4.75512   4.75965
 Alpha virt. eigenvalues --    4.76820   4.77813   4.78324   4.80023   4.80338
 Alpha virt. eigenvalues --    4.81293   4.83679   4.84275   4.87652   4.88284
 Alpha virt. eigenvalues --    4.90793   4.90910   4.91693   4.92643   4.94363
 Alpha virt. eigenvalues --    4.95155   4.96448   4.96525   4.97046   4.97915
 Alpha virt. eigenvalues --    4.98848   4.99454   5.00083   5.01207   5.01467
 Alpha virt. eigenvalues --    5.02322   5.03228   5.03941   5.04338   5.05527
 Alpha virt. eigenvalues --    5.06742   5.07413   5.08589   5.09250   5.10801
 Alpha virt. eigenvalues --    5.11134   5.11754   5.12636   5.15026   5.15443
 Alpha virt. eigenvalues --    5.17744   5.18687   5.19410   5.20729   5.22040
 Alpha virt. eigenvalues --    5.24244   5.25017   5.26762   5.28603   5.29875
 Alpha virt. eigenvalues --    5.30756   5.32399   5.33220   5.34901   5.36382
 Alpha virt. eigenvalues --    5.38165   5.39984   5.40558   5.41708   5.42649
 Alpha virt. eigenvalues --    5.43272   5.43708   5.44932   5.45868   5.50134
 Alpha virt. eigenvalues --    5.50507   5.51615   5.53958   5.55220   5.57015
 Alpha virt. eigenvalues --    5.59095   5.65184   5.68532   5.70637   5.71945
 Alpha virt. eigenvalues --    5.73642   5.80429   5.81167   5.82302   5.83703
 Alpha virt. eigenvalues --    5.83922   5.84580   5.87456   5.89076   5.90606
 Alpha virt. eigenvalues --    5.95772   5.97231   6.00526   6.11373   6.13239
 Alpha virt. eigenvalues --    6.14944   6.18665   6.19015   6.21051   6.24352
 Alpha virt. eigenvalues --    6.25386   6.30406   6.34692   6.36860   6.37147
 Alpha virt. eigenvalues --    6.43836   6.46710   6.60003   6.62014   6.74087
 Alpha virt. eigenvalues --    6.77229   6.77741   6.83833   6.91099   6.91953
 Alpha virt. eigenvalues --    6.95176   6.95973   6.98869   6.99440   7.05106
 Alpha virt. eigenvalues --    7.11264   7.11672   7.15402   7.18468   7.20180
 Alpha virt. eigenvalues --    7.34288   7.39237   7.46005   7.53152   7.58576
 Alpha virt. eigenvalues --    7.62353   7.71580   7.88534  24.43975  24.64558
 Alpha virt. eigenvalues --   24.68865  24.75871  24.84553  24.90223  24.91108
 Alpha virt. eigenvalues --   24.98763  25.02160  35.90752  36.11862  36.17778
 Alpha virt. eigenvalues --   36.36025  50.07835  50.10211  50.19856
          Condensed to atoms (all electrons):
               1          2          3          4          5          6
     1  O    8.195363   0.273701  -0.060122   0.060459  -0.008270   0.000036
     2  C    0.273701   7.555214   0.035674  -0.484164  -0.045885  -0.007183
     3  N   -0.060122   0.035674   6.561217   0.136932  -0.035409   0.004819
     4  C    0.060459  -0.484164   0.136932   8.145884  -0.799637  -0.103431
     5  C   -0.008270  -0.045885  -0.035409  -0.799637   6.095142   0.392598
     6  O    0.000036  -0.007183   0.004819  -0.103431   0.392598   7.750501
     7  O   -0.000326  -0.001713  -0.022541  -0.039582   0.376249  -0.053214
     8  C   -0.013800  -0.222513  -0.043841  -1.277742   0.152803   0.085480
     9  C   -0.025046  -0.111255   0.118677  -0.209698   0.162125  -0.025928
    10  C   -0.003271   0.036530   0.009419   0.133790   0.000998  -0.012077
    11  N    0.000068   0.004082   0.001525   0.012087  -0.008923  -0.005718
    12  C    0.001136   0.017563  -0.005567   0.090180  -0.038904  -0.008065
    13  N    0.000316   0.011827  -0.004036   0.046201  -0.007205  -0.002154
    14  C    0.053396  -1.121195  -0.020863  -0.086543  -0.034251  -0.001148
    15  C   -0.069986   0.166953  -0.057940  -0.120582  -0.010340  -0.000531
    16  N    0.005845  -0.012797   0.002197   0.006154  -0.000388   0.000001
    17  H    0.000084  -0.025286   0.305404   0.036891  -0.021071   0.007853
    18  H   -0.000760   0.049694  -0.067557   0.461814  -0.091314  -0.008250
    19  H    0.000371   0.024390  -0.000469   0.084659  -0.115031   0.210571
    20  H    0.007606   0.044935  -0.009001   0.029836  -0.044511  -0.010452
    21  H   -0.030281  -0.056055   0.017729  -0.090423   0.022722   0.000893
    22  H   -0.000138  -0.002267   0.000067  -0.007349  -0.001389   0.000674
    23  H    0.000016  -0.000649  -0.000034  -0.003407   0.000952  -0.000351
    24  H    0.000501   0.004118   0.000310   0.004892   0.000704   0.000742
    25  H    0.007589  -0.026966   0.012352  -0.014322  -0.006130  -0.000337
    26  H   -0.002515  -0.153732   0.006014   0.019885  -0.008322   0.000043
    27  H    0.021218   0.030889   0.000943   0.007374   0.000750   0.000012
    28  H   -0.010553  -0.023844   0.005444   0.002631   0.001598  -0.000013
    29  H    0.000665   0.005157  -0.000471  -0.000255   0.000093   0.000000
    30  H   -0.001058  -0.010003  -0.000855   0.000217   0.000113   0.000000
    31  H    0.001522  -0.004878   0.000551  -0.000313  -0.000109  -0.000001
               7          8          9         10         11         12
     1  O   -0.000326  -0.013800  -0.025046  -0.003271   0.000068   0.001136
     2  C   -0.001713  -0.222513  -0.111255   0.036530   0.004082   0.017563
     3  N   -0.022541  -0.043841   0.118677   0.009419   0.001525  -0.005567
     4  C   -0.039582  -1.277742  -0.209698   0.133790   0.012087   0.090180
     5  C    0.376249   0.152803   0.162125   0.000998  -0.008923  -0.038904
     6  O   -0.053214   0.085480  -0.025928  -0.012077  -0.005718  -0.008065
     7  O    8.080240   0.022158  -0.038919   0.000717  -0.000045  -0.000563
     8  C    0.022158  12.631514  -3.879815  -1.363960  -0.119928  -0.267306
     9  C   -0.038919  -3.879815   9.883096  -0.059979  -0.037763  -0.176126
    10  C    0.000717  -1.363960  -0.059979   7.239797   0.359028  -0.170617
    11  N   -0.000045  -0.119928  -0.037763   0.359028   6.858446   0.255699
    12  C   -0.000563  -0.267306  -0.176126  -0.170617   0.255699   5.356018
    13  N   -0.000067  -0.217867   0.230911  -0.118855   0.064641   0.332860
    14  C   -0.025971  -0.181932   0.115036   0.011821  -0.000030   0.003717
    15  C   -0.005041  -0.036497  -0.000100  -0.000866   0.000067   0.000624
    16  N   -0.000015   0.000566  -0.000083   0.000020   0.000000  -0.000004
    17  H    0.064365   0.052892  -0.057246  -0.009211  -0.000174  -0.001438
    18  H   -0.009469   0.101011  -0.164623  -0.023719   0.001909   0.006009
    19  H    0.009878  -0.110656   0.078757  -0.008223   0.005478   0.006251
    20  H   -0.000588   0.515684  -0.204849  -0.042889  -0.001403  -0.008911
    21  H   -0.001144   0.421277   0.063148  -0.057915   0.001424  -0.002097
    22  H   -0.000216  -0.055606  -0.099418   0.532770  -0.083960   0.033304
    23  H    0.000001  -0.000975   0.023225   0.021528  -0.076438   0.448437
    24  H    0.000131  -0.012243  -0.068807   0.046562  -0.002391  -0.041713
    25  H   -0.005450  -0.011343   0.015239   0.001163   0.000021   0.000236
    26  H    0.001088   0.009723  -0.008559  -0.000338  -0.000019  -0.000082
    27  H    0.000098  -0.001845   0.003057   0.000084   0.000004  -0.000027
    28  H    0.000063   0.002145  -0.004100  -0.000049  -0.000008  -0.000015
    29  H    0.000002  -0.000110   0.000147   0.000004   0.000000   0.000002
    30  H    0.000022  -0.000136  -0.000198  -0.000007   0.000000  -0.000001
    31  H   -0.000015   0.000054   0.000115   0.000007   0.000000   0.000000
              13         14         15         16         17         18
     1  O    0.000316   0.053396  -0.069986   0.005845   0.000084  -0.000760
     2  C    0.011827  -1.121195   0.166953  -0.012797  -0.025286   0.049694
     3  N   -0.004036  -0.020863  -0.057940   0.002197   0.305404  -0.067557
     4  C    0.046201  -0.086543  -0.120582   0.006154   0.036891   0.461814
     5  C   -0.007205  -0.034251  -0.010340  -0.000388  -0.021071  -0.091314
     6  O   -0.002154  -0.001148  -0.000531   0.000001   0.007853  -0.008250
     7  O   -0.000067  -0.025971  -0.005041  -0.000015   0.064365  -0.009469
     8  C   -0.217867  -0.181932  -0.036497   0.000566   0.052892   0.101011
     9  C    0.230911   0.115036  -0.000100  -0.000083  -0.057246  -0.164623
    10  C   -0.118855   0.011821  -0.000866   0.000020  -0.009211  -0.023719
    11  N    0.064641  -0.000030   0.000067   0.000000  -0.000174   0.001909
    12  C    0.332860   0.003717   0.000624  -0.000004  -0.001438   0.006009
    13  N    6.292801  -0.003646   0.002442  -0.000022  -0.000178   0.013874
    14  C   -0.003646   6.458979  -0.045376   0.000315  -0.026549  -0.016074
    15  C    0.002442  -0.045376   5.782726   0.079879  -0.030490   0.008661
    16  N   -0.000022   0.000315   0.079879   5.479105   0.000456  -0.000078
    17  H   -0.000178  -0.026549  -0.030490   0.000456   0.574384   0.006048
    18  H    0.013874  -0.016074   0.008661  -0.000078   0.006048   0.634755
    19  H    0.005333   0.003971   0.000583   0.000003  -0.008452  -0.004162
    20  H    0.005522   0.006384   0.005293  -0.000027  -0.000474   0.006319
    21  H    0.008815  -0.014535  -0.008809  -0.000218   0.000335  -0.004359
    22  H    0.012972   0.000205  -0.000109  -0.000001  -0.000376  -0.002006
    23  H   -0.076250  -0.000010  -0.000021   0.000001   0.000000  -0.000043
    24  H    0.405608  -0.000830   0.000064  -0.000012  -0.000131  -0.001888
    25  H    0.000144   0.424524  -0.002329   0.001101  -0.011547   0.001012
    26  H   -0.000030   0.471818  -0.057592   0.016358   0.001142   0.000918
    27  H   -0.000133  -0.045620   0.363522  -0.008631   0.001119  -0.001067
    28  H   -0.000016   0.018336   0.358396  -0.017775   0.000504  -0.000458
    29  H   -0.000004   0.001902  -0.023844   0.369845   0.000043  -0.000056
    30  H   -0.000001   0.010161  -0.020337   0.375822   0.000447   0.000026
    31  H    0.000002  -0.000956  -0.024869   0.398783  -0.000277  -0.000004
              19         20         21         22         23         24
     1  O    0.000371   0.007606  -0.030281  -0.000138   0.000016   0.000501
     2  C    0.024390   0.044935  -0.056055  -0.002267  -0.000649   0.004118
     3  N   -0.000469  -0.009001   0.017729   0.000067  -0.000034   0.000310
     4  C    0.084659   0.029836  -0.090423  -0.007349  -0.003407   0.004892
     5  C   -0.115031  -0.044511   0.022722  -0.001389   0.000952   0.000704
     6  O    0.210571  -0.010452   0.000893   0.000674  -0.000351   0.000742
     7  O    0.009878  -0.000588  -0.001144  -0.000216   0.000001   0.000131
     8  C   -0.110656   0.515684   0.421277  -0.055606  -0.000975  -0.012243
     9  C    0.078757  -0.204849   0.063148  -0.099418   0.023225  -0.068807
    10  C   -0.008223  -0.042889  -0.057915   0.532770   0.021528   0.046562
    11  N    0.005478  -0.001403   0.001424  -0.083960  -0.076438  -0.002391
    12  C    0.006251  -0.008911  -0.002097   0.033304   0.448437  -0.041713
    13  N    0.005333   0.005522   0.008815   0.012972  -0.076250   0.405608
    14  C    0.003971   0.006384  -0.014535   0.000205  -0.000010  -0.000830
    15  C    0.000583   0.005293  -0.008809  -0.000109  -0.000021   0.000064
    16  N    0.000003  -0.000027  -0.000218  -0.000001   0.000001  -0.000012
    17  H   -0.008452  -0.000474   0.000335  -0.000376   0.000000  -0.000131
    18  H   -0.004162   0.006319  -0.004359  -0.002006  -0.000043  -0.001888
    19  H    0.493383   0.009415  -0.002852  -0.000447  -0.001038   0.001240
    20  H    0.009415   0.652522  -0.057692  -0.003787  -0.000477   0.001945
    21  H   -0.002852  -0.057692   0.697180   0.002794  -0.000286  -0.003082
    22  H   -0.000447  -0.003787   0.002794   0.575248   0.001162   0.001487
    23  H   -0.001038  -0.000477  -0.000286   0.001162   0.549097  -0.005568
    24  H    0.001240   0.001945  -0.003082   0.001487  -0.005568   0.516932
    25  H    0.000440  -0.000751   0.000882   0.000035   0.000006  -0.000074
    26  H   -0.000104   0.000694  -0.001320   0.000007  -0.000007   0.000062
    27  H   -0.000009  -0.000498   0.000752  -0.000008   0.000018  -0.000118
    28  H    0.000030   0.000516  -0.000320  -0.000011  -0.000003   0.000032
    29  H    0.000003  -0.000012   0.000015   0.000000   0.000000   0.000000
    30  H    0.000000   0.000043  -0.000087  -0.000001   0.000000   0.000001
    31  H    0.000001  -0.000009   0.000001   0.000000   0.000000  -0.000004
              25         26         27         28         29         30
     1  O    0.007589  -0.002515   0.021218  -0.010553   0.000665  -0.001058
     2  C   -0.026966  -0.153732   0.030889  -0.023844   0.005157  -0.010003
     3  N    0.012352   0.006014   0.000943   0.005444  -0.000471  -0.000855
     4  C   -0.014322   0.019885   0.007374   0.002631  -0.000255   0.000217
     5  C   -0.006130  -0.008322   0.000750   0.001598   0.000093   0.000113
     6  O   -0.000337   0.000043   0.000012  -0.000013   0.000000   0.000000
     7  O   -0.005450   0.001088   0.000098   0.000063   0.000002   0.000022
     8  C   -0.011343   0.009723  -0.001845   0.002145  -0.000110  -0.000136
     9  C    0.015239  -0.008559   0.003057  -0.004100   0.000147  -0.000198
    10  C    0.001163  -0.000338   0.000084  -0.000049   0.000004  -0.000007
    11  N    0.000021  -0.000019   0.000004  -0.000008   0.000000   0.000000
    12  C    0.000236  -0.000082  -0.000027  -0.000015   0.000002  -0.000001
    13  N    0.000144  -0.000030  -0.000133  -0.000016  -0.000004  -0.000001
    14  C    0.424524   0.471818  -0.045620   0.018336   0.001902   0.010161
    15  C   -0.002329  -0.057592   0.363522   0.358396  -0.023844  -0.020337
    16  N    0.001101   0.016358  -0.008631  -0.017775   0.369845   0.375822
    17  H   -0.011547   0.001142   0.001119   0.000504   0.000043   0.000447
    18  H    0.001012   0.000918  -0.001067  -0.000458  -0.000056   0.000026
    19  H    0.000440  -0.000104  -0.000009   0.000030   0.000003   0.000000
    20  H   -0.000751   0.000694  -0.000498   0.000516  -0.000012   0.000043
    21  H    0.000882  -0.001320   0.000752  -0.000320   0.000015  -0.000087
    22  H    0.000035   0.000007  -0.000008  -0.000011   0.000000  -0.000001
    23  H    0.000006  -0.000007   0.000018  -0.000003   0.000000   0.000000
    24  H   -0.000074   0.000062  -0.000118   0.000032   0.000000   0.000001
    25  H    0.636558  -0.064127   0.009725  -0.022272  -0.002345   0.001794
    26  H   -0.064127   0.708458  -0.016179   0.014944   0.000314  -0.002909
    27  H    0.009725  -0.016179   0.542256  -0.029512  -0.004819   0.002955
    28  H   -0.022272   0.014944  -0.029512   0.598682   0.004009  -0.006459
    29  H   -0.002345   0.000314  -0.004819   0.004009   0.533599  -0.026962
    30  H    0.001794  -0.002909   0.002955  -0.006459  -0.026962   0.538202
    31  H    0.001927   0.000500  -0.000909  -0.003865  -0.021128  -0.026768
              31
     1  O    0.001522
     2  C   -0.004878
     3  N    0.000551
     4  C   -0.000313
     5  C   -0.000109
     6  O   -0.000001
     7  O   -0.000015
     8  C    0.000054
     9  C    0.000115
    10  C    0.000007
    11  N    0.000000
    12  C    0.000000
    13  N    0.000002
    14  C   -0.000956
    15  C   -0.024869
    16  N    0.398783
    17  H   -0.000277
    18  H   -0.000004
    19  H    0.000001
    20  H   -0.000009
    21  H    0.000001
    22  H    0.000000
    23  H    0.000000
    24  H   -0.000004
    25  H    0.001927
    26  H    0.000500
    27  H   -0.000909
    28  H   -0.003865
    29  H   -0.021128
    30  H   -0.026768
    31  H    0.518137
 Mulliken charges:
               1
     1  O   -0.403764
     2  C    0.049655
     3  N    0.109434
     4  C   -0.042438
     5  C    0.070240
     6  O   -0.215375
     7  O   -0.350134
     8  C   -0.177191
     9  C    0.478980
    10  C   -0.522261
    11  N   -0.227680
    12  C    0.169400
    13  N   -0.003803
    14  C    0.044964
    15  C   -0.253552
    16  N    0.303597
    17  H    0.140933
    18  H    0.103837
    19  H    0.316688
    20  H    0.099618
    21  H    0.093507
    22  H    0.096363
    23  H    0.121116
    24  H    0.151530
    25  H    0.053242
    26  H    0.063867
    27  H    0.124600
    28  H    0.111940
    29  H    0.164204
    30  H    0.165977
    31  H    0.162504
 Sum of Mulliken charges =   1.00000
 Mulliken charges with hydrogens summed into heavy atoms:
               1
     1  O   -0.403764
     2  C    0.049655
     3  N    0.250367
     4  C    0.061399
     5  C    0.070240
     6  O    0.101314
     7  O   -0.350134
     8  C    0.015934
     9  C    0.478980
    10  C   -0.425899
    11  N   -0.227680
    12  C    0.290516
    13  N    0.147727
    14  C    0.162073
    15  C   -0.017011
    16  N    0.796283
 Electronic spatial extent (au):  <R**2>=           5396.7496
 Charge=              1.0000 electrons
 Dipole moment (field-independent basis, Debye):
    X=             21.6088    Y=             -4.4353    Z=              2.2614  Tot=             22.1749
 Quadrupole moment (field-independent basis, Debye-Ang):
   XX=             12.8520   YY=            -91.0069   ZZ=            -94.0687
   XY=             -4.5518   XZ=              5.6774   YZ=              6.9515
 Traceless Quadrupole moment (field-independent basis, Debye-Ang):
   XX=             70.2599   YY=            -33.5990   ZZ=            -36.6609
   XY=             -4.5518   XZ=              5.6774   YZ=              6.9515
 Octapole moment (field-independent basis, Debye-Ang**2):
  XXX=            920.5920  YYY=           -108.8281  ZZZ=             41.5290  XYY=             61.9520
  XXY=           -112.5169  XXZ=             34.4181  XZZ=             93.2838  YZZ=            -37.0142
  YYZ=             40.9338  XYZ=            -16.1752
 Hexadecapole moment (field-independent basis, Debye-Ang**3):
 XXXX=          -2903.3773 YYYY=          -1023.1810 ZZZZ=           -547.9743 XXXY=           -259.9389
 XXXZ=            304.9397 YYYX=            179.9719 YYYZ=            300.8122 ZZZX=             34.6542
 ZZZY=            266.0215 XXYY=           -803.9621 XXZZ=           -947.3507 YYZZ=           -303.1185
 XXYZ=             78.4548 YYXZ=            -23.6088 ZZXY=             28.1215
 N-N= 1.113169675473D+03 E-N=-4.072118141980D+03  KE= 7.932849899276D+02
 Calling FoFJK, ICntrl=      2127 FMM=F ISym2X=0 I1Cent= 0 IOpClX= 0 NMat=1 NMatS=1 NMatT=0.
 -------------------------------------------------------------------
 Center     Atomic                   Forces (Hartrees/Bohr)
 Number     Number              X              Y              Z
 -------------------------------------------------------------------
      1        8           0.002596571    0.010089426   -0.003723686
      2        6          -0.002362869   -0.003646169    0.001364454
      3        7           0.001001132   -0.003146920   -0.000242796
      4        6          -0.001033157    0.000257976   -0.000402390
      5        6           0.005401694    0.006391909   -0.003785798
      6        8           0.003169106   -0.002455715    0.001429111
      7        8          -0.008981270   -0.008581148    0.004325180
      8        6          -0.000469489    0.000125093    0.000977280
      9        6          -0.003991878   -0.000079673   -0.000199749
     10        6           0.002917939   -0.000164117    0.000820265
     11        7           0.007495884   -0.003396291   -0.000553267
     12        6          -0.000990437    0.001255710   -0.000015716
     13        7          -0.002009760    0.001777397    0.000473902
     14        6           0.000024358   -0.000445089    0.000550382
     15        6           0.000148165   -0.000166966    0.000312455
     16        7           0.001652254    0.000187274   -0.000651608
     17        1           0.000076913   -0.002737955    0.001455488
     18        1           0.000574018    0.002784974    0.001178158
     19        1           0.000982219    0.002492417   -0.001371128
     20        1           0.000017703   -0.002346056   -0.001348492
     21        1          -0.001798527    0.001639304   -0.001398508
     22        1           0.000727761   -0.002825073   -0.000510783
     23        1           0.001111847    0.002525886    0.000401341
     24        1          -0.002510413    0.001616648    0.000181142
     25        1          -0.000601992   -0.002644092   -0.000623636
     26        1          -0.001139133    0.000196574    0.002520337
     27        1           0.001784779    0.002155679    0.000581865
     28        1           0.000167792   -0.000712601   -0.002600136
     29        1          -0.000760801    0.000771780    0.003003731
     30        1          -0.001323479   -0.002933638   -0.000323308
     31        1          -0.001876928    0.002013456   -0.001824087
 -------------------------------------------------------------------
 Cartesian Forces:  Max     0.010089426 RMS     0.002684965

 GradGradGradGradGradGradGradGradGradGradGradGradGradGradGradGradGradGrad
 Berny optimization.
 FormGI is forming the generalized inverse of G from B-inverse, IUseBI=4.
 Internal  Forces:  Max     0.013123293 RMS     0.002043122
 Search for a local minimum.
 Step number   1 out of a maximum of  167
 All quantities printed in internal units (Hartrees-Bohrs-Radians)
 Mixed Optimization -- RFO/linear search
 Second derivative matrix not updated -- first step.
 ITU=  0
     Eigenvalues ---    0.00089   0.00175   0.00201   0.00269   0.00325
     Eigenvalues ---    0.00493   0.00550   0.00600   0.01004   0.01017
     Eigenvalues ---    0.02065   0.02155   0.02620   0.02800   0.03434
     Eigenvalues ---    0.03786   0.04023   0.04095   0.04185   0.04344
     Eigenvalues ---    0.04570   0.04575   0.04895   0.04998   0.05037
     Eigenvalues ---    0.05176   0.05518   0.06058   0.06370   0.06917
     Eigenvalues ---    0.07694   0.07888   0.10004   0.10234   0.11101
     Eigenvalues ---    0.11299   0.11533   0.11892   0.12548   0.12741
     Eigenvalues ---    0.13195   0.15007   0.15350   0.17291   0.17922
     Eigenvalues ---    0.18306   0.19025   0.19266   0.21440   0.21697
     Eigenvalues ---    0.22294   0.22850   0.23108   0.24382   0.24416
     Eigenvalues ---    0.25535   0.25648   0.30610   0.31458   0.32519
     Eigenvalues ---    0.32932   0.33704   0.34002   0.34345   0.34418
     Eigenvalues ---    0.34630   0.34964   0.35446   0.36884   0.37186
     Eigenvalues ---    0.37381   0.38213   0.39936   0.41939   0.42683
     Eigenvalues ---    0.42725   0.43204   0.44306   0.45041   0.46084
     Eigenvalues ---    0.47158   0.47607   0.50518   0.50840   0.57700
     Eigenvalues ---    0.81068   0.88019
 RFO step:  Lambda=-1.39812040D-03 EMin= 8.93599908D-04
 Linear search not attempted -- first point.
 Iteration  1 RMS(Cart)=  0.03699052 RMS(Int)=  0.00053643
 Iteration  2 RMS(Cart)=  0.00084328 RMS(Int)=  0.00000853
 Iteration  3 RMS(Cart)=  0.00000054 RMS(Int)=  0.00000853
 Variable       Old X    -DE/DX   Delta X   Delta X   Delta X     New X
                                 (Linear)    (Quad)   (Total)
    R1        2.32478  -0.01103   0.00000  -0.01388  -0.01388   2.31090
    R2        2.53858  -0.00501   0.00000  -0.00627  -0.00627   2.53231
    R3        2.92096  -0.00229   0.00000  -0.00885  -0.00885   2.91211
    R4        2.75213  -0.00076   0.00000  -0.00316  -0.00316   2.74897
    R5        1.92477  -0.00291   0.00000  -0.00794  -0.00794   1.91682
    R6        2.91366  -0.00219   0.00000  -0.00770  -0.00770   2.90596
    R7        2.94692  -0.00128   0.00000  -0.00597  -0.00597   2.94096
    R8        2.07437  -0.00304   0.00000  -0.00885  -0.00885   2.06552
    R9        2.51330  -0.00410   0.00000  -0.00465  -0.00465   2.50865
   R10        2.29163  -0.01312   0.00000  -0.01522  -0.01522   2.27641
   R11        1.85061  -0.00294   0.00000  -0.00746  -0.00746   1.84316
   R12        2.82723  -0.00284   0.00000  -0.00813  -0.00813   2.81910
   R13        2.06754  -0.00270   0.00000  -0.00748  -0.00748   2.06007
   R14        2.06761  -0.00280   0.00000  -0.00729  -0.00729   2.06031
   R15        2.61177  -0.00680   0.00000  -0.01269  -0.01269   2.59908
   R16        2.61891  -0.00271   0.00000  -0.00584  -0.00584   2.61307
   R17        2.60010  -0.00285   0.00000  -0.00574  -0.00574   2.59436
   R18        2.04566  -0.00296   0.00000  -0.00804  -0.00804   2.03761
   R19        2.48159  -0.00619   0.00000  -0.01049  -0.01049   2.47110
   R20        2.58528  -0.00450   0.00000  -0.00714  -0.00714   2.57814
   R21        2.04347  -0.00279   0.00000  -0.00726  -0.00726   2.03621
   R22        1.90887  -0.00292   0.00000  -0.00609  -0.00609   1.90278
   R23        2.87605  -0.00183   0.00000  -0.00781  -0.00781   2.86824
   R24        2.06888  -0.00278   0.00000  -0.00738  -0.00738   2.06150
   R25        2.07657  -0.00274   0.00000  -0.00768  -0.00768   2.06888
   R26        2.88599  -0.00230   0.00000  -0.00771  -0.00771   2.87828
   R27        2.06110  -0.00267   0.00000  -0.00753  -0.00753   2.05356
   R28        2.06241  -0.00270   0.00000  -0.00739  -0.00739   2.05501
   R29        1.93929  -0.00319   0.00000  -0.00734  -0.00734   1.93195
   R30        1.93882  -0.00323   0.00000  -0.00742  -0.00742   1.93140
   R31        1.93908  -0.00329   0.00000  -0.00754  -0.00754   1.93154
    A1        2.17925  -0.00077   0.00000  -0.00091  -0.00093   2.17832
    A2        2.09320   0.00053   0.00000   0.00143   0.00142   2.09462
    A3        2.01071   0.00024   0.00000  -0.00060  -0.00061   2.01009
    A4        2.13665   0.00170   0.00000   0.00658   0.00658   2.14323
    A5        2.13898  -0.00190   0.00000  -0.01425  -0.01426   2.12472
    A6        1.97442   0.00025   0.00000   0.00769   0.00769   1.98212
    A7        1.84179   0.00018   0.00000   0.00459   0.00459   1.84637
    A8        1.96343  -0.00039   0.00000  -0.00152  -0.00153   1.96190
    A9        1.90029  -0.00009   0.00000  -0.00416  -0.00415   1.89614
   A10        1.97421   0.00049   0.00000   0.00418   0.00418   1.97839
   A11        1.89334  -0.00062   0.00000  -0.00717  -0.00717   1.88617
   A12        1.88865   0.00039   0.00000   0.00341   0.00342   1.89207
   A13        2.04260   0.00093   0.00000  -0.00132  -0.00133   2.04127
   A14        2.11215   0.00053   0.00000   0.00506   0.00505   2.11720
   A15        2.12844  -0.00146   0.00000  -0.00375  -0.00375   2.12469
   A16        1.95701   0.00100   0.00000   0.00816   0.00816   1.96517
   A17        1.97838   0.00110   0.00000   0.00672   0.00672   1.98509
   A18        1.91297  -0.00030   0.00000  -0.00241  -0.00241   1.91056
   A19        1.86620  -0.00019   0.00000   0.00045   0.00043   1.86663
   A20        1.91431  -0.00040   0.00000  -0.00395  -0.00394   1.91037
   A21        1.91708  -0.00041   0.00000   0.00062   0.00060   1.91768
   A22        1.87145   0.00016   0.00000  -0.00174  -0.00174   1.86971
   A23        2.32160  -0.00077   0.00000  -0.00763  -0.00764   2.31397
   A24        2.14074   0.00068   0.00000   0.00574   0.00573   2.14648
   A25        1.82082   0.00009   0.00000   0.00194   0.00193   1.82274
   A26        1.93936  -0.00108   0.00000  -0.00389  -0.00389   1.93547
   A27        2.22490   0.00053   0.00000   0.00242   0.00241   2.22731
   A28        2.11829   0.00055   0.00000   0.00168   0.00167   2.11996
   A29        1.83720   0.00190   0.00000   0.00558   0.00558   1.84278
   A30        1.95265  -0.00145   0.00000  -0.00445  -0.00445   1.94819
   A31        2.19618   0.00070   0.00000   0.00242   0.00243   2.19860
   A32        2.13436   0.00075   0.00000   0.00203   0.00203   2.13639
   A33        1.87470   0.00054   0.00000   0.00085   0.00085   1.87556
   A34        2.19873   0.00033   0.00000   0.00491   0.00491   2.20364
   A35        2.20843  -0.00086   0.00000  -0.00578  -0.00578   2.20266
   A36        1.88040   0.00294   0.00000   0.01459   0.01459   1.89499
   A37        1.94200  -0.00107   0.00000  -0.00259  -0.00261   1.93940
   A38        1.87365  -0.00110   0.00000  -0.00696  -0.00697   1.86668
   A39        1.95575  -0.00077   0.00000  -0.00332  -0.00333   1.95242
   A40        1.93034  -0.00056   0.00000  -0.00132  -0.00131   1.92903
   A41        1.88039   0.00048   0.00000  -0.00075  -0.00077   1.87962
   A42        1.94354  -0.00055   0.00000  -0.00391  -0.00391   1.93964
   A43        1.92215   0.00087   0.00000   0.01083   0.01082   1.93297
   A44        1.96556  -0.00002   0.00000  -0.00071  -0.00071   1.96485
   A45        1.87588  -0.00050   0.00000  -0.00606  -0.00604   1.86984
   A46        1.85322   0.00031   0.00000   0.00170   0.00170   1.85492
   A47        1.90000  -0.00015   0.00000  -0.00253  -0.00254   1.89746
   A48        1.93943  -0.00018   0.00000  -0.00141  -0.00141   1.93802
   A49        1.95010   0.00004   0.00000   0.00045   0.00045   1.95055
   A50        1.94286  -0.00036   0.00000  -0.00263  -0.00263   1.94022
   A51        1.87322   0.00016   0.00000   0.00173   0.00173   1.87495
   A52        1.87694   0.00022   0.00000   0.00123   0.00123   1.87817
   A53        1.87776   0.00015   0.00000   0.00088   0.00088   1.87864
    D1       -0.13865   0.00049   0.00000   0.00525   0.00524  -0.13341
    D2       -2.98760   0.00023   0.00000   0.00393   0.00394  -2.98366
    D3        2.99482   0.00012   0.00000  -0.00535  -0.00535   2.98947
    D4        0.14587  -0.00014   0.00000  -0.00666  -0.00665   0.13922
    D5       -0.43449  -0.00018   0.00000   0.00603   0.00604  -0.42844
    D6       -2.58477  -0.00053   0.00000   0.00199   0.00199  -2.58278
    D7        1.64493   0.00015   0.00000   0.00853   0.00851   1.65345
    D8        2.71480   0.00017   0.00000   0.01608   0.01609   2.73089
    D9        0.56451  -0.00017   0.00000   0.01204   0.01204   0.57656
   D10       -1.48896   0.00050   0.00000   0.01858   0.01856  -1.47040
   D11       -2.80933   0.00072   0.00000   0.03981   0.03980  -2.76953
   D12        1.31344   0.00023   0.00000   0.03239   0.03239   1.34583
   D13       -0.77994   0.00005   0.00000   0.03188   0.03187  -0.74807
   D14        0.06467   0.00060   0.00000   0.03761   0.03761   0.10228
   D15       -2.09574   0.00010   0.00000   0.03020   0.03020  -2.06554
   D16        2.09406  -0.00008   0.00000   0.02968   0.02968   2.12375
   D17       -3.10781  -0.00032   0.00000  -0.02027  -0.02029  -3.12810
   D18        0.03563  -0.00013   0.00000  -0.01395  -0.01395   0.02168
   D19       -0.95422  -0.00038   0.00000  -0.01641  -0.01640  -0.97063
   D20        2.18922  -0.00019   0.00000  -0.01009  -0.01007   2.17915
   D21        1.14125  -0.00001   0.00000  -0.01439  -0.01440   1.12685
   D22       -1.99850   0.00018   0.00000  -0.00807  -0.00807  -2.00656
   D23       -2.84661   0.00013   0.00000  -0.00262  -0.00262  -2.84923
   D24        1.29152   0.00009   0.00000  -0.00043  -0.00043   1.29110
   D25       -0.73153   0.00016   0.00000   0.00261   0.00262  -0.72891
   D26        1.35164  -0.00017   0.00000  -0.01049  -0.01049   1.34115
   D27       -0.79341  -0.00021   0.00000  -0.00831  -0.00830  -0.80171
   D28       -2.81646  -0.00014   0.00000  -0.00526  -0.00526  -2.82172
   D29       -0.74651   0.00003   0.00000  -0.00646  -0.00647  -0.75298
   D30       -2.89156  -0.00001   0.00000  -0.00427  -0.00428  -2.89584
   D31        1.36857   0.00006   0.00000  -0.00123  -0.00123   1.36734
   D32        0.10810   0.00039   0.00000   0.03481   0.03480   0.14290
   D33       -3.03536   0.00020   0.00000   0.02844   0.02845  -3.00691
   D34       -1.79392  -0.00017   0.00000  -0.02113  -0.02112  -1.81504
   D35        1.33906  -0.00004   0.00000  -0.01165  -0.01164   1.32742
   D36        0.35040  -0.00007   0.00000  -0.02246  -0.02246   0.32793
   D37       -2.79981   0.00006   0.00000  -0.01298  -0.01299  -2.81280
   D38        2.40306  -0.00036   0.00000  -0.02656  -0.02656   2.37649
   D39       -0.74715  -0.00024   0.00000  -0.01708  -0.01709  -0.76424
   D40        3.13861  -0.00006   0.00000   0.00484   0.00481  -3.13976
   D41       -0.04133   0.00006   0.00000   0.01131   0.01129  -0.03004
   D42        0.00451  -0.00017   0.00000  -0.00342  -0.00342   0.00109
   D43        3.10775  -0.00005   0.00000   0.00305   0.00306   3.11081
   D44        3.13976   0.00006   0.00000  -0.00402  -0.00406   3.13570
   D45        0.05048   0.00002   0.00000  -0.00354  -0.00358   0.04691
   D46       -0.00834   0.00016   0.00000   0.00308   0.00310  -0.00524
   D47       -3.09761   0.00011   0.00000   0.00356   0.00358  -3.09403
   D48        0.00126   0.00011   0.00000   0.00238   0.00238   0.00364
   D49       -3.10469   0.00000   0.00000  -0.00366  -0.00367  -3.10836
   D50       -0.00684   0.00000   0.00000  -0.00029  -0.00029  -0.00713
   D51        3.13830  -0.00006   0.00000  -0.00142  -0.00142   3.13688
   D52        0.00988  -0.00011   0.00000  -0.00186  -0.00186   0.00802
   D53        3.09878  -0.00001   0.00000  -0.00192  -0.00193   3.09685
   D54       -3.13512  -0.00005   0.00000  -0.00077  -0.00077  -3.13589
   D55       -0.04622   0.00004   0.00000  -0.00084  -0.00084  -0.04707
   D56        2.88450  -0.00010   0.00000   0.01931   0.01931   2.90381
   D57        0.80524   0.00031   0.00000   0.02231   0.02233   0.82756
   D58       -1.31914  -0.00011   0.00000   0.01829   0.01829  -1.30085
   D59       -1.25682   0.00009   0.00000   0.02395   0.02395  -1.23287
   D60        2.94710   0.00050   0.00000   0.02696   0.02697   2.97407
   D61        0.82272   0.00008   0.00000   0.02293   0.02293   0.84565
   D62        0.84160  -0.00019   0.00000   0.01987   0.01986   0.86146
   D63       -1.23766   0.00022   0.00000   0.02287   0.02287  -1.21479
   D64        2.92114  -0.00020   0.00000   0.01884   0.01884   2.93998
   D65       -1.03710  -0.00026   0.00000  -0.00530  -0.00530  -1.04240
   D66        1.05464  -0.00015   0.00000  -0.00376  -0.00376   1.05088
   D67       -3.12868  -0.00018   0.00000  -0.00414  -0.00415  -3.13283
   D68        1.06955   0.00016   0.00000   0.00178   0.00178   1.07134
   D69       -3.12190   0.00026   0.00000   0.00332   0.00332  -3.11857
   D70       -1.02203   0.00024   0.00000   0.00293   0.00294  -1.01910
   D71        3.10075  -0.00010   0.00000  -0.00320  -0.00320   3.09755
   D72       -1.09070   0.00001   0.00000  -0.00166  -0.00166  -1.09236
   D73        1.00917  -0.00002   0.00000  -0.00205  -0.00205   1.00712
         Item               Value     Threshold  Converged?
 Maximum Force            0.013123     0.000450     NO 
 RMS     Force            0.002043     0.000300     NO 
 Maximum Displacement     0.150385     0.001800     NO 
 RMS     Displacement     0.037029     0.001200     NO 
 Predicted change in Energy=-7.142390D-04
 GradGradGradGradGradGradGradGradGradGradGradGradGradGradGradGradGradGrad

                          Input orientation:                          
 ---------------------------------------------------------------------
 Center     Atomic      Atomic             Coordinates (Angstroms)
 Number     Number       Type             X           Y           Z
 ---------------------------------------------------------------------
      1          8           0        1.078103   -1.238593    0.108098
      2          6           0        1.421370   -0.105173   -0.196782
      3          7           0        0.580276    0.896385   -0.488586
      4          6           0       -0.854430    0.703907   -0.632459
      5          6           0       -1.354573    1.894067   -1.467983
      6          8           0       -2.656626    1.946538   -1.721392
      7          8           0       -0.594704    2.733525   -1.879105
      8          6           0       -1.575287    0.567429    0.740045
      9          6           0       -2.945338   -0.014906    0.643502
     10          6           0       -4.200662    0.542034    0.718542
     11          7           0       -5.171563   -0.417258    0.570550
     12          6           0       -4.529526   -1.545324    0.411819
     13          7           0       -3.177805   -1.362854    0.440845
     14          6           0        2.918482    0.247572   -0.291536
     15          6           0        3.698331   -0.714220    0.586263
     16          7           0        5.190140   -0.644255    0.287093
     17          1           0        0.910948    1.778223   -0.865284
     18          1           0       -1.028518   -0.210034   -1.206139
     19          1           0       -3.161729    1.273094   -1.228782
     20          1           0       -1.629014    1.544300    1.220921
     21          1           0       -0.947013   -0.065198    1.367536
     22          1           0       -4.452729    1.575002    0.897656
     23          1           0       -4.978475   -2.514681    0.270987
     24          1           0       -2.478729   -2.084683    0.376650
     25          1           0        3.095787    1.287163   -0.012485
     26          1           0        3.208217    0.130628   -1.340811
     27          1           0        3.383869   -1.739110    0.408422
     28          1           0        3.589266   -0.494599    1.645723
     29          1           0        5.380282   -0.881636   -0.688961
     30          1           0        5.566444    0.291324    0.453474
     31          1           0        5.714935   -1.297725    0.872170
 ---------------------------------------------------------------------
                    Distance matrix (angstroms):
                    1          2          3          4          5
     1  O    0.000000
     2  C    1.222875   0.000000
     3  N    2.272002   1.340041   0.000000
     4  C    2.838383   2.454321   1.454692   0.000000
     5  C    4.267962   3.649490   2.387096   1.537766   0.000000
     6  O    5.238348   4.812900   3.619415   2.444957   1.327521
     7  O    4.746049   3.866908   2.586350   2.396025   1.204622
     8  C    3.271322   3.210918   2.502838   1.556287   2.585357
     9  C    4.239356   4.447737   3.813401   2.552775   3.260839
    10  C    5.604340   5.732708   4.943692   3.612295   3.835245
    11  N    6.320346   6.644770   5.994254   4.619727   4.905838
    12  C    5.624218   6.152853   5.734348   4.433496   5.044144
    13  N    4.270704   4.810482   4.482318   3.289613   4.192294
    14  C    2.399040   1.541023   2.434542   3.815670   4.727999
    15  C    2.714628   2.483676   3.670370   4.921789   6.046067
    16  N    4.158620   3.837755   4.922001   6.260986   7.235788
    17  H    3.174365   2.062670   1.014339   2.079645   2.347180
    18  H    2.687565   2.651745   2.080208   1.093025   2.145254
    19  H    5.106074   4.895860   3.833067   2.450143   1.925782
    20  H    4.038731   3.746397   2.867608   2.177444   2.725410
    21  H    2.657844   2.838649   2.588908   2.144778   3.470589
    22  H    6.255383   6.206917   5.264345   4.005972   3.911089
[...]
 2623,-0.00001802,-0.00000221,-0.00001039,-0.00000074,-0.00000034,-0.00
 000467,0.00001749,0.00000133,-0.03242823,-0.10948652,-0.22889145,0.000
 53621,0.00018900,0.00125507,0.00034217,0.00076951,0.00093225,0.0000126
 6,-0.00045391,-0.00043240,0.00005261,0.00000571,-0.00002246,0.00001830
 ,0.00000146,-0.00000460,-0.00000535,0.00001036,0.00000483,-0.00000593,
 0.00001786,-0.00002973,0.00000177,-0.00000150,0.00000014,0.00000005,0.
 00000053,-0.00000123,0.00000097,0.00000700,-0.00000329,0.03662395,0.12
 177589,0.24537544,-0.00764074,-0.00392234,-0.00182395,0.00076651,-0.01
 846615,0.02730759,0.00067328,0.00112198,-0.00144214,0.00006378,-0.0000
 4031,-0.00026833,-0.00029925,-0.00026695,0.00015574,0.00018115,0.00008
 153,-0.00001350,0.00023913,0.00018219,-0.00017771,0.00015391,0.0000518
 7,0.00003635,0.00003269,-0.00005489,-0.00005646,-0.00001594,0.00000343
 ,-0.00002161,-0.00003223,0.00002490,-0.00000006,0.00005786,0.00001454,
 0.00000660,-0.00003543,0.00000422,0.00000005,-0.06278753,-0.03096744,0
 .04693776,0.00351304,0.01414466,-0.01775725,0.00177045,-0.00019436,-0.
 00032752,-0.00178599,0.00041941,-0.00013029,0.00008323,0.00004748,0.00
 003996,-0.00001907,-0.00003029,0.00004937,-0.00002014,0.00001304,-0.00
 000741,0.00003559,-0.00003307,-0.00006519,-0.00000276,0.00000243,0.000
 00504,0.00000014,0.00000071,0.00000029,0.00006583,0.00000733,-0.000005
 67,0.00108078,0.00362227,-0.00434626,0.06655794,-0.00241937,0.00048525
 ,0.00001044,-0.00203357,-0.00694771,0.00582009,0.00178108,0.00014858,-
 0.00036483,-0.00034096,-0.00026949,-0.00056334,-0.00004436,0.00009036,
 -0.00002204,0.00001952,-0.00002506,0.00002054,0.00001011,-0.00009868,-
 0.00000072,0.00015002,0.00006021,0.00008023,0.00003258,-0.00004523,-0.
 00005497,-0.00002107,0.00001418,-0.00000304,0.00001257,0.00003153,0.00
 000323,0.00003481,0.00000047,0.00000178,-0.00001212,-0.00001855,-0.000
 00413,-0.03048260,-0.13598041,0.11752419,-0.00699694,-0.01756965,0.021
 39800,-0.00028507,0.00097075,-0.00028537,0.00044697,0.00106574,0.00014
 068,-0.00005013,0.00003988,0.00004045,-0.00001456,0.00000090,0.0000034
 3,0.00000066,0.00000113,-0.00000978,-0.00000141,-0.00001522,-0.0000003
 8,-0.00000157,0.00000137,-0.00000038,0.00000101,-0.00000017,0.00000177
 ,0.00001690,-0.00000627,0.00000609,0.00406133,0.01103558,-0.01304117,0
 .03252904,0.14919409,-0.00054034,-0.00108522,0.00101685,-0.00168593,-0
 .00058653,0.00049405,-0.00022503,-0.00038193,0.00019665,0.00018546,-0.
 00008409,0.00037484,0.00004304,0.00007400,-0.00006417,0.00001710,-0.00
 001664,0.00002478,-0.00000308,-0.00009623,-0.00002513,-0.00008689,-0.0
 0001124,-0.00005282,-0.00001002,0.00001586,0.00002805,0.00000200,0.000
 00194,0.00000861,0.00001660,-0.00001139,-0.00000466,-0.00002788,-0.000
 00054,-0.00000055,0.00001828,-0.00000645,-0.00000398,0.04708265,0.1192
 6231,-0.20843261,-0.00066547,-0.00190450,0.00230577,-0.00058081,-0.000
 15938,0.00011222,0.00013225,-0.00024909,0.00056326,-0.00004081,-0.0000
 3081,-0.00001541,-0.00000960,0.00000586,0.00000418,0.00001203,-0.00000
 344,-0.00000640,-0.00000782,-0.00000802,0.00001711,0.,0.00000083,0.000
 00012,-0.00000089,-0.00000056,0.00000071,-0.00001878,-0.00000280,0.000
 00196,0.00629068,0.01578203,-0.02030322,-0.04925207,-0.13036667,0.2219
 0521,-0.00043298,-0.00107652,-0.00042909,0.00206138,0.00140574,0.00031
 057,-0.00052390,-0.00008852,-0.00029942,0.00010301,0.00011050,0.000049
 93,0.00002696,-0.00000855,0.00004270,-0.00004933,0.00000310,-0.0000286
 0,-0.00002971,-0.00001389,-0.00004324,-0.00001875,-0.00001810,-0.00000
 080,0.00000139,0.00001729,0.00000303,0.00001374,-0.00000421,-0.0000026
 8,-0.00000929,-0.00002235,-0.00000121,-0.00002095,-0.00000100,-0.00000
 091,0.00000152,0.00000005,-0.00000960,0.00155408,0.00860248,0.01733992
 ,-0.04921868,0.00233507,0.00774267,-0.01215072,-0.01926160,-0.03659867
 ,0.00005215,-0.00001792,0.00012505,-0.00005286,-0.00001895,0.00001316,
 0.00000631,0.00000959,0.00000832,0.00001160,-0.00000696,-0.00000211,0.
 00000427,0.00001294,-0.00000284,0.00000215,-0.00000124,0.00000174,-0.0
 0000198,0.00000014,0.00000221,-0.00000351,0.00001396,0.00001595,-0.002
 11452,0.00317406,-0.00062647,0.00057768,-0.00064014,-0.00057677,0.0616
 5689,0.00006201,0.00027512,-0.00039176,-0.00088243,-0.00019831,-0.0000
 1269,0.00012852,0.00006253,0.00028510,0.00000403,-0.00000423,0.0000233
 4,0.00007965,0.00005346,-0.00004095,-0.00004151,-0.00001968,0.00000704
 ,-0.00004995,-0.00002079,0.00005451,0.00000663,-0.00000568,-0.00000500
 ,-0.00000020,0.00000633,0.00000810,0.00000439,-0.00000223,0.00000497,0
 .00000072,-0.00000627,0.00000102,-0.00000693,0.00000237,-0.00000173,0.
 00000325,-0.00000258,-0.00000084,0.00082308,-0.01299822,-0.02365773,-0
 .00203679,-0.10788552,-0.10956582,-0.00262161,-0.00335582,-0.00557591,
 0.00003732,-0.00006470,-0.00011642,0.00002338,0.00000920,-0.00000162,0
 .00000747,0.00000754,-0.00001363,-0.00000678,0.00000322,-0.00000383,-0
 .00000009,-0.00001013,0.00000235,0.00000049,-0.00000079,-0.00000198,-0
 .00000110,0.00000028,0.00000027,-0.00000109,0.00000885,0.00000317,0.00
 349162,-0.00326021,0.00051839,-0.00109736,0.00108187,0.00012477,0.0010
 5356,0.11477065,0.00008102,0.00087638,0.00046374,-0.00001559,-0.001141
 92,0.00060209,0.00017251,0.00016383,-0.00030372,-0.00001458,-0.0000265
 0,-0.00002067,-0.00004058,-0.00001647,0.00001784,0.00003109,0.00000531
 ,-0.00000182,0.00002465,0.00001386,-0.00002686,0.00001059,0.00000702,0
 .00002136,0.00000334,-0.00001146,-0.00001005,-0.00000678,0.00000342,-0
 .00000405,0.00000089,0.00000953,-0.00000045,0.00001014,-0.00000034,0.0
 0000096,-0.00000267,0.00000029,0.00000086,0.00125621,0.00125609,0.0035
 1719,-0.00422239,-0.11176141,-0.26777385,-0.00112970,-0.00071802,-0.00
 243683,-0.00003824,0.00002968,-0.00001054,-0.00000382,0.00000767,0.000
 00943,-0.00000793,-0.00000548,0.00001044,-0.00000073,-0.00000015,-0.00
 000196,0.00000082,-0.00000047,-0.00000531,-0.00000100,0.00000090,0.000
 00117,0.00000092,-0.00000023,0.00000044,0.00000615,-0.00000803,-0.0000
 0079,-0.00066924,0.00096783,0.00135960,0.00036056,-0.00009472,0.000926
 71,0.00578894,0.12106497,0.28023318,-0.00210861,-0.00215208,0.00164634
 ,0.00125287,0.00407234,-0.00195384,0.00035525,-0.00200739,0.00084260,-
 0.00026056,-0.00006275,0.00000162,-0.00001136,0.00014652,-0.00016802,0
 .00001890,-0.00004641,0.00005071,-0.00001275,-0.00013337,0.00015449,-0
 .00002445,0.00000724,-0.00001732,-0.00001588,0.00003257,-0.00000265,-0
 .00000659,0.00000580,0.00001244,0.00005517,-0.00000359,0.00000111,-0.0
 0004679,-0.00000549,-0.00000251,0.00004110,-0.00002440,0.00000075,0.00
 727913,0.01071152,-0.01455037,-0.06664137,-0.04572629,0.05241452,-0.02
 122926,-0.02335466,0.02357121,0.00052296,0.00002744,0.00003674,-0.0000
 3521,0.00003389,-0.00003426,-0.00001338,0.00000972,-0.00002366,0.00001
 507,-0.00001190,0.00001184,-0.00002274,0.00002642,0.00005333,-0.000001
 43,0.00000116,-0.00000197,-0.00000115,-0.00000145,0.00000035,-0.000055
 12,-0.00000768,-0.00000189,0.00069068,-0.00031931,0.00038863,-0.003068
 95,0.00329240,0.00057152,0.00229315,0.00178601,-0.00075745,0.08434021,
 -0.00182297,0.00127015,-0.00131381,-0.00124613,-0.00155665,0.00113132,
 -0.00016586,0.00015450,0.00002369,0.00005382,0.00009255,-0.00004281,-0
 .00002361,-0.00005565,0.00006534,-0.00000694,0.00001406,-0.00002026,0.
 00002490,0.00003916,-0.00003926,0.00001295,0.00000166,0.00000510,0.000
 01133,0.00001756,-0.00000764,0.00001126,-0.00000686,-0.00000333,-0.000
 00933,-0.00001989,0.00000143,-0.00001602,0.00000301,-0.00000013,-0.000
 00151,-0.00000208,-0.00000069,-0.00461635,-0.01843828,0.02076125,-0.05
 115727,-0.15770400,0.12292450,-0.00290356,-0.00307605,0.00215423,-0.00
 012290,0.00007780,-0.00002014,0.00003004,-0.00000365,0.00000545,0.0000
 0783,0.00000333,0.00000384,-0.00000401,-0.00000036,0.00000048,0.000016
 92,0.00000158,-0.00002023,0.00000150,-0.00000134,0.00000095,-0.0000028
 2,0.00000049,-0.00000010,-0.00000192,0.00002407,0.00000023,-0.00073525
 ,0.00078860,-0.00027101,0.00290803,-0.00319633,-0.00102364,0.00561011,
 0.01116483,-0.01095884,0.05471451,0.16975443,0.00137185,-0.00152418,-0
 .00050510,0.00081874,0.00183516,-0.00022652,-0.00012688,-0.00014176,0.
 00017705,0.00002717,0.00004691,-0.00002157,0.00001104,-0.00001261,0.00
 000022,-0.00001759,0.00000346,-0.00000965,-0.00000775,-0.00000236,0.00
 000505,0.00000628,-0.00000901,0.00000820,0.00000302,0.00000135,-0.0000
 0451,0.00000540,-0.00000193,-0.00000195,-0.00000574,-0.00000617,-0.000
 00084,-0.00000088,0.00000063,-0.00000043,-0.00000263,0.00000144,-0.000
 00972,-0.00222617,-0.00048853,0.00144742,0.06214684,0.12659907,-0.2004
 6408,-0.00729814,-0.00942790,0.00880800,-0.00004331,-0.00002208,0.0000
 7779,-0.00000132,-0.00001042,-0.00000593,0.00000315,0.00000221,0.00000
 358,0.00000442,-0.00000398,0.00000261,-0.00000021,0.00000556,0.0000127
 4,0.00000106,-0.00000076,0.00000140,-0.00000040,0.00000047,0.00000217,
 -0.00000199,0.00000684,0.00001779,-0.00053194,-0.00000388,0.00071209,0
 .00052611,-0.00036099,0.00132794,0.00823150,0.01752293,-0.01804584,-0.
 06147848,-0.13310751,0.20551164,0.00013674,0.00140343,-0.00040582,-0.0
 0203583,-0.00167017,0.00004377,0.00071263,0.00011468,-0.00000184,-0.00
 021120,-0.00010351,0.00003840,-0.00019077,0.00007308,-0.00011325,0.000
 19786,-0.00002463,0.00006186,0.00013075,-0.00003066,0.00005453,0.00001
 166,0.00000925,0.00004352,-0.00000184,-0.00001117,-0.00004184,-0.00003
 160,0.00001415,-0.00000265,0.00005331,0.00002970,-0.00000027,-0.000003
 21,0.00000446,0.00000100,0.00002753,-0.00002977,-0.00000485,0.00275360
 ,-0.00014480,0.00108895,-0.01222679,-0.02083099,0.02421529,-0.10453271
 ,-0.07983571,0.09507717,-0.00010291,0.00015366,-0.00008761,0.00003417,
 0.00001237,0.00000445,-0.00004907,-0.00001628,0.00001913,0.00000024,0.
 00000059,-0.00000367,-0.00000570,-0.00000157,0.00002173,-0.00000680,0.
 00000437,0.00000226,-0.00000011,-0.00000131,0.00000179,-0.00002013,-0.
 00001936,0.00001237,-0.00021230,0.00018274,0.00007727,-0.00041160,0.00
 090416,-0.00067454,0.00166708,-0.00000854,-0.00032848,-0.00533807,-0.0
 0008427,-0.00328843,0.10856005,-0.00005333,-0.00038321,0.00013000,0.00
 021289,-0.00017386,-0.00001283,0.00021332,-0.00012103,0.00004377,-0.00
 001957,-0.00002251,0.00004627,0.00009070,0.00010461,-0.00006060,-0.000
 04828,-0.00003447,0.00001229,-0.00005851,-0.00008411,0.00004457,-0.000
 00282,0.00000282,-0.00000071,-0.00000017,0.00001440,0.00000284,0.00000
 488,0.00000115,0.00000497,0.00000508,-0.00001287,0.00000079,-0.0000160
 8,0.00000060,-0.00000123,0.00000758,-0.00000969,-0.00000152,0.00059233
 ,0.00194194,-0.00140902,-0.00499549,-0.00324309,0.00234498,-0.07390787
 ,-0.19005111,0.14661573,0.00008344,0.00005323,-0.00000144,-0.00000482,
 -0.00000289,0.00000291,0.00000328,0.00001362,-0.00001093,0.00000521,-0
 .00000333,-0.00000159,-0.00000391,0.00000359,0.00000547,0.00000158,-0.
 00000073,-0.00000138,-0.00000151,-0.00000005,0.00000041,-0.00000733,0.
 00000837,0.00000069,0.00009808,0.00001781,-0.00020963,-0.00016470,0.00
 007179,0.00078302,0.00014614,-0.00042536,-0.00016431,-0.00049105,0.000
 63655,-0.00094874,0.08389806,0.19598640,-0.00055210,0.00028133,-0.0001
 1197,0.00046236,-0.00027096,0.00004682,-0.00040416,0.00022782,-0.00019
 274,0.00011970,0.00007853,-0.00000899,-0.00001534,-0.00012807,0.000142
 51,-0.00002616,0.00003819,-0.00005222,0.00001350,0.00007611,-0.0001210
 3,-0.00001080,-0.00000474,-0.00000482,0.00000787,-0.00000197,0.0000044
 6,0.00000959,-0.00000461,-0.00000789,-0.00002912,-0.00000941,-0.000004
 42,0.00001017,0.00000032,0.00000123,-0.00001723,0.00001335,-0.00000447
 ,-0.00015489,-0.00136452,0.00076845,0.00030090,-0.00592808,0.00952112,
 0.08706358,0.14373139,-0.22768424,-0.00003888,-0.00005098,0.00010055,-
 0.00001622,-0.00001249,0.00000851,0.00001000,-0.00000335,0.00002056,-0
 .00000052,0.00000084,0.00000109,0.00000855,0.00000146,-0.00002450,0.00
 000207,-0.00000090,0.00000372,0.00000002,0.00000065,0.00000197,0.00001
 778,0.00000756,0.00000605,0.00020413,-0.00000747,-0.00035624,0.0001078
 5,0.00038945,-0.00026422,-0.00047768,-0.00062383,0.00044223,-0.0024391
 9,-0.00033560,0.00001607,-0.09552093,-0.15762447,0.23849481,0.00044933
 ,0.00048950,0.00007796,-0.00120691,-0.00059943,0.00056050,0.00067765,-
 0.00008293,0.00007167,-0.00020906,-0.00013785,-0.00003359,-0.00015364,
 0.00010240,-0.00015220,0.00016843,-0.00003056,0.00007025,0.00009844,-0
 .00005495,0.00009418,0.00002149,0.00001409,0.00004020,-0.00000476,-0.0
 0001249,-0.00003268,-0.00003230,0.00001592,0.00000206,0.00005872,0.000
 03231,0.00000099,-0.00000400,0.00000296,-0.00000045,0.00002991,-0.0000
 3008,0.00000108,0.00223389,-0.00057661,-0.00091303,-0.00175404,-0.0156
 1653,-0.03217232,-0.05890620,-0.01515386,-0.03241241,-0.00004395,0.000
 13339,-0.00011027,0.00003084,0.00001950,-0.00000279,-0.00004251,-0.000
 01286,0.00000443,-0.00000130,0.00000102,-0.00000327,-0.00001177,-0.000
 00535,0.00003016,-0.00000673,0.00000420,0.00000016,0.00000016,-0.00000
 143,0.00000092,-0.00002383,-0.00002195,0.00000178,-0.00032299,0.001327
 55,0.00093226,0.00004361,0.00013330,0.00024293,-0.00683967,-0.00076358
 ,0.00019982,0.00121709,-0.00032727,0.00060038,0.00121231,0.00831631,0.
 01303539,0.06072342,-0.00015473,-0.00060526,0.00029687,0.00072927,0.00
 022454,-0.00045800,0.00003038,-0.00010670,0.00001735,0.00001687,0.0000
 0080,0.00005431,0.00007345,0.00003982,-0.00000394,-0.00004809,-0.00001
 489,-0.00000399,-0.00004044,-0.00003983,-0.00000139,-0.00001079,0.0000
 0848,-0.00001112,0.00000317,0.00001895,0.00000370,0.00001152,-0.000002
 29,0.00000279,-0.00000490,-0.00002162,0.00000003,-0.00001934,0.0000004
 1,-0.00000021,0.00000263,-0.00000457,0.00000105,0.00004274,0.00165561,
 0.00185741,-0.00319280,-0.00318641,-0.00579424,-0.01033255,-0.12874212
 ,-0.13408636,0.00002807,0.00001811,0.00004771,-0.00000997,-0.00000650,
 -0.00000210,0.00000914,0.00001166,-0.00000580,0.00000700,-0.00000537,0
 .00000362,-0.00000052,0.00001076,-0.00000378,0.00000271,-0.00000140,0.
 00000006,-0.00000193,0.00000014,-0.00000038,-0.00000525,0.00001398,-0.
 00000429,-0.00001644,0.00004215,-0.00082581,0.00011576,-0.00012805,0.0
 0005766,-0.00101180,0.00038923,0.00066217,-0.00011974,-0.00051421,0.00
 002727,0.00361919,0.01381425,0.02302043,0.01502743,0.12972130,0.000462
 86,0.00012927,-0.00025619,-0.00075361,-0.00047094,0.00017191,0.0005537
 1,-0.00003443,0.00003577,-0.00016875,-0.00007673,0.00004202,-0.0001344
 7,0.00002966,-0.00006159,0.00014781,-0.00001267,0.00003081,0.00010181,
 -0.00001017,0.00001675,0.00000834,0.00000127,0.00004288,0.00000259,-0.
 00000818,-0.00003868,-0.00001888,0.00001040,-0.00000980,0.00003051,0.0
 0001651,-0.00000549,0.00000111,0.00000275,0.00000209,0.00001450,-0.000
 01780,-0.00001502,0.00110597,0.00173058,0.00080896,-0.00521570,-0.0024
 6884,-0.00263559,-0.02336796,-0.13316195,-0.33323856,-0.00005699,0.000
 09700,-0.00002918,0.00001613,0.00000547,-0.00000097,-0.00004010,-0.000
 01452,0.00003205,0.00000902,-0.00000715,0.00000417,-0.00000670,0.00001
 312,0.00002399,-0.00000337,0.00000265,0.00000646,0.00000012,-0.0000004
 0,0.00000504,-0.00001545,-0.00001078,0.00002618,-0.00039898,0.00009521
 ,-0.00008187,-0.00009085,-0.00009732,-0.00028399,-0.00006253,0.0001478
 1,0.00151225,0.00073268,0.00029042,0.00105736,-0.00299265,-0.01299340,
 -0.02219439,0.02911720,0.14545893,0.35156130,0.00047005,-0.00104908,0.
 00024866,0.00048361,0.00338513,-0.00081957,-0.00074154,-0.00055110,0.0
 0014104,0.00002480,0.00015218,-0.00009359,-0.00012790,-0.00005441,0.00
 001578,0.00002679,0.00001925,-0.00001135,0.00004863,0.00000577,-0.0000
 0202,-0.00001179,-0.00000515,-0.00001434,-0.00000494,0.00001716,0.0000
 0449,-0.00000132,0.00000020,0.00000479,0.00002289,-0.00000618,-0.00000
 114,-0.00002682,0.00000132,-0.00000151,0.00002005,-0.00001185,-0.00000
 035,-0.00635897,-0.00402878,-0.00097269,-0.01634243,0.02654371,0.00017
 840,-0.15711155,0.16243264,0.00041879,-0.00000029,-0.00001299,0.000042
 70,-0.00001429,0.00000217,-0.00000391,-0.00000084,0.00000190,-0.000001
 98,0.00000043,-0.00000093,0.00000178,-0.00000392,0.00000367,0.00001372
 ,-0.00000198,0.00000081,-0.00000039,-0.00000213,-0.00000059,0.00000058
 ,-0.00001849,0.00000279,0.00000108,0.00045386,-0.00043018,0.00011869,0
 .00022306,-0.00008258,-0.00020780,0.00143350,0.00000586,-0.00070848,0.
 00081208,-0.00015522,0.00127490,0.00988272,-0.01390342,-0.00167024,0.0
 0259839,-0.00475003,0.00102261,0.16426834,-0.00030162,-0.00002704,-0.0
 0005501,-0.00004214,0.00068671,0.00011601,-0.00053519,-0.00002079,-0.0
 0006025,0.00013474,0.00005932,-0.00005151,0.00014978,-0.00002402,0.000
 07046,-0.00015220,0.00000745,-0.00004210,-0.00010071,-0.00000093,-0.00
 003561,0.00000286,-0.00000233,-0.00003035,0.00000527,0.00002057,0.0000
 2569,0.00002646,-0.00000999,0.00000300,-0.00003284,-0.00003528,0.00000
 156,-0.00001523,0.00000062,-0.00000149,-0.00001100,0.00001202,0.000001
 78,-0.00178853,-0.00113862,-0.00048984,-0.00221843,0.01244753,0.000960
 01,0.15284881,-0.30257237,0.00172167,0.00005910,-0.00008164,0.00008783
 ,-0.00003016,-0.00000647,-0.00000398,0.00003718,0.00001928,-0.00001778
 ,0.00000140,-0.00000297,0.00000245,0.00000724,0.00000344,-0.00001498,0
 .00000544,-0.00000362,-0.00000171,-0.00000237,0.00000116,-0.00000098,0
 .00000869,0.00002625,-0.00000712,0.00003871,-0.00009094,0.00013989,-0.
 00005696,0.00000712,-0.00007910,-0.00030298,0.00042505,-0.00016058,-0.
 00039998,0.00053103,0.00001951,0.01238886,-0.01810283,-0.00149600,0.00
 780787,-0.01259095,0.00135425,-0.16753205,0.32046324,0.00001161,-0.000
 14383,-0.00012220,0.00012559,0.00056063,0.00045686,-0.00016235,-0.0000
 1797,-0.00004838,0.00002432,0.00002367,-0.00005964,-0.00003177,-0.0000
 4485,0.00003944,0.00000318,0.00001384,-0.00001941,0.00001537,0.0000194
 1,-0.00003628,0.00000753,-0.00000439,0.00000910,0.00000350,-0.00000324
 ,-0.00000493,-0.00000053,0.00000080,-0.00000494,-0.00000380,0.00000044
 ,-0.00000366,0.00000406,0.00000045,0.00000059,-0.00000229,0.00000115,-
 0.00000851,-0.00139895,-0.00103705,-0.00020866,-0.00313065,0.00585920,
 -0.00030489,-0.00062818,0.00358558,-0.06254648,-0.00000756,0.00000428,
 0.00003635,-0.00001641,-0.00000053,0.00000340,-0.00000159,-0.00000189,
 0.00001361,0.00000157,-0.00000098,0.00000027,0.00000042,0.00000183,0.0
 0000054,0.00000005,0.00000013,0.00000266,0.00000001,0.00000019,0.00000
 316,0.00000278,0.00000038,0.00001348,0.00003005,0.00017408,0.00026733,
 0.00025297,-0.00017051,0.00014813,-0.00051308,0.00024501,-0.00047675,0
 .00094073,-0.00020325,0.00010703,-0.01729665,0.02340310,0.00145197,0.0
 2074870,-0.03030994,0.00347132,0.00102138,-0.00195574,0.05781947\\-0.0
 0000015,0.00000006,-0.00000015,-0.00000022,0.00000019,0.00000026,0.000
 00015,-0.00000013,0.00000015,-0.00000002,0.00000002,-0.00000002,0.0000
 0038,0.00000045,-0.00000014,-0.00000005,0.00000012,0.00000006,-0.00000
 026,-0.00000011,0.00000045,-0.00000003,-0.00000007,0.00000003,-0.00000
 009,-0.00000011,-0.00000008,0.00000007,-0.00000014,-0.00000005,0.00000
 002,-0.00000024,-0.00000016,-0.00000005,-0.00000007,-0.00000029,0.0000
 0002,-0.00000008,-0.00000022,0.00000013,-0.00000057,0.00000018,0.00000
 062,0.00000028,-0.00000060,0.00000003,0.00000002,0.00000032,0.00000005
 ,0.00000025,0.00000022,0.00000001,0.00000007,-0.00000005,0.00000003,0.
 00000007,-0.00000002,-0.00000005,-0.00000013,0.00000010,-0.00000006,-0
 .00000014,-0.00000003,-0.00000004,-0.00000014,0.00000005,0.00000003,-0
 .00000013,-0.00000038,0.,-0.00000010,-0.00000028,-0.00000023,0.0000001
 4,0.00000005,-0.00000022,0.00000025,0.00000015,0.,0.00000018,0.0000000
 6,-0.00000009,-0.00000006,0.00000009,0.,0.00000009,0.00000016,0.000000
 02,-0.00000003,0.00000010,0.,0.00000007,0.00000002\\\@


 I do not feel obliged to believe that the same God who
 has endowed us with sense, reason, and intellect has
 intended us to forgo their use.
                   --Galileo Galilei
 Job cpu time:       1 days  0 hours 46 minutes 43.0 seconds.
 File lengths (MBytes):  RWF=   1351 Int=      0 D2E=      0 Chk=     46 Scr=      1
 Normal termination of Gaussian 09 at Fri Jul 30 01:08:12 2021.
