 Entering Gaussian System, Link 0=g09
 Input=opt_freq-conf-301.com
 Output=opt_freq-conf-301.log
 Initial command:
 /aerosol/software/g09/l1.exe "/scratch/nicole/10750/Gau-86788.inp" -scrdir="/scratch/nicole/10750/"
 Entering Link 1 = /aerosol/software/g09/l1.exe PID=     86796.
  
 Copyright (c) 1988,1990,1992,1993,1995,1998,2003,2009,2013,
            Gaussian, Inc.  All Rights Reserved.
  
 This is part of the Gaussian(R) 09 program.  It is based on
 the Gaussian(R) 03 system (copyright 2003, Gaussian, Inc.),
 the Gaussian(R) 98 system (copyright 1998, Gaussian, Inc.),
 the Gaussian(R) 94 system (copyright 1995, Gaussian, Inc.),
 the Gaussian 92(TM) system (copyright 1992, Gaussian, Inc.),
 the Gaussian 90(TM) system (copyright 1990, Gaussian, Inc.),
 the Gaussian 88(TM) system (copyright 1988, Gaussian, Inc.),
 the Gaussian 86(TM) system (copyright 1986, Carnegie Mellon
 University), and the Gaussian 82(TM) system (copyright 1983,
 Carnegie Mellon University). Gaussian is a federally registered
 trademark of Gaussian, Inc.
  
 This software contains proprietary and confidential information,
 including trade secrets, belonging to Gaussian, Inc.
  
 This software is provided under written license and may be
 used, copied, transmitted, or stored only in accord with that
 written license.
  
 The following legend is applicable only to US Government
 contracts under FAR:
  
                    RESTRICTED RIGHTS LEGEND
  
 Use, reproduction and disclosure by the US Government is
 subject to restrictions as set forth in subparagraphs (a)
 and (c) of the Commercial Computer Software - Restricted
 Rights clause in FAR 52.227-19.
  
 Gaussian, Inc.
 340 Quinnipiac St., Bldg. 40, Wallingford CT 06492
  
  
 ---------------------------------------------------------------
 Warning -- This program may not be used in any manner that
 competes with the business of Gaussian, Inc. or will provide
 assistance to any competitor of Gaussian, Inc.  The licensee
 of this program is prohibited from giving any competitor of
 Gaussian, Inc. access to this program.  By using this program,
 the user acknowledges that Gaussian, Inc. is engaged in the
 business of creating and licensing software in the field of
 computational chemistry and represents and warrants to the
 licensee that it is not a competitor of Gaussian, Inc. and that
 it will not use this program in any manner prohibited above.
 ---------------------------------------------------------------
  

 Cite this work as:
 Gaussian 09, Revision D.01,
 M. J. Frisch, G. W. Trucks, H. B. Schlegel, G. E. Scuseria, 
 M. A. Robb, J. R. Cheeseman, G. Scalmani, V. Barone, B. Mennucci, 
 G. A. Petersson, H. Nakatsuji, M. Caricato, X. Li, H. P. Hratchian, 
 A. F. Izmaylov, J. Bloino, G. Zheng, J. L. Sonnenberg, M. Hada, 
 M. Ehara, K. Toyota, R. Fukuda, J. Hasegawa, M. Ishida, T. Nakajima, 
 Y. Honda, O. Kitao, H. Nakai, T. Vreven, J. A. Montgomery, Jr., 
 J. E. Peralta, F. Ogliaro, M. Bearpark, J. J. Heyd, E. Brothers, 
 K. N. Kudin, V. N. Staroverov, T. Keith, R. Kobayashi, J. Normand, 
 K. Raghavachari, A. Rendell, J. C. Burant, S. S. Iyengar, J. Tomasi, 
 M. Cossi, N. Rega, J. M. Millam, M. Klene, J. E. Knox, J. B. Cross, 
 V. Bakken, C. Adamo, J. Jaramillo, R. Gomperts, R. E. Stratmann, 
 O. Yazyev, A. J. Austin, R. Cammi, C. Pomelli, J. W. Ochterski, 
 R. L. Martin, K. Morokuma, V. G. Zakrzewski, G. A. Voth, 
 P. Salvador, J. J. Dannenberg, S. Dapprich, A. D. Daniels, 
 O. Farkas, J. B. Foresman, J. V. Ortiz, J. Cioslowski, 
 and D. J. Fox, Gaussian, Inc., Wallingford CT, 2013.
 
 ******************************************
 Gaussian 09:  ES64L-G09RevD.01 24-Apr-2013
                29-Jul-2021 
 ******************************************
 %mem=2gb
 %nproc=4
 Will use up to    4 processors via shared memory.
 %chk=conf-301.chk
 ----------------------------------------------------------------------
 # B3LYP/6-311++G(2df,2pd) guess=read geom=checkpoint opt=readfc freq=n
 oraman nosymm integral(ultrafinegrid)
 ----------------------------------------------------------------------
 1/10=3,14=-1,18=20,19=15,26=4,29=2,38=1/1,3;
 2/9=110,12=2,15=1,40=1/2;
 3/5=4,6=6,7=1414,11=2,14=-4,16=1,25=1,30=1,71=1,74=-5,75=-5,116=-2/1,2,3;
 4/5=1/1;
 5/5=2,38=6/2;
 6/7=2,8=2,9=2,10=2,28=1/1;
 7/30=1/1,2,3,16;
 1/14=-1,18=20,19=15,26=4/3(2);
 2/9=110,15=1/2;
 99//99;
 2/9=110,15=1/2;
 3/5=4,6=6,7=1414,11=2,14=-2,16=1,25=1,30=1,71=1,74=-5,75=-5/1,2,3;
 4/5=5,16=3,69=1/1;
 5/5=2,38=5/2;
 7/30=1/1,2,3,16;
 1/14=-1,18=20,19=15,26=4/3(-5);
 2/9=110,15=1/2;
 6/7=2,8=2,9=2,10=2,19=2,28=1/1;
 99/9=1/99;
 ------------------------------------------------------------
 Candidate Structure: Conf:301 OPT and FREQ calc in gas phase
 ------------------------------------------------------------
 Structure from the checkpoint file:  "conf-301.chk"
 Charge =  1 Multiplicity = 1
 Redundant internal coordinates found in file.
 O,0,-0.0288290748,-0.2331484046,-1.6841062699
 C,0,0.4157431437,0.713761259,-1.0138463804
 N,0,-0.3655489396,1.4883345848,-0.2380268692
 C,0,-1.7314059695,1.1368439326,0.1073517926
 C,0,-2.4785589289,2.4337675377,0.3984472563
 O,0,-3.8021325319,2.2371628258,0.4411471725
 O,0,-1.9231339437,3.4879924897,0.6126611995
 C,0,-1.7871519663,0.2115997856,1.3838347745
 C,0,-0.8707767155,-0.960071201,1.2671423887
 C,0,0.4859056329,-1.0547394493,1.4791803834
 N,0,0.9848557186,-2.2387411838,0.9761253975
 C,0,-0.0697199279,-2.8813745869,0.4968524295
 N,0,-1.2048411856,-2.1508634398,0.6507906409
 C,0,1.9176618516,1.0199331764,-0.9630651918
 C,0,2.7718384736,-0.0056067246,-1.7180559768
 N,0,2.2855539072,-1.4135368847,-1.4734147203
 H,0,-0.0083945864,2.3339168103,0.1937285068
 H,0,-2.1886233986,0.6209578213,-0.7393967128
 H,0,-4.2257160567,3.0833063604,0.6718461118
 H,0,-1.4907327703,0.8080480279,2.2524458499
 H,0,-2.8271746744,-0.0898222143,1.5413207385
 H,0,1.1271002866,-0.3358131377,1.9699893825
 H,0,-0.0648509018,-3.8678872593,0.05487624
 H,0,-2.1320433716,-2.4348785899,0.366513221
 H,0,2.2255435286,1.0720642109,0.0860580636
 H,0,2.1155141179,2.0078217265,-1.3945601272
 H,0,2.7060690108,0.1462755102,-2.7970789212
 H,0,3.8181697862,0.0620874062,-1.41756672
 H,0,2.8314131851,-2.1008509039,-1.9958377358
 H,0,1.2872036592,-1.386891406,-1.7889503346
 H,0,2.2272540515,-1.7100636394,-0.4707300994
 Recover connectivity data from disk.

 GradGradGradGradGradGradGradGradGradGradGradGradGradGradGradGradGradGrad
 Berny optimization.
 Initialization pass.
 Force constant matrix read from checkpoint file:
 "conf-301.chk"
                           ----------------------------
                           !    Initial Parameters    !
                           ! (Angstroms and Degrees)  !
 --------------------------                            --------------------------
 ! Name  Definition              Value          Derivative Info.                !
 --------------------------------------------------------------------------------
 ! R1    R(1,2)                  1.2424         D2E/DX2 =    0.7178             !
 ! R2    R(2,3)                  1.3462         D2E/DX2 =    0.5124             !
 ! R3    R(2,14)                 1.5336         D2E/DX2 =    0.2845             !
 ! R4    R(3,4)                  1.452          D2E/DX2 =    0.3507             !
 ! R5    R(3,17)                 1.0144         D2E/DX2 =    0.4571             !
 ! R6    R(4,5)                  1.5248         D2E/DX2 =    0.2781             !
 ! R7    R(4,8)                  1.5775         D2E/DX2 =    0.2477             !
 ! R8    R(4,18)                 1.0919         D2E/DX2 =    0.3455             !
 ! R9    R(5,6)                  1.3388         D2E/DX2 =    0.4414             !
 ! R10   R(5,7)                  1.2107         D2E/DX2 =    0.8675             !
 ! R11   R(6,19)                 0.974          D2E/DX2 =    0.5027             !
 ! R12   R(8,9)                  1.492          D2E/DX2 =    0.3206             !
 ! R13   R(8,20)                 1.0946         D2E/DX2 =    0.3385             !
 ! R14   R(8,21)                 1.0942         D2E/DX2 =    0.3404             !
 ! R15   R(9,10)                 1.3764         D2E/DX2 =    0.41               !
 ! R16   R(9,13)                 1.3818         D2E/DX2 =    0.3612             !
 ! R17   R(10,11)                1.3798         D2E/DX2 =    0.3366             !
 ! R18   R(10,22)                1.0811         D2E/DX2 =    0.373              !
 ! R19   R(11,12)                1.3247         D2E/DX2 =    0.4427             !
 ! R20   R(12,13)                1.3586         D2E/DX2 =    0.3822             !
 ! R21   R(12,23)                1.081          D2E/DX2 =    0.3757             !
 ! R22   R(13,24)                1.0105         D2E/DX2 =    0.4729             !
 ! R23   R(14,15)                1.5334         D2E/DX2 =    0.3127             !
 ! R24   R(14,25)                1.0946         D2E/DX2 =    0.3392             !
 ! R25   R(14,26)                1.096          D2E/DX2 =    0.3375             !
 ! R26   R(15,16)                1.5095         D2E/DX2 =    0.2786             !
 ! R27   R(15,27)                1.0916         D2E/DX2 =    0.3467             !
 ! R28   R(15,28)                1.0907         D2E/DX2 =    0.349              !
 ! R29   R(16,29)                1.0214         D2E/DX2 =    0.4402             !
 ! R30   R(16,30)                1.0474         D2E/DX2 =    0.3372             !
 ! R31   R(16,31)                1.0472         D2E/DX2 =    0.3383             !
 ! A1    A(1,2,3)              122.8039         D2E/DX2 =    0.2231             !
 ! A2    A(1,2,14)             121.3626         D2E/DX2 =    0.2498             !
 ! A3    A(3,2,14)             115.7477         D2E/DX2 =    0.2093             !
 ! A4    A(2,3,4)              122.9372         D2E/DX2 =    0.2801             !
 ! A5    A(2,3,17)             121.371          D2E/DX2 =    0.13               !
 ! A6    A(4,3,17)             115.5779         D2E/DX2 =    0.1324             !
 ! A7    A(3,4,5)              107.484          D2E/DX2 =    0.1147             !
 ! A8    A(3,4,8)              111.5729         D2E/DX2 =    0.2878             !
 ! A9    A(3,4,18)             108.8934         D2E/DX2 =    0.0444             !
 ! A10   A(5,4,8)              109.0912         D2E/DX2 =    0.141              !
 ! A11   A(5,4,18)             110.1657         D2E/DX2 =    0.0311             !
 ! A12   A(8,4,18)             109.609          D2E/DX2 =    0.0358             !
 ! A13   A(4,5,6)              111.4458         D2E/DX2 =    0.162              !
 ! A14   A(4,5,7)              123.3406         D2E/DX2 =    0.1704             !
 ! A15   A(6,5,7)              125.1549         D2E/DX2 =    0.1959             !
 ! A16   A(5,6,19)             108.0557         D2E/DX2 =    0.1725             !
 ! A17   A(4,8,9)              112.0609         D2E/DX2 =    0.5541             !
 ! A18   A(4,8,20)             108.2372         D2E/DX2 =    0.0836             !
 ! A19   A(4,8,21)             108.1566         D2E/DX2 =    0.1059             !
 ! A20   A(9,8,20)             108.8839         D2E/DX2 =    0.084              !
 ! A21   A(9,8,21)             112.2529         D2E/DX2 =    0.0988             !
 ! A22   A(20,8,21)            107.0549         D2E/DX2 =    0.0272             !
 ! A23   A(8,9,10)             130.3411         D2E/DX2 =    0.1214             !
 ! A24   A(8,9,13)             124.2718         D2E/DX2 =    0.1256             !
 ! A25   A(10,9,13)            104.3433         D2E/DX2 =    0.1009             !
 ! A26   A(9,10,11)            111.0559         D2E/DX2 =    0.1158             !
 ! A27   A(9,10,22)            127.5004         D2E/DX2 =    0.0825             !
 ! A28   A(11,10,22)           121.4432         D2E/DX2 =    0.09               !
 ! A29   A(10,11,12)           105.0884         D2E/DX2 =    0.1339             !
 ! A30   A(11,12,13)           111.3027         D2E/DX2 =    0.1187             !
 ! A31   A(11,12,23)           125.9481         D2E/DX2 =    0.0896             !
 ! A32   A(13,12,23)           122.7364         D2E/DX2 =    0.0906             !
 ! A33   A(9,13,12)            108.1739         D2E/DX2 =    0.1031             !
 ! A34   A(9,13,24)            126.1209         D2E/DX2 =    0.0793             !
 ! A35   A(12,13,24)           125.7045         D2E/DX2 =    0.0808             !
 ! A36   A(2,14,15)            113.3096         D2E/DX2 =    0.4404             !
 ! A37   A(2,14,25)            108.4632         D2E/DX2 =    0.0744             !
 ! A38   A(2,14,26)            110.1018         D2E/DX2 =    0.0901             !
 ! A39   A(15,14,25)           110.3083         D2E/DX2 =    0.0857             !
 ! A40   A(15,14,26)           107.9639         D2E/DX2 =    0.0962             !
 ! A41   A(25,14,26)           106.4771         D2E/DX2 =    0.0254             !
 ! A42   A(14,15,16)           111.3797         D2E/DX2 =    0.323              !
 ! A43   A(14,15,27)           111.1036         D2E/DX2 =    0.0596             !
 ! A44   A(14,15,28)           110.9295         D2E/DX2 =    0.0622             !
 ! A45   A(16,15,27)           105.6973         D2E/DX2 =    0.0719             !
 ! A46   A(16,15,28)           108.8006         D2E/DX2 =    0.0825             !
 ! A47   A(27,15,28)           108.7519         D2E/DX2 =    0.0228             !
 ! A48   A(15,16,29)           111.8743         D2E/DX2 =    0.099              !
 ! A49   A(15,16,30)           103.5633         D2E/DX2 =    0.1228             !
 ! A50   A(15,16,31)           115.9258         D2E/DX2 =    0.134              !
 ! A51   A(29,16,30)           111.8659         D2E/DX2 =    0.0487             !
 ! A52   A(29,16,31)           109.2037         D2E/DX2 =    0.065              !
 ! A53   A(30,16,31)           104.0393         D2E/DX2 =    0.0554             !
 ! D1    D(1,2,3,4)             13.0024         D2E/DX2 =    0.0202             !
 ! D2    D(1,2,3,17)          -171.0507         D2E/DX2 =    0.0331             !
 ! D3    D(14,2,3,4)          -163.6696         D2E/DX2 =    0.0549             !
 ! D4    D(14,2,3,17)           12.2773         D2E/DX2 =    0.0182             !
 ! D5    D(1,2,14,15)           -4.3173         D2E/DX2 =    0.0288             !
 ! D6    D(1,2,14,25)         -127.1564         D2E/DX2 =    0.0265             !
 ! D7    D(1,2,14,26)          116.7004         D2E/DX2 =    0.0174             !
 ! D8    D(3,2,14,15)          172.4069         D2E/DX2 =    0.0694             !
 ! D9    D(3,2,14,25)           49.5677         D2E/DX2 =    0.0304             !
 ! D10   D(3,2,14,26)          -66.5754         D2E/DX2 =    0.04               !
 ! D11   D(2,3,4,5)           -154.1568         D2E/DX2 =    0.0364             !
 ! D12   D(2,3,4,8)             86.2863         D2E/DX2 =    0.1132             !
 ! D13   D(2,3,4,18)           -34.828          D2E/DX2 =    0.024              !
 ! D14   D(17,3,4,5)            29.6796         D2E/DX2 =    0.0151             !
 ! D15   D(17,3,4,8)           -89.8773         D2E/DX2 =    0.0425             !
 ! D16   D(17,3,4,18)          149.0084         D2E/DX2 =    0.0163             !
 ! D17   D(3,4,5,6)            166.5065         D2E/DX2 =    0.0472             !
 ! D18   D(3,4,5,7)            -16.1534         D2E/DX2 =    0.0472             !
 ! D19   D(8,4,5,6)            -72.3655         D2E/DX2 =    0.0398             !
 ! D20   D(8,4,5,7)            104.9747         D2E/DX2 =    0.0399             !
 ! D21   D(18,4,5,6)            47.9945         D2E/DX2 =    0.0159             !
 ! D22   D(18,4,5,7)          -134.6654         D2E/DX2 =    0.0149             !
 ! D23   D(3,4,8,9)            -50.8331         D2E/DX2 =    0.0577             !
 ! D24   D(3,4,8,20)            69.2479         D2E/DX2 =    0.0275             !
 ! D25   D(3,4,8,21)          -175.0915         D2E/DX2 =    0.0425             !
 ! D26   D(5,4,8,9)           -169.4348         D2E/DX2 =    0.0273             !
 ! D27   D(5,4,8,20)           -49.3538         D2E/DX2 =    0.0222             !
 ! D28   D(5,4,8,21)            66.3067         D2E/DX2 =    0.0196             !
 ! D29   D(18,4,8,9)            69.8637         D2E/DX2 =    0.0238             !
 ! D30   D(18,4,8,20)         -170.0553         D2E/DX2 =    0.0288             !
 ! D31   D(18,4,8,21)          -54.3947         D2E/DX2 =    0.0143             !
 ! D32   D(4,5,6,19)           177.29           D2E/DX2 =    0.0181             !
 ! D33   D(7,5,6,19)             0.0078         D2E/DX2 =    0.0166             !
 ! D34   D(4,8,9,10)            80.7974         D2E/DX2 =    0.0217             !
 ! D35   D(4,8,9,13)           -85.6229         D2E/DX2 =    0.0167             !
 ! D36   D(20,8,9,10)          -38.906          D2E/DX2 =    0.0165             !
 ! D37   D(20,8,9,13)          154.6738         D2E/DX2 =    0.0247             !
 ! D38   D(21,8,9,10)         -157.2573         D2E/DX2 =    0.0281             !
 ! D39   D(21,8,9,13)           36.3225         D2E/DX2 =    0.0171             !
 ! D40   D(8,9,10,11)         -166.5749         D2E/DX2 =    0.0193             !
 ! D41   D(8,9,10,22)           13.6883         D2E/DX2 =    0.0094             !
 ! D42   D(13,9,10,11)           1.8721         D2E/DX2 =    0.0156             !
 ! D43   D(13,9,10,22)        -177.8647         D2E/DX2 =    0.0105             !
 ! D44   D(8,9,13,12)          168.2156         D2E/DX2 =    0.0173             !
 ! D45   D(8,9,13,24)          -12.0674         D2E/DX2 =    0.0071             !
 ! D46   D(10,9,13,12)          -1.1394         D2E/DX2 =    0.0131             !
 ! D47   D(10,9,13,24)         178.5776         D2E/DX2 =    0.0052             !
 ! D48   D(9,10,11,12)          -1.879          D2E/DX2 =    0.0191             !
 ! D49   D(22,10,11,12)        177.8763         D2E/DX2 =    0.0106             !
 ! D50   D(10,11,12,13)          1.1155         D2E/DX2 =    0.0193             !
 ! D51   D(10,11,12,23)       -177.6066         D2E/DX2 =    0.0105             !
 ! D52   D(11,12,13,9)           0.0162         D2E/DX2 =    0.0177             !
 ! D53   D(11,12,13,24)       -179.7022         D2E/DX2 =    0.0093             !
 ! D54   D(23,12,13,9)         178.7863         D2E/DX2 =    0.0108             !
 ! D55   D(23,12,13,24)         -0.9321         D2E/DX2 =    0.0068             !
 ! D56   D(2,14,15,16)         -41.492          D2E/DX2 =    0.0339             !
 ! D57   D(2,14,15,27)          76.0584         D2E/DX2 =    0.0173             !
 ! D58   D(2,14,15,28)        -162.8421         D2E/DX2 =    0.0249             !
 ! D59   D(25,14,15,16)         80.3211         D2E/DX2 =    0.0227             !
 ! D60   D(25,14,15,27)       -162.1285         D2E/DX2 =    0.0252             !
 ! D61   D(25,14,15,28)        -41.029          D2E/DX2 =    0.0163             !
 ! D62   D(26,14,15,16)       -163.7078         D2E/DX2 =    0.0278             !
 ! D63   D(26,14,15,27)        -46.1574         D2E/DX2 =    0.0171             !
 ! D64   D(26,14,15,28)         74.9421         D2E/DX2 =    0.0196             !
 ! D65   D(14,15,16,29)        178.2354         D2E/DX2 =    0.0152             !
 ! D66   D(14,15,16,30)         57.5917         D2E/DX2 =    0.0187             !
 ! D67   D(14,15,16,31)        -55.6587         D2E/DX2 =    0.0174             !
 ! D68   D(27,15,16,29)         57.4605         D2E/DX2 =    0.0155             !
 ! D69   D(27,15,16,30)        -63.1832         D2E/DX2 =    0.0184             !
 ! D70   D(27,15,16,31)       -176.4335         D2E/DX2 =    0.0191             !
 ! D71   D(28,15,16,29)        -59.1819         D2E/DX2 =    0.0148             !
 ! D72   D(28,15,16,30)       -179.8256         D2E/DX2 =    0.0189             !
 ! D73   D(28,15,16,31)         66.9241         D2E/DX2 =    0.0171             !
 --------------------------------------------------------------------------------
 Trust Radius=3.00D-01 FncErr=1.00D-07 GrdErr=1.00D-06
 Number of steps in this run=    167 maximum allowed number of steps=    186.
 GradGradGradGradGradGradGradGradGradGradGradGradGradGradGradGradGradGrad

                          Input orientation:                          
 ---------------------------------------------------------------------
 Center     Atomic      Atomic             Coordinates (Angstroms)
 Number     Number       Type             X           Y           Z
 ---------------------------------------------------------------------
      1          8           0       -0.028829   -0.233148   -1.684106
      2          6           0        0.415743    0.713761   -1.013846
      3          7           0       -0.365549    1.488335   -0.238027
      4          6           0       -1.731406    1.136844    0.107352
      5          6           0       -2.478559    2.433768    0.398447
      6          8           0       -3.802133    2.237163    0.441147
      7          8           0       -1.923134    3.487992    0.612661
      8          6           0       -1.787152    0.211600    1.383835
      9          6           0       -0.870777   -0.960071    1.267142
     10          6           0        0.485906   -1.054739    1.479180
     11          7           0        0.984856   -2.238741    0.976125
     12          6           0       -0.069720   -2.881375    0.496852
     13          7           0       -1.204841   -2.150863    0.650791
     14          6           0        1.917662    1.019933   -0.963065
     15          6           0        2.771838   -0.005607   -1.718056
     16          7           0        2.285554   -1.413537   -1.473415
     17          1           0       -0.008395    2.333917    0.193729
     18          1           0       -2.188623    0.620958   -0.739397
     19          1           0       -4.225716    3.083306    0.671846
     20          1           0       -1.490733    0.808048    2.252446
     21          1           0       -2.827175   -0.089822    1.541321
     22          1           0        1.127100   -0.335813    1.969989
     23          1           0       -0.064851   -3.867887    0.054876
     24          1           0       -2.132043   -2.434879    0.366513
     25          1           0        2.225544    1.072064    0.086058
     26          1           0        2.115514    2.007822   -1.394560
     27          1           0        2.706069    0.146276   -2.797079
     28          1           0        3.818170    0.062087   -1.417567
     29          1           0        2.831413   -2.100851   -1.995838
     30          1           0        1.287204   -1.386891   -1.788950
     31          1           0        2.227254   -1.710064   -0.470730
 ---------------------------------------------------------------------
                    Distance matrix (angstroms):
                    1          2          3          4          5
     1  O    0.000000
     2  C    1.242389   0.000000
     3  N    2.273330   1.346208   0.000000
     4  C    2.825769   2.458929   1.452032   0.000000
     5  C    4.177397   3.651024   2.400782   1.524790   0.000000
     6  O    4.985675   4.714683   3.582196   2.368550   1.338777
     7  O    4.765545   3.976460   2.673644   2.412467   1.210692
     8  C    3.563953   3.294509   2.506281   1.577528   2.527264
     9  C    3.153912   3.108015   2.918130   2.546144   3.854573
    10  C    3.308526   3.057401   3.184494   3.406086   4.703798
    11  N    3.482354   3.605710   4.145944   4.418984   5.844766
    12  C    3.430941   3.929744   4.440937   4.365660   5.836345
    13  N    3.242280   3.688277   3.839032   3.373665   4.764963
    14  C    2.424653   1.533649   2.440929   3.804623   4.814499
    15  C    2.810101   2.562145   3.776976   4.991645   6.164155
    16  N    2.606545   2.869284   4.120120   5.013904   6.403311
    17  H    3.180645   2.064712   1.014387   2.099813   2.480643
    18  H    2.507326   2.620431   2.080220   1.091865   2.159868
    19  H    5.844933   5.477175   4.274657   3.213869   1.883934
    20  H    4.326395   3.783148   2.816253   2.183451   2.656327
    21  H    4.272547   4.206084   3.422902   2.182129   2.792167
    22  H    3.833944   3.242054   3.229683   3.716073   4.810520
    23  H    4.029477   4.729127   5.372646   5.275177   6.756840
    24  H    3.670990   4.279082   4.344833   3.603453   4.881066
    25  H    3.149485   2.147917   2.644253   3.957537   4.907179
    26  H    3.115123   2.169967   2.786236   4.220561   4.949931
    27  H    2.976968   2.957626   4.217192   5.395195   6.505719
    28  H    3.867507   3.487718   4.574822   5.854765   6.969330
    29  H    3.430230   3.836901   5.117882   5.977072   7.381813
    30  H    1.753299   2.402701   3.661131   4.367746   5.793368
    31  H    2.956936   3.074325   4.123897   4.910199   6.330204
                    6          7          8          9         10
     6  O    0.000000
     7  O    2.263764   0.000000
     8  C    3.008606   3.368672   0.000000
     9  C    4.415588   4.617475   1.492037   0.000000
    10  C    5.504671   5.214474   2.603747   1.376412   0.000000
    11  N    6.575346   6.433039   3.722153   2.272237   1.379810
    12  C    6.335095   6.634560   3.647301   2.219560   2.147157
    13  N    5.103396   5.684549   2.541195   1.381837   2.178610
    14  C    6.014109   4.829694   4.459483   4.082846   3.509809
    15  C    7.273876   6.299226   5.518451   4.805316   4.067983
    16  N    7.352080   6.788944   5.233725   4.204605   3.476390
    17  H    3.803028   2.274560   3.014060   3.570193   3.657829
    18  H    2.570839   3.180948   2.199287   2.874469   3.857869
    19  H    0.973963   2.338623   3.834087   5.287617   6.322546
    20  H    3.265845   3.171430   1.094578   2.116935   2.824007
    21  H    2.752414   3.805319   1.094214   2.158703   3.451294
    22  H    5.766706   5.076195   3.022599   2.207987   1.081147
    23  H    7.168550   7.607451   4.623274   3.251846   3.200902
    24  H    4.962130   5.931664   2.856176   2.139389   3.161719
    25  H    6.149506   4.829653   4.304225   3.887381   3.080653
    26  H    6.200077   4.746633   5.116316   4.981062   4.504807
    27  H    7.564034   6.650032   6.137861   5.525914   4.965678
    28  H    8.139704   6.987218   6.268161   5.498972   4.554386
    29  H    8.292237   7.787500   6.172581   5.065040   4.321054
    30  H    6.633886   6.311775   4.698234   3.765469   3.381284
    31  H    7.263995   6.739380   4.821582   3.630494   2.695161
                   11         12         13         14         15
    11  N    0.000000
    12  C    1.324692   0.000000
    13  N    2.215477   1.358618   0.000000
    14  C    3.905067   4.615328   4.733762   0.000000
    15  C    3.929225   4.609806   5.101719   1.533415   0.000000
    16  N    2.893618   3.403500   4.151958   2.513479   1.509500
    17  H    4.744248   5.224453   4.664080   2.602771   4.105848
    18  H    4.603462   4.276026   3.253220   4.131681   5.094756
    19  H    7.454316   7.271887   6.043398   6.683677   8.013662
    20  H    4.128009   4.325879   3.376713   4.690582   5.881873
    21  H    4.412355   4.060448   2.770000   5.478775   6.479165
    22  H    2.151542   3.175279   3.236146   3.326536   4.051651
    23  H    2.145857   1.081006   2.145428   5.371904   5.109531
    24  H    3.182005   2.114125   1.010536   5.486676   5.856180
    25  H    3.645951   4.589844   4.740646   1.094609   2.171322
    26  H    4.993179   5.679518   5.701130   1.096019   2.142266
    27  H    4.784135   5.265136   5.697356   2.179098   1.091643
    28  H    4.364773   5.238765   5.865654   2.176229   1.090727
    29  H    3.501621   3.903754   4.826851   3.411870   2.114417
    30  H    2.909073   3.049527   3.570193   2.621520   2.029067
    31  H    1.979001   2.753956   3.637498   2.791258   2.181185
                   16         17         18         19         20
    16  N    0.000000
    17  H    4.699465   0.000000
    18  H    4.969529   2.925466   0.000000
    19  H    8.198804   4.309986   3.493496   0.000000
    20  H    5.751332   2.960392   3.077852   3.892972   0.000000
    21  H    6.081188   3.954243   2.472777   3.575003   1.760099
    22  H    3.789530   3.401751   4.387506   6.482916   2.870758
    23  H    3.726112   6.203615   5.029017   8.124810   5.359741
    24  H    4.893224   5.223136   3.250288   5.909912   3.805863
    25  H    2.934922   2.567946   4.513285   6.782845   4.309716
    26  H    3.426489   2.672075   4.569270   6.755583   5.267364
    27  H    2.088524   4.593367   5.330797   8.289103   6.599151
    28  H    2.128262   4.732872   6.070734   8.842936   6.496914
    29  H    1.021415   5.703146   5.847021   9.153966   6.722392
    30  H    1.047366   4.410669   4.149023   7.512022   5.372855
    31  H    1.047236   4.668341   5.000582   8.119279   5.251666
                   21         22         23         24         25
    21  H    0.000000
    22  H    3.985042   0.000000
    23  H    4.910573   4.190937   0.000000
    24  H    2.713424   4.195143   2.534545   0.000000
    25  H    5.384954   2.595745   5.445181   5.600524   0.000000
    26  H    6.119614   4.217793   6.432637   6.393802   1.754987
    27  H    7.035214   5.044848   5.650234   6.330719   3.066018
    28  H    7.275898   4.344619   5.717573   6.694984   2.411928
    29  H    6.969601   4.663456   3.964365   5.507102   3.843014
    30  H    5.449881   3.906408   3.373883   4.175590   3.231501
    31  H    5.676335   3.009321   3.191584   4.497756   2.837296
                   26         27         28         29         30
    26  H    0.000000
    27  H    2.404406   0.000000
    28  H    2.585623   1.773953   0.000000
    29  H    4.213696   2.388991   2.446710   0.000000
    30  H    3.516492   2.319505   2.939941   1.713804   0.000000
    31  H    3.832573   3.014491   2.562817   1.686320   1.651012
                   31
    31  H    0.000000
 Symmetry turned off by external request.
 Stoichiometry    C9H15N4O3(1+)
 Framework group  C1[X(C9H15N4O3)]
 Deg. of freedom    87
 Full point group                 C1      NOp   1
 Rotational constants (GHZ):      0.8085465      0.4020637      0.3043806
 Standard basis: 6-311++G(2df,2pd) (5D, 7F)
   769 basis functions,  1102 primitive gaussians,   864 cartesian basis functions
    60 alpha electrons       60 beta electrons
       nuclear repulsion energy      1198.2328603387 Hartrees.
 NAtoms=   31 NActive=   31 NUniq=   31 SFac= 1.00D+00 NAtFMM=   60 NAOKFM=F Big=F
 Integral buffers will be    131072 words long.
 Raffenetti 2 integral format.
 Two-electron integral symmetry is turned off.
 One-electron integrals computed using PRISM.
 NBasis=   769 RedAO= T EigKep=  2.00D-06  NBF=   769
 NBsUse=   769 1.00D-06 EigRej= -1.00D+00 NBFU=   769
 Initial guess from the checkpoint file:  "conf-301.chk"
 B after Tr=     0.000000    0.000000    0.000000
         Rot=    1.000000    0.000000    0.000000    0.000000 Ang=   0.00 deg.
 Requested convergence on RMS density matrix=1.00D-08 within 128 cycles.
 Requested convergence on MAX density matrix=1.00D-06.
 Requested convergence on             energy=1.00D-06.
 No special actions if energy rises.
 SCF Done:  E(RB3LYP) =  -796.775293682     A.U. after   14 cycles
            NFock= 14  Conv=0.15D-08     -V/T= 2.0043

 **********************************************************************

            Population analysis using the SCF density.

 **********************************************************************

 Alpha  occ. eigenvalues --  -19.30218 -19.24883 -19.24604 -14.56058 -14.50512
 Alpha  occ. eigenvalues --  -14.48705 -14.43880 -10.43790 -10.43336 -10.38939
 Alpha  occ. eigenvalues --  -10.36839 -10.36344 -10.34678 -10.34264 -10.32801
 Alpha  occ. eigenvalues --  -10.31876  -1.24180  -1.19730  -1.15470  -1.15448
 Alpha  occ. eigenvalues --   -1.13422  -1.07998  -1.01235  -0.95104  -0.92944
 Alpha  occ. eigenvalues --   -0.88500  -0.82802  -0.80860  -0.76053  -0.75321
 Alpha  occ. eigenvalues --   -0.73776  -0.73028  -0.72472  -0.71413  -0.68171
 Alpha  occ. eigenvalues --   -0.66374  -0.64244  -0.63548  -0.62133  -0.61443
 Alpha  occ. eigenvalues --   -0.60734  -0.59368  -0.58852  -0.57567  -0.56399
 Alpha  occ. eigenvalues --   -0.55580  -0.55103  -0.54656  -0.54407  -0.53731
 Alpha  occ. eigenvalues --   -0.53185  -0.51309  -0.50559  -0.45729  -0.43600
 Alpha  occ. eigenvalues --   -0.42604  -0.42144  -0.41589  -0.41206  -0.36716
 Alpha virt. eigenvalues --   -0.14925  -0.14458  -0.14211  -0.12212  -0.11764
 Alpha virt. eigenvalues --   -0.11331  -0.10249  -0.10042  -0.09689  -0.08969
 Alpha virt. eigenvalues --   -0.08223  -0.07714  -0.07442  -0.06694  -0.05991
 Alpha virt. eigenvalues --   -0.05560  -0.05470  -0.04391  -0.04312  -0.03361
 Alpha virt. eigenvalues --   -0.03189  -0.02173  -0.02080  -0.01847  -0.01576
 Alpha virt. eigenvalues --   -0.00868  -0.00633   0.00013   0.00024   0.00515
 Alpha virt. eigenvalues --    0.00714   0.00902   0.01060   0.01340   0.01958
 Alpha virt. eigenvalues --    0.02174   0.02389   0.02911   0.03058   0.03228
 Alpha virt. eigenvalues --    0.03412   0.03863   0.04102   0.04611   0.04838
 Alpha virt. eigenvalues --    0.04942   0.05452   0.05604   0.05822   0.06206
 Alpha virt. eigenvalues --    0.06636   0.06987   0.07321   0.07653   0.07762
 Alpha virt. eigenvalues --    0.08150   0.09269   0.09371   0.09985   0.10104
 Alpha virt. eigenvalues --    0.10416   0.10978   0.11206   0.11858   0.12018
 Alpha virt. eigenvalues --    0.12618   0.12681   0.12867   0.12999   0.13378
 Alpha virt. eigenvalues --    0.13735   0.14071   0.14260   0.14882   0.15620
 Alpha virt. eigenvalues --    0.15792   0.16641   0.17574   0.17642   0.17891
 Alpha virt. eigenvalues --    0.18360   0.18793   0.19103   0.19419   0.19762
 Alpha virt. eigenvalues --    0.19936   0.20656   0.20919   0.21072   0.21623
 Alpha virt. eigenvalues --    0.21763   0.21997   0.22396   0.23316   0.23701
 Alpha virt. eigenvalues --    0.23865   0.24857   0.25050   0.25233   0.26067
 Alpha virt. eigenvalues --    0.26444   0.27098   0.28020   0.28268   0.29024
 Alpha virt. eigenvalues --    0.29852   0.30196   0.31080   0.33118   0.33164
 Alpha virt. eigenvalues --    0.33558   0.34267   0.35476   0.35872   0.36076
 Alpha virt. eigenvalues --    0.37400   0.38010   0.38453   0.39268   0.39780
 Alpha virt. eigenvalues --    0.40319   0.40701   0.41300   0.41383   0.42471
 Alpha virt. eigenvalues --    0.43475   0.44190   0.45532   0.45950   0.46108
 Alpha virt. eigenvalues --    0.46725   0.47049   0.47666   0.48216   0.48380
 Alpha virt. eigenvalues --    0.49310   0.49602   0.50314   0.51147   0.51590
 Alpha virt. eigenvalues --    0.52168   0.52682   0.53103   0.53597   0.53730
 Alpha virt. eigenvalues --    0.54485   0.55761   0.55793   0.56130   0.56818
 Alpha virt. eigenvalues --    0.57975   0.58273   0.58831   0.59440   0.59873
 Alpha virt. eigenvalues --    0.60412   0.60562   0.61696   0.62177   0.62571
 Alpha virt. eigenvalues --    0.63636   0.64670   0.65149   0.66385   0.66857
 Alpha virt. eigenvalues --    0.67310   0.67666   0.67998   0.69031   0.70097
 Alpha virt. eigenvalues --    0.71093   0.72028   0.72819   0.73268   0.73835
 Alpha virt. eigenvalues --    0.74900   0.76349   0.77240   0.77699   0.78183
 Alpha virt. eigenvalues --    0.79070   0.79551   0.80280   0.81160   0.81916
 Alpha virt. eigenvalues --    0.82873   0.83328   0.84403   0.86120   0.86315
 Alpha virt. eigenvalues --    0.86552   0.88114   0.89380   0.90072   0.90563
 Alpha virt. eigenvalues --    0.92163   0.92981   0.94231   0.94760   0.96276
 Alpha virt. eigenvalues --    0.96823   0.97088   0.98204   0.98841   0.99866
 Alpha virt. eigenvalues --    1.00059   1.00653   1.01040   1.01919   1.02870
 Alpha virt. eigenvalues --    1.03311   1.04144   1.04417   1.05153   1.05893
 Alpha virt. eigenvalues --    1.06410   1.07576   1.08136   1.09460   1.10583
 Alpha virt. eigenvalues --    1.10972   1.11640   1.12123   1.12331   1.13884
 Alpha virt. eigenvalues --    1.14099   1.14759   1.15420   1.15824   1.16848
 Alpha virt. eigenvalues --    1.17835   1.18410   1.19536   1.20246   1.20874
 Alpha virt. eigenvalues --    1.21725   1.22392   1.23307   1.24227   1.24553
 Alpha virt. eigenvalues --    1.26150   1.26692   1.27909   1.28634   1.29251
 Alpha virt. eigenvalues --    1.29586   1.30755   1.31246   1.32171   1.33211
 Alpha virt. eigenvalues --    1.33399   1.33621   1.34538   1.35842   1.36265
 Alpha virt. eigenvalues --    1.37188   1.37426   1.38200   1.39509   1.40440
 Alpha virt. eigenvalues --    1.40773   1.41712   1.42683   1.43162   1.43405
 Alpha virt. eigenvalues --    1.44561   1.45543   1.46572   1.47311   1.48143
 Alpha virt. eigenvalues --    1.48718   1.49640   1.50399   1.52005   1.53007
 Alpha virt. eigenvalues --    1.54884   1.55123   1.56934   1.57705   1.58559
 Alpha virt. eigenvalues --    1.59775   1.60919   1.63741   1.64155   1.65395
 Alpha virt. eigenvalues --    1.66263   1.66642   1.68161   1.69494   1.70568
 Alpha virt. eigenvalues --    1.72262   1.73457   1.75267   1.75521   1.77318
 Alpha virt. eigenvalues --    1.79498   1.81222   1.83730   1.84103   1.86026
 Alpha virt. eigenvalues --    1.89688   1.91767   1.93775   1.95340   1.98876
 Alpha virt. eigenvalues --    1.99556   2.00772   2.03376   2.04187   2.05078
 Alpha virt. eigenvalues --    2.08355   2.10746   2.17405   2.21343   2.28583
 Alpha virt. eigenvalues --    2.30654   2.34178   2.36043   2.38300   2.39006
 Alpha virt. eigenvalues --    2.40776   2.42625   2.43647   2.45519   2.46151
 Alpha virt. eigenvalues --    2.48780   2.49171   2.50056   2.52135   2.53391
 Alpha virt. eigenvalues --    2.55399   2.56001   2.57961   2.58339   2.59632
 Alpha virt. eigenvalues --    2.61112   2.61590   2.62268   2.62602   2.64101
 Alpha virt. eigenvalues --    2.65170   2.65849   2.67352   2.69540   2.70544
 Alpha virt. eigenvalues --    2.70915   2.72251   2.72641   2.74415   2.75639
 Alpha virt. eigenvalues --    2.76037   2.76594   2.77453   2.78150   2.79331
 Alpha virt. eigenvalues --    2.80790   2.80969   2.81446   2.82493   2.82956
 Alpha virt. eigenvalues --    2.84164   2.84896   2.85745   2.86225   2.87469
 Alpha virt. eigenvalues --    2.88070   2.88763   2.89533   2.90347   2.91363
 Alpha virt. eigenvalues --    2.92415   2.92960   2.93385   2.94036   2.94790
 Alpha virt. eigenvalues --    2.95448   2.96033   2.97632   2.98086   2.99539
 Alpha virt. eigenvalues --    3.00361   3.01362   3.01620   3.03045   3.03307
 Alpha virt. eigenvalues --    3.04425   3.05099   3.05459   3.05962   3.06489
 Alpha virt. eigenvalues --    3.08145   3.08739   3.08923   3.10071   3.10785
 Alpha virt. eigenvalues --    3.11721   3.12015   3.13637   3.14180   3.14571
 Alpha virt. eigenvalues --    3.14981   3.15937   3.16384   3.17047   3.17582
 Alpha virt. eigenvalues --    3.19332   3.20318   3.20557   3.21158   3.21538
 Alpha virt. eigenvalues --    3.22410   3.23153   3.24299   3.24472   3.25614
 Alpha virt. eigenvalues --    3.26590   3.28046   3.28339   3.29744   3.30098
 Alpha virt. eigenvalues --    3.30673   3.31963   3.32924   3.33624   3.33802
 Alpha virt. eigenvalues --    3.34502   3.34878   3.35550   3.37029   3.37340
 Alpha virt. eigenvalues --    3.37677   3.38607   3.39944   3.40405   3.41457
 Alpha virt. eigenvalues --    3.42324   3.43510   3.44032   3.44336   3.45138
 Alpha virt. eigenvalues --    3.46413   3.47552   3.47607   3.48939   3.50128
 Alpha virt. eigenvalues --    3.50597   3.50688   3.51601   3.52848   3.53521
 Alpha virt. eigenvalues --    3.54150   3.54760   3.55266   3.56147   3.57334
 Alpha virt. eigenvalues --    3.59087   3.59282   3.60752   3.60884   3.61526
 Alpha virt. eigenvalues --    3.62572   3.63040   3.64079   3.64898   3.65955
 Alpha virt. eigenvalues --    3.67646   3.68042   3.69290   3.69733   3.70582
 Alpha virt. eigenvalues --    3.70890   3.72251   3.73629   3.74627   3.75505
 Alpha virt. eigenvalues --    3.76168   3.76907   3.77393   3.77977   3.78595
 Alpha virt. eigenvalues --    3.80031   3.80539   3.81096   3.82557   3.83712
 Alpha virt. eigenvalues --    3.84369   3.84977   3.85158   3.85948   3.87305
 Alpha virt. eigenvalues --    3.87926   3.88960   3.89321   3.90137   3.91324
 Alpha virt. eigenvalues --    3.92593   3.93499   3.94847   3.95713   3.96038
 Alpha virt. eigenvalues --    3.96823   3.97162   3.97678   3.99340   3.99577
 Alpha virt. eigenvalues --    3.99938   4.00268   4.01614   4.02952   4.03696
 Alpha virt. eigenvalues --    4.05308   4.05501   4.06319   4.07208   4.08989
 Alpha virt. eigenvalues --    4.09743   4.11401   4.13064   4.14351   4.14784
 Alpha virt. eigenvalues --    4.16129   4.16694   4.17599   4.19029   4.20135
 Alpha virt. eigenvalues --    4.20336   4.21137   4.22405   4.22669   4.25102
 Alpha virt. eigenvalues --    4.25516   4.26843   4.29154   4.29290   4.31313
 Alpha virt. eigenvalues --    4.32479   4.34661   4.36725   4.37837   4.38447
 Alpha virt. eigenvalues --    4.40938   4.42103   4.42980   4.43488   4.44196
 Alpha virt. eigenvalues --    4.46079   4.47009   4.48819   4.50310   4.50724
 Alpha virt. eigenvalues --    4.52971   4.54350   4.54834   4.56761   4.61227
 Alpha virt. eigenvalues --    4.62052   4.64063   4.65486   4.67194   4.69058
 Alpha virt. eigenvalues --    4.70423   4.70694   4.72384   4.73563   4.75042
 Alpha virt. eigenvalues --    4.76346   4.77617   4.78691   4.79740   4.81057
 Alpha virt. eigenvalues --    4.82185   4.83297   4.84694   4.85206   4.86637
 Alpha virt. eigenvalues --    4.87527   4.89266   4.90060   4.91859   4.92623
 Alpha virt. eigenvalues --    4.92995   4.93698   4.94780   4.96326   4.97285
 Alpha virt. eigenvalues --    4.97760   4.98297   4.99317   5.00083   5.00573
 Alpha virt. eigenvalues --    5.00981   5.02165   5.02920   5.04923   5.05748
 Alpha virt. eigenvalues --    5.07483   5.08483   5.09542   5.10247   5.11718
 Alpha virt. eigenvalues --    5.13482   5.14237   5.16430   5.17530   5.19071
 Alpha virt. eigenvalues --    5.19272   5.20532   5.21355   5.22237   5.23361
 Alpha virt. eigenvalues --    5.24252   5.26353   5.27351   5.29101   5.29895
 Alpha virt. eigenvalues --    5.31026   5.33109   5.33328   5.35124   5.36856
 Alpha virt. eigenvalues --    5.38046   5.39496   5.40445   5.41840   5.44097
 Alpha virt. eigenvalues --    5.45247   5.46894   5.48644   5.50862   5.52869
 Alpha virt. eigenvalues --    5.54094   5.55183   5.57738   5.59011   5.62191
 Alpha virt. eigenvalues --    5.64463   5.66485   5.68848   5.70264   5.72852
 Alpha virt. eigenvalues --    5.74350   5.79024   5.81142   5.81712   5.83669
 Alpha virt. eigenvalues --    5.87094   5.88474   5.91715   5.92728   5.95021
 Alpha virt. eigenvalues --    5.96966   6.01139   6.05721   6.07836   6.13160
 Alpha virt. eigenvalues --    6.15145   6.16725   6.19016   6.21207   6.23279
 Alpha virt. eigenvalues --    6.27804   6.29632   6.32115   6.33136   6.36631
 Alpha virt. eigenvalues --    6.37430   6.43569   6.58274   6.58547   6.70008
 Alpha virt. eigenvalues --    6.73495   6.81833   6.83704   6.85704   6.90191
 Alpha virt. eigenvalues --    6.91623   7.01021   7.04869   7.06971   7.08717
 Alpha virt. eigenvalues --    7.09926   7.11109   7.12261   7.19158   7.20304
 Alpha virt. eigenvalues --    7.27299   7.45763   7.47616   7.49852   7.57754
 Alpha virt. eigenvalues --    7.63643   7.66311   7.87254  24.42762  24.60765
 Alpha virt. eigenvalues --   24.68703  24.75440  24.87917  24.89976  24.94939
 Alpha virt. eigenvalues --   24.95944  25.00356  35.85660  36.13005  36.15896
 Alpha virt. eigenvalues --   36.41302  50.05806  50.09540  50.16733
          Condensed to atoms (all electrons):
               1          2          3          4          5          6
     1  O    8.127651   0.437958  -0.100705  -0.007147  -0.026469  -0.000207
     2  C    0.437958   7.702820   0.034785  -1.428739   0.214609   0.005934
     3  N   -0.100705   0.034785   6.576945  -0.138056   0.011389  -0.004884
     4  C   -0.007147  -1.428739  -0.138056  11.893894  -2.670982   0.274574
     5  C   -0.026469   0.214609   0.011389  -2.670982   6.976573   0.076166
     6  O   -0.000207   0.005934  -0.004884   0.274574   0.076166   7.794473
     7  O   -0.000381   0.024188   0.006106  -0.001945   0.451862  -0.102949
     8  C   -0.084016   0.412566   0.220770  -2.683365   1.198072  -0.153690
     9  C    0.094550   0.084973  -0.130353   0.507321  -0.710685   0.048437
    10  C   -0.028832  -0.361302  -0.027461   0.080942   0.076055   0.000400
    11  N    0.005236   0.058167   0.012000  -0.041569   0.004094   0.000126
    12  C    0.001484  -0.073134   0.036057   0.016759   0.035868   0.001700
    13  N   -0.022928  -0.057865   0.041750  -0.045445   0.078583  -0.000045
    14  C   -0.025694  -0.866614   0.049551   0.083903  -0.095740   0.000073
    15  C   -0.005369   0.269333  -0.074126  -0.058855   0.023089  -0.000279
    16  N   -0.062875  -0.144842   0.023445   0.007563  -0.000112   0.000008
    17  H   -0.003790  -0.116955   0.347034  -0.013747   0.042784  -0.002964
    18  H    0.000105  -0.024577  -0.049156   0.462091  -0.003604  -0.008381
    19  H   -0.000175   0.002348   0.003032  -0.202889   0.149071   0.230838
    20  H   -0.000486   0.004654  -0.012157   0.088358  -0.044583   0.000399
    21  H    0.000512   0.019036   0.010934  -0.036159  -0.021271   0.002003
    22  H   -0.001483   0.023637  -0.005861   0.001372  -0.002029   0.000044
    23  H    0.000986  -0.005737   0.000385   0.000516  -0.000384   0.000080
    24  H   -0.003101   0.006551  -0.001076  -0.006018   0.000855   0.000212
    25  H   -0.004173   0.035143  -0.020432  -0.000245  -0.001886   0.000156
    26  H    0.005297  -0.104995   0.013288   0.022792  -0.010846   0.000148
    27  H   -0.003772   0.031634  -0.004848  -0.002481   0.000482   0.000016
    28  H   -0.000781  -0.002786   0.000679  -0.003665   0.000286  -0.000016
    29  H   -0.001843   0.011104  -0.000498  -0.000200   0.000071   0.000000
    30  H    0.082999  -0.030452  -0.000267   0.028247  -0.007990  -0.000062
    31  H    0.003258   0.005466   0.004706  -0.000260   0.001353   0.000020
               7          8          9         10         11         12
     1  O   -0.000381  -0.084016   0.094550  -0.028832   0.005236   0.001484
     2  C    0.024188   0.412566   0.084973  -0.361302   0.058167  -0.073134
     3  N    0.006106   0.220770  -0.130353  -0.027461   0.012000   0.036057
     4  C   -0.001945  -2.683365   0.507321   0.080942  -0.041569   0.016759
     5  C    0.451862   1.198072  -0.710685   0.076055   0.004094   0.035868
     6  O   -0.102949  -0.153690   0.048437   0.000400   0.000126   0.001700
     7  O    8.018812  -0.065016  -0.012041  -0.004000   0.000203   0.000420
     8  C   -0.065016  10.277785  -2.355494  -0.689047  -0.120417   0.076733
     9  C   -0.012041  -2.355494  11.262872  -3.291863   0.156287   0.007054
    10  C   -0.004000  -0.689047  -3.291863  10.916382  -0.171087  -0.844666
    11  N    0.000203  -0.120417   0.156287  -0.171087   7.160622   0.325771
    12  C    0.000420   0.076733   0.007054  -0.844666   0.325771   5.551498
    13  N    0.000590  -0.097914  -0.074406   0.151368   0.056731   0.418760
    14  C   -0.019798  -0.199085   0.202903  -0.123773   0.056625  -0.001228
    15  C   -0.001469   0.031970  -0.120412   0.191169  -0.068593  -0.014450
    16  N   -0.000056   0.028937  -0.021396  -0.016154  -0.069064   0.032036
    17  H    0.020079   0.011985  -0.022009  -0.000647   0.003431   0.001557
    18  H   -0.000165  -0.005527  -0.030846  -0.054899   0.004220   0.002693
    19  H    0.026132   0.035048  -0.007654   0.000673  -0.000003   0.000013
    20  H    0.000588   0.266321   0.028846  -0.030338  -0.002867  -0.009155
    21  H   -0.000271   0.382160  -0.011575  -0.017704   0.001328  -0.001273
    22  H   -0.000571  -0.045576  -0.181386   0.631006  -0.111042  -0.006130
    23  H    0.000000   0.003897   0.075263  -0.030960  -0.073610   0.450541
    24  H   -0.000022  -0.027460  -0.031752   0.049382  -0.005404  -0.048202
    25  H    0.001265   0.021440  -0.009284  -0.022741  -0.014802   0.004294
    26  H   -0.000668  -0.014499   0.031582  -0.025580   0.004437   0.001548
    27  H    0.000209   0.002351  -0.009400   0.008849  -0.002478  -0.000632
    28  H   -0.000170   0.001072   0.003798  -0.003977   0.000301  -0.002475
    29  H   -0.000009   0.003273   0.003304  -0.005677  -0.002099  -0.000181
    30  H   -0.000175  -0.029717   0.060377  -0.024360  -0.007489  -0.001007
    31  H    0.000130  -0.004673  -0.013236  -0.009057   0.090064  -0.008544
              13         14         15         16         17         18
     1  O   -0.022928  -0.025694  -0.005369  -0.062875  -0.003790   0.000105
     2  C   -0.057865  -0.866614   0.269333  -0.144842  -0.116955  -0.024577
     3  N    0.041750   0.049551  -0.074126   0.023445   0.347034  -0.049156
     4  C   -0.045445   0.083903  -0.058855   0.007563  -0.013747   0.462091
     5  C    0.078583  -0.095740   0.023089  -0.000112   0.042784  -0.003604
     6  O   -0.000045   0.000073  -0.000279   0.000008  -0.002964  -0.008381
     7  O    0.000590  -0.019798  -0.001469  -0.000056   0.020079  -0.000165
     8  C   -0.097914  -0.199085   0.031970   0.028937   0.011985  -0.005527
     9  C   -0.074406   0.202903  -0.120412  -0.021396  -0.022009  -0.030846
    10  C    0.151368  -0.123773   0.191169  -0.016154  -0.000647  -0.054899
    11  N    0.056731   0.056625  -0.068593  -0.069064   0.003431   0.004220
    12  C    0.418760  -0.001228  -0.014450   0.032036   0.001557   0.002693
    13  N    6.169461  -0.010986  -0.005921  -0.002165   0.004373   0.005457
    14  C   -0.010986   6.177588  -0.398950   0.139499   0.018514  -0.014603
    15  C   -0.005921  -0.398950   6.000588  -0.014071  -0.010223  -0.002655
    16  N   -0.002165   0.139499  -0.014071   5.859628   0.001845   0.000401
    17  H    0.004373   0.018514  -0.010223   0.001845   0.549919   0.007499
    18  H    0.005457  -0.014603  -0.002655   0.000401   0.007499   0.594441
    19  H    0.000220  -0.000939  -0.000028  -0.000002   0.002755   0.001510
    20  H   -0.004414  -0.002892   0.001440  -0.000006  -0.002430   0.007405
    21  H    0.002575   0.005039   0.000655  -0.000246  -0.000050  -0.007715
    22  H    0.017305  -0.018677   0.012458   0.002579  -0.002707  -0.002701
    23  H   -0.074450   0.002178   0.002052   0.001387  -0.000040  -0.000114
    24  H    0.387010  -0.000280   0.000896   0.001288  -0.000079  -0.001282
    25  H   -0.000277   0.370895  -0.022698  -0.009452   0.001634   0.001165
    26  H   -0.000982   0.511017  -0.087232   0.011602  -0.001745   0.000768
    27  H    0.000067  -0.072814   0.441624  -0.027365   0.000065   0.000334
    28  H    0.000226   0.012563   0.369631  -0.017460   0.000221  -0.000449
    29  H   -0.000423  -0.001729  -0.054255   0.392535  -0.000012   0.000050
    30  H    0.000627   0.022642  -0.062888   0.331155  -0.001169   0.002398
    31  H    0.007791   0.012376  -0.035637   0.348151   0.001014   0.000194
              19         20         21         22         23         24
     1  O   -0.000175  -0.000486   0.000512  -0.001483   0.000986  -0.003101
     2  C    0.002348   0.004654   0.019036   0.023637  -0.005737   0.006551
     3  N    0.003032  -0.012157   0.010934  -0.005861   0.000385  -0.001076
     4  C   -0.202889   0.088358  -0.036159   0.001372   0.000516  -0.006018
     5  C    0.149071  -0.044583  -0.021271  -0.002029  -0.000384   0.000855
     6  O    0.230838   0.000399   0.002003   0.000044   0.000080   0.000212
     7  O    0.026132   0.000588  -0.000271  -0.000571   0.000000  -0.000022
     8  C    0.035048   0.266321   0.382160  -0.045576   0.003897  -0.027460
     9  C   -0.007654   0.028846  -0.011575  -0.181386   0.075263  -0.031752
    10  C    0.000673  -0.030338  -0.017704   0.631006  -0.030960   0.049382
    11  N   -0.000003  -0.002867   0.001328  -0.111042  -0.073610  -0.005404
    12  C    0.000013  -0.009155  -0.001273  -0.006130   0.450541  -0.048202
    13  N    0.000220  -0.004414   0.002575   0.017305  -0.074450   0.387010
    14  C   -0.000939  -0.002892   0.005039  -0.018677   0.002178  -0.000280
    15  C   -0.000028   0.001440   0.000655   0.012458   0.002052   0.000896
    16  N   -0.000002  -0.000006  -0.000246   0.002579   0.001387   0.001288
    17  H    0.002755  -0.002430  -0.000050  -0.002707  -0.000040  -0.000079
    18  H    0.001510   0.007405  -0.007715  -0.002701  -0.000114  -0.001282
    19  H    0.507994  -0.001676  -0.001054  -0.000001  -0.000001   0.000052
    20  H   -0.001676   0.633769  -0.022169   0.002279  -0.000046   0.000776
    21  H   -0.001054  -0.022169   0.607058  -0.000905  -0.000356  -0.000661
    22  H   -0.000001   0.002279  -0.000905   0.593432  -0.001130   0.001874
    23  H   -0.000001  -0.000046  -0.000356  -0.001130   0.530957  -0.004054
    24  H    0.000052   0.000776  -0.000661   0.001874  -0.004054   0.525411
    25  H   -0.000035   0.000482  -0.000078  -0.009518   0.000291   0.000001
    26  H   -0.000066   0.000434  -0.000209   0.000014   0.000017   0.000012
    27  H    0.000005  -0.000059   0.000008  -0.000228  -0.000076  -0.000051
    28  H   -0.000001  -0.000051   0.000042   0.000758  -0.000247   0.000069
    29  H   -0.000001   0.000040  -0.000008  -0.000071  -0.000341   0.000082
    30  H   -0.000024   0.000664  -0.000382  -0.001251  -0.001763  -0.000648
    31  H    0.000014  -0.000670   0.000091  -0.004099  -0.003057  -0.000853
              25         26         27         28         29         30
     1  O   -0.004173   0.005297  -0.003772  -0.000781  -0.001843   0.082999
     2  C    0.035143  -0.104995   0.031634  -0.002786   0.011104  -0.030452
     3  N   -0.020432   0.013288  -0.004848   0.000679  -0.000498  -0.000267
     4  C   -0.000245   0.022792  -0.002481  -0.003665  -0.000200   0.028247
     5  C   -0.001886  -0.010846   0.000482   0.000286   0.000071  -0.007990
     6  O    0.000156   0.000148   0.000016  -0.000016   0.000000  -0.000062
     7  O    0.001265  -0.000668   0.000209  -0.000170  -0.000009  -0.000175
     8  C    0.021440  -0.014499   0.002351   0.001072   0.003273  -0.029717
     9  C   -0.009284   0.031582  -0.009400   0.003798   0.003304   0.060377
    10  C   -0.022741  -0.025580   0.008849  -0.003977  -0.005677  -0.024360
    11  N   -0.014802   0.004437  -0.002478   0.000301  -0.002099  -0.007489
    12  C    0.004294   0.001548  -0.000632  -0.002475  -0.000181  -0.001007
    13  N   -0.000277  -0.000982   0.000067   0.000226  -0.000423   0.000627
    14  C    0.370895   0.511017  -0.072814   0.012563  -0.001729   0.022642
    15  C   -0.022698  -0.087232   0.441624   0.369631  -0.054255  -0.062888
    16  N   -0.009452   0.011602  -0.027365  -0.017460   0.392535   0.331155
    17  H    0.001634  -0.001745   0.000065   0.000221  -0.000012  -0.001169
    18  H    0.001165   0.000768   0.000334  -0.000449   0.000050   0.002398
    19  H   -0.000035  -0.000066   0.000005  -0.000001  -0.000001  -0.000024
    20  H    0.000482   0.000434  -0.000059  -0.000051   0.000040   0.000664
    21  H   -0.000078  -0.000209   0.000008   0.000042  -0.000008  -0.000382
    22  H   -0.009518   0.000014  -0.000228   0.000758  -0.000071  -0.001251
    23  H    0.000291   0.000017  -0.000076  -0.000247  -0.000341  -0.001763
    24  H    0.000001   0.000012  -0.000051   0.000069   0.000082  -0.000648
    25  H    0.627553  -0.043142   0.010314  -0.011850   0.000324  -0.004154
    26  H   -0.043142   0.604679  -0.011938   0.002756  -0.000712   0.004411
    27  H    0.010314  -0.011938   0.591099  -0.039895   0.000928  -0.010875
    28  H   -0.011850   0.002756  -0.039895   0.588220  -0.000089   0.004900
    29  H    0.000324  -0.000712   0.000928  -0.000089   0.528825  -0.020878
    30  H   -0.004154   0.004411  -0.010875   0.004900  -0.020878   0.489044
    31  H   -0.001085   0.000780   0.003551  -0.005328  -0.034000  -0.019437
              31
     1  O    0.003258
     2  C    0.005466
     3  N    0.004706
     4  C   -0.000260
     5  C    0.001353
     6  O    0.000020
     7  O    0.000130
     8  C   -0.004673
     9  C   -0.013236
    10  C   -0.009057
    11  N    0.090064
    12  C   -0.008544
    13  N    0.007791
    14  C    0.012376
    15  C   -0.035637
    16  N    0.348151
    17  H    0.001014
    18  H    0.000194
    19  H    0.000014
    20  H   -0.000670
    21  H    0.000091
    22  H   -0.004099
    23  H   -0.003057
    24  H   -0.000853
    25  H   -0.001085
    26  H    0.000780
    27  H    0.003551
    28  H   -0.005328
    29  H   -0.034000
    30  H   -0.019437
    31  H    0.486202
 Mulliken charges:
               1
     1  O   -0.375811
     2  C   -0.166906
     3  N    0.177026
     4  C   -0.126565
     5  C    0.255320
     6  O   -0.162327
     7  O   -0.340876
     8  C   -0.398881
     9  C    0.466224
    10  C   -0.322101
    11  N   -0.249119
    12  C    0.046294
    13  N    0.055329
    14  C    0.188436
    15  C   -0.306793
    16  N    0.203209
    17  H    0.163859
    18  H    0.115941
    19  H    0.254845
    20  H    0.097545
    21  H    0.090645
    22  H    0.108608
    23  H    0.127817
    24  H    0.156472
    25  H    0.100894
    26  H    0.087032
    27  H    0.095378
    28  H    0.103718
    29  H    0.182490
    30  H    0.197525
    31  H    0.174774
 Sum of Mulliken charges =   1.00000
 Mulliken charges with hydrogens summed into heavy atoms:
               1
     1  O   -0.375811
     2  C   -0.166906
     3  N    0.340885
     4  C   -0.010624
     5  C    0.255320
     6  O    0.092518
     7  O   -0.340876
     8  C   -0.210691
     9  C    0.466224
    10  C   -0.213494
    11  N   -0.249119
    12  C    0.174110
    13  N    0.211801
    14  C    0.376363
    15  C   -0.107697
    16  N    0.757998
 Electronic spatial extent (au):  <R**2>=           3673.1668
 Charge=              1.0000 electrons
 Dipole moment (field-independent basis, Debye):
    X=              2.7179    Y=             -2.2618    Z=             -3.1933  Tot=              4.7644
 Quadrupole moment (field-independent basis, Debye-Ang):
   XX=            -49.8716   YY=            -74.8385   ZZ=            -84.5316
   XY=             -5.6038   XZ=            -20.0734   YZ=              7.9390
 Traceless Quadrupole moment (field-independent basis, Debye-Ang):
   XX=             19.8756   YY=             -5.0913   ZZ=            -14.7843
   XY=             -5.6038   XZ=            -20.0734   YZ=              7.9390
 Octapole moment (field-independent basis, Debye-Ang**2):
  XXX=             68.7462  YYY=            -82.0582  ZZZ=            -22.3818  XYY=              2.0325
  XXY=             13.6595  XXZ=            -28.6260  XZZ=             50.6298  YZZ=             -8.5519
  YYZ=            -28.6011  XYZ=             13.5300
 Hexadecapole moment (field-independent basis, Debye-Ang**3):
 XXXX=          -1481.0319 YYYY=          -1777.3586 ZZZZ=           -736.5559 XXXY=            153.7639
 XXXZ=            135.8636 YYYX=            374.4841 YYYZ=             72.4072 ZZZX=            249.4723
 ZZZY=             70.7041 XXYY=           -389.0300 XXZZ=           -366.6058 YYZZ=           -426.2043
 XXYZ=             96.8792 YYXZ=             29.4336 ZZXY=            104.4410
 N-N= 1.198232860339D+03 E-N=-4.240823910554D+03  KE= 7.933255205272D+02
 Calling FoFJK, ICntrl=      2127 FMM=F ISym2X=0 I1Cent= 0 IOpClX= 0 NMat=1 NMatS=1 NMatT=0.
 -------------------------------------------------------------------
 Center     Atomic                   Forces (Hartrees/Bohr)
 Number     Number              X              Y              Z
 -------------------------------------------------------------------
      1        8           0.003716578    0.008522878    0.005492523
      2        6          -0.003270879   -0.003124441   -0.001669707
      3        7           0.001012109   -0.001560614   -0.001701042
      4        6           0.000461528    0.000513397   -0.001078740
      5        6           0.004655369    0.006617692    0.002196189
      6        8           0.002385990    0.005722535    0.000880561
      7        8          -0.007230596   -0.011486860   -0.002455509
      8        6           0.000031696   -0.000097152    0.001429869
      9        6           0.003116514   -0.001473604   -0.001488737
     10        6          -0.002309073   -0.000062685    0.000137065
     11        7          -0.007998338   -0.000025153   -0.000595425
     12        6           0.001119675    0.001502385    0.001625227
     13        7           0.002332540    0.000266098    0.000829138
     14        6           0.000344074   -0.000009204   -0.000786139
     15        6           0.000652009   -0.000051230   -0.000121412
     16        7          -0.000858414   -0.001052227    0.000114665
     17        1           0.000102393   -0.002784474   -0.001324764
     18        1           0.000673891    0.001566345    0.002267330
     19        1           0.000163069   -0.003195737   -0.000826531
     20        1          -0.000719546   -0.001549697   -0.002027380
     21        1           0.002811344    0.000437745   -0.000454326
     22        1          -0.001847977   -0.001876530   -0.001261788
     23        1          -0.000052769    0.002456536    0.001147654
     24        1           0.002693531    0.000620376    0.000640448
     25        1          -0.000946386    0.000024830   -0.002735020
     26        1          -0.000910640   -0.002443447    0.001131620
     27        1           0.000341413   -0.000226760    0.002738251
     28        1          -0.002645714    0.000036685   -0.000764025
     29        1          -0.001922361    0.002266067    0.001676264
     30        1           0.003296318   -0.000827754    0.000710181
     31        1           0.000802651    0.001294003   -0.003726441
 -------------------------------------------------------------------
 Cartesian Forces:  Max     0.011486860 RMS     0.002720324

 GradGradGradGradGradGradGradGradGradGradGradGradGradGradGradGradGradGrad
 Berny optimization.
 FormGI is forming the generalized inverse of G from B-inverse, IUseBI=4.
 Internal  Forces:  Max     0.013753686 RMS     0.002337609
 Search for a local minimum.
 Step number   1 out of a maximum of  167
 All quantities printed in internal units (Hartrees-Bohrs-Radians)
 Mixed Optimization -- RFO/linear search
 Second derivative matrix not updated -- first step.
 ITU=  0
     Eigenvalues ---    0.00198   0.00246   0.00385   0.00497   0.00644
     Eigenvalues ---    0.00679   0.00953   0.01231   0.01809   0.02001
     Eigenvalues ---    0.02191   0.02440   0.02764   0.03329   0.03946
     Eigenvalues ---    0.04119   0.04255   0.04289   0.04341   0.04563
     Eigenvalues ---    0.04628   0.05051   0.05297   0.05469   0.05796
     Eigenvalues ---    0.06009   0.06276   0.06355   0.07139   0.07550
     Eigenvalues ---    0.07769   0.08214   0.10452   0.11099   0.11404
     Eigenvalues ---    0.11804   0.11890   0.12002   0.12241   0.14901
     Eigenvalues ---    0.15090   0.15347   0.15441   0.17075   0.19064
     Eigenvalues ---    0.19178   0.21257   0.21701   0.22363   0.23094
     Eigenvalues ---    0.23512   0.24232   0.24426   0.25050   0.26738
     Eigenvalues ---    0.28068   0.30815   0.32437   0.33103   0.33647
     Eigenvalues ---    0.33772   0.34203   0.34225   0.34554   0.34656
     Eigenvalues ---    0.34748   0.35021   0.35216   0.36835   0.37490
     Eigenvalues ---    0.37509   0.38005   0.40908   0.44079   0.44633
     Eigenvalues ---    0.45018   0.45853   0.47133   0.47466   0.48438
     Eigenvalues ---    0.50962   0.53561   0.56676   0.75455   0.82590
     Eigenvalues ---    0.89003   1.98085
 RFO step:  Lambda=-1.48913262D-03 EMin= 1.98211003D-03
 Linear search not attempted -- first point.
 Iteration  1 RMS(Cart)=  0.01964084 RMS(Int)=  0.00014410
 Iteration  2 RMS(Cart)=  0.00024564 RMS(Int)=  0.00002176
 Iteration  3 RMS(Cart)=  0.00000003 RMS(Int)=  0.00002176
 Variable       Old X    -DE/DX   Delta X   Delta X   Delta X     New X
                                 (Linear)    (Quad)   (Total)
    R1        2.34778  -0.01079   0.00000  -0.01466  -0.01466   2.33311
    R2        2.54397  -0.00454   0.00000  -0.00722  -0.00722   2.53674
    R3        2.89818  -0.00207   0.00000  -0.00856  -0.00856   2.88962
    R4        2.74394  -0.00003   0.00000  -0.00452  -0.00452   2.73943
    R5        1.91691  -0.00285   0.00000  -0.00682  -0.00682   1.91010
    R6        2.88144  -0.00202   0.00000  -0.00609  -0.00609   2.87534
    R7        2.98110  -0.00010   0.00000  -0.00692  -0.00692   2.97417
    R8        2.06333  -0.00278   0.00000  -0.00792  -0.00792   2.05541
    R9        2.52992  -0.00289   0.00000  -0.00369  -0.00369   2.52623
   R10        2.28788  -0.01375   0.00000  -0.01554  -0.01554   2.27234
   R11        1.84052  -0.00304   0.00000  -0.00711  -0.00711   1.83341
   R12        2.81954  -0.00300   0.00000  -0.00800  -0.00800   2.81154
   R13        2.06845  -0.00265   0.00000  -0.00748  -0.00748   2.06097
   R14        2.06776  -0.00286   0.00000  -0.00797  -0.00797   2.05980
   R15        2.60104  -0.00632   0.00000  -0.01079  -0.01077   2.59027
   R16        2.61129  -0.00334   0.00000  -0.00753  -0.00751   2.60378
   R17        2.60746  -0.00324   0.00000  -0.00619  -0.00619   2.60127
   R18        2.04307  -0.00292   0.00000  -0.00750  -0.00750   2.03557
   R19        2.50331  -0.00636   0.00000  -0.01170  -0.01172   2.49159
   R20        2.56742  -0.00490   0.00000  -0.00589  -0.00590   2.56152
   R21        2.04281  -0.00271   0.00000  -0.00698  -0.00698   2.03583
   R22        1.90964  -0.00283   0.00000  -0.00594  -0.00594   1.90370
   R23        2.89773  -0.00146   0.00000  -0.00851  -0.00851   2.88923
   R24        2.06851  -0.00289   0.00000  -0.00769  -0.00769   2.06082
   R25        2.07118  -0.00281   0.00000  -0.00788  -0.00788   2.06329
   R26        2.85254  -0.00219   0.00000  -0.00426  -0.00426   2.84828
   R27        2.06291  -0.00276   0.00000  -0.00787  -0.00787   2.05503
   R28        2.06118  -0.00275   0.00000  -0.00762  -0.00762   2.05356
   R29        1.93019  -0.00341   0.00000  -0.00708  -0.00708   1.92312
   R30        1.97924  -0.00338   0.00000  -0.01340  -0.01340   1.96584
   R31        1.97899  -0.00398   0.00000  -0.01520  -0.01520   1.96379
    A1        2.14333   0.00021   0.00000   0.00272   0.00272   2.14605
    A2        2.11818   0.00047   0.00000  -0.00395  -0.00396   2.11422
    A3        2.02018  -0.00060   0.00000   0.00157   0.00156   2.02174
    A4        2.14566   0.00436   0.00000   0.00239   0.00232   2.14798
    A5        2.11832  -0.00317   0.00000  -0.01124  -0.01129   2.10703
    A6        2.01722  -0.00110   0.00000   0.00761   0.00754   2.02475
    A7        1.87595  -0.00119   0.00000   0.00735   0.00735   1.88330
    A8        1.94731   0.00468   0.00000   0.00174   0.00173   1.94904
    A9        1.90055  -0.00094   0.00000  -0.00034  -0.00033   1.90022
   A10        1.90400  -0.00297   0.00000  -0.00139  -0.00141   1.90259
   A11        1.92275   0.00050   0.00000  -0.00680  -0.00680   1.91595
   A12        1.91304  -0.00009   0.00000  -0.00060  -0.00061   1.91243
   A13        1.94510   0.00120   0.00000  -0.00002  -0.00003   1.94507
   A14        2.15270   0.00058   0.00000   0.00355   0.00354   2.15624
   A15        2.18436  -0.00177   0.00000  -0.00324  -0.00324   2.18112
   A16        1.88593   0.00237   0.00000   0.01467   0.01467   1.90060
   A17        1.95583   0.00709   0.00000   0.00385   0.00385   1.95968
   A18        1.88910  -0.00173   0.00000   0.00117   0.00117   1.89026
   A19        1.88769  -0.00211   0.00000  -0.00027  -0.00027   1.88742
   A20        1.90038  -0.00160   0.00000  -0.00006  -0.00007   1.90031
   A21        1.95918  -0.00284   0.00000  -0.00447  -0.00447   1.95471
   A22        1.86846   0.00094   0.00000  -0.00021  -0.00021   1.86825
   A23        2.27488   0.00091   0.00000  -0.00011  -0.00022   2.27467
   A24        2.16895  -0.00072   0.00000   0.00277   0.00267   2.17163
   A25        1.82113  -0.00003   0.00000   0.00160   0.00156   1.82269
   A26        1.93829  -0.00089   0.00000  -0.00275  -0.00272   1.93557
   A27        2.22530   0.00030   0.00000   0.00049   0.00048   2.22578
   A28        2.11958   0.00059   0.00000   0.00225   0.00224   2.12182
   A29        1.83414   0.00138   0.00000   0.00347   0.00346   1.83760
   A30        1.94260  -0.00091   0.00000  -0.00213  -0.00214   1.94046
   A31        2.19821   0.00049   0.00000   0.00189   0.00189   2.20010
   A32        2.14215   0.00042   0.00000   0.00028   0.00028   2.14243
   A33        1.88799   0.00045   0.00000  -0.00027  -0.00025   1.88774
   A34        2.20123   0.00001   0.00000   0.00134   0.00133   2.20255
   A35        2.19396  -0.00046   0.00000  -0.00107  -0.00108   2.19288
   A36        1.97763   0.00388   0.00000   0.00241   0.00240   1.98003
   A37        1.89304  -0.00119   0.00000   0.00207   0.00207   1.89511
   A38        1.92164  -0.00158   0.00000  -0.00478  -0.00478   1.91686
   A39        1.92524  -0.00050   0.00000   0.00109   0.00108   1.92632
   A40        1.88433  -0.00128   0.00000   0.00040   0.00041   1.88473
   A41        1.85838   0.00047   0.00000  -0.00149  -0.00149   1.85688
   A42        1.94394   0.00276   0.00000   0.00559   0.00559   1.94953
   A43        1.93912  -0.00073   0.00000   0.00018   0.00018   1.93930
   A44        1.93609  -0.00091   0.00000  -0.00182  -0.00181   1.93427
   A45        1.84477  -0.00064   0.00000  -0.00040  -0.00040   1.84436
   A46        1.89893  -0.00087   0.00000  -0.00186  -0.00186   1.89707
   A47        1.89808   0.00036   0.00000  -0.00180  -0.00181   1.89627
   A48        1.95258  -0.00005   0.00000  -0.00141  -0.00142   1.95116
   A49        1.80752   0.00103   0.00000   0.01044   0.01044   1.81796
   A50        2.02329  -0.00062   0.00000  -0.00262  -0.00264   2.02065
   A51        1.95243  -0.00053   0.00000  -0.00778  -0.00777   1.94466
   A52        1.90596   0.00012   0.00000  -0.00468  -0.00470   1.90126
   A53        1.81583   0.00008   0.00000   0.00691   0.00689   1.82272
    D1        0.22694  -0.00079   0.00000  -0.00325  -0.00331   0.22362
    D2       -2.98540   0.00073   0.00000  -0.02500  -0.02493  -3.01033
    D3       -2.85657  -0.00233   0.00000  -0.00961  -0.00969  -2.86626
    D4        0.21428  -0.00081   0.00000  -0.03136  -0.03130   0.18298
    D5       -0.07535   0.00009   0.00000  -0.02379  -0.02378  -0.09913
    D6       -2.21930  -0.00103   0.00000  -0.02832  -0.02832  -2.24761
    D7        2.03681  -0.00003   0.00000  -0.02507  -0.02507   2.01174
    D8        3.00907   0.00160   0.00000  -0.01729  -0.01730   2.99177
    D9        0.86512   0.00048   0.00000  -0.02182  -0.02183   0.84329
   D10       -1.16196   0.00147   0.00000  -0.01858  -0.01859  -1.18055
   D11       -2.69054   0.00120   0.00000   0.01010   0.01006  -2.68048
   D12        1.50598   0.00285   0.00000   0.00612   0.00607   1.51205
   D13       -0.60786   0.00060   0.00000   0.00599   0.00595  -0.60191
   D14        0.51801  -0.00015   0.00000   0.03138   0.03143   0.54944
   D15       -1.56866   0.00150   0.00000   0.02741   0.02745  -1.54121
   D16        2.60069  -0.00075   0.00000   0.02728   0.02732   2.62801
   D17        2.90609  -0.00181   0.00000  -0.02084  -0.02085   2.88524
   D18       -0.28193  -0.00152   0.00000  -0.01438  -0.01439  -0.29631
   D19       -1.26302   0.00141   0.00000  -0.01518  -0.01519  -1.27820
   D20        1.83215   0.00169   0.00000  -0.00872  -0.00872   1.82343
   D21        0.83766  -0.00026   0.00000  -0.02097  -0.02096   0.81670
   D22       -2.35035   0.00003   0.00000  -0.01451  -0.01450  -2.36485
   D23       -0.88721  -0.00164   0.00000  -0.00008  -0.00008  -0.88728
   D24        1.20860  -0.00039   0.00000   0.00299   0.00299   1.21159
   D25       -3.05592  -0.00129   0.00000   0.00321   0.00321  -3.05271
   D26       -2.95720  -0.00112   0.00000  -0.00934  -0.00934  -2.96653
   D27       -0.86139   0.00012   0.00000  -0.00627  -0.00627  -0.86766
   D28        1.15727  -0.00078   0.00000  -0.00605  -0.00605   1.15122
   D29        1.21935   0.00016   0.00000   0.00022   0.00022   1.21958
   D30       -2.96802   0.00140   0.00000   0.00329   0.00329  -2.96473
   D31       -0.94937   0.00050   0.00000   0.00351   0.00351  -0.94585
   D32        3.09429   0.00023   0.00000   0.00338   0.00337   3.09766
   D33        0.00014  -0.00014   0.00000  -0.00344  -0.00343  -0.00329
   D34        1.41018   0.00085   0.00000   0.01201   0.01201   1.42219
   D35       -1.49440  -0.00015   0.00000  -0.01564  -0.01564  -1.51004
   D36       -0.67904  -0.00037   0.00000   0.00818   0.00819  -0.67085
   D37        2.69957  -0.00137   0.00000  -0.01947  -0.01947   2.68010
   D38       -2.74466   0.00123   0.00000   0.01121   0.01121  -2.73345
   D39        0.63395   0.00023   0.00000  -0.01644  -0.01645   0.61750
   D40       -2.90728  -0.00102   0.00000  -0.02172  -0.02170  -2.92898
   D41        0.23891  -0.00049   0.00000  -0.02046  -0.02045   0.21845
   D42        0.03267  -0.00027   0.00000   0.00198   0.00198   0.03465
   D43       -3.10432   0.00026   0.00000   0.00324   0.00323  -3.10109
   D44        2.93592   0.00113   0.00000   0.02068   0.02070   2.95662
   D45       -0.21062   0.00074   0.00000   0.02127   0.02129  -0.18933
   D46       -0.01989   0.00020   0.00000  -0.00074  -0.00075  -0.02063
   D47        3.11677  -0.00018   0.00000  -0.00015  -0.00016   3.11660
   D48       -0.03279   0.00017   0.00000  -0.00257  -0.00257  -0.03536
   D49        3.10453  -0.00033   0.00000  -0.00374  -0.00374   3.10079
   D50        0.01947  -0.00003   0.00000   0.00208   0.00208   0.02155
   D51       -3.09982   0.00006   0.00000   0.00043   0.00044  -3.09938
   D52        0.00028  -0.00012   0.00000  -0.00088  -0.00088  -0.00060
   D53       -3.13640   0.00026   0.00000  -0.00148  -0.00147  -3.13787
   D54        3.12041  -0.00021   0.00000   0.00073   0.00073   3.12114
   D55       -0.01627   0.00018   0.00000   0.00013   0.00013  -0.01613
   D56       -0.72417  -0.00059   0.00000   0.00011   0.00010  -0.72407
   D57        1.32747  -0.00009   0.00000   0.00330   0.00330   1.33077
   D58       -2.84213  -0.00075   0.00000  -0.00010  -0.00010  -2.84223
   D59        1.40187   0.00023   0.00000   0.00529   0.00529   1.40715
   D60       -2.82968   0.00073   0.00000   0.00848   0.00848  -2.82119
   D61       -0.71609   0.00007   0.00000   0.00508   0.00508  -0.71101
   D62       -2.85724  -0.00021   0.00000   0.00432   0.00432  -2.85292
   D63       -0.80560   0.00029   0.00000   0.00752   0.00752  -0.79808
   D64        1.30799  -0.00037   0.00000   0.00411   0.00411   1.31210
   D65        3.11079   0.00018   0.00000   0.00529   0.00529   3.11608
   D66        1.00516   0.00021   0.00000   0.00895   0.00896   1.01413
   D67       -0.97143  -0.00023   0.00000  -0.00476  -0.00476  -0.97619
   D68        1.00288  -0.00009   0.00000   0.00219   0.00218   1.00505
   D69       -1.10275  -0.00005   0.00000   0.00585   0.00585  -1.09690
   D70       -3.07935  -0.00050   0.00000  -0.00787  -0.00787  -3.08721
   D71       -1.03292   0.00024   0.00000   0.00539   0.00539  -1.02753
   D72       -3.13855   0.00028   0.00000   0.00906   0.00906  -3.12949
   D73        1.16805  -0.00016   0.00000  -0.00466  -0.00466   1.16339
         Item               Value     Threshold  Converged?
 Maximum Force            0.013754     0.000450     NO 
 RMS     Force            0.002338     0.000300     NO 
 Maximum Displacement     0.067087     0.001800     NO 
 RMS     Displacement     0.019639     0.001200     NO 
 Predicted change in Energy=-7.566811D-04
 GradGradGradGradGradGradGradGradGradGradGradGradGradGradGradGradGradGrad

                          Input orientation:                          
 ---------------------------------------------------------------------
 Center     Atomic      Atomic             Coordinates (Angstroms)
 Number     Number       Type             X           Y           Z
 ---------------------------------------------------------------------
      1          8           0       -0.023926   -0.208670   -1.695324
      2          6           0        0.418792    0.724886   -1.019466
      3          7           0       -0.356084    1.489726   -0.234234
      4          6           0       -1.720417    1.141732    0.110670
      5          6           0       -2.471381    2.431363    0.407436
      6          8           0       -3.793495    2.234285    0.424096
      7          8           0       -1.927702    3.478493    0.639525
      8          6           0       -1.780051    0.210484    1.378055
      9          6           0       -0.873681   -0.963322    1.258741
     10          6           0        0.474222   -1.069786    1.483839
     11          7           0        0.960588   -2.262246    0.997700
     12          6           0       -0.091191   -2.897672    0.519775
     13          7           0       -1.216174   -2.153765    0.655379
     14          6           0        1.916332    1.031464   -0.979553
     15          6           0        2.767751    0.004022   -1.725891
     16          7           0        2.292816   -1.403636   -1.471493
     17          1           0        0.018712    2.313283    0.216273
     18          1           0       -2.179026    0.635225   -0.735594
     19          1           0       -4.232567    3.068027    0.655139
     20          1           0       -1.484678    0.797385    2.248543
     21          1           0       -2.817049   -0.088337    1.531145
     22          1           0        1.116247   -0.356116    1.972504
     23          1           0       -0.094038   -3.885707    0.090377
     24          1           0       -2.140978   -2.430062    0.366864
     25          1           0        2.229610    1.098739    0.062850
     26          1           0        2.105649    2.011510   -1.422047
     27          1           0        2.700423    0.146873   -2.801840
     28          1           0        3.810746    0.078525   -1.430060
     29          1           0        2.843615   -2.087080   -1.986448
     30          1           0        1.301637   -1.398797   -1.787273
     31          1           0        2.245494   -1.691241   -0.474014
 ---------------------------------------------------------------------
                    Distance matrix (angstroms):
                    1          2          3          4          5
     1  O    0.000000
     2  C    1.234629   0.000000
     3  N    2.264875   1.342386   0.000000
     4  C    2.821929   2.455032   1.449642   0.000000
     5  C    4.169103   3.647083   2.402687   1.521567   0.000000
     6  O    4.966852   4.701650   3.578206   2.364225   1.336825
     7  O    4.761413   3.980029   2.681162   2.404808   1.202469
     8  C    3.564453   3.293573   2.502722   1.573863   2.520386
     9  C    3.165136   3.116209   2.917932   2.542889   3.847240
    10  C    3.331178   3.080658   3.192535   3.404827   4.700348
    11  N    3.526871   3.644923   4.162761   4.422859   5.844382
    12  C    3.484526   3.968913   4.459592   4.374761   5.837512
    13  N    3.275768   3.710101   3.847882   3.378058   4.760297
    14  C    2.411402   1.529120   2.435031   3.798248   4.809936
    15  C    2.799934   2.556617   3.767055   4.981063   6.155614
    16  N    2.616360   2.871742   4.113275   5.008811   6.398061
    17  H    3.164848   2.051857   1.010779   2.099583   2.500210
    18  H    2.505533   2.614819   2.074764   1.087674   2.148977
    19  H    5.828729   5.470809   4.278918   3.212157   1.889040
    20  H    4.324353   3.782636   2.813760   2.178222   2.652008
    21  H    4.269206   4.199716   3.415142   2.175643   2.780485
    22  H    3.843786   3.256822   3.231808   3.708994   4.805263
[...]
 0.00038862,-0.00006673,-0.00000786,0.00057588,0.00049431,-0.00028078,-
 0.00004641,-0.00024511,-0.00001017,0.00017052,0.00000708,-0.00003401,0
 .00002112,0.00028524,0.00007663,-0.07368491,-0.01553880,-0.28584079,-0
 .00188282,-0.00050810,-0.01464061,-0.00008105,-0.00030519,0.00071292,-
 0.00025168,0.00055584,-0.00008010,0.00015612,0.00002814,-0.00000761,-0
 .00001073,0.00000476,-0.00000652,0.00000805,0.00000692,-0.00003363,0.0
 0002056,0.00001286,-0.00004112,0.00019693,0.00027144,-0.00000110,-0.00
 000060,0.00000509,-0.00000471,-0.00001705,-0.00001024,0.00000728,0.076
 93997,0.01860543,0.31133604,-0.00444304,0.00107410,-0.00321747,-0.0017
 2958,-0.03182225,0.01500797,-0.00032276,0.00229131,-0.00122172,-0.0003
 5556,0.00042363,-0.00029789,-0.00017516,-0.00032923,-0.00009052,-0.000
 05896,0.00011707,0.00004681,0.00002873,0.00015895,-0.00003076,0.000049
 25,0.00021423,-0.00015663,0.00015443,0.00000095,0.00001119,-0.00015096
 ,0.00002888,0.00003732,0.00017671,0.00008475,-0.00011376,-0.00010828,-
 0.00005371,-0.00008312,0.00011904,0.00001256,0.00001236,-0.05425447,-0
 .04205896,0.02258582,0.00391985,0.01522107,-0.00800301,-0.00206558,0.0
 0358177,0.00218882,-0.00033193,-0.00015864,0.00073489,0.00001749,0.000
 03900,0.00001974,-0.00002625,-0.00000613,0.00002092,0.00000247,-0.0000
 1435,0.00002378,-0.00000345,-0.00000296,0.00001118,-0.00000605,0.00002
 221,0.00002531,-0.00000442,-0.00000274,0.00000849,-0.00000123,-0.00000
 014,-0.00000121,0.00176400,0.00930497,-0.00412734,0.05747456,-0.000844
 68,0.00082279,0.00024883,-0.00376851,-0.00556380,0.00096027,0.00132765
 ,-0.00003540,-0.00057790,-0.00077750,0.00020139,-0.00024643,-0.0000883
 3,0.00013494,0.00003208,0.00005295,-0.00004275,-0.00001675,0.00003132,
 -0.00009569,-0.00001764,0.00028487,0.00001668,-0.00001374,0.00003341,-
 0.00003591,0.00004787,-0.00001812,-0.00006947,-0.00004047,-0.00009744,
 -0.00000171,0.00009193,0.00005979,0.00003813,0.00005354,-0.00004110,0.
 00000356,-0.00004194,-0.03720688,-0.25468926,0.09866022,-0.00385958,-0
 .01996448,0.00874822,0.00318078,-0.00210210,-0.00250450,0.00012877,0.0
 0005200,0.00041381,0.00001385,0.00002051,0.00001506,-0.00000154,0.0000
 0683,0.00000294,-0.00000977,0.00000058,0.00000615,0.00000227,0.0000562
 1,-0.00007356,0.00001590,0.00001121,0.00002508,0.00000365,0.00000554,-
 0.00000359,0.00000181,-0.00000576,-0.00000115,0.00068326,0.00260173,-0
 .00036361,0.04147433,0.27768759,-0.00143242,-0.00005626,-0.00135872,-0
 .00077977,-0.00331275,0.00061130,0.00086802,-0.00019124,0.00054733,0.0
 0008726,-0.00003223,-0.00035419,0.00010794,0.00025545,0.00011139,-0.00
 006187,-0.00006696,-0.00002373,-0.00010749,-0.00015548,-0.00005262,0.0
 0012629,-0.00011281,0.00009171,-0.00036247,0.00005628,-0.00011063,0.00
 025680,0.00007898,-0.00034492,-0.00007889,-0.00019272,0.00002987,0.000
 23983,0.00004252,0.00009486,0.00003678,0.00021516,0.00014602,0.0200923
 1,0.10084359,-0.08990403,-0.00363693,-0.01506988,0.00611750,0.00228800
 ,-0.00458182,-0.00139833,0.00061632,0.00016108,-0.00030874,-0.00003733
 ,-0.00003203,0.00002249,0.00001270,0.00000305,0.00000185,0.00000864,0.
 00000854,-0.00002113,0.00001114,0.00000246,-0.00003434,0.00002933,0.00
 003390,0.00026136,0.00001523,0.00001010,-0.00000800,-0.00002386,0.0000
 1011,0.00000312,0.00540701,0.02839393,-0.01285073,-0.02305772,-0.10561
 586,0.09771139,-0.00019534,-0.00038597,-0.00104063,0.00072226,0.000493
 99,0.00150165,-0.00007621,-0.00020146,-0.00040541,-0.00015515,0.000027
 57,-0.00009635,-0.00005714,0.00004267,0.00000237,0.00003754,-0.0000134
 5,-0.00001079,0.00002743,-0.00002753,-0.00001700,0.00006685,-0.0000292
 7,0.00001060,-0.00001563,0.00001963,0.00000653,0.00002466,-0.00013954,
 -0.00002685,-0.00027899,-0.00004661,0.00031427,0.00016208,0.00003503,0
 .00010262,-0.00011167,0.00004651,-0.00007809,0.00197591,-0.00148266,0.
 01949232,-0.05480440,0.00385947,-0.02460366,-0.00024145,-0.00617497,0.
 01482927,0.00014167,-0.00008690,0.00006780,-0.00004173,-0.00000182,0.0
 0002408,-0.00000777,0.00000448,0.00000724,-0.00000285,0.00000494,-0.00
 000431,-0.00000294,0.00002136,-0.00001921,-0.00000376,0.00002567,-0.00
 001523,-0.00000183,-0.00000790,0.00000613,-0.00000482,-0.00000494,0.00
 001406,-0.00170475,0.00226422,0.00151316,0.00129055,-0.00072654,-0.000
 65397,0.05239960,0.00033810,0.00105353,0.00017425,-0.00140176,-0.00071
 191,-0.00066663,0.00058008,-0.00004818,0.00012807,-0.00014030,-0.00005
 570,0.00014050,-0.00005913,0.00001278,-0.00003512,0.00008022,-0.000017
 45,-0.00000571,0.00006510,0.00001208,0.00001940,0.00004651,-0.00008400
 ,-0.00000893,-0.00020256,0.00001714,-0.00006057,0.00006063,-0.00041650
 ,-0.00021329,-0.00078959,-0.00032284,0.00092551,0.00054342,0.00022269,
 0.00032171,-0.00031166,0.00023419,-0.00004056,-0.00152947,0.00102414,-
 0.02369263,0.00107324,-0.05103123,0.02565974,-0.00210962,-0.01695482,0
 .04027452,-0.00016718,0.00020545,-0.00005079,0.00005386,0.00001003,-0.
 00001111,-0.00000326,0.00000168,-0.00000165,-0.00001169,0.00001798,0.0
 0000461,-0.00000178,0.00002762,-0.00001512,0.00001153,0.00000061,0.000
 12702,-0.00000341,-0.00000588,0.00001650,0.00000404,0.00003355,-0.0000
 0030,0.00359614,-0.00233554,-0.00209348,-0.00027324,0.00099319,-0.0002
 8597,-0.00093106,0.06961276,0.00006175,0.00058454,0.00099772,-0.000809
 38,-0.00094105,-0.00081857,0.00013404,0.00019745,0.00018370,0.00000090
 ,-0.00003967,0.00006337,-0.00001324,-0.00000157,-0.00000356,0.00001845
 ,-0.00000271,0.00000069,0.00001138,0.00000572,0.00000835,-0.00001777,0
 .00000794,-0.00000662,-0.00000217,0.00000508,-0.00002352,-0.00004189,-
 0.00002928,-0.00002420,0.00000931,-0.00003942,0.00001676,0.00000965,0.
 00001222,0.00002115,0.00002169,0.00002542,0.00001754,-0.00082988,-0.00
 124999,-0.01384137,-0.01934951,0.03554196,-0.31625440,0.00029269,0.002
 74839,-0.00303379,-0.00009589,0.00012833,-0.00004597,0.00002408,0.0000
 1405,0.00000084,-0.00000183,0.00000023,-0.00000140,-0.00000280,0.00000
 044,0.00000442,0.00000148,-0.00000178,0.00000444,-0.00000293,-0.000006
 19,0.00004546,0.00000369,0.00000300,-0.00000299,-0.00000294,0.00000212
 ,-0.00000597,0.00181769,-0.00178232,0.00034244,-0.00007063,-0.00001643
 ,0.00089152,0.01971964,-0.03655769,0.33679151,0.00043553,0.00005819,-0
 .00000226,0.00057941,0.00255680,0.00112068,-0.00099282,-0.00036144,0.0
 0014569,0.00014551,0.00015626,0.00011052,0.00003369,-0.00013463,0.0000
 0657,-0.00006689,0.00004539,0.00001078,-0.00002567,0.00005322,0.000016
 49,-0.00008261,0.00002373,-0.00001774,0.00000378,0.00003255,-0.0000025
 5,-0.00006511,-0.00001026,-0.00002052,0.00004195,-0.00001236,0.0000341
 8,-0.00001420,-0.00001517,0.00000940,0.00007295,-0.00000105,0.00003419
 ,-0.01492033,0.00012160,-0.00396672,-0.30043134,-0.01742091,-0.0743141
 8,-0.00677421,-0.00301804,-0.00152313,-0.00002187,-0.00004583,-0.00010
 030,0.00000519,0.,0.00000023,0.00000180,-0.00000490,-0.00000472,0.0000
 0153,-0.00000261,0.00000304,0.00000406,-0.00002022,0.00002396,-0.00002
 344,0.00001094,0.00002134,0.00000454,0.00001048,-0.00000821,0.00000412
 ,0.00000847,-0.00000436,0.00100971,-0.00063342,0.00016212,-0.00008987,
 0.00028356,-0.00001126,0.00000963,0.00075205,-0.00076369,0.32052074,-0
 .00018924,0.00159198,0.00042903,-0.00038008,-0.00471568,-0.00266471,0.
 00188648,0.00085659,-0.00012772,-0.00022211,-0.00038407,-0.00014585,-0
 .00003679,0.00021212,-0.00002464,0.00013891,-0.00008389,-0.00002086,0.
 00005883,-0.00006628,-0.00002006,0.00010077,-0.00001872,-0.00000387,0.
 00003324,0.00000793,0.00001179,-0.00000652,-0.00005960,-0.00005625,-0.
 00021119,-0.00013286,0.00020887,0.00017332,0.00006858,0.00018853,-0.00
 005335,-0.00001356,-0.00005713,0.02206537,0.00358611,0.00570943,-0.007
 68719,-0.05104214,-0.00084059,-0.03871003,-0.01028605,-0.00987807,-0.0
 0001387,0.00010935,0.00013448,0.00000398,0.00000637,-0.00000161,-0.000
 00017,0.00000625,0.00000865,-0.00000971,0.00001150,0.00000036,-0.00000
 498,0.00003965,-0.00003509,0.00000994,0.00000927,0.00003520,0.00000552
 ,0.00003830,-0.00003164,0.00001062,-0.00000849,-0.00000253,-0.00043316
 ,0.00094768,0.00006451,-0.00050933,0.00023274,0.00048949,0.00473788,0.
 00138931,0.00042301,0.01890738,0.06196327,-0.00048332,0.00058262,0.000
 86054,0.00055638,-0.00430794,-0.00182245,0.00125367,0.00054124,-0.0002
 3132,-0.00007294,-0.00016295,-0.00021072,0.00000380,0.00011264,-0.0000
 1256,0.00004976,-0.00004167,-0.00000709,0.00001252,-0.00003461,-0.0000
 1302,0.00009214,-0.00002814,0.00002349,0.00002584,-0.00004205,0.000017
 64,0.00004739,0.00000850,0.00002896,-0.00007313,-0.00001115,-0.0000251
 3,0.00000296,0.00003798,-0.00000836,-0.00010312,-0.00000923,-0.0000433
 1,0.01884062,0.00037114,0.00386065,-0.07856946,-0.00447883,-0.07464472
 ,0.00998097,0.00262579,0.00269842,0.00002798,0.00003589,0.00008316,0.0
 0000127,0.00000865,0.00000571,0.00000513,0.00000023,0.00000503,0.00000
 084,0.00000161,-0.00000311,-0.00000587,0.00002482,-0.00002694,0.000036
 54,-0.00000815,-0.00003464,-0.00000814,-0.00001116,0.00000905,0.000002
 46,-0.00000187,-0.00000125,0.00021897,0.00077050,0.00085504,-0.0004480
 3,0.00013421,0.00028518,-0.03070290,-0.00250499,-0.00685022,0.07877310
 ,0.00557468,0.07482133,-0.00249125,0.00341422,-0.00014355,-0.00158796,
 -0.00172053,-0.00149399,0.00003704,0.00032155,0.00051333,0.00011208,-0
 .00001627,-0.00001873,-0.00003514,0.00007527,0.00005514,0.00003584,-0.
 00002233,-0.00000759,0.00000475,-0.00004347,-0.00002557,-0.00004800,0.
 00002458,0.00002113,-0.00008718,-0.00010544,-0.00010765,0.00017040,-0.
 00005886,-0.00004168,0.00006054,0.00003172,-0.00005510,-0.00002947,0.0
 0005602,-0.00002796,0.00000814,0.00010330,0.00000752,-0.00109068,-0.00
 335557,0.00122252,0.01005576,-0.00871460,-0.00974641,-0.16485993,0.129
 96034,0.10049613,-0.00003820,0.00003071,0.00008839,0.00002726,0.000003
 70,-0.00001740,-0.00001141,0.00000826,0.00000154,0.00000188,-0.0000146
 2,0.00000138,0.00000669,-0.00001511,0.00000827,0.00000182,-0.00002000,
 0.00002717,-0.00005372,-0.00011195,0.00010164,-0.00004054,0.00000082,0
 .00003955,0.00002735,0.00011641,-0.00003685,0.00057587,-0.00076280,-0.
 00046022,0.00042639,0.00052731,-0.00001394,0.00006727,-0.00040814,-0.0
 0063632,0.16793110,-0.00054747,0.00157612,0.00026515,-0.00070422,-0.00
 061297,-0.00050761,-0.00018832,0.00026336,0.00031903,0.00010350,0.0000
 7732,-0.00001861,0.00011334,-0.00009601,-0.00001794,-0.00009308,0.0000
 3356,0.00001198,-0.00005255,0.00005508,0.00001780,-0.00001609,-0.00001
 705,-0.00000358,0.00011670,-0.00008339,-0.00004086,0.00011327,-0.00027
 507,-0.00000394,-0.00056919,-0.00077677,0.00065403,0.00018386,0.000298
 81,0.00021346,-0.00031496,0.00000471,-0.00015304,-0.00322281,-0.004253
 27,0.00299384,0.01746895,-0.01992005,-0.01608367,0.13110039,-0.2128474
 7,-0.12072293,-0.00006458,-0.00004394,0.00004324,0.00001862,-0.0000061
 1,-0.00000819,0.00001602,-0.00000749,-0.00000327,0.00000620,0.00000051
 ,-0.00000122,-0.00000855,-0.00000516,0.00000744,0.00000739,-0.00000602
 ,-0.00005523,-0.00011124,-0.00003501,0.00009285,0.00002682,0.00006166,
 -0.00001019,-0.00016140,-0.00000107,0.00001149,0.00097685,-0.00081057,
 -0.00100063,0.00071995,0.00116339,0.00066943,-0.00034966,0.00128139,-0
 .00070878,-0.13878981,0.22483360,-0.00192880,0.00178546,-0.00004725,0.
 00007985,-0.00059443,-0.00075582,-0.00028103,0.00015661,0.00035657,0.0
 0013137,0.00007637,0.00000901,0.00015472,-0.00009844,-0.00001334,-0.00
 012078,0.00003700,0.00000441,-0.00007381,0.00005554,0.00001122,-0.0000
 4182,-0.00000794,-0.00003570,-0.00013868,0.00014526,0.00006578,-0.0002
 1790,0.00013390,-0.00000462,0.00046680,0.00090979,-0.00052683,0.000005
 05,0.00002090,-0.00019318,0.00015547,-0.00004706,0.00009246,0.00039556
 ,0.00129163,-0.00012713,-0.00577892,0.00407661,0.00454390,0.10050099,-
 0.12010641,-0.15344527,0.00003494,-0.00004410,-0.00000356,0.00001223,-
 0.00000982,-0.00000332,0.00001813,-0.00000984,0.00000389,0.00000603,-0
 .00000279,-0.00000462,-0.00000878,-0.00001309,0.00001907,0.00001453,-0
 .00001481,0.00001747,0.00006870,0.00003916,-0.00002945,-0.00000386,0.0
 0000068,0.00004259,-0.00001686,0.00020022,0.00006999,-0.00010460,0.000
 33136,0.00029626,-0.00038819,0.00077681,0.00010061,-0.00008502,-0.0003
 0547,0.00002604,-0.11038182,0.12805079,0.15419479,-0.00959620,-0.01928
 583,-0.00777075,0.01187207,0.01689394,0.01442175,0.00066749,-0.0066512
 7,-0.00677088,-0.00201258,-0.00024036,0.00036570,-0.00109342,0.0007993
 7,-0.00002305,0.00079131,-0.00028178,-0.00011184,0.00059129,-0.0005396
 1,-0.00013241,0.00058230,-0.00027984,0.00021288,-0.00045298,0.00008274
 ,0.00018458,0.00060949,-0.00117029,-0.00044284,-0.00243793,-0.00057823
 ,0.00214162,0.00188516,0.00005670,0.00087251,-0.00173546,0.00074055,-0
 .00064945,-0.00051730,-0.00102803,-0.00152639,-0.01273893,-0.01484599,
 -0.00217573,-0.30047423,-0.00603464,-0.08184351,0.00083576,0.00041677,
 -0.00053446,-0.00021940,0.00013124,0.00015726,-0.00011176,0.00006590,0
 .00003571,-0.00005747,0.00004057,0.00000307,0.00000231,0.00026396,-0.0
 0018749,0.00011917,-0.00001341,0.00003376,0.00004511,-0.00014310,0.000
 11111,-0.00014895,-0.00011065,0.00021292,-0.00075134,0.00007060,0.0000
 2359,-0.00116322,0.00039871,0.00032929,0.00071164,0.00164565,0.0000714
 5,0.00088736,0.00054997,0.00045828,-0.00927650,0.00032249,-0.00272444,
 0.31750536,-0.00426355,0.01066739,0.00579865,-0.00281430,-0.01589484,-
 0.01186406,-0.00139438,0.00407568,0.00452851,0.00169876,0.00026728,-0.
 00025719,0.00085129,-0.00041226,0.00015572,-0.00064063,0.00016978,0.00
 007321,-0.00050975,0.00025931,0.00006243,-0.00054984,0.00026914,-0.000
 10710,-0.00007566,-0.00034717,-0.00023808,0.00006845,0.00009867,0.0003
 4520,0.00109301,0.00056025,-0.00064364,-0.00106666,-0.00028086,-0.0009
 3442,0.00026958,0.00025569,0.00040644,0.00059781,0.00146678,-0.0004388
 7,-0.03594465,-0.00401157,-0.01055371,-0.01285431,-0.05227743,-0.00812
 927,-0.00045774,-0.00014499,0.00010419,0.00022485,-0.00006917,-0.00010
 603,0.00007817,-0.00003467,-0.00003530,0.00006093,-0.00008038,0.000002
 25,0.00001054,-0.00021812,0.00015865,-0.00005680,-0.00002665,-0.000189
 62,-0.00010043,-0.00034395,0.00031800,-0.00005900,0.00012058,-0.000023
 81,0.00035476,0.00012030,0.00015246,0.00047980,0.00018535,0.00024129,0
 .00019533,0.00088174,0.00028749,-0.00093289,-0.00696231,0.00186727,0.0
 2183021,0.00091555,0.00980789,0.02647801,0.06093245,-0.00150271,-0.000
 12383,-0.00721873,0.00322473,-0.00128927,0.00019761,-0.00054400,-0.001
 08781,-0.00032466,-0.00022693,0.00010130,0.00019550,0.00010828,-0.0002
 0816,-0.00013470,-0.00007457,0.00005827,-0.00000696,0.00003357,0.00011
 787,0.00003005,0.00011257,-0.00018463,-0.00005552,0.00016888,0.0002089
 1,0.00001794,0.00007520,-0.00082211,-0.00037035,-0.00078292,-0.0003830
 7,0.00103630,0.00137633,0.00063574,0.00074508,-0.00026131,-0.00004581,
 -0.00039711,-0.00109950,-0.00054378,-0.00061688,0.00625154,0.00021404,
 0.00352348,-0.08565617,-0.00573159,-0.09191724,0.00022014,-0.00021558,
 -0.00000930,-0.00004045,-0.00000708,0.00000819,0.00001843,-0.00001501,
 0.00002087,-0.00001890,0.00004967,-0.00001274,-0.00003638,0.00004759,-
 0.00000877,-0.00001182,0.00005146,0.00003892,-0.00001030,0.00009330,-0
 .00004270,0.00010545,0.00002945,0.00014057,-0.00012361,-0.00021857,-0.
 00009218,0.00001012,0.00013357,0.00006640,0.00109550,0.00058144,-0.000
 04460,0.00032441,0.00163995,0.00000239,0.02182315,0.00339547,0.0080872
 6,0.09073439,0.00462327,0.09936090,-0.00175488,0.00059879,0.00202433,0
 .00086426,0.00041272,-0.00099049,-0.00062936,0.00018547,0.00073762,0.0
 0060199,-0.00012769,-0.00022171,-0.00020917,0.00052260,0.00031724,0.00
 008988,-0.00012741,-0.00000934,-0.00006459,-0.00038643,-0.00011641,-0.
 00032711,0.00035003,0.00014511,0.00089126,0.00027317,0.00047643,-0.001
 74571,0.00303946,0.00159041,0.00170993,0.00241013,-0.00439728,-0.00522
 861,-0.00119178,-0.00147987,0.00225569,-0.00176747,0.00056279,0.000471
 48,0.00084766,-0.00097187,-0.00106841,-0.00316871,0.01095953,-0.057173
 40,0.00345232,0.00149070,0.00002549,0.00004699,-0.00004905,-0.00001763
 ,0.00002150,-0.00005171,-0.00004642,0.00004082,-0.00002366,0.00003549,
 -0.00011373,-0.00000045,0.00004637,-0.00010528,0.00006758,0.00017782,-
 0.00015093,-0.00040406,0.00021189,0.00006983,-0.00031237,-0.00024724,-
 0.00023719,-0.00002132,0.00020908,-0.00002391,-0.00010001,-0.00028220,
 0.00022595,0.00017131,-0.00028979,-0.00144214,-0.00017940,-0.00032042,
 0.00019365,0.00071260,0.00009982,-0.00610039,0.02025095,0.00568188,0.0
 0742908,-0.03529313,0.05603263,-0.00097081,0.00088646,0.00051187,0.001
 99477,-0.00129312,-0.00114986,-0.00085884,0.00037112,0.00078103,0.0007
 1140,-0.00002755,-0.00016460,0.00011450,0.00013697,0.00017269,-0.00014
 788,-0.00001154,0.00001720,-0.00016471,-0.00014284,-0.00003823,-0.0001
 7193,0.00020074,0.00021925,0.00205016,-0.00038195,0.00049486,0.0009355
 1,0.00168314,0.00072397,0.00188100,-0.00099563,-0.00444290,-0.00351048
 ,-0.00117194,-0.00053296,0.00132824,-0.00170945,-0.00022289,0.00059618
 ,0.00118797,0.00006324,0.00135459,-0.00551006,0.02963080,0.00252225,-0
 .08282360,0.06992201,0.00003635,-0.00010578,-0.00007408,-0.00001074,-0
 .00000330,-0.00003417,0.00000264,0.00000916,-0.00002124,0.00002275,-0.
 00006185,-0.00000530,0.00002593,-0.00011239,0.00007935,0.00005823,-0.0
 0008949,-0.00081579,0.00001064,0.00007322,-0.00018365,0.00008684,-0.00
 015373,-0.00009048,-0.00005041,-0.00042634,-0.00055158,-0.00027472,0.0
 0034595,-0.00013930,-0.00223808,-0.00492982,0.00001127,-0.00005726,0.0
 0141527,-0.00034623,-0.00234490,0.00923236,-0.02664179,0.00224587,-0.0
 0014156,-0.00110499,-0.00517710,0.08454956,0.00238962,-0.00324961,-0.0
 0166635,-0.00201605,0.00232913,0.00335911,0.00171676,-0.00073625,-0.00
 207122,-0.00121020,0.00000506,0.00033043,0.00002583,-0.00048284,-0.000
 37183,0.00011443,0.00009004,-0.00003815,0.00023204,0.00040972,0.000082
 84,0.00038610,-0.00061350,-0.00005095,-0.00161946,-0.00055774,-0.00059
 827,0.00262044,-0.00382213,-0.00291389,-0.00535342,-0.00687268,0.00290
 284,0.00416058,0.00350092,0.00319753,-0.00539555,0.00206707,-0.0011805
 3,-0.00026814,0.00044567,0.00192034,0.00226900,0.00719261,0.00590976,0
 .00429285,0.06292840,-0.32625516,0.00001035,0.00003133,0.00021131,0.00
 000918,-0.00001004,0.00008586,0.00003660,-0.00004104,0.00005356,-0.000
 02310,0.00014010,-0.00000788,-0.00007859,0.00025248,-0.00016048,0.0000
 9701,0.00001330,0.00050050,-0.00042061,-0.00055379,0.00064660,0.000046
 77,0.00057758,-0.00004363,-0.00013217,-0.00017912,-0.00045570,0.000279
 71,-0.00037158,-0.00051945,-0.00064463,-0.00290555,0.00146666,0.000027
 92,-0.00070189,0.00035220,-0.00119211,0.00259367,-0.01275122,-0.005476
 67,0.00458817,-0.01221901,0.00511552,-0.06606751,0.34028418\\0.0000044
 8,0.00000973,0.00000592,-0.00000563,-0.00000285,-0.00000312,0.00000202
 ,-0.00000231,0.00000135,-0.00000097,-0.00000003,-0.00000332,0.00000945
 ,0.00001239,0.00000449,0.00000092,0.00000510,0.00000071,-0.00000949,-0
 .00001602,-0.00000341,-0.00000012,-0.00000009,0.00000297,0.00000440,-0
 .00000039,-0.00000172,-0.00000432,0.00000021,-0.00000026,-0.00000382,0
 .00000218,-0.00000202,0.00000497,0.00000278,0.00000075,0.00000165,0.00
 000045,0.00000046,0.00000045,-0.00000123,-0.00000141,0.00000101,-0.000
 00020,-0.00000023,0.00000346,0.00000228,0.00001014,0.00000099,-0.00000
 197,-0.00000105,0.00000068,0.00000069,0.00000292,-0.00000004,-0.000002
 43,-0.00000025,-0.00000053,-0.00000156,-0.00000180,0.00000245,0.000000
 72,-0.00000085,-0.00000144,-0.00000179,-0.00000169,-0.00000031,0.00000
 236,0.00000125,0.00000231,0.00000080,0.00000052,-0.00000098,0.00000023
 ,-0.00000173,-0.00000122,-0.00000243,0.00000046,0.00000024,-0.00000017
 ,0.00000235,-0.00000239,-0.00000022,-0.00000113,-0.00000114,0.00000119
 ,0.00000200,-0.00000278,-0.00000262,-0.00000257,-0.00000428,-0.0000047
 4,-0.00000972\\\@


 NEVER TEACH A PIG TO SING.
 IT WASTES YOUR TIME AND ANNOYS THE PIG.
     -- SEEN ON A GREETING CARD
 Job cpu time:       1 days  5 hours 35 minutes 11.3 seconds.
 File lengths (MBytes):  RWF=   1351 Int=      0 D2E=      0 Chk=     46 Scr=      1
 Normal termination of Gaussian 09 at Thu Jul 29 11:47:18 2021.
