 Entering Gaussian System, Link 0=g09
 Input=opt_freq-conf-422.com
 Output=opt_freq-conf-422.log
 Initial command:
 /aerosol/software/g09/l1.exe "/scratch/nicole/10516/Gau-524018.inp" -scrdir="/scratch/nicole/10516/"
 Entering Link 1 = /aerosol/software/g09/l1.exe PID=    524020.
  
 Copyright (c) 1988,1990,1992,1993,1995,1998,2003,2009,2013,
            Gaussian, Inc.  All Rights Reserved.
  
 This is part of the Gaussian(R) 09 program.  It is based on
 the Gaussian(R) 03 system (copyright 2003, Gaussian, Inc.),
 the Gaussian(R) 98 system (copyright 1998, Gaussian, Inc.),
 the Gaussian(R) 94 system (copyright 1995, Gaussian, Inc.),
 the Gaussian 92(TM) system (copyright 1992, Gaussian, Inc.),
 the Gaussian 90(TM) system (copyright 1990, Gaussian, Inc.),
 the Gaussian 88(TM) system (copyright 1988, Gaussian, Inc.),
 the Gaussian 86(TM) system (copyright 1986, Carnegie Mellon
 University), and the Gaussian 82(TM) system (copyright 1983,
 Carnegie Mellon University). Gaussian is a federally registered
 trademark of Gaussian, Inc.
  
 This software contains proprietary and confidential information,
 including trade secrets, belonging to Gaussian, Inc.
  
 This software is provided under written license and may be
 used, copied, transmitted, or stored only in accord with that
 written license.
  
 The following legend is applicable only to US Government
 contracts under FAR:
  
                    RESTRICTED RIGHTS LEGEND
  
 Use, reproduction and disclosure by the US Government is
 subject to restrictions as set forth in subparagraphs (a)
 and (c) of the Commercial Computer Software - Restricted
 Rights clause in FAR 52.227-19.
  
 Gaussian, Inc.
 340 Quinnipiac St., Bldg. 40, Wallingford CT 06492
  
  
 ---------------------------------------------------------------
 Warning -- This program may not be used in any manner that
 competes with the business of Gaussian, Inc. or will provide
 assistance to any competitor of Gaussian, Inc.  The licensee
 of this program is prohibited from giving any competitor of
 Gaussian, Inc. access to this program.  By using this program,
 the user acknowledges that Gaussian, Inc. is engaged in the
 business of creating and licensing software in the field of
 computational chemistry and represents and warrants to the
 licensee that it is not a competitor of Gaussian, Inc. and that
 it will not use this program in any manner prohibited above.
 ---------------------------------------------------------------
  

 Cite this work as:
 Gaussian 09, Revision D.01,
 M. J. Frisch, G. W. Trucks, H. B. Schlegel, G. E. Scuseria, 
 M. A. Robb, J. R. Cheeseman, G. Scalmani, V. Barone, B. Mennucci, 
 G. A. Petersson, H. Nakatsuji, M. Caricato, X. Li, H. P. Hratchian, 
 A. F. Izmaylov, J. Bloino, G. Zheng, J. L. Sonnenberg, M. Hada, 
 M. Ehara, K. Toyota, R. Fukuda, J. Hasegawa, M. Ishida, T. Nakajima, 
 Y. Honda, O. Kitao, H. Nakai, T. Vreven, J. A. Montgomery, Jr., 
 J. E. Peralta, F. Ogliaro, M. Bearpark, J. J. Heyd, E. Brothers, 
 K. N. Kudin, V. N. Staroverov, T. Keith, R. Kobayashi, J. Normand, 
 K. Raghavachari, A. Rendell, J. C. Burant, S. S. Iyengar, J. Tomasi, 
 M. Cossi, N. Rega, J. M. Millam, M. Klene, J. E. Knox, J. B. Cross, 
 V. Bakken, C. Adamo, J. Jaramillo, R. Gomperts, R. E. Stratmann, 
 O. Yazyev, A. J. Austin, R. Cammi, C. Pomelli, J. W. Ochterski, 
 R. L. Martin, K. Morokuma, V. G. Zakrzewski, G. A. Voth, 
 P. Salvador, J. J. Dannenberg, S. Dapprich, A. D. Daniels, 
 O. Farkas, J. B. Foresman, J. V. Ortiz, J. Cioslowski, 
 and D. J. Fox, Gaussian, Inc., Wallingford CT, 2013.
 
 ******************************************
 Gaussian 09:  ES64L-G09RevD.01 24-Apr-2013
                25-Jul-2021 
 ******************************************
 %mem=2gb
 %nproc=4
 Will use up to    4 processors via shared memory.
 %chk=conf-422.chk
 ----------------------------------------------------------------------
 # B3LYP/6-31+G(d,p) EmpiricalDispersion=GD3BJ opt=calcfc freq=noraman 
 nosymm integral(ultrafinegrid)
 ----------------------------------------------------------------------
 1/10=4,14=-1,18=20,19=15,26=4,38=1/1,3;
 2/9=110,12=2,15=1,17=6,18=5,40=1/2;
 3/5=1,6=6,7=111,11=2,16=1,25=1,30=1,71=2,74=-5,75=-5,124=41,140=1/1,2,3;
 4//1;
 5/5=2,38=5/2;
 8/6=4,10=90,11=11/1;
 11/6=1,8=1,9=11,15=111,16=1,31=1/1,2,10;
 10/6=1,13=1,31=1/2;
 6/7=2,8=2,9=2,10=2,28=1/1;
 7/10=1,18=20,25=1,30=1/1,2,3,16;
 1/10=4,14=-1,18=20,19=15,26=4/3(2);
 2/9=110,15=1/2;
 99//99;
 2/9=110,15=1/2;
 3/5=1,6=6,7=111,11=2,16=1,25=1,30=1,71=1,74=-5,75=-5,124=41/1,2,3;
 4/5=5,16=3,69=1/1;
 5/5=2,38=5/2;
 7/30=1/1,2,3,16;
 1/14=-1,18=20,19=15,26=4/3(-5);
 2/9=110,15=1/2;
 6/7=2,8=2,9=2,10=2,19=2,28=1/1;
 99/9=1/99;
 ------------------------------------------------------------
 Candidate Structure: Conf:422 OPT and FREQ calc in gas phase
 ------------------------------------------------------------
 Symbolic Z-matrix:
 Charge =  0 Multiplicity = 1
 O                     0.78587   0.73522   1.52987 
 C                     1.13924   0.16266   0.50415 
 N                     0.30312  -0.6476   -0.20788 
 C                    -0.93596  -1.13451   0.35649 
 C                    -0.81707  -2.6235    0.61379 
 O                    -1.7968   -3.06349   1.42956 
 O                     0.01444  -3.34827   0.13314 
 C                    -2.14447  -0.88748  -0.55894 
 C                    -2.4521    0.57028  -0.73406 
 C                    -1.92298   1.70746  -0.19576 
 N                    -2.57575   2.83084  -0.66942 
 C                    -3.49191   2.37231  -1.48728 
 N                    -3.46244   1.01624  -1.56355 
 C                     2.50615   0.36515  -0.11942 
 C                     3.56376   0.75402   0.90212 
 N                     4.8435    0.9524    0.2166 
 H                     0.71291  -1.23242  -0.92015 
 H                    -1.09373  -0.61786   1.30258 
 H                    -1.66124  -4.01486   1.51849 
 H                    -3.01463  -1.38629  -0.12674 
 H                    -1.97303  -1.34889  -1.5332 
 H                    -1.09974   1.7603    0.50126 
 H                    -4.19675   2.96499  -2.04443 
 H                    -4.06566   0.4341   -2.11923 
 H                     2.80637  -0.54103  -0.65153 
 H                     2.42751   1.16022  -0.8652 
 H                     3.59987  -0.00614   1.69242 
 H                     3.26508   1.69306   1.37245 
 H                     5.20434   0.0605   -0.10256 
 H                     5.53209   1.31249   0.86643 
 

 GradGradGradGradGradGradGradGradGradGradGradGradGradGradGradGradGradGrad
 Berny optimization.
 Initialization pass.
                           ----------------------------
                           !    Initial Parameters    !
                           ! (Angstroms and Degrees)  !
 --------------------------                            --------------------------
 ! Name  Definition              Value          Derivative Info.                !
 --------------------------------------------------------------------------------
 ! R1    R(1,2)                  1.2267         calculate D2E/DX2 analytically  !
 ! R2    R(2,3)                  1.3648         calculate D2E/DX2 analytically  !
 ! R3    R(2,14)                 1.516          calculate D2E/DX2 analytically  !
 ! R4    R(3,4)                  1.446          calculate D2E/DX2 analytically  !
 ! R5    R(3,17)                 1.0086         calculate D2E/DX2 analytically  !
 ! R6    R(4,5)                  1.5157         calculate D2E/DX2 analytically  !
 ! R7    R(4,8)                  1.5361         calculate D2E/DX2 analytically  !
 ! R8    R(4,18)                 1.0894         calculate D2E/DX2 analytically  !
 ! R9    R(5,6)                  1.3487         calculate D2E/DX2 analytically  !
 ! R10   R(5,7)                  1.2032         calculate D2E/DX2 analytically  !
 ! R11   R(6,19)                 0.9651         calculate D2E/DX2 analytically  !
 ! R12   R(8,9)                  1.5001         calculate D2E/DX2 analytically  !
 ! R13   R(8,20)                 1.0921         calculate D2E/DX2 analytically  !
 ! R14   R(8,21)                 1.0915         calculate D2E/DX2 analytically  !
 ! R15   R(9,10)                 1.3649         calculate D2E/DX2 analytically  !
 ! R16   R(9,13)                 1.3812         calculate D2E/DX2 analytically  !
 ! R17   R(10,11)                1.3829         calculate D2E/DX2 analytically  !
 ! R18   R(10,22)                1.08           calculate D2E/DX2 analytically  !
 ! R19   R(11,12)                1.3109         calculate D2E/DX2 analytically  !
 ! R20   R(12,13)                1.3585         calculate D2E/DX2 analytically  !
 ! R21   R(12,23)                1.0763         calculate D2E/DX2 analytically  !
 ! R22   R(13,24)                1.0058         calculate D2E/DX2 analytically  !
 ! R23   R(14,15)                1.521          calculate D2E/DX2 analytically  !
 ! R24   R(14,25)                1.0929         calculate D2E/DX2 analytically  !
 ! R25   R(14,26)                1.0929         calculate D2E/DX2 analytically  !
 ! R26   R(15,16)                1.4653         calculate D2E/DX2 analytically  !
 ! R27   R(15,27)                1.0971         calculate D2E/DX2 analytically  !
 ! R28   R(15,28)                1.0919         calculate D2E/DX2 analytically  !
 ! R29   R(16,29)                1.0137         calculate D2E/DX2 analytically  !
 ! R30   R(16,30)                1.013          calculate D2E/DX2 analytically  !
 ! A1    A(1,2,3)              122.4707         calculate D2E/DX2 analytically  !
 ! A2    A(1,2,14)             122.7738         calculate D2E/DX2 analytically  !
 ! A3    A(3,2,14)             114.6511         calculate D2E/DX2 analytically  !
 ! A4    A(2,3,4)              121.4169         calculate D2E/DX2 analytically  !
 ! A5    A(2,3,17)             117.6301         calculate D2E/DX2 analytically  !
 ! A6    A(4,3,17)             115.3752         calculate D2E/DX2 analytically  !
 ! A7    A(3,4,5)              109.2586         calculate D2E/DX2 analytically  !
 ! A8    A(3,4,8)              112.7937         calculate D2E/DX2 analytically  !
 ! A9    A(3,4,18)             107.659          calculate D2E/DX2 analytically  !
 ! A10   A(5,4,8)              108.7149         calculate D2E/DX2 analytically  !
 ! A11   A(5,4,18)             109.2572         calculate D2E/DX2 analytically  !
 ! A12   A(8,4,18)             109.1064         calculate D2E/DX2 analytically  !
 ! A13   A(4,5,6)              111.4804         calculate D2E/DX2 analytically  !
 ! A14   A(4,5,7)              125.3192         calculate D2E/DX2 analytically  !
 ! A15   A(6,5,7)              123.1704         calculate D2E/DX2 analytically  !
 ! A16   A(5,6,19)             105.9801         calculate D2E/DX2 analytically  !
 ! A17   A(4,8,9)              112.7792         calculate D2E/DX2 analytically  !
 ! A18   A(4,8,20)             108.5143         calculate D2E/DX2 analytically  !
 ! A19   A(4,8,21)             109.8992         calculate D2E/DX2 analytically  !
 ! A20   A(9,8,20)             109.065          calculate D2E/DX2 analytically  !
 ! A21   A(9,8,21)             109.8033         calculate D2E/DX2 analytically  !
 ! A22   A(20,8,21)            106.5766         calculate D2E/DX2 analytically  !
 ! A23   A(8,9,10)             133.1654         calculate D2E/DX2 analytically  !
 ! A24   A(8,9,13)             122.2672         calculate D2E/DX2 analytically  !
 ! A25   A(10,9,13)            104.5614         calculate D2E/DX2 analytically  !
 ! A26   A(9,10,11)            111.0225         calculate D2E/DX2 analytically  !
 ! A27   A(9,10,22)            126.2145         calculate D2E/DX2 analytically  !
 ! A28   A(11,10,22)           122.7606         calculate D2E/DX2 analytically  !
 ! A29   A(10,11,12)           105.0368         calculate D2E/DX2 analytically  !
 ! A30   A(11,12,13)           111.6547         calculate D2E/DX2 analytically  !
 ! A31   A(11,12,23)           126.0151         calculate D2E/DX2 analytically  !
 ! A32   A(13,12,23)           122.3301         calculate D2E/DX2 analytically  !
 ! A33   A(9,13,12)            107.7245         calculate D2E/DX2 analytically  !
 ! A34   A(9,13,24)            125.7077         calculate D2E/DX2 analytically  !
 ! A35   A(12,13,24)           126.5676         calculate D2E/DX2 analytically  !
 ! A36   A(2,14,15)            112.635          calculate D2E/DX2 analytically  !
 ! A37   A(2,14,25)            109.7065         calculate D2E/DX2 analytically  !
 ! A38   A(2,14,26)            108.2383         calculate D2E/DX2 analytically  !
 ! A39   A(15,14,25)           110.3638         calculate D2E/DX2 analytically  !
 ! A40   A(15,14,26)           108.8048         calculate D2E/DX2 analytically  !
 ! A41   A(25,14,26)           106.9003         calculate D2E/DX2 analytically  !
 ! A42   A(14,15,16)           109.1295         calculate D2E/DX2 analytically  !
 ! A43   A(14,15,27)           109.2413         calculate D2E/DX2 analytically  !
 ! A44   A(14,15,28)           108.6012         calculate D2E/DX2 analytically  !
 ! A45   A(16,15,27)           113.7074         calculate D2E/DX2 analytically  !
 ! A46   A(16,15,28)           108.9045         calculate D2E/DX2 analytically  !
 ! A47   A(27,15,28)           107.1327         calculate D2E/DX2 analytically  !
 ! A48   A(15,16,29)           109.8205         calculate D2E/DX2 analytically  !
 ! A49   A(15,16,30)           109.9805         calculate D2E/DX2 analytically  !
 ! A50   A(29,16,30)           105.8294         calculate D2E/DX2 analytically  !
 ! D1    D(1,2,3,4)            -14.8681         calculate D2E/DX2 analytically  !
 ! D2    D(1,2,3,17)          -167.3086         calculate D2E/DX2 analytically  !
 ! D3    D(14,2,3,4)           168.753          calculate D2E/DX2 analytically  !
 ! D4    D(14,2,3,17)           16.3125         calculate D2E/DX2 analytically  !
 ! D5    D(1,2,14,15)           27.4052         calculate D2E/DX2 analytically  !
 ! D6    D(1,2,14,25)          150.7604         calculate D2E/DX2 analytically  !
 ! D7    D(1,2,14,26)          -92.9343         calculate D2E/DX2 analytically  !
 ! D8    D(3,2,14,15)         -156.2282         calculate D2E/DX2 analytically  !
 ! D9    D(3,2,14,25)          -32.8731         calculate D2E/DX2 analytically  !
 ! D10   D(3,2,14,26)           83.4323         calculate D2E/DX2 analytically  !
 ! D11   D(2,3,4,5)           -109.934          calculate D2E/DX2 analytically  !
 ! D12   D(2,3,4,8)            129.0356         calculate D2E/DX2 analytically  !
 ! D13   D(2,3,4,18)             8.6119         calculate D2E/DX2 analytically  !
 ! D14   D(17,3,4,5)            43.0861         calculate D2E/DX2 analytically  !
 ! D15   D(17,3,4,8)           -77.9442         calculate D2E/DX2 analytically  !
 ! D16   D(17,3,4,18)          161.6321         calculate D2E/DX2 analytically  !
 ! D17   D(3,4,5,6)            164.7753         calculate D2E/DX2 analytically  !
 ! D18   D(3,4,5,7)            -17.1721         calculate D2E/DX2 analytically  !
 ! D19   D(8,4,5,6)            -71.7445         calculate D2E/DX2 analytically  !
 ! D20   D(8,4,5,7)            106.3081         calculate D2E/DX2 analytically  !
 ! D21   D(18,4,5,6)            47.2307         calculate D2E/DX2 analytically  !
 ! D22   D(18,4,5,7)          -134.7167         calculate D2E/DX2 analytically  !
 ! D23   D(3,4,8,9)            -65.9015         calculate D2E/DX2 analytically  !
 ! D24   D(3,4,8,20)           173.1523         calculate D2E/DX2 analytically  !
 ! D25   D(3,4,8,21)            56.9725         calculate D2E/DX2 analytically  !
 ! D26   D(5,4,8,9)            172.7591         calculate D2E/DX2 analytically  !
 ! D27   D(5,4,8,20)            51.8129         calculate D2E/DX2 analytically  !
 ! D28   D(5,4,8,21)           -64.3669         calculate D2E/DX2 analytically  !
 ! D29   D(18,4,8,9)            53.6893         calculate D2E/DX2 analytically  !
 ! D30   D(18,4,8,20)          -67.2569         calculate D2E/DX2 analytically  !
 ! D31   D(18,4,8,21)          176.5633         calculate D2E/DX2 analytically  !
 ! D32   D(4,5,6,19)           178.4285         calculate D2E/DX2 analytically  !
 ! D33   D(7,5,6,19)             0.3268         calculate D2E/DX2 analytically  !
 ! D34   D(4,8,9,10)            -3.9207         calculate D2E/DX2 analytically  !
 ! D35   D(4,8,9,13)           177.1137         calculate D2E/DX2 analytically  !
 ! D36   D(20,8,9,10)          116.711          calculate D2E/DX2 analytically  !
 ! D37   D(20,8,9,13)          -62.2546         calculate D2E/DX2 analytically  !
 ! D38   D(21,8,9,10)         -126.8482         calculate D2E/DX2 analytically  !
 ! D39   D(21,8,9,13)           54.1862         calculate D2E/DX2 analytically  !
 ! D40   D(8,9,10,11)         -179.1307         calculate D2E/DX2 analytically  !
 ! D41   D(8,9,10,22)            1.423          calculate D2E/DX2 analytically  !
 ! D42   D(13,9,10,11)          -0.0344         calculate D2E/DX2 analytically  !
 ! D43   D(13,9,10,22)        -179.4807         calculate D2E/DX2 analytically  !
 ! D44   D(8,9,13,12)          179.2645         calculate D2E/DX2 analytically  !
 ! D45   D(8,9,13,24)           -0.5735         calculate D2E/DX2 analytically  !
 ! D46   D(10,9,13,12)           0.044          calculate D2E/DX2 analytically  !
 ! D47   D(10,9,13,24)        -179.794          calculate D2E/DX2 analytically  !
 ! D48   D(9,10,11,12)           0.0111         calculate D2E/DX2 analytically  !
 ! D49   D(22,10,11,12)        179.4798         calculate D2E/DX2 analytically  !
 ! D50   D(10,11,12,13)          0.0182         calculate D2E/DX2 analytically  !
 ! D51   D(10,11,12,23)        179.9527         calculate D2E/DX2 analytically  !
 ! D52   D(11,12,13,9)          -0.0403         calculate D2E/DX2 analytically  !
 ! D53   D(11,12,13,24)        179.7959         calculate D2E/DX2 analytically  !
 ! D54   D(23,12,13,9)        -179.9776         calculate D2E/DX2 analytically  !
 ! D55   D(23,12,13,24)         -0.1414         calculate D2E/DX2 analytically  !
 ! D56   D(2,14,15,16)        -179.0201         calculate D2E/DX2 analytically  !
 ! D57   D(2,14,15,27)          56.1032         calculate D2E/DX2 analytically  !
 ! D58   D(2,14,15,28)         -60.4282         calculate D2E/DX2 analytically  !
 ! D59   D(25,14,15,16)         57.9915         calculate D2E/DX2 analytically  !
 ! D60   D(25,14,15,27)        -66.8853         calculate D2E/DX2 analytically  !
 ! D61   D(25,14,15,28)        176.5834         calculate D2E/DX2 analytically  !
 ! D62   D(26,14,15,16)        -59.007          calculate D2E/DX2 analytically  !
 ! D63   D(26,14,15,27)        176.1163         calculate D2E/DX2 analytically  !
 ! D64   D(26,14,15,28)         59.5849         calculate D2E/DX2 analytically  !
 ! D65   D(14,15,16,29)        -70.2728         calculate D2E/DX2 analytically  !
 ! D66   D(14,15,16,30)        173.651          calculate D2E/DX2 analytically  !
 ! D67   D(27,15,16,29)         51.9538         calculate D2E/DX2 analytically  !
 ! D68   D(27,15,16,30)        -64.1224         calculate D2E/DX2 analytically  !
 ! D69   D(28,15,16,29)        171.325          calculate D2E/DX2 analytically  !
 ! D70   D(28,15,16,30)         55.2488         calculate D2E/DX2 analytically  !
 --------------------------------------------------------------------------------
 Trust Radius=3.00D-01 FncErr=1.00D-07 GrdErr=1.00D-06
 Number of steps in this run=    160 maximum allowed number of steps=    180.
 GradGradGradGradGradGradGradGradGradGradGradGradGradGradGradGradGradGrad

                          Input orientation:                          
 ---------------------------------------------------------------------
 Center     Atomic      Atomic             Coordinates (Angstroms)
 Number     Number       Type             X           Y           Z
 ---------------------------------------------------------------------
      1          8           0        0.785871    0.735223    1.529867
      2          6           0        1.139240    0.162661    0.504155
      3          7           0        0.303118   -0.647601   -0.207881
      4          6           0       -0.935956   -1.134511    0.356493
      5          6           0       -0.817066   -2.623497    0.613794
      6          8           0       -1.796797   -3.063489    1.429557
      7          8           0        0.014438   -3.348268    0.133141
      8          6           0       -2.144474   -0.887478   -0.558942
      9          6           0       -2.452097    0.570279   -0.734056
     10          6           0       -1.922975    1.707460   -0.195764
     11          7           0       -2.575751    2.830835   -0.669422
     12          6           0       -3.491909    2.372307   -1.487278
     13          7           0       -3.462438    1.016238   -1.563554
     14          6           0        2.506147    0.365153   -0.119418
     15          6           0        3.563763    0.754017    0.902119
     16          7           0        4.843498    0.952401    0.216596
     17          1           0        0.712914   -1.232417   -0.920148
     18          1           0       -1.093734   -0.617860    1.302577
     19          1           0       -1.661238   -4.014865    1.518489
     20          1           0       -3.014626   -1.386288   -0.126735
     21          1           0       -1.973031   -1.348886   -1.533202
     22          1           0       -1.099736    1.760297    0.501259
     23          1           0       -4.196751    2.964992   -2.044427
     24          1           0       -4.065659    0.434098   -2.119228
     25          1           0        2.806372   -0.541031   -0.651533
     26          1           0        2.427514    1.160219   -0.865199
     27          1           0        3.599871   -0.006139    1.692423
     28          1           0        3.265084    1.693065    1.372450
     29          1           0        5.204337    0.060503   -0.102565
     30          1           0        5.532093    1.312491    0.866431
 ---------------------------------------------------------------------
                    Distance matrix (angstroms):
                    1          2          3          4          5
     1  O    0.000000
     2  C    1.226696   0.000000
     3  N    2.272667   1.364778   0.000000
     4  C    2.799535   2.451713   1.445995   0.000000
     5  C    3.832700   3.406146   2.415394   1.515724   0.000000
     6  O    4.594611   4.459230   3.595464   2.369277   1.348679
     7  O    4.384158   3.705327   2.737377   2.419474   1.203212
     8  C    3.947557   3.607734   2.484248   1.536086   2.480138
     9  C    3.954364   3.820605   3.057990   2.528693   3.832784
    10  C    3.355726   3.500493   3.240671   3.058757   4.542643
    11  N    4.530890   4.722033   4.538768   4.411961   5.872764
    12  C    5.484762   5.504170   5.015868   4.714887   6.043786
    13  N    5.262733   5.116587   4.334238   3.833460   4.998651
    14  C    2.411730   1.516008   2.426280   3.784648   4.529169
    15  C    2.848000   2.527131   3.718661   4.910368   5.539169
    16  N    4.270384   3.798408   4.832725   6.146288   6.707219
    17  H    3.143167   2.038782   1.008597   2.087623   2.574669
    18  H    2.327103   2.496571   2.057562   1.089449   2.138585
    19  H    5.343389   5.130621   4.263510   3.189468   1.861989
    20  H    4.657136   4.477931   3.399951   2.148900   2.628372
    21  H    4.619246   4.015199   2.725643   2.166201   2.751450
    22  H    2.379984   2.750539   2.875560   2.903049   4.394339
    23  H    6.524873   6.543786   6.055786   5.762215   7.051214
    24  H    6.078150   5.834962   4.889737   4.287746   5.231792
    25  H    3.235700   2.147120   2.544497   3.920887   4.366580
    26  H    2.934613   2.128356   2.865892   4.251029   5.199156
    27  H    2.914556   2.737732   3.858913   4.861240   5.246268
    28  H    2.662468   2.759580   4.092604   5.164890   5.989341
    29  H    4.758458   4.111393   4.953227   6.272319   6.631313
    30  H    4.827008   4.555273   5.686677   6.934228   7.474466
                    6          7          8          9         10
     6  O    0.000000
     7  O    2.245521   0.000000
     8  C    2.968170   3.345947   0.000000
     9  C    4.279593   4.710715   1.500118   0.000000
    10  C    5.041780   5.424217   2.629575   1.364884   0.000000
    11  N    6.305200   6.747925   3.744872   2.264858   1.382910
    12  C    6.397595   6.902551   3.647409   2.212658   2.138126
    13  N    5.327030   5.832354   2.523967   1.381208   2.172230
    14  C    5.715789   4.479050   4.836377   5.000405   4.628687
    15  C    6.602057   5.478848   6.116631   6.237099   5.676152
    16  N    7.854436   6.467034   7.267624   7.367188   6.820946
    17  H    3.895201   2.464571   2.900710   3.647141   4.014414
    18  H    2.547847   3.170292   2.154531   2.721158   2.887868
    19  H    0.965091   2.274078   3.785470   5.169426   5.979312
    20  H    2.591941   3.618305   1.092144   2.124484   3.281424
    21  H    3.427661   3.274791   1.091546   2.133386   3.336540
    22  H    4.961506   5.241595   3.037469   2.184268   1.079979
    23  H    7.360091   7.895135   4.610861   3.239682   3.188887
    24  H    5.474918   6.002220   2.805709   2.130922   3.148374
    25  H    5.646494   4.036234   4.963817   5.375251   5.256440
    26  H    6.399252   5.210189   5.018957   4.916892   4.435580
    27  H    6.208101   5.143589   6.232407   6.545714   6.083050
    28  H    6.946273   6.125163   6.297047   6.195496   5.419913
    29  H    7.818095   6.213721   7.423744   7.699327   7.315718
    30  H    8.554469   7.259814   8.111796   8.176780   7.540710
                   11         12         13         14         15
    11  N    0.000000
    12  C    1.310909   0.000000
    13  N    2.208721   1.358532   0.000000
    14  C    5.675190   6.471197   6.175229   0.000000
    15  C    6.669074   7.623031   7.450893   1.520955   0.000000
    16  N    7.704465   8.625447   8.494797   2.433305   1.465270
    17  H    5.233373   5.567424   4.785811   2.531617   3.923508
    18  H    4.240125   4.740848   4.061496   3.993436   4.871826
    19  H    7.244784   7.292596   6.168898   6.263737   7.100900
    20  H    4.274488   4.025657   2.834980   5.791937   6.993901
    21  H    4.310390   4.019500   2.795187   4.999975   6.403833
    22  H    2.166833   3.170383   3.224816   3.915873   4.787642
    23  H    2.129854   1.076333   2.137311   7.442692   8.590467
    24  H    3.172714   2.117830   1.005751   6.869689   8.212123
    25  H    6.351145   6.989589   6.523408   1.092909   2.159774
    26  H    5.278441   6.074184   5.932956   1.092933   2.139971
    27  H    7.194792   8.127783   7.843650   2.148687   1.097142
    28  H    6.291193   7.368607   7.371416   2.136588   1.091894
    29  H    8.278033   9.104206   8.840866   2.715386   2.044953
    30  H    8.390551   9.385935   9.321706   3.320497   2.046336
                   16         17         18         19         20
    16  N    0.000000
    17  H    4.809089   0.000000
    18  H    6.236649   2.929533   0.000000
    19  H    8.287354   4.396085   3.450843   0.000000
    20  H    8.205940   3.814149   2.514606   3.383465   0.000000
    21  H    7.404240   2.757480   3.057647   4.064169   1.750562
    22  H    6.004644   3.776563   2.509537   5.890886   3.736600
    23  H    9.533564   6.556451   5.802412   8.236601   4.899857
    24  H    9.224846   5.200944   4.652709   6.229566   2.896291
    25  H    2.670930   2.220976   4.362944   6.061028   5.905412
    26  H    2.655268   2.944075   4.501111   7.012942   6.053669
    27  H    2.154871   4.082132   4.749327   6.616601   6.997551
    28  H    2.091883   4.508660   4.934019   7.541249   7.152952
    29  H    1.013682   4.744783   6.488474   8.146936   8.345367
    30  H    1.012973   5.735234   6.915061   8.974961   9.017550
                   21         22         23         24         25
    21  H    0.000000
    22  H    3.816896   0.000000
    23  H    4.880147   4.186085   0.000000
    24  H    2.810970   4.174021   2.535391   0.000000
    25  H    4.926729   4.677897   7.954626   7.094350   0.000000
    26  H    5.109465   3.829985   6.966252   6.652904   1.755972
    27  H    6.577603   5.159988   9.142154   8.572213   2.531774
    28  H    6.718193   4.451420   8.304928   8.216848   3.049280
    29  H    7.453034   6.557075  10.029324   9.494173   2.532478
    30  H    8.316733   6.656954  10.288550  10.089726   3.628955
                   26         27         28         29         30
    26  H    0.000000
    27  H    3.045692   0.000000
    28  H    2.447963   1.761181   0.000000
    29  H    3.082488   2.408471   2.932854   0.000000
    30  H    3.558110   2.480832   2.353768   1.616741   0.000000
 Symmetry turned off by external request.
 Stoichiometry    C9H14N4O3
 Framework group  C1[X(C9H14N4O3)]
 Deg. of freedom    84
 Full point group                 C1      NOp   1
 Rotational constants (GHZ):      0.5777314      0.3337382      0.2304002
 Standard basis: 6-31+G(d,p) (6D, 7F)
   374 basis functions,   610 primitive gaussians,   374 cartesian basis functions
    60 alpha electrons       60 beta electrons
       nuclear repulsion energy      1109.2545423011 Hartrees.
 NAtoms=   30 NActive=   30 NUniq=   30 SFac= 1.00D+00 NAtFMM=   60 NAOKFM=F Big=F
 Integral buffers will be    131072 words long.
 Raffenetti 2 integral format.
 Two-electron integral symmetry is turned off.
 Nuclear repulsion after empirical dispersion term =     1109.2013106689 Hartrees.
 One-electron integrals computed using PRISM.
 NBasis=   374 RedAO= T EigKep=  2.36D-06  NBF=   374
 NBsUse=   374 1.00D-06 EigRej= -1.00D+00 NBFU=   374
 ExpMin= 4.38D-02 ExpMax= 5.48D+03 ExpMxC= 8.25D+02 IAcc=3 IRadAn=         5 AccDes= 0.00D+00
 Harris functional with IExCor=  402 and IRadAn=       5 diagonalized for initial guess.
 HarFok:  IExCor=  402 AccDes= 0.00D+00 IRadAn=         5 IDoV= 1 UseB2=F ITyADJ=14
 ICtDFT=  3500011 ScaDFX=  1.000000  1.000000  1.000000  1.000000
 FoFCou: FMM=F IPFlag=           0 FMFlag=      100000 FMFlg1=           0
         NFxFlg=           0 DoJE=T BraDBF=F KetDBF=T FulRan=T
         wScrn=  0.000000 ICntrl=     500 IOpCl=  0 I1Cent=   200000004 NGrid=           0
         NMat0=    1 NMatS0=      1 NMatT0=    0 NMatD0=    1 NMtDS0=    0 NMtDT0=    0
 Symmetry not used in FoFCou.
 Requested convergence on RMS density matrix=1.00D-08 within 128 cycles.
 Requested convergence on MAX density matrix=1.00D-06.
 Requested convergence on             energy=1.00D-06.
 No special actions if energy rises.
 SCF Done:  E(RB3LYP) =  -796.197922377     A.U. after   15 cycles
            NFock= 15  Conv=0.69D-08     -V/T= 2.0090
 DoSCS=F DFT=T ScalE2(SS,OS)=  1.000000  1.000000
 Range of M.O.s used for correlation:     1   374
 NBasis=   374 NAE=    60 NBE=    60 NFC=     0 NFV=     0
 NROrb=    374 NOA=    60 NOB=    60 NVA=   314 NVB=   314

 **** Warning!!: The largest alpha MO coefficient is  0.14358240D+03

 Symmetrizing basis deriv contribution to polar:
 IMax=3 JMax=2 DiffMx= 0.00D+00
 G2DrvN: will do    31 centers at a time, making    1 passes.
 Calling FoFCou, ICntrl=  3107 FMM=F I1Cent=   0 AccDes= 0.00D+00.
 End of G2Drv F.D. properties file   721 does not exist.
 End of G2Drv F.D. properties file   722 does not exist.
 End of G2Drv F.D. properties file   788 does not exist.
          IDoAtm=111111111111111111111111111111
          Differentiating once with respect to nuclear coordinates.
          There are    93 degrees of freedom in the 1st order CPHF.  IDoFFX=6 NUNeed=     0.
     87 vectors produced by pass  0 Test12= 2.03D-14 1.08D-09 XBig12= 2.06D-01 8.98D-02.
 AX will form    87 AO Fock derivatives at one time.
     87 vectors produced by pass  1 Test12= 2.03D-14 1.08D-09 XBig12= 1.96D-02 2.44D-02.
     87 vectors produced by pass  2 Test12= 2.03D-14 1.08D-09 XBig12= 2.03D-04 1.77D-03.
     87 vectors produced by pass  3 Test12= 2.03D-14 1.08D-09 XBig12= 6.48D-07 1.07D-04.
     87 vectors produced by pass  4 Test12= 2.03D-14 1.08D-09 XBig12= 1.22D-09 3.75D-06.
     81 vectors produced by pass  5 Test12= 2.03D-14 1.08D-09 XBig12= 1.44D-12 1.09D-07.
     25 vectors produced by pass  6 Test12= 2.03D-14 1.08D-09 XBig12= 1.95D-15 4.31D-09.
      5 vectors produced by pass  7 Test12= 2.03D-14 1.08D-09 XBig12= 2.06D-16 1.46D-09.
      4 vectors produced by pass  8 Test12= 2.03D-14 1.08D-09 XBig12= 3.34D-16 2.36D-09.
      4 vectors produced by pass  9 Test12= 2.03D-14 1.08D-09 XBig12= 5.86D-15 6.27D-09.
      4 vectors produced by pass 10 Test12= 2.03D-14 1.08D-09 XBig12= 3.33D-15 6.18D-09.
      4 vectors produced by pass 11 Test12= 2.03D-14 1.08D-09 XBig12= 9.61D-15 9.33D-09.
      2 vectors produced by pass 12 Test12= 2.03D-14 1.08D-09 XBig12= 6.92D-16 3.06D-09.
 InvSVY:  IOpt=1 It=  1 EMax= 9.99D-16
 Solved reduced A of dimension   564 with    93 vectors.
 End of Minotr F.D. properties file   721 does not exist.
 End of Minotr F.D. properties file   722 does not exist.
 End of Minotr F.D. properties file   788 does not exist.

 **********************************************************************

            Population analysis using the SCF density.

 **********************************************************************

 Alpha  occ. eigenvalues --  -19.23419 -19.18133 -19.13329 -14.39887 -14.37837
 Alpha  occ. eigenvalues --  -14.32589 -14.31715 -10.35344 -10.30184 -10.26419
 Alpha  occ. eigenvalues --  -10.24236 -10.22841 -10.22663 -10.21393 -10.20017
 Alpha  occ. eigenvalues --  -10.19386  -1.14785  -1.05974  -1.05208  -1.02288
 Alpha  occ. eigenvalues --   -0.94989  -0.89211  -0.87600  -0.82567  -0.77119
 Alpha  occ. eigenvalues --   -0.74980  -0.69377  -0.65840  -0.62141  -0.61674
 Alpha  occ. eigenvalues --   -0.60273  -0.58951  -0.55529  -0.53239  -0.52396
 Alpha  occ. eigenvalues --   -0.51084  -0.49502  -0.49325  -0.48742  -0.46238
 Alpha  occ. eigenvalues --   -0.45788  -0.44843  -0.44235  -0.43057  -0.42494
 Alpha  occ. eigenvalues --   -0.41629  -0.40915  -0.40407  -0.39444  -0.38929
 Alpha  occ. eigenvalues --   -0.36492  -0.35784  -0.35287  -0.31646  -0.28534
 Alpha  occ. eigenvalues --   -0.28150  -0.27093  -0.26741  -0.24849  -0.23024
 Alpha virt. eigenvalues --   -0.02893  -0.01913  -0.00781  -0.00172   0.00272
 Alpha virt. eigenvalues --    0.00874   0.01570   0.02305   0.03159   0.03653
 Alpha virt. eigenvalues --    0.03899   0.04539   0.05408   0.05605   0.06281
 Alpha virt. eigenvalues --    0.06554   0.07017   0.07706   0.07966   0.08391
 Alpha virt. eigenvalues --    0.08792   0.09155   0.10063   0.10877   0.11578
 Alpha virt. eigenvalues --    0.12026   0.12895   0.13264   0.13818   0.14097
 Alpha virt. eigenvalues --    0.14921   0.15591   0.15847   0.16080   0.16291
 Alpha virt. eigenvalues --    0.16938   0.17217   0.17246   0.17676   0.18036
 Alpha virt. eigenvalues --    0.18835   0.19122   0.19368   0.19633   0.20210
 Alpha virt. eigenvalues --    0.20745   0.20848   0.21306   0.21626   0.22127
 Alpha virt. eigenvalues --    0.22512   0.23380   0.24116   0.24167   0.24847
 Alpha virt. eigenvalues --    0.25057   0.25218   0.25412   0.25980   0.26073
 Alpha virt. eigenvalues --    0.26735   0.27056   0.27320   0.27653   0.28327
 Alpha virt. eigenvalues --    0.28780   0.28976   0.29533   0.29984   0.30817
 Alpha virt. eigenvalues --    0.31136   0.31698   0.32403   0.32720   0.33282
 Alpha virt. eigenvalues --    0.33695   0.33944   0.34307   0.34651   0.35631
 Alpha virt. eigenvalues --    0.36342   0.37161   0.37550   0.38393   0.38716
 Alpha virt. eigenvalues --    0.39265   0.40077   0.40579   0.41105   0.42392
 Alpha virt. eigenvalues --    0.44379   0.45310   0.47362   0.49008   0.49950
 Alpha virt. eigenvalues --    0.50713   0.53389   0.55787   0.63771   0.65215
 Alpha virt. eigenvalues --    0.66782   0.67721   0.68757   0.69831   0.70136
 Alpha virt. eigenvalues --    0.71519   0.72014   0.74384   0.74962   0.76212
 Alpha virt. eigenvalues --    0.77624   0.78814   0.79522   0.80329   0.81497
 Alpha virt. eigenvalues --    0.82192   0.84388   0.85594   0.86194   0.87378
 Alpha virt. eigenvalues --    0.88048   0.89201   0.90531   0.91545   0.93205
 Alpha virt. eigenvalues --    0.94082   0.94531   0.95425   0.96707   0.98084
 Alpha virt. eigenvalues --    0.98751   1.00170   1.00778   1.00957   1.02010
 Alpha virt. eigenvalues --    1.02356   1.03713   1.04591   1.06421   1.08034
 Alpha virt. eigenvalues --    1.08312   1.10071   1.11160   1.12282   1.12440
 Alpha virt. eigenvalues --    1.13423   1.14475   1.14920   1.17330   1.18788
 Alpha virt. eigenvalues --    1.19430   1.20654   1.21125   1.23432   1.24944
 Alpha virt. eigenvalues --    1.27316   1.27756   1.29147   1.30074   1.30573
 Alpha virt. eigenvalues --    1.31165   1.31828   1.33125   1.34418   1.35571
 Alpha virt. eigenvalues --    1.36857   1.38749   1.38892   1.39247   1.41094
 Alpha virt. eigenvalues --    1.41979   1.43590   1.44336   1.44549   1.47563
 Alpha virt. eigenvalues --    1.49815   1.51571   1.55441   1.56955   1.58774
 Alpha virt. eigenvalues --    1.59632   1.60726   1.62810   1.64113   1.65196
 Alpha virt. eigenvalues --    1.67519   1.70010   1.70814   1.71366   1.73246
 Alpha virt. eigenvalues --    1.73943   1.75879   1.77840   1.79736   1.80834
 Alpha virt. eigenvalues --    1.81603   1.81947   1.84774   1.85389   1.88431
 Alpha virt. eigenvalues --    1.88877   1.90556   1.93473   1.94212   1.96415
 Alpha virt. eigenvalues --    1.97563   1.98115   2.00325   2.01856   2.03833
 Alpha virt. eigenvalues --    2.04895   2.07054   2.09034   2.09415   2.09958
 Alpha virt. eigenvalues --    2.10404   2.12182   2.12597   2.13478   2.15688
 Alpha virt. eigenvalues --    2.16324   2.19385   2.20177   2.22573   2.24241
 Alpha virt. eigenvalues --    2.24638   2.26784   2.27576   2.28437   2.30168
 Alpha virt. eigenvalues --    2.32058   2.34213   2.35266   2.38192   2.39552
 Alpha virt. eigenvalues --    2.40675   2.42810   2.44468   2.45035   2.46456
 Alpha virt. eigenvalues --    2.47827   2.49175   2.50919   2.52659   2.53107
 Alpha virt. eigenvalues --    2.54368   2.56565   2.58039   2.58839   2.59586
 Alpha virt. eigenvalues --    2.61338   2.63480   2.65240   2.65639   2.66361
 Alpha virt. eigenvalues --    2.67378   2.69048   2.69858   2.71156   2.72565
 Alpha virt. eigenvalues --    2.73651   2.76052   2.77880   2.78908   2.81394
 Alpha virt. eigenvalues --    2.82445   2.85188   2.85986   2.87764   2.90411
 Alpha virt. eigenvalues --    2.90859   2.91358   2.95803   2.96883   2.97446
 Alpha virt. eigenvalues --    3.02344   3.04184   3.05719   3.07133   3.09627
 Alpha virt. eigenvalues --    3.13901   3.18541   3.23371   3.26268   3.32199
 Alpha virt. eigenvalues --    3.34331   3.35338   3.36176   3.37930   3.42533
 Alpha virt. eigenvalues --    3.44247   3.47663   3.52393   3.53839   3.57509
 Alpha virt. eigenvalues --    3.59163   3.60863   3.72254   4.19338   4.24073
 Alpha virt. eigenvalues --    4.26268   4.32289   4.34499   4.36460   4.38904
 Alpha virt. eigenvalues --    4.43742   4.46140   4.52072   4.58045   4.59891
 Alpha virt. eigenvalues --    4.63529   4.69256   4.75308   4.86658
          Condensed to atoms (all electrons):
               1          2          3          4          5          6
     1  O    8.174081   0.527234  -0.190178  -0.045591  -0.013445  -0.000012
     2  C    0.527234   7.493181   0.079762  -0.033987  -0.080040   0.026316
     3  N   -0.190178   0.079762   7.655920  -0.492157   0.179059   0.029053
     4  C   -0.045591  -0.033987  -0.492157  14.401068  -4.934863  -0.207417
     5  C   -0.013445  -0.080040   0.179059  -4.934863   9.157390   0.265811
     6  O   -0.000012   0.026316   0.029053  -0.207417   0.265811   8.286855
     7  O    0.001483   0.028212  -0.005232  -0.068449   0.581184  -0.162302
     8  C    0.026995  -0.219990   0.042885  -5.173674   2.282019  -0.019245
     9  C   -0.023715   0.222366  -0.029460   1.977995  -1.137873  -0.009397
    10  C   -0.062336  -0.237440   0.120137   0.593012  -0.661244  -0.013161
    11  N    0.002496   0.017549  -0.007979  -0.036756   0.004629   0.000330
    12  C   -0.006643   0.001156   0.003255  -0.038015  -0.086042  -0.000426
    13  N   -0.000351   0.003618  -0.001143   0.054001  -0.022778  -0.001173
    14  C    0.022586  -1.810230  -0.323451  -0.337161   0.161916   0.005619
    15  C    0.018902  -0.048797   0.009500  -0.058071   0.022158  -0.000013
    16  N   -0.001914   0.105105  -0.004227   0.007956  -0.002150  -0.000002
    17  H    0.007296  -0.004912   0.275993   0.002834  -0.005271   0.000419
    18  H    0.007930   0.015740  -0.095877   0.562479  -0.111311  -0.000398
    19  H   -0.000060  -0.001284  -0.002778   0.016457   0.035551   0.199467
    20  H    0.000538  -0.009309   0.016432  -0.143529  -0.000776   0.003332
    21  H   -0.000334   0.004768  -0.021546   0.096534  -0.037828  -0.000382
    22  H   -0.008754   0.012557  -0.004314   0.004156   0.027703   0.000080
    23  H    0.000002   0.000095   0.000027  -0.004326  -0.000123   0.000000
    24  H   -0.000004  -0.000274  -0.000203   0.015202   0.000608   0.000004
    25  H    0.006824  -0.091478   0.006528  -0.005719   0.009934  -0.000007
    26  H   -0.001289  -0.025185   0.007193  -0.004064  -0.003147   0.000001
    27  H   -0.001435  -0.024068   0.002196  -0.000544  -0.001803   0.000003
    28  H    0.000411   0.030763   0.000633  -0.001013   0.000711   0.000000
    29  H   -0.000014   0.006679  -0.000290  -0.000682   0.000223   0.000000
    30  H    0.000139  -0.010948   0.000223   0.000069  -0.000019   0.000000
               7          8          9         10         11         12
     1  O    0.001483   0.026995  -0.023715  -0.062336   0.002496  -0.006643
     2  C    0.028212  -0.219990   0.222366  -0.237440   0.017549   0.001156
     3  N   -0.005232   0.042885  -0.029460   0.120137  -0.007979   0.003255
     4  C   -0.068449  -5.173674   1.977995   0.593012  -0.036756  -0.038015
     5  C    0.581184   2.282019  -1.137873  -0.661244   0.004629  -0.086042
     6  O   -0.162302  -0.019245  -0.009397  -0.013161   0.000330  -0.000426
     7  O    8.153856  -0.141200   0.000022   0.005693  -0.000045   0.000137
     8  C   -0.141200  18.283005  -5.901783  -2.139574  -0.165369  -0.126546
     9  C    0.000022  -5.901783  10.630252  -0.612944  -0.184379   0.039244
    10  C    0.005693  -2.139574  -0.612944   8.670423   0.597498  -0.518163
    11  N   -0.000045  -0.165369  -0.184379   0.597498   6.779539   0.425944
    12  C    0.000137  -0.126546   0.039244  -0.518163   0.425944   5.609061
    13  N    0.000081  -0.198898   0.333773  -0.033063  -0.022882   0.094104
    14  C    0.010462  -0.182079  -0.040152  -0.017775  -0.001406  -0.025074
    15  C    0.000852   0.008271  -0.000349  -0.010958  -0.000020  -0.000910
    16  N   -0.000009  -0.000122   0.000164   0.000784   0.000011   0.000059
    17  H    0.002859  -0.093939   0.033737  -0.012211   0.000127   0.000168
    18  H    0.004764  -0.131048   0.039899  -0.003815  -0.000247   0.002741
    19  H    0.005076   0.002742  -0.010902  -0.000754   0.000000  -0.000033
    20  H    0.001562   0.716525  -0.266359   0.005841  -0.001953  -0.009540
    21  H    0.000197   0.334604  -0.063497  -0.010148  -0.000826   0.005317
    22  H   -0.000002   0.136280  -0.125124   0.312013  -0.055207   0.012049
    23  H    0.000000   0.031463   0.035382  -0.059071  -0.059819   0.460439
    24  H    0.000000  -0.025682   0.045414  -0.041390   0.012123  -0.015694
    25  H   -0.000250  -0.004087   0.002060  -0.002841   0.000008   0.000008
    26  H    0.000007   0.001412  -0.001311   0.005597  -0.000062   0.000150
    27  H    0.000010   0.000730  -0.000354   0.000587  -0.000006  -0.000004
    28  H   -0.000004  -0.000376   0.000286  -0.000431   0.000013   0.000018
    29  H   -0.000002  -0.000001   0.000032  -0.000078   0.000000   0.000000
    30  H    0.000000  -0.000014  -0.000015   0.000031   0.000000   0.000000
              13         14         15         16         17         18
     1  O   -0.000351   0.022586   0.018902  -0.001914   0.007296   0.007930
     2  C    0.003618  -1.810230  -0.048797   0.105105  -0.004912   0.015740
     3  N   -0.001143  -0.323451   0.009500  -0.004227   0.275993  -0.095877
     4  C    0.054001  -0.337161  -0.058071   0.007956   0.002834   0.562479
     5  C   -0.022778   0.161916   0.022158  -0.002150  -0.005271  -0.111311
     6  O   -0.001173   0.005619  -0.000013  -0.000002   0.000419  -0.000398
     7  O    0.000081   0.010462   0.000852  -0.000009   0.002859   0.004764
     8  C   -0.198898  -0.182079   0.008271  -0.000122  -0.093939  -0.131048
     9  C    0.333773  -0.040152  -0.000349   0.000164   0.033737   0.039899
    10  C   -0.033063  -0.017775  -0.010958   0.000784  -0.012211  -0.003815
    11  N   -0.022882  -0.001406  -0.000020   0.000011   0.000127  -0.000247
    12  C    0.094104  -0.025074  -0.000910   0.000059   0.000168   0.002741
    13  N    7.017928  -0.001495   0.000453   0.000007  -0.000112   0.000792
    14  C   -0.001495   8.107902   0.059090  -0.159874   0.077280   0.008437
    15  C    0.000453   0.059090   5.218955   0.220321   0.002099  -0.002068
    16  N    0.000007  -0.159874   0.220321   6.892100  -0.000229   0.000019
    17  H   -0.000112   0.077280   0.002099  -0.000229   0.386765   0.004291
    18  H    0.000792   0.008437  -0.002068   0.000019   0.004291   0.483538
    19  H    0.000016  -0.000015   0.000013   0.000000   0.000003  -0.000245
    20  H    0.001341  -0.000165   0.000048   0.000000  -0.000088  -0.003156
    21  H    0.000567  -0.000890  -0.000134   0.000001   0.001731   0.004515
    22  H    0.000895  -0.007428  -0.000657   0.000016   0.000007  -0.000959
    23  H   -0.101654  -0.000046  -0.000001   0.000000   0.000000   0.000000
    24  H    0.289410   0.000070  -0.000006   0.000000   0.000001  -0.000002
    25  H   -0.000012   0.393922   0.003783  -0.010218   0.002882  -0.000027
    26  H    0.000037   0.352454  -0.006746   0.004290  -0.000063  -0.000018
    27  H    0.000000  -0.042479   0.444791  -0.098770   0.000022  -0.000002
    28  H    0.000000  -0.102402   0.458098  -0.052658   0.000002   0.000000
    29  H    0.000000  -0.024100  -0.015833   0.350654   0.000001   0.000000
    30  H    0.000000   0.046723  -0.063389   0.354813   0.000000   0.000000
              19         20         21         22         23         24
     1  O   -0.000060   0.000538  -0.000334  -0.008754   0.000002  -0.000004
     2  C   -0.001284  -0.009309   0.004768   0.012557   0.000095  -0.000274
     3  N   -0.002778   0.016432  -0.021546  -0.004314   0.000027  -0.000203
     4  C    0.016457  -0.143529   0.096534   0.004156  -0.004326   0.015202
     5  C    0.035551  -0.000776  -0.037828   0.027703  -0.000123   0.000608
     6  O    0.199467   0.003332  -0.000382   0.000080   0.000000   0.000004
     7  O    0.005076   0.001562   0.000197  -0.000002   0.000000   0.000000
     8  C    0.002742   0.716525   0.334604   0.136280   0.031463  -0.025682
     9  C   -0.010902  -0.266359  -0.063497  -0.125124   0.035382   0.045414
    10  C   -0.000754   0.005841  -0.010148   0.312013  -0.059071  -0.041390
    11  N    0.000000  -0.001953  -0.000826  -0.055207  -0.059819   0.012123
    12  C   -0.000033  -0.009540   0.005317   0.012049   0.460439  -0.015694
    13  N    0.000016   0.001341   0.000567   0.000895  -0.101654   0.289410
    14  C   -0.000015  -0.000165  -0.000890  -0.007428  -0.000046   0.000070
    15  C    0.000013   0.000048  -0.000134  -0.000657  -0.000001  -0.000006
    16  N    0.000000   0.000000   0.000001   0.000016   0.000000   0.000000
    17  H    0.000003  -0.000088   0.001731   0.000007   0.000000   0.000001
    18  H   -0.000245  -0.003156   0.004515  -0.000959   0.000000  -0.000002
    19  H    0.383709  -0.000140  -0.000066   0.000000   0.000000   0.000000
    20  H   -0.000140   0.544362  -0.040001  -0.000151  -0.000001   0.000578
    21  H   -0.000066  -0.040001   0.567292  -0.000048  -0.000004   0.000887
    22  H    0.000000  -0.000151  -0.000048   0.547378  -0.000036  -0.000070
    23  H    0.000000  -0.000001  -0.000004  -0.000036   0.563903   0.000286
    24  H    0.000000   0.000578   0.000887  -0.000070   0.000286   0.419303
    25  H    0.000000   0.000000   0.000002  -0.000004   0.000000   0.000000
    26  H    0.000000   0.000000  -0.000001  -0.000016   0.000000   0.000000
    27  H    0.000000   0.000000   0.000000   0.000001   0.000000   0.000000
    28  H    0.000000   0.000000   0.000000  -0.000007   0.000000   0.000000
    29  H    0.000000   0.000000   0.000000   0.000000   0.000000   0.000000
    30  H    0.000000   0.000000   0.000000   0.000000   0.000000   0.000000
              25         26         27         28         29         30
     1  O    0.006824  -0.001289  -0.001435   0.000411  -0.000014   0.000139
     2  C   -0.091478  -0.025185  -0.024068   0.030763   0.006679  -0.010948
     3  N    0.006528   0.007193   0.002196   0.000633  -0.000290   0.000223
     4  C   -0.005719  -0.004064  -0.000544  -0.001013  -0.000682   0.000069
     5  C    0.009934  -0.003147  -0.001803   0.000711   0.000223  -0.000019
     6  O   -0.000007   0.000001   0.000003   0.000000   0.000000   0.000000
     7  O   -0.000250   0.000007   0.000010  -0.000004  -0.000002   0.000000
     8  C   -0.004087   0.001412   0.000730  -0.000376  -0.000001  -0.000014
     9  C    0.002060  -0.001311  -0.000354   0.000286   0.000032  -0.000015
    10  C   -0.002841   0.005597   0.000587  -0.000431  -0.000078   0.000031
    11  N    0.000008  -0.000062  -0.000006   0.000013   0.000000   0.000000
    12  C    0.000008   0.000150  -0.000004   0.000018   0.000000   0.000000
    13  N   -0.000012   0.000037   0.000000   0.000000   0.000000   0.000000
    14  C    0.393922   0.352454  -0.042479  -0.102402  -0.024100   0.046723
    15  C    0.003783  -0.006746   0.444791   0.458098  -0.015833  -0.063389
    16  N   -0.010218   0.004290  -0.098770  -0.052658   0.350654   0.354813
    17  H    0.002882  -0.000063   0.000022   0.000002   0.000001   0.000000
    18  H   -0.000027  -0.000018  -0.000002   0.000000   0.000000   0.000000
    19  H    0.000000   0.000000   0.000000   0.000000   0.000000   0.000000
    20  H    0.000000   0.000000   0.000000   0.000000   0.000000   0.000000
    21  H    0.000002  -0.000001   0.000000   0.000000   0.000000   0.000000
    22  H   -0.000004  -0.000016   0.000001  -0.000007   0.000000   0.000000
    23  H    0.000000   0.000000   0.000000   0.000000   0.000000   0.000000
    24  H    0.000000   0.000000   0.000000   0.000000   0.000000   0.000000
    25  H    0.588031  -0.030015  -0.006534   0.004923   0.004719  -0.000024
    26  H   -0.030015   0.504545   0.004893  -0.006124  -0.000413  -0.000044
    27  H   -0.006534   0.004893   0.634872  -0.038612  -0.005320  -0.000620
    28  H    0.004923  -0.006124  -0.038612   0.538376   0.005651  -0.005085
    29  H    0.004719  -0.000413  -0.005320   0.005651   0.448741  -0.041751
    30  H   -0.000024  -0.000044  -0.000620  -0.005085  -0.041751   0.432504
 Mulliken charges:
               1
     1  O   -0.440842
     2  C    0.022843
     3  N   -0.249958
     4  C   -0.145744
     5  C    0.369817
     6  O   -0.403353
     7  O   -0.418964
     8  C   -1.343305
     9  C    1.046989
    10  C    0.125782
    11  N   -0.303311
    12  C    0.173238
    13  N   -0.413462
    14  C   -0.170238
    15  C   -0.259380
    16  N   -0.606128
    17  H    0.318307
    18  H    0.214029
    19  H    0.373242
    20  H    0.184610
    21  H    0.159290
    22  H    0.149639
    23  H    0.133483
    24  H    0.299439
    25  H    0.127593
    26  H    0.197919
    27  H    0.132445
    28  H    0.166826
    29  H    0.271783
    30  H    0.287406
 Sum of Mulliken charges =   0.00000
 Mulliken charges with hydrogens summed into heavy atoms:
               1
     1  O   -0.440842
     2  C    0.022843
     3  N    0.068349
     4  C    0.068285
     5  C    0.369817
     6  O   -0.030111
     7  O   -0.418964
     8  C   -0.999404
     9  C    1.046989
    10  C    0.275421
    11  N   -0.303311
    12  C    0.306721
    13  N   -0.114023
    14  C    0.155275
    15  C    0.039891
    16  N   -0.046938
 APT charges:
               1
     1  O   -0.402608
     2  C    0.126015
     3  N   -0.397545
     4  C   -0.357245
     5  C   -0.266317
     6  O   -0.789345
     7  O   -0.134588
     8  C   -1.695977
     9  C    0.542097
    10  C    0.115272
    11  N   -0.673704
    12  C   -0.379956
    13  N   -0.776529
    14  C   -0.688074
    15  C   -0.574573
    16  N   -1.914394
    17  H    0.575621
    18  H    0.367207
    19  H    1.087429
    20  H    0.604720
    21  H    0.409167
    22  H    0.083589
    23  H    1.086968
    24  H    0.912894
    25  H    0.357843
    26  H    0.382187
    27  H    0.389155
    28  H    0.339485
    29  H    0.592427
    30  H    1.078779
 Sum of APT charges =   0.00000
 APT charges with hydrogens summed into heavy atoms:
               1
     1  O   -0.402608
     2  C    0.126015
     3  N    0.178076
     4  C    0.009962
     5  C   -0.266317
     6  O    0.298084
     7  O   -0.134588
     8  C   -0.682091
     9  C    0.542097
    10  C    0.198860
    11  N   -0.673704
    12  C    0.707013
    13  N    0.136365
    14  C    0.051956
    15  C    0.154067
    16  N   -0.243187
 Electronic spatial extent (au):  <R**2>=           4716.9573
 Charge=              0.0000 electrons
 Dipole moment (field-independent basis, Debye):
    X=             -1.6030    Y=             -5.6082    Z=             -2.2821  Tot=              6.2633
 Quadrupole moment (field-independent basis, Debye-Ang):
   XX=            -74.6318   YY=           -105.8355   ZZ=            -92.9576
   XY=              7.1609   XZ=             13.2583   YZ=             -3.4256
 Traceless Quadrupole moment (field-independent basis, Debye-Ang):
   XX=             16.5098   YY=            -14.6939   ZZ=             -1.8159
   XY=              7.1609   XZ=             13.2583   YZ=             -3.4256
 Octapole moment (field-independent basis, Debye-Ang**2):
  XXX=             75.5076  YYY=            -64.0802  ZZZ=            -18.6253  XYY=             18.7918
  XXY=            -26.8989  XXZ=            -18.7991  XZZ=              5.7385  YZZ=             -8.7817
  YYZ=             23.2921  XYZ=             23.3423
 Hexadecapole moment (field-independent basis, Debye-Ang**3):
 XXXX=          -3126.1404 YYYY=          -1932.6730 ZZZZ=           -581.5374 XXXY=            -46.2100
 XXXZ=             48.3277 YYYX=            258.1481 YYYZ=             97.8250 ZZZX=           -289.1172
 ZZZY=            185.1072 XXYY=           -948.7867 XXZZ=           -605.8183 YYZZ=           -364.3958
 XXYZ=             76.1418 YYXZ=           -104.1621 ZZXY=              0.3371
 N-N= 1.109201310669D+03 E-N=-4.074230074411D+03  KE= 7.890906545394D+02
  Exact polarizability:   0.000   0.000   0.000   0.000   0.000   0.000
 Approx polarizability: 197.758   0.103 216.031  10.438  14.749 189.680
 Calling FoFJK, ICntrl=    100147 FMM=F ISym2X=0 I1Cent= 0 IOpClX= 0 NMat=1 NMatS=1 NMatT=0.
 -------------------------------------------------------------------
 Center     Atomic                   Forces (Hartrees/Bohr)
 Number     Number              X              Y              Z
 -------------------------------------------------------------------
      1        8          -0.000989440    0.000171301    0.003909316
      2        6           0.004083883    0.004757170   -0.001652970
      3        7          -0.004247184   -0.004758509    0.000643255
      4        6           0.000817630    0.002186294   -0.004045867
      5        6          -0.009730207    0.009081873    0.006547257
      6        8          -0.000737636    0.003480273    0.000095187
      7        8           0.011475610   -0.009766101   -0.006500110
      8        6          -0.006788416    0.008471216   -0.000619830
      9        6           0.000978121   -0.009001248   -0.000540694
     10        6           0.007666632    0.005723539    0.006688617
     11        7           0.003357484    0.001082685    0.002977137
     12        6          -0.003243225    0.008480205   -0.001944014
     13        7          -0.001928975   -0.010306473   -0.003086217
     14        6          -0.002066676    0.000088195    0.000860064
     15        6          -0.000325478    0.001674083   -0.000299889
     16        7          -0.000069518    0.000516508    0.001343764
     17        1           0.001634794   -0.001179963   -0.001849407
     18        1           0.000516268    0.000877385    0.002404384
     19        1          -0.001417259   -0.008253719    0.002615252
     20        1          -0.001588062   -0.002789777    0.001997690
     21        1           0.002747158   -0.003130958   -0.003799032
     22        1          -0.000449905    0.003358970    0.000745180
     23        1          -0.002278395    0.002047862   -0.001750064
     24        1          -0.002426883   -0.000975612   -0.002082643
     25        1           0.001294159   -0.002347250   -0.002076827
     26        1          -0.000245401    0.001613369   -0.002308578
     27        1          -0.000123727   -0.001394034    0.002455563
     28        1           0.000398087    0.000271417    0.000822158
     29        1           0.001430625   -0.002896645   -0.003011187
     30        1           0.002255936    0.002917945    0.001462504
 -------------------------------------------------------------------
 Cartesian Forces:  Max     0.011475610 RMS     0.003991328
 FormGI is forming the generalized inverse of G from B-inverse, IUseBI=4.

 GradGradGradGradGradGradGradGradGradGradGradGradGradGradGradGradGradGrad
 Berny optimization.
 Internal  Forces:  Max     0.016409781 RMS     0.002821394
 Search for a local minimum.
 Step number   1 out of a maximum of  160
 All quantities printed in internal units (Hartrees-Bohrs-Radians)
 Mixed Optimization -- RFO/linear search
 Second derivative matrix not updated -- analytic derivatives used.
 ITU=  0
     Eigenvalues ---   -0.00024   0.00083   0.00186   0.00222   0.00258
     Eigenvalues ---    0.00358   0.00466   0.00526   0.00720   0.00887
     Eigenvalues ---    0.01594   0.02063   0.02076   0.02697   0.03334
     Eigenvalues ---    0.03433   0.03958   0.04114   0.04208   0.04397
     Eigenvalues ---    0.04506   0.04591   0.05099   0.05150   0.05298
     Eigenvalues ---    0.05492   0.05769   0.06168   0.07706   0.08177
     Eigenvalues ---    0.08290   0.10413   0.10793   0.11289   0.11772
     Eigenvalues ---    0.12018   0.12357   0.13584   0.15094   0.15388
     Eigenvalues ---    0.15765   0.16675   0.17982   0.18315   0.18613
     Eigenvalues ---    0.20371   0.21463   0.22058   0.23506   0.23707
     Eigenvalues ---    0.24469   0.24618   0.25055   0.27073   0.30047
     Eigenvalues ---    0.30511   0.32119   0.33421   0.33684   0.33920
     Eigenvalues ---    0.34183   0.34456   0.34534   0.34822   0.34898
     Eigenvalues ---    0.35512   0.36770   0.37513   0.38040   0.38291
     Eigenvalues ---    0.41107   0.42199   0.43534   0.45755   0.46059
     Eigenvalues ---    0.46215   0.47332   0.47729   0.48997   0.49809
     Eigenvalues ---    0.53825   0.60322   0.82053   0.92609
 RFO step:  Lambda=-3.52532273D-03 EMin=-2.44551953D-04
 Linear search not attempted -- first point.
 Iteration  1 RMS(Cart)=  0.12447587 RMS(Int)=  0.02495322
 Iteration  2 RMS(Cart)=  0.06602300 RMS(Int)=  0.00245897
 Iteration  3 RMS(Cart)=  0.00335727 RMS(Int)=  0.00021541
 Iteration  4 RMS(Cart)=  0.00000643 RMS(Int)=  0.00021537
 Iteration  5 RMS(Cart)=  0.00000000 RMS(Int)=  0.00021537
 Variable       Old X    -DE/DX   Delta X   Delta X   Delta X     New X
                                 (Linear)    (Quad)   (Total)
    R1        2.31812   0.00363   0.00000   0.00471   0.00471   2.32283
    R2        2.57906   0.00743   0.00000   0.01052   0.01052   2.58958
    R3        2.86484   0.00267   0.00000   0.00298   0.00298   2.86782
    R4        2.73253   0.00229   0.00000  -0.00114  -0.00114   2.73139
    R5        1.90597   0.00265   0.00000   0.00389   0.00389   1.90986
    R6        2.86430   0.00580   0.00000   0.01501   0.01501   2.87932
    R7        2.90278   0.00443   0.00000   0.01679   0.01679   2.91957
    R8        2.05876   0.00243   0.00000   0.00731   0.00731   2.06607
    R9        2.54863   0.00476   0.00000   0.00315   0.00315   2.55178
   R10        2.27374   0.01641   0.00000   0.01748   0.01748   2.29123
   R11        1.82376   0.00818   0.00000   0.01393   0.01393   1.83769
   R12        2.83481  -0.00006   0.00000  -0.00744  -0.00744   2.82737
   R13        2.06385   0.00333   0.00000   0.00930   0.00930   2.07315
   R14        2.06272   0.00515   0.00000   0.01488   0.01488   2.07760
   R15        2.57926   0.01295   0.00000   0.02258   0.02257   2.60183
   R16        2.61010   0.00631   0.00000   0.00974   0.00974   2.61984
   R17        2.61332   0.00181   0.00000   0.00067   0.00067   2.61400
   R18        2.04086   0.00030   0.00000   0.00108   0.00108   2.04195
   R19        2.47726   0.00609   0.00000   0.00650   0.00651   2.48377
   R20        2.56725   0.01078   0.00000   0.02324   0.02324   2.59049
   R21        2.03397   0.00353   0.00000   0.00834   0.00834   2.04231
   R22        1.90059   0.00317   0.00000   0.00624   0.00624   1.90684
   R23        2.87419   0.00462   0.00000   0.01713   0.01713   2.89132
   R24        2.06530   0.00331   0.00000   0.00779   0.00779   2.07309
   R25        2.06534   0.00277   0.00000   0.00730   0.00730   2.07264
   R26        2.76896   0.00333   0.00000   0.00091   0.00091   2.76987
   R27        2.07330   0.00273   0.00000   0.01087   0.01087   2.08417
   R28        2.06338   0.00048   0.00000   0.00072   0.00072   2.06410
   R29        1.91558   0.00401   0.00000   0.00632   0.00632   1.92191
   R30        1.91424   0.00351   0.00000   0.00526   0.00526   1.91951
    A1        2.13752  -0.00170   0.00000  -0.00472  -0.00474   2.13278
    A2        2.14281  -0.00050   0.00000  -0.00879  -0.00881   2.13400
    A3        2.00104   0.00223   0.00000   0.01408   0.01407   2.01511
    A4        2.11912   0.00136   0.00000   0.00884   0.00753   2.12665
    A5        2.05303  -0.00137   0.00000   0.00933   0.00789   2.06092
    A6        2.01368   0.00049   0.00000   0.02077   0.01948   2.03315
    A7        1.90692   0.00008   0.00000   0.00322   0.00322   1.91014
    A8        1.96862  -0.00040   0.00000  -0.00311  -0.00312   1.96550
    A9        1.87900  -0.00010   0.00000  -0.00725  -0.00725   1.87175
   A10        1.89743   0.00067   0.00000   0.00705   0.00704   1.90448
   A11        1.90690  -0.00070   0.00000  -0.00898  -0.00901   1.89789
   A12        1.90427   0.00042   0.00000   0.00861   0.00862   1.91289
   A13        1.94570   0.00214   0.00000   0.00614   0.00614   1.95183
   A14        2.18723  -0.00120   0.00000  -0.00610  -0.00610   2.18114
   A15        2.14973  -0.00093   0.00000   0.00000   0.00000   2.14973
   A16        1.84970   0.00579   0.00000   0.02733   0.02733   1.87703
   A17        1.96837   0.00241   0.00000   0.00149   0.00148   1.96985
   A18        1.89393  -0.00116   0.00000  -0.00617  -0.00628   1.88765
   A19        1.91810  -0.00302   0.00000  -0.02903  -0.02908   1.88902
   A20        1.90354   0.00022   0.00000   0.02113   0.02108   1.92462
   A21        1.91643   0.00073   0.00000   0.00898   0.00885   1.92528
   A22        1.86011   0.00072   0.00000   0.00403   0.00369   1.86380
   A23        2.32418   0.00298   0.00000   0.01133   0.01133   2.33551
   A24        2.13396  -0.00365   0.00000  -0.01400  -0.01400   2.11996
   A25        1.82494   0.00067   0.00000   0.00261   0.00260   1.82754
   A26        1.93771  -0.00185   0.00000  -0.00614  -0.00615   1.93156
   A27        2.20286   0.00439   0.00000   0.02735   0.02735   2.23020
   A28        2.14258  -0.00254   0.00000  -0.02117  -0.02117   2.12140
   A29        1.83324   0.00349   0.00000   0.01138   0.01139   1.84463
   A30        1.94874  -0.00112   0.00000  -0.00551  -0.00551   1.94323
   A31        2.19938   0.00043   0.00000   0.00340   0.00339   2.20277
   A32        2.13506   0.00069   0.00000   0.00212   0.00211   2.13718
   A33        1.88015  -0.00119   0.00000  -0.00234  -0.00234   1.87781
   A34        2.19401   0.00160   0.00000   0.00792   0.00792   2.20193
   A35        2.20902  -0.00041   0.00000  -0.00559  -0.00559   2.20344
   A36        1.96585  -0.00069   0.00000  -0.01510  -0.01518   1.95067
   A37        1.91474   0.00080   0.00000   0.02533   0.02539   1.94012
   A38        1.88911  -0.00014   0.00000  -0.01059  -0.01074   1.87838
   A39        1.92621  -0.00003   0.00000   0.00207   0.00213   1.92835
   A40        1.89900   0.00049   0.00000  -0.00224  -0.00244   1.89657
   A41        1.86576  -0.00043   0.00000   0.00076   0.00081   1.86657
   A42        1.90467   0.00153   0.00000   0.01099   0.01098   1.91564
   A43        1.90662  -0.00036   0.00000  -0.00145  -0.00149   1.90512
   A44        1.89545   0.00007   0.00000  -0.00427  -0.00426   1.89119
   A45        1.98457  -0.00008   0.00000   0.00208   0.00205   1.98662
   A46        1.90074  -0.00098   0.00000  -0.00436  -0.00435   1.89639
   A47        1.86982  -0.00021   0.00000  -0.00364  -0.00365   1.86617
   A48        1.91673   0.00193   0.00000   0.02268   0.02233   1.93906
   A49        1.91952   0.00106   0.00000   0.01464   0.01428   1.93381
   A50        1.84707   0.00016   0.00000   0.02167   0.02098   1.86805
    D1       -0.25950   0.00195   0.00000   0.11629   0.11623  -0.14327
    D2       -2.92009   0.00073   0.00000   0.02062   0.02069  -2.89940
    D3        2.94530   0.00146   0.00000   0.10679   0.10672   3.05201
    D4        0.28471   0.00024   0.00000   0.01112   0.01118   0.29589
    D5        0.47831  -0.00021   0.00000   0.29023   0.29032   0.76863
    D6        2.63126  -0.00014   0.00000   0.30091   0.30091   2.93217
    D7       -1.62201  -0.00030   0.00000   0.30965   0.30958  -1.31243
    D8       -2.72670   0.00023   0.00000   0.29992   0.30000  -2.42670
    D9       -0.57374   0.00031   0.00000   0.31060   0.31059  -0.26315
   D10        1.45617   0.00015   0.00000   0.31934   0.31926   1.77543
   D11       -1.91871   0.00019   0.00000  -0.05678  -0.05697  -1.97569
   D12        2.25210  -0.00044   0.00000  -0.06593  -0.06612   2.18598
   D13        0.15031  -0.00066   0.00000  -0.06987  -0.07007   0.08024
   D14        0.75199   0.00090   0.00000   0.03402   0.03421   0.78621
   D15       -1.36038   0.00026   0.00000   0.02486   0.02507  -1.33532
   D16        2.82101   0.00005   0.00000   0.02093   0.02112   2.84213
   D17        2.87587  -0.00021   0.00000  -0.00982  -0.00982   2.86605
   D18       -0.29971  -0.00009   0.00000  -0.00866  -0.00867  -0.30838
   D19       -1.25218  -0.00022   0.00000  -0.00708  -0.00705  -1.25923
   D20        1.85543  -0.00011   0.00000  -0.00592  -0.00590   1.84953
   D21        0.82433   0.00027   0.00000   0.00224   0.00222   0.82655
   D22       -2.35125   0.00039   0.00000   0.00340   0.00338  -2.34787
   D23       -1.15020   0.00010   0.00000   0.00245   0.00241  -1.14779
   D24        3.02208  -0.00094   0.00000  -0.02089  -0.02081   3.00126
   D25        0.99436   0.00052   0.00000  -0.00620  -0.00622   0.98814
   D26        3.01521  -0.00021   0.00000  -0.00453  -0.00456   3.01066
   D27        0.90431  -0.00124   0.00000  -0.02786  -0.02778   0.87653
   D28       -1.12341   0.00021   0.00000  -0.01318  -0.01318  -1.13660
   D29        0.93706   0.00000   0.00000  -0.00281  -0.00287   0.93419
   D30       -1.17385  -0.00103   0.00000  -0.02614  -0.02609  -1.19994
   D31        3.08161   0.00042   0.00000  -0.01146  -0.01150   3.07011
   D32        3.11416  -0.00001   0.00000  -0.00126  -0.00126   3.11291
   D33        0.00570  -0.00011   0.00000  -0.00224  -0.00225   0.00346
   D34       -0.06843  -0.00118   0.00000  -0.08770  -0.08776  -0.15619
   D35        3.09122  -0.00106   0.00000  -0.08243  -0.08249   3.00873
   D36        2.03699  -0.00092   0.00000  -0.07990  -0.07994   1.95706
   D37       -1.08655  -0.00080   0.00000  -0.07463  -0.07466  -1.16121
   D38       -2.21392   0.00049   0.00000  -0.05784  -0.05775  -2.27167
   D39        0.94573   0.00061   0.00000  -0.05258  -0.05247   0.89325
   D40       -3.12642   0.00018   0.00000   0.00610   0.00615  -3.12027
   D41        0.02484  -0.00026   0.00000   0.00230   0.00229   0.02713
   D42       -0.00060   0.00004   0.00000   0.00135   0.00135   0.00075
   D43       -3.13253  -0.00041   0.00000  -0.00246  -0.00251  -3.13504
   D44        3.12876  -0.00008   0.00000  -0.00562  -0.00559   3.12316
   D45       -0.01001  -0.00002   0.00000  -0.00383  -0.00380  -0.01381
   D46        0.00077  -0.00003   0.00000  -0.00179  -0.00180  -0.00103
   D47       -3.13800   0.00003   0.00000   0.00000   0.00000  -3.13800
   D48        0.00019  -0.00004   0.00000  -0.00038  -0.00036  -0.00017
   D49        3.13251   0.00044   0.00000   0.00359   0.00353   3.13604
   D50        0.00032   0.00002   0.00000  -0.00081  -0.00083  -0.00051
   D51        3.14077  -0.00002   0.00000   0.00021   0.00021   3.14098
   D52       -0.00070   0.00000   0.00000   0.00169   0.00170   0.00100
   D53        3.13803  -0.00005   0.00000  -0.00009  -0.00007   3.13796
   D54       -3.14120   0.00004   0.00000   0.00070   0.00070  -3.14050
   D55       -0.00247  -0.00001   0.00000  -0.00108  -0.00107  -0.00354
   D56       -3.12449   0.00074   0.00000   0.04824   0.04822  -3.07627
   D57        0.97919   0.00006   0.00000   0.03927   0.03925   1.01843
   D58       -1.05467   0.00048   0.00000   0.04680   0.04677  -1.00790
   D59        1.01214   0.00021   0.00000   0.02462   0.02462   1.03676
   D60       -1.16737  -0.00047   0.00000   0.01565   0.01565  -1.15172
   D61        3.08196  -0.00006   0.00000   0.02318   0.02318   3.10514
   D62       -1.02987   0.00046   0.00000   0.02384   0.02387  -1.00600
   D63        3.07381  -0.00022   0.00000   0.01487   0.01490   3.08871
   D64        1.03995   0.00019   0.00000   0.02241   0.02242   1.06238
   D65       -1.22649   0.00084   0.00000   0.00601   0.00618  -1.22031
   D66        3.03078  -0.00109   0.00000  -0.04190  -0.04210   2.98868
   D67        0.90677   0.00145   0.00000   0.01367   0.01386   0.92063
   D68       -1.11915  -0.00048   0.00000  -0.03424  -0.03441  -1.15356
   D69        2.99019   0.00044   0.00000   0.00735   0.00753   2.99772
   D70        0.96427  -0.00149   0.00000  -0.04057  -0.04075   0.92353
         Item               Value     Threshold  Converged?
 Maximum Force            0.016410     0.000450     NO 
 RMS     Force            0.002821     0.000300     NO 
 Maximum Displacement     0.678396     0.001800     NO 
 RMS     Displacement     0.170190     0.001200     NO 
 Predicted change in Energy=-2.093397D-03
 GradGradGradGradGradGradGradGradGradGradGradGradGradGradGradGradGradGrad

                          Input orientation:                          
 ---------------------------------------------------------------------
 Center     Atomic      Atomic             Coordinates (Angstroms)
 Number     Number       Type             X           Y           Z
 ---------------------------------------------------------------------
      1          8           0        0.754939    0.767631    1.567502
      2          6           0        1.112701    0.220923    0.526337
      3          7           0        0.309532   -0.660425   -0.148935
      4          6           0       -0.936519   -1.136960    0.407330
      5          6           0       -0.823781   -2.627908    0.700467
      6          8           0       -1.807612   -3.054096    1.521366
      7          8           0        0.017699   -3.366060    0.234513
      8          6           0       -2.137960   -0.895677   -0.533550
      9          6           0       -2.436427    0.556582   -0.734593
     10          6           0       -1.976497    1.714318   -0.148276
     11          7           0       -2.605937    2.819992   -0.691155
     12          6           0       -3.436541    2.348476   -1.594091
     13          7           0       -3.374455    0.980793   -1.663112
     14          6           0        2.442354    0.531047   -0.136168
     15          6           0        3.581959    0.597562    0.882577
     16          7           0        4.825267    0.986187    0.210576
     17          1           0        0.730216   -1.232523   -0.868069
     18          1           0       -1.095540   -0.604843    1.349085
     19          1           0       -1.692111   -4.011745    1.644864
     20          1           0       -3.011153   -1.408299   -0.111287
     21          1           0       -1.922118   -1.377943   -1.497683
     22          1           0       -1.228829    1.812644    0.625622
     23          1           0       -4.097752    2.931265   -2.219524
     24          1           0       -3.916061    0.389098   -2.275283
     25          1           0        2.672555   -0.198249   -0.922689
     26          1           0        2.350153    1.509014   -0.624064
     27          1           0        3.646423   -0.365131    1.416844
     28          1           0        3.334411    1.358087    1.626478
     29          1           0        5.163293    0.241084   -0.393500
     30          1           0        5.557813    1.175066    0.888416
 ---------------------------------------------------------------------
                    Distance matrix (angstroms):
                    1          2          3          4          5
     1  O    0.000000
     2  C    1.229190   0.000000
     3  N    2.276815   1.370346   0.000000
     4  C    2.799016   2.461160   1.445392   0.000000
     5  C    3.843668   3.449075   2.424225   1.523668   0.000000
     6  O    4.601563   4.499339   3.605809   2.382287   1.350346
     7  O    4.405426   3.761733   2.748210   2.430902   1.212464
     8  C    3.943332   3.596797   2.488672   1.544970   2.500097
     9  C    3.940685   3.781391   3.060129   2.534126   3.847207
    10  C    3.361674   3.496923   3.296261   3.085456   4.572094
    11  N    4.539737   4.697416   4.572447   4.432955   5.898500
    12  C    5.482996   5.451449   5.017472   4.733293   6.070907
    13  N    5.247304   5.050312   4.307910   3.836032   5.011503
    14  C    2.409530   1.517586   2.443092   3.807153   4.620237
    15  C    2.913776   2.523093   3.654494   4.863236   5.463274
    16  N    4.296113   3.803745   4.820004   6.143666   6.724091
    17  H    3.151703   2.050163   1.010656   2.100900   2.611956
    18  H    2.314231   2.497025   2.054600   1.093315   2.141809
    19  H    5.369960   5.199380   4.296002   3.219752   1.887032
    20  H    4.662237   4.479632   3.404068   2.155620   2.632677
    21  H    4.600595   3.982858   2.704481   2.158368   2.756922
    22  H    2.431979   2.833054   3.013729   2.972080   4.459615
    23  H    6.524684   6.483404   6.050763   5.783097   7.081641
    24  H    6.060406   5.758975   4.845460   4.289864   5.245913
    25  H    3.288044   2.169915   2.529067   3.959235   4.556560
    26  H    2.810218   2.124592   3.016015   4.343635   5.379810
    27  H    3.109104   2.748856   3.697797   4.755859   5.061232
    28  H    2.646846   2.727535   4.046773   5.094352   5.834056
    29  H    4.853490   4.153770   4.942825   6.304604   6.728516
    30  H    4.867727   4.560758   5.655933   6.910373   7.431196
                    6          7          8          9         10
     6  O    0.000000
     7  O    2.255010   0.000000
     8  C    2.998430   3.367428   0.000000
     9  C    4.303691   4.727475   1.496181   0.000000
    10  C    5.055096   5.471159   2.643214   1.376828   0.000000
    11  N    6.327518   6.782887   3.748338   2.270164   1.383267
    12  C    6.445717   6.923257   3.651793   2.224826   2.150411
    13  N    5.373660   5.831193   2.515148   1.386362   2.187938
    14  C    5.801972   4.604759   4.813805   4.915411   4.574551
    15  C    6.541416   5.369752   6.078869   6.232005   5.762484
    16  N    7.876365   6.485008   7.251321   7.335536   6.850032
    17  H    3.932951   2.505065   2.907198   3.639552   4.065497
    18  H    2.556475   3.178976   2.171528   2.736531   2.897703
    19  H    0.972463   2.308560   3.828074   5.204367   6.006998
    20  H    2.612032   3.623030   1.097066   2.139995   3.289776
    21  H    3.455034   3.273530   1.099419   2.142243   3.374305
    22  H    4.982219   5.340952   3.083050   2.210468   1.080553
    23  H    7.420482   7.912998   4.618310   3.256400   3.204802
    24  H    5.542173   5.989553   2.801058   2.142683   3.168955
    25  H    5.848176   4.292133   4.876360   5.167866   5.086385
    26  H    6.535431   5.472097   5.092533   4.881669   4.357571
    27  H    6.081772   4.855010   6.127364   6.517614   6.196042
    28  H    6.776342   5.937652   6.300160   6.286464   5.610917
    29  H    7.944711   6.315301   7.390543   7.613909   7.294323
    30  H    8.516802   7.193211   8.095361   8.180742   7.624391
                   11         12         13         14         15
    11  N    0.000000
    12  C    1.314352   0.000000
    13  N    2.217650   1.370830   0.000000
    14  C    5.570684   6.323764   6.030679   0.000000
    15  C    6.760613   7.645844   7.417485   1.530022   0.000000
    16  N    7.707059   8.565636   8.411074   2.450644   1.465752
    17  H    5.252056   5.541889   4.730665   2.564619   3.813975
    18  H    4.263024   4.781701   4.096465   4.001614   4.852052
    19  H    7.277685   7.347535   6.220805   6.395532   7.045751
    20  H    4.287061   4.061160   2.871917   5.788127   6.962785
    21  H    4.329059   4.023552   2.774938   4.954450   6.313725
    22  H    2.155245   3.176199   3.245611   3.962372   4.968513
    23  H    2.138645   1.080745   2.153392   7.271479   8.605066
    24  H    3.183571   2.129113   1.009055   6.710096   8.138540
    25  H    6.084889   6.652642   6.205216   1.097033   2.172399
    26  H    5.126987   5.927182   5.842070   1.096796   2.148966
    27  H    7.326710   8.160746   7.783981   2.159806   1.102894
    28  H    6.541890   7.562984   7.481486   2.141654   1.092276
    29  H    8.191477   8.935304   8.663268   2.748419   2.063024
    30  H    8.476299   9.404155   9.291579   3.342248   2.058530
                   16         17         18         19         20
    16  N    0.000000
    17  H    4.780751   0.000000
    18  H    6.235666   2.939922   0.000000
    19  H    8.337428   4.461679   3.471363   0.000000
    20  H    8.200404   3.821186   2.539252   3.406151   0.000000
    21  H    7.350813   2.729916   3.063495   4.106753   1.763239
    22  H    6.124326   3.916888   2.526937   5.931019   3.754223
    23  H    9.450343   6.517119   5.852547   8.302168   4.945420
    24  H    9.107514   5.118378   4.698861   6.299279   2.955059
    25  H    2.705798   2.201224   4.418690   6.339195   5.867464
    26  H    2.663861   3.193706   4.498279   7.208794   6.125134
    27  H    2.161206   3.804925   4.748501   6.469137   6.909899
    28  H    2.089435   4.440254   4.853299   7.355363   7.137150
    29  H    1.017029   4.695625   6.551731   8.320940   8.343960
    30  H    1.015759   5.673395   6.902710   8.946319   9.005574
                   21         22         23         24         25
    21  H    0.000000
    22  H    3.894730   0.000000
    23  H    4.880954   4.192481   0.000000
    24  H    2.775410   4.202731   2.549261   0.000000
    25  H    4.778422   4.654219   7.570515   6.751618   0.000000
    26  H    5.229726   3.803028   6.792921   6.576182   1.762914
[...]
 .00251451,-0.01820879,0.00169294,-0.02240277,-0.09983248,-0.19137312,-
 0.14766076,-0.00002329,-0.00000083,-0.00001629,-0.00000101,0.00000024,
 0.00000165,-0.00000161,-0.00001155,0.00000448,0.00002092,0.00001401,0.
 00002454,-0.00014560,0.00010606,-0.00010831,0.00001740,-0.00001110,0.0
 0003978,-0.00002222,-0.00022353,0.00033769,0.00048196,-0.00047581,-0.0
 0043303,0.00004870,0.00105003,0.00010393,0.00051455,-0.00007025,0.0007
 0844,0.10935799,0.18507128,0.00002691,0.00015425,0.00006879,-0.0001648
 4,-0.00028976,-0.00020350,0.00038630,0.00017710,0.00007753,-0.00030327
 ,-0.00018190,-0.00003296,-0.00009954,0.00036818,0.00016318,0.00007363,
 -0.00006861,0.00000609,0.00012411,-0.00020900,-0.00011903,0.00101298,-
 0.00016516,0.00061041,0.00021875,-0.01571471,-0.00884884,-0.00398051,0
 .00131970,-0.00247217,-0.00221932,0.00163257,0.00384548,0.00653498,0.0
 0136170,-0.00006545,-0.16157738,-0.14687565,-0.22684031,0.00002214,0.0
 0004638,0.00001347,-0.00003059,-0.00001275,-0.00001737,0.00003150,0.00
 002011,-0.00001723,0.00000793,-0.00000112,0.00004079,0.00003303,-0.000
 04328,0.00002594,-0.00000933,0.00002101,-0.00002133,-0.00001118,0.0005
 8594,-0.00041766,-0.00020090,0.00022814,0.00003133,-0.00084159,-0.0008
 7107,0.00072419,0.00043968,-0.00001857,-0.00051035,0.16050233,0.158545
 75,0.23394321,-0.00573530,-0.00288790,0.00512326,-0.00231568,0.0263880
 2,0.01514122,-0.00020665,-0.00120090,-0.00089119,0.00044463,-0.0002613
 8,-0.00041291,-0.00023250,0.00017517,0.00019040,0.00008469,-0.00002485
 ,-0.00009287,0.00016341,-0.00009946,-0.00009360,0.00006631,0.00004108,
 -0.00002339,0.00004104,0.00005184,0.00004362,0.00004167,0.00002330,0.0
 0009183,-0.00003170,-0.00002878,-0.00003285,-0.00001403,0.00001377,-0.
 00002261,-0.00004546,-0.00002563,-0.00009434,-0.06871479,0.04886552,0.
 03930223,0.00632373,-0.02057509,-0.01594805,0.00226195,0.00045876,0.00
 006839,-0.00199231,-0.00118432,0.00028956,0.00037606,0.00028346,0.0001
 1501,-0.00001119,-0.00000257,0.00001621,0.00002566,-0.00002125,0.00001
 335,-0.00003223,-0.00002014,-0.00003096,0.00008432,-0.00006107,0.00001
 207,-0.00000783,-0.00000316,-0.00000624,-0.00001198,0.00001043,0.00000
 608,0.07429200,-0.00139143,0.00106879,0.00191093,-0.00408702,0.0036710
 3,0.00476980,-0.00037920,-0.00006352,0.00073635,0.00037465,0.00059371,
 0.00004643,0.00010142,-0.00010303,-0.00004155,-0.00001382,0.00003750,0
 .00000580,-0.00001894,0.00007619,0.00004756,0.00001334,-0.00000423,-0.
 00006132,-0.00004165,-0.00003191,-0.00003758,-0.00000125,-0.00001171,-
 0.00005604,0.00004198,0.00003719,0.00001498,-0.00000978,-0.00002902,-0
 .00001532,0.00003832,0.00003486,0.00009373,0.05235799,-0.19185609,-0.1
 1640723,0.00180969,-0.00499976,-0.00368220,-0.00003622,0.00062936,0.00
 076875,-0.00041244,0.00061501,0.00028156,-0.00007310,0.00004648,0.0001
 4962,-0.00000109,-0.00000408,-0.00000933,0.00001956,0.00000958,0.00001
 016,0.00001469,0.00002264,0.00001924,-0.00005203,-0.00001032,0.0000341
 7,0.00000622,-0.00000064,0.00000293,0.00001336,-0.00000561,-0.00001307
 ,-0.05279769,0.20729428,0.00454730,0.00104982,-0.00083100,0.00085502,-
 0.01314842,-0.01199147,-0.00147699,0.00024053,0.00063917,0.00006009,0.
 00066388,-0.00007323,0.00038537,-0.00020860,-0.00022933,-0.00014039,0.
 00000894,0.00013386,-0.00027430,0.00012621,0.00006252,-0.00009819,-0.0
 0001983,0.00007901,-0.00002097,-0.00003912,-0.00000247,-0.00003001,-0.
 00002410,-0.00004046,0.00000704,0.00002040,0.00002432,0.00000387,0.000
 00445,0.00000328,0.00002582,0.00002074,0.00003076,0.04079305,-0.114509
 36,-0.13778520,0.00630190,-0.01762287,-0.01384815,0.00071047,0.0012922
 0,0.00107994,0.00058479,0.00021302,0.00113103,-0.00019883,-0.00009282,
 0.00004011,0.00002576,0.00001464,-0.00001651,-0.00002476,0.00001161,-0
 .00002974,0.00002426,-0.00000003,0.00001751,-0.00003353,0.00003662,-0.
 00003939,0.00000205,0.00000298,0.00000333,0.00000303,-0.00000775,0.000
 00474,-0.04332553,0.12872902,0.15120117,-0.00201061,0.00270418,-0.0012
 5344,0.00552800,-0.02645137,0.01747874,-0.00247301,0.00074009,-0.00054
 437,-0.00065135,0.00090845,-0.00117613,0.00019928,0.00026716,-0.000162
 78,-0.00004035,-0.00003549,0.00004403,0.00000702,-0.00014168,0.0000114
 4,-0.00032969,-0.00030544,0.00039462,0.00003443,-0.00019884,-0.0000919
 8,0.00015727,0.00003712,0.00000130,-0.00000442,0.00012663,-0.00009933,
 -0.00004909,0.00003876,-0.00004690,0.00003717,0.00005236,0.00006481,-0
 .04842099,0.02720568,-0.01560402,-0.00500938,0.02064084,-0.01629424,0.
 00208419,0.00036995,0.00122545,0.00000466,-0.00044036,0.00057416,0.000
 05677,0.00007177,0.00001950,0.00000628,0.00001266,-0.00001580,-0.00018
 179,0.00007217,-0.00011387,0.00001261,0.00000822,0.00000606,0.00000151
 ,-0.00008366,0.00012194,-0.00000573,0.00000528,0.00000332,-0.00001177,
 -0.00001929,0.00001495,-0.00130875,0.00747393,-0.00512297,0.05452962,0
 .00045792,0.00008875,-0.00114346,-0.00076811,-0.00602906,0.00336162,-0
 .00113068,0.00068780,0.00011153,-0.00044642,0.00024265,-0.00036204,0.0
 0017942,-0.00002198,-0.00010257,-0.00005456,0.00000801,0.00004781,-0.0
 0009778,0.00003333,0.00001076,-0.00009818,-0.00004710,0.00017070,-0.00
 001232,-0.00008586,-0.00001079,0.00001591,0.00002725,0.00001811,-0.000
 01258,0.00000983,-0.00001671,-0.00000478,0.00002394,0.00000587,0.00001
 762,0.00001412,-0.00003762,0.03190179,-0.22001211,0.12052572,-0.001470
 86,0.00535732,-0.00361552,0.00037908,0.00023203,-0.00072528,0.00042058
 ,-0.00040377,0.00067442,-0.00001434,-0.00000888,-0.00000167,0.00001283
 ,0.00000696,-0.00000214,-0.00003081,0.00002472,-0.00003724,-0.00000502
 ,-0.00001395,-0.00000508,-0.00006875,0.00002149,-0.00001648,-0.0000042
 8,0.00000358,0.00000368,-0.00001967,-0.00000841,0.00001105,0.00298191,
 -0.01921965,0.01320663,-0.03112596,0.23703643,0.00198296,-0.00204126,0
 .00089489,-0.00207409,0.01265414,-0.00969961,-0.00009006,-0.00061972,-
 0.00009217,0.00033302,0.00006712,0.00009391,-0.00000608,-0.00002510,0.
 00000550,-0.00003729,-0.00004525,0.00004292,-0.00004700,0.00000461,0.0
 0002141,-0.00000877,0.00003296,-0.00005233,0.00004491,0.00004253,0.000
 02398,-0.00003120,-0.00002768,0.00000798,-0.00001377,-0.00003978,0.000
 01876,0.00001569,0.00001204,0.00002915,-0.00002642,-0.00003754,-0.0000
 5875,-0.01902176,0.12086711,-0.12770821,-0.00583926,0.01904271,-0.0162
 0621,0.00192926,-0.00060303,0.00193555,0.00014652,-0.00014588,0.000226
 56,-0.00005448,-0.00005258,-0.00002236,-0.00000386,0.00000095,-0.00000
 226,0.00000513,-0.00002361,0.00000302,0.00000394,-0.00001338,0.0000011
 0,0.00003843,0.00006216,-0.00005976,-0.00000557,0.00000097,0.00000038,
 -0.00000411,0.00000162,0.00000620,0.00230607,-0.01676692,0.01172816,0.
 02296410,-0.13120568,0.14069045,-0.00013392,-0.00011912,0.00120689,0.0
 0168618,0.00092718,-0.00234435,-0.00043093,-0.00043959,0.00028718,0.00
 010911,0.00001133,-0.00012009,-0.00007677,0.00013050,-0.00003930,-0.00
 001437,-0.00006597,0.00003852,0.00004673,-0.00008118,0.00003919,-0.000
 04023,-0.00000974,0.00002285,0.00001058,0.00002111,0.00002496,-0.00001
 987,-0.00001515,0.00001054,-0.00001594,-0.00000979,0.00001386,0.000008
 74,-0.00000044,0.00000150,-0.00001492,-0.00000895,-0.00001314,-0.00592
 026,0.01974387,-0.01426081,-0.05633404,0.03316776,-0.02273406,-0.00495
 238,-0.02802718,0.02399909,0.00001885,0.00015338,-0.00003295,-0.000019
 18,0.00001286,0.00000766,-0.00000957,-0.00000510,-0.00000618,-0.000023
 81,0.00000073,-0.00000732,0.00001321,0.00000455,0.00000195,0.00002288,
 0.00000775,-0.00002387,0.00000053,-0.00000051,-0.00000328,0.00001210,0
 .00000289,0.00000109,0.00097267,-0.00056959,0.00062782,-0.00368316,-0.
 00138898,-0.00351231,0.06643921,0.00014062,0.00043773,-0.00111256,-0.0
 0021318,0.00059222,0.00135912,0.00044906,-0.00003129,-0.00022065,0.000
 00068,0.00005010,0.00006272,0.00010103,-0.00010854,0.00003311,-0.00002
 221,0.00003623,-0.00003484,-0.00008175,0.00005945,-0.00003968,0.000033
 87,0.00000166,-0.00000690,-0.00000130,-0.00001283,-0.00000273,0.000000
 88,-0.00000821,0.00000041,0.00001580,0.00002099,-0.00000522,-0.0000151
 5,-0.00000240,-0.00002389,0.00000710,0.00002127,0.00000960,-0.00145591
 ,0.00525021,-0.00497902,0.03554971,-0.20539757,0.10518282,-0.00777423,
 -0.00370286,0.00820039,-0.00002070,-0.00010632,0.00005074,0.00002738,-
 0.00001686,0.00000396,0.00002647,0.00001174,0.00001530,0.00000805,0.00
 000176,0.00000333,-0.00000613,0.00000166,-0.00000500,-0.00000985,-0.00
 002019,0.00000411,-0.00000390,0.00000018,0.00000110,-0.00000433,-0.000
 00284,0.00000669,0.00044799,0.00092015,0.00046029,-0.00163060,0.001035
 78,-0.00123115,-0.02935488,0.21978989,-0.00025385,0.00021199,0.0010454
 0,0.00137361,0.00030721,-0.00165272,-0.00041957,-0.00043356,0.00033233
 ,0.00005585,-0.00006062,-0.00008740,-0.00022836,0.00019593,0.00004749,
 0.00006181,-0.00005091,-0.00001861,0.00017092,-0.00013228,0.00002287,-
 0.00003558,-0.00000854,0.00000458,0.00000774,0.00002302,0.00001475,-0.
 00002046,-0.00000009,-0.00000567,-0.00001059,-0.00002053,0.00001978,0.
 00001267,-0.00000310,0.00001232,-0.00000778,-0.00001282,-0.00000051,-0
 .00775905,0.01763751,-0.01278836,-0.02410137,0.10471138,-0.12801035,0.
 00836716,0.01446049,-0.01050416,-0.00006261,0.00018692,-0.00012225,-0.
 00001653,0.00001599,0.00000602,-0.00003083,-0.00001504,-0.00000291,-0.
 00001420,-0.00000177,-0.00000316,0.00000971,0.00000353,0.00000250,0.00
 000924,0.00000024,-0.00001595,0.00000468,-0.00000117,-0.00000218,0.000
 00928,0.00000574,-0.00000591,0.00104432,0.00015685,0.00054262,-0.00315
 532,-0.00082573,-0.00232970,0.02265472,-0.12222520,0.14143183,-0.00093
 580,0.00088178,0.00103085,0.00057876,-0.00190014,-0.00181226,0.0003436
 5,0.00065290,0.00085383,-0.00013699,0.00011104,0.00021137,0.00006489,-
 0.00010392,-0.00002132,-0.00001311,0.00003285,0.00000810,-0.00005136,0
 .00007014,0.00002300,0.00001620,-0.00000726,-0.00001950,-0.00001459,-0
 .00001771,-0.00001884,-0.00001375,-0.00000203,-0.00005078,0.00002407,0
 .00000735,0.00002079,0.00000234,-0.00000759,0.00000487,0.00002917,0.00
 001572,0.00004751,0.00674615,-0.01968292,-0.01549216,-0.06725525,0.056
 28244,0.04084787,-0.01347960,0.02134231,0.02163797,0.00043236,0.000266
 48,-0.00007549,-0.00011469,-0.00008292,-0.00001332,0.00000112,-0.00000
 250,-0.00000263,0.00000931,0.00000415,0.00000241,0.00000637,0.00000674
 ,0.00000752,-0.00005123,-0.00000031,0.00000554,0.00000415,0.00000085,0
 .00000385,0.00000248,-0.00000359,-0.00000419,-0.00426542,-0.00135369,-
 0.00343543,0.00124657,0.00031075,0.00057427,-0.00026443,0.00493082,0.0
 0260314,0.08149711,0.00098343,0.00109609,0.00190656,0.00111735,-0.0013
 0172,-0.00300884,-0.00002326,0.00039624,0.00055198,-0.00000337,0.00000
 320,0.00002598,0.00010288,-0.00009883,-0.00005165,-0.00004229,0.000003
 93,0.00004501,-0.00009289,0.00007808,0.00001463,0.00000502,0.00000466,
 -0.00000209,-0.00001541,-0.00000337,-0.00000269,-0.00001473,-0.0000066
 6,-0.00002598,-0.00000175,-0.00000183,0.00001807,0.00000805,-0.0000033
 2,0.00001024,0.00000964,0.00000353,0.00001763,0.00016771,-0.00500289,-
 0.00312312,0.05928039,-0.21182200,-0.12031376,-0.00402007,0.01044446,0
 .00829261,0.00008150,0.00014272,0.00006195,-0.00005416,-0.00002866,0.0
 0000641,0.00000763,0.00000126,-0.00000502,0.00000204,0.00000052,-0.000
 00131,0.00000734,0.00000069,0.00000747,-0.00001918,0.00001786,-0.00001
 202,0.00000347,0.00000071,0.00000100,0.00000500,-0.00000183,-0.0000031
 1,-0.00113486,0.00129646,-0.00041018,-0.00033020,0.00104558,0.00035794
 ,0.00655959,-0.02008232,-0.01400723,-0.06079226,0.22193351,0.00079601,
 0.00136130,0.00078307,0.00113897,-0.00061356,-0.00117244,-0.00009191,-
 0.00015829,0.00011716,0.00006023,0.00007443,0.00004168,0.00000755,0.00
 000243,-0.00000483,-0.00001533,-0.00001170,0.00001121,-0.00001232,0.00
 000118,0.00002726,0.00000668,-0.00001909,-0.00000219,-0.00000963,-0.00
 002414,-0.00001491,-0.00000006,-0.00001064,-0.00002209,0.00002713,0.00
 002782,0.00000470,-0.00001430,-0.00000848,-0.00002164,0.00002028,0.000
 02678,0.00004194,0.00321126,-0.01812923,-0.01420627,0.04262931,-0.1143
 3790,-0.13704840,0.00698250,-0.01165475,-0.01126995,0.00011243,0.00017
 243,0.00003168,-0.00004137,-0.00001530,0.00002897,-0.00000179,-0.00000
 125,-0.00000125,-0.00000606,0.00000983,-0.00000224,0.00000447,0.000009
 88,0.00000420,-0.00003091,-0.00001551,0.00001569,0.00000072,0.00000006
 ,0.00000154,0.00000226,-0.00000358,-0.00000012,-0.00319765,-0.00061394
 ,-0.00223889,0.00081666,-0.00002173,0.00057224,-0.00524881,0.01510072,
 0.01174867,-0.04967858,0.12772955,0.15227548,0.00008354,-0.00042898,-0
 .00105135,-0.00074382,-0.00027425,0.00107638,0.00012785,-0.00000927,-0
 .00015361,-0.00008397,-0.00002638,0.00003202,-0.00007920,-0.00002617,0
 .00007696,0.00006164,0.00004556,-0.00006412,0.00006263,0.00000737,-0.0
 0004206,-0.00000157,0.00001018,-0.00000351,0.00000692,0.00000780,-0.00
 000791,0.00000810,0.00000607,0.00000149,0.00000600,-0.00001042,-0.0000
 0736,0.00000227,0.00000151,0.00000769,0.00000041,-0.00000982,-0.000013
 45,0.00096574,0.00167129,0.00121964,-0.01163078,0.02869392,0.01365630,
 -0.12138438,0.11116561,0.08370448,-0.00009522,-0.00006258,-0.00001404,
 0.00001473,-0.00000140,-0.00001465,-0.00000601,-0.00000772,0.00000973,
 0.00001218,-0.00000464,0.00000276,-0.00000572,-0.00000695,-0.00000160,
 -0.00000399,0.00000936,0.00000811,-0.00000236,-0.00000022,0.00000235,-
 0.00001147,0.00000096,0.00000060,-0.00061264,-0.00092319,-0.00084977,-
 0.00012394,0.00000525,0.00005824,0.00156536,-0.00078817,-0.00031607,-0
 .00502795,-0.00264937,0.00262474,0.12526095,-0.00026413,-0.00004579,0.
 00007201,0.00017107,0.00013878,0.00005807,0.00002906,-0.00007760,-0.00
 000994,-0.00002078,-0.00000365,0.00000161,-0.00006620,0.00003931,0.000
 02880,0.00003536,0.00000555,-0.00002000,0.00006047,-0.00002948,-0.0000
 0028,-0.00000346,-0.00000110,-0.00001206,-0.00000212,0.00000676,-0.000
 00267,-0.00000186,0.00000131,-0.00000397,0.00000513,-0.00000302,0.0000
 0910,0.00000116,-0.00000811,0.00000092,0.00000331,0.00000209,0.0000115
 0,0.00052189,0.00071774,0.00060983,-0.00835949,0.00715533,0.01162462,0
 .11281623,-0.27586826,-0.17908910,-0.00003301,0.00002275,-0.00004031,0
 .00000218,0.00000570,-0.00000066,-0.00001202,-0.00000567,-0.00000184,0
 .00000249,-0.00000134,0.00000172,-0.00000023,0.00000161,0.00000176,-0.
 00000412,-0.00000182,0.00000058,0.00000308,-0.00000096,-0.00000020,0.0
 0000162,0.00000205,-0.00000581,0.00046363,-0.00007030,-0.00024092,0.00
 014701,-0.00026977,-0.00011128,-0.00047401,0.00181988,0.00043372,-0.00
 195534,0.00107518,0.00130238,-0.11318946,0.27861666,0.00019057,0.00003
 522,-0.00020138,-0.00007906,-0.00016361,-0.00001245,0.00000869,0.00011
 071,-0.00006317,-0.00002762,-0.00001700,0.00002328,0.00003539,-0.00008
 165,0.00003111,-0.00000033,0.00002911,-0.00002633,-0.00004324,0.000051
 16,-0.00004407,0.00001072,0.00000835,0.00000950,0.00000135,-0.00000755
 ,0.00000091,0.00001107,-0.00000124,0.00000086,0.00000363,0.00000247,-0
 .00001322,-0.00000123,0.00001016,-0.00000150,0.00000257,-0.00000243,-0
 .00001426,-0.00058809,0.00102641,0.00110451,0.00973478,-0.01497636,-0.
 01172739,0.06139031,-0.13245338,-0.10661886,-0.00002801,-0.00007174,0.
 00007866,0.00000992,-0.00000594,-0.00000293,0.00001361,0.00000164,0.00
 001368,0.00000602,-0.00000027,-0.00000067,-0.00000506,-0.00000588,-0.0
 0000426,-0.00000604,0.00000223,0.00000649,-0.00000532,0.00000120,0.000
 00262,-0.00001118,-0.00000219,0.00000868,0.00028053,-0.00042750,0.0003
 2541,-0.00022431,0.00025325,-0.00006984,-0.00130894,-0.00090719,0.0002
 2000,0.00298188,0.00216780,-0.00060254,-0.08404533,0.16652054,0.130749
 60,-0.00002665,0.00027230,0.00071091,-0.00003128,-0.00062365,-0.002783
 79,-0.00095872,-0.00025044,0.00049276,0.00014083,-0.00016561,-0.000168
 42,-0.00005357,0.00016666,-0.00004112,-0.00004151,-0.00010058,0.000059
 00,0.00000617,-0.00008816,0.00001774,-0.00002125,-0.00003483,0.0000407
 7,0.00000214,-0.00002051,0.00001147,-0.00000306,-0.00001105,0.00001110
 ,-0.00000391,0.00002354,0.00000082,-0.00001735,0.00000384,-0.00002846,
 0.00000373,0.00001990,0.00000872,-0.00579255,-0.00149619,0.00553731,-0
 .01933330,-0.00744497,-0.02425902,-0.23180541,-0.10514810,-0.15521130,
 -0.00000209,0.00008132,0.00004027,0.00000915,0.00000999,0.00001118,-0.
 00000291,0.00000158,-0.00000021,-0.00003199,0.00001270,-0.00001543,0.0
 0000306,0.00000779,-0.00000525,0.00001634,-0.00002491,-0.00000983,-0.0
 0000132,0.00000071,-0.00000208,0.00000564,-0.00000162,0.00000566,0.000
 36032,-0.00010302,0.00007401,0.00039863,0.00007101,0.00037351,0.001047
 64,-0.00035720,0.00004732,0.00061948,0.00085275,-0.00009250,0.01163470
 ,0.01012255,0.01169271,0.24387904,0.00018231,-0.00020791,-0.00001399,-
 0.00014459,0.00062412,-0.00006526,0.00030276,0.00009340,-0.00007653,-0
 .00003356,0.00001106,0.00005065,-0.00007067,-0.00000891,0.00005358,0.0
 0005874,0.00003628,-0.00003976,0.00006544,-0.00000410,-0.00001064,-0.0
 0000172,0.00002310,-0.00002401,0.00000381,0.00001959,-0.00000471,0.000
 00012,0.00001416,-0.00001155,-0.00000590,-0.00003528,-0.00000054,0.000
 02046,0.00000644,0.00003408,-0.00000414,-0.00002946,-0.00001614,0.0006
 5047,0.00015319,0.00122252,-0.00825360,-0.00553255,-0.00393154,-0.0745
 6444,-0.07018634,-0.08820742,-0.00003249,-0.00001904,-0.00003923,-0.00
 000603,0.00000245,-0.00000710,-0.00001598,-0.00000557,-0.00000330,0.00
 001751,-0.00001042,0.00000768,-0.00000113,-0.00000872,0.00000144,-0.00
 001024,0.00002446,0.00000490,0.00000285,0.00000058,0.00000164,-0.00000
 570,0.00000367,-0.00000499,0.00012418,0.00005666,0.00022200,-0.0001193
 3,0.00022098,-0.00015702,-0.00017332,-0.00055866,-0.00055196,0.0009958
 6,0.00080875,-0.00017970,-0.02320588,-0.01322382,-0.02109632,0.1042242
 1,0.08773189,-0.00017638,0.00006076,0.00006304,0.00058427,-0.00010680,
 0.00065906,0.00005231,0.00003428,-0.00012237,0.00001252,0.00008106,-0.
 00003926,0.00005001,-0.00000352,-0.00002304,-0.00002156,-0.00000348,0.
 00000809,-0.00002605,0.00000066,0.00000653,-0.00000761,-0.00001006,0.0
 0000591,-0.00000267,-0.00000309,0.00000656,0.00000341,-0.00000538,0.00
 000579,-0.00000090,0.00000998,-0.00000469,-0.00000360,-0.00000167,-0.0
 0000797,-0.00000460,0.00000484,-0.00000126,0.00154791,0.00066754,-0.00
 110928,0.01832266,0.01245851,0.00994174,-0.16873207,-0.12501307,-0.203
 81668,0.00002951,-0.00002107,0.00001225,0.00000712,0.00000590,0.000007
 17,0.00000810,0.00000588,-0.00000021,-0.00000622,0.00000326,-0.0000014
 7,0.00000118,0.00000321,-0.00000062,0.00000556,-0.00000607,0.00000133,
 -0.00000148,-0.00000038,-0.00000100,0.00000330,-0.00000095,0.00000219,
 0.00012805,0.00035415,0.00007889,0.00016438,-0.00027142,-0.00000093,0.
 00071758,0.00029964,0.00009870,-0.00024024,-0.00024782,0.00090230,-0.0
 1589666,-0.00113813,-0.01317246,0.16348218,0.11284322,0.20650170\\0.00
 000022,-0.00000089,-0.00000078,0.00000092,0.00000287,0.00000109,-0.000
 00065,-0.00000186,0.00000021,-0.00000087,-0.00000079,0.00000021,0.0000
 0018,-0.00000018,-0.00000028,-0.00000028,-0.00000020,-0.00000030,-0.00
 000065,0.00000031,0.00000002,-0.00000029,0.,-0.00000016,0.00000003,0.0
 0000033,-0.00000047,-0.00000023,-0.00000007,-0.00000037,0.00000060,0.0
 0000010,0.00000050,0.00000015,-0.00000065,-0.00000037,0.00000038,0.000
 00149,0.00000020,0.00000035,-0.00000009,0.00000045,-0.00000024,-0.0000
 0008,0.00000011,0.00000012,-0.00000057,0.00000036,-0.00000014,0.000000
 43,-0.00000096,-0.00000029,-0.00000006,-0.00000029,-0.00000031,0.00000
 033,-0.00000043,0.00000011,0.00000051,-0.00000043,-0.00000016,0.000000
 36,0.00000017,0.00000014,-0.00000016,-0.00000020,0.00000038,0.00000036
 ,0.00000010,0.00000020,0.00000035,0.,0.00000022,-0.00000015,0.00000032
 ,0.00000011,-0.00000022,0.00000011,-0.00000007,-0.00000023,0.00000010,
 0.00000002,-0.00000051,0.00000042,0.00000003,-0.00000027,0.00000035,0.
 ,-0.00000048,0.00000028\\\@


 THE WORLD IS NOT A HAMBURGER - YOU CAN'T HAVE IT YOUR WAY.
 Job cpu time:       0 days  2 hours 35 minutes 31.3 seconds.
 File lengths (MBytes):  RWF=    417 Int=      0 D2E=      0 Chk=     13 Scr=      1
 Normal termination of Gaussian 09 at Sun Jul 25 23:28:45 2021.
