 Entering Gaussian System, Link 0=g09
 Input=opt_freq-conf-273.com
 Output=opt_freq-conf-273.log
 Initial command:
 /aerosol/software/g09/l1.exe "/scratch/nicole/10325/Gau-83505.inp" -scrdir="/scratch/nicole/10325/"
 Entering Link 1 = /aerosol/software/g09/l1.exe PID=     83510.
  
 Copyright (c) 1988,1990,1992,1993,1995,1998,2003,2009,2013,
            Gaussian, Inc.  All Rights Reserved.
  
 This is part of the Gaussian(R) 09 program.  It is based on
 the Gaussian(R) 03 system (copyright 2003, Gaussian, Inc.),
 the Gaussian(R) 98 system (copyright 1998, Gaussian, Inc.),
 the Gaussian(R) 94 system (copyright 1995, Gaussian, Inc.),
 the Gaussian 92(TM) system (copyright 1992, Gaussian, Inc.),
 the Gaussian 90(TM) system (copyright 1990, Gaussian, Inc.),
 the Gaussian 88(TM) system (copyright 1988, Gaussian, Inc.),
 the Gaussian 86(TM) system (copyright 1986, Carnegie Mellon
 University), and the Gaussian 82(TM) system (copyright 1983,
 Carnegie Mellon University). Gaussian is a federally registered
 trademark of Gaussian, Inc.
  
 This software contains proprietary and confidential information,
 including trade secrets, belonging to Gaussian, Inc.
  
 This software is provided under written license and may be
 used, copied, transmitted, or stored only in accord with that
 written license.
  
 The following legend is applicable only to US Government
 contracts under FAR:
  
                    RESTRICTED RIGHTS LEGEND
  
 Use, reproduction and disclosure by the US Government is
 subject to restrictions as set forth in subparagraphs (a)
 and (c) of the Commercial Computer Software - Restricted
 Rights clause in FAR 52.227-19.
  
 Gaussian, Inc.
 340 Quinnipiac St., Bldg. 40, Wallingford CT 06492
  
  
 ---------------------------------------------------------------
 Warning -- This program may not be used in any manner that
 competes with the business of Gaussian, Inc. or will provide
 assistance to any competitor of Gaussian, Inc.  The licensee
 of this program is prohibited from giving any competitor of
 Gaussian, Inc. access to this program.  By using this program,
 the user acknowledges that Gaussian, Inc. is engaged in the
 business of creating and licensing software in the field of
 computational chemistry and represents and warrants to the
 licensee that it is not a competitor of Gaussian, Inc. and that
 it will not use this program in any manner prohibited above.
 ---------------------------------------------------------------
  

 Cite this work as:
 Gaussian 09, Revision D.01,
 M. J. Frisch, G. W. Trucks, H. B. Schlegel, G. E. Scuseria, 
 M. A. Robb, J. R. Cheeseman, G. Scalmani, V. Barone, B. Mennucci, 
 G. A. Petersson, H. Nakatsuji, M. Caricato, X. Li, H. P. Hratchian, 
 A. F. Izmaylov, J. Bloino, G. Zheng, J. L. Sonnenberg, M. Hada, 
 M. Ehara, K. Toyota, R. Fukuda, J. Hasegawa, M. Ishida, T. Nakajima, 
 Y. Honda, O. Kitao, H. Nakai, T. Vreven, J. A. Montgomery, Jr., 
 J. E. Peralta, F. Ogliaro, M. Bearpark, J. J. Heyd, E. Brothers, 
 K. N. Kudin, V. N. Staroverov, T. Keith, R. Kobayashi, J. Normand, 
 K. Raghavachari, A. Rendell, J. C. Burant, S. S. Iyengar, J. Tomasi, 
 M. Cossi, N. Rega, J. M. Millam, M. Klene, J. E. Knox, J. B. Cross, 
 V. Bakken, C. Adamo, J. Jaramillo, R. Gomperts, R. E. Stratmann, 
 O. Yazyev, A. J. Austin, R. Cammi, C. Pomelli, J. W. Ochterski, 
 R. L. Martin, K. Morokuma, V. G. Zakrzewski, G. A. Voth, 
 P. Salvador, J. J. Dannenberg, S. Dapprich, A. D. Daniels, 
 O. Farkas, J. B. Foresman, J. V. Ortiz, J. Cioslowski, 
 and D. J. Fox, Gaussian, Inc., Wallingford CT, 2013.
 
 ******************************************
 Gaussian 09:  ES64L-G09RevD.01 24-Apr-2013
                24-Jul-2021 
 ******************************************
 %mem=2gb
 %nproc=4
 Will use up to    4 processors via shared memory.
 %chk=conf-273.chk
 ----------------------------------------------------------------------
 # B3LYP/6-31+G(d,p) EmpiricalDispersion=GD3BJ opt=calcfc freq=noraman 
 nosymm integral(ultrafinegrid)
 ----------------------------------------------------------------------
 1/10=4,14=-1,18=20,19=15,26=4,38=1/1,3;
 2/9=110,12=2,15=1,17=6,18=5,40=1/2;
 3/5=1,6=6,7=111,11=2,16=1,25=1,30=1,71=2,74=-5,75=-5,124=41,140=1/1,2,3;
 4//1;
 5/5=2,38=5/2;
 8/6=4,10=90,11=11/1;
 11/6=1,8=1,9=11,15=111,16=1,31=1/1,2,10;
 10/6=1,13=1,31=1/2;
 6/7=2,8=2,9=2,10=2,28=1/1;
 7/10=1,18=20,25=1,30=1/1,2,3,16;
 1/10=4,14=-1,18=20,19=15,26=4/3(2);
 2/9=110,15=1/2;
 99//99;
 2/9=110,15=1/2;
 3/5=1,6=6,7=111,11=2,16=1,25=1,30=1,71=1,74=-5,75=-5,124=41/1,2,3;
 4/5=5,16=3,69=1/1;
 5/5=2,38=5/2;
 7/30=1/1,2,3,16;
 1/14=-1,18=20,19=15,26=4/3(-5);
 2/9=110,15=1/2;
 6/7=2,8=2,9=2,10=2,19=2,28=1/1;
 99/9=1/99;
 ------------------------------------------------------------
 Candidate Structure: Conf:273 OPT and FREQ calc in gas phase
 ------------------------------------------------------------
 Symbolic Z-matrix:
 Charge =  0 Multiplicity = 1
 O                     0.4812   -1.43972   1.72308 
 C                     0.87057  -0.53629   0.98255 
 N                     0.37138  -0.40017  -0.26514 
 C                    -0.75721  -1.20762  -0.73001 
 C                    -0.28914  -2.59703  -1.19228 
 O                     0.31533  -3.3194   -0.24345 
 O                    -0.45011  -3.01646  -2.30615 
 C                    -1.5072   -0.49074  -1.84649 
 C                    -2.27544   0.70244  -1.37059 
 C                    -2.84205   1.05063  -0.17757 
 N                    -3.45652   2.28666  -0.27192 
 C                    -3.26679   2.67362  -1.51053 
 N                    -2.55969   1.75405  -2.21919 
 C                     1.89393   0.48386   1.40872 
 C                     2.97956  -0.12216   2.28608 
 N                     3.8968    0.93726   2.718 
 H                     0.69071   0.34962  -0.85265 
 H                    -1.42108  -1.35943   0.12342 
 H                     0.33923  -2.81473   0.59778 
 H                    -2.17872  -1.20279  -2.32839 
 H                    -0.79593  -0.19651  -2.61834 
 H                    -2.8511    0.49833   0.75013 
 H                    -3.61409   3.59393  -1.94694 
 H                    -2.28316   1.82072  -3.18404 
 H                     2.33103   0.96023   0.52862 
 H                     1.38125   1.26432   1.97735 
 H                     2.50784  -0.56404   3.1651 
 H                     3.4804   -0.9333    1.74249 
 H                     4.56161   0.56728   3.38681 
 H                     4.44738   1.25773   1.92958 
 

 GradGradGradGradGradGradGradGradGradGradGradGradGradGradGradGradGradGrad
 Berny optimization.
 Initialization pass.
                           ----------------------------
                           !    Initial Parameters    !
                           ! (Angstroms and Degrees)  !
 --------------------------                            --------------------------
 ! Name  Definition              Value          Derivative Info.                !
 --------------------------------------------------------------------------------
 ! R1    R(1,2)                  1.2313         calculate D2E/DX2 analytically  !
 ! R2    R(2,3)                  1.3507         calculate D2E/DX2 analytically  !
 ! R3    R(2,14)                 1.5065         calculate D2E/DX2 analytically  !
 ! R4    R(3,4)                  1.4635         calculate D2E/DX2 analytically  !
 ! R5    R(3,17)                 1.0047         calculate D2E/DX2 analytically  !
 ! R6    R(4,5)                  1.5373         calculate D2E/DX2 analytically  !
 ! R7    R(4,8)                  1.5241         calculate D2E/DX2 analytically  !
 ! R8    R(4,18)                 1.0918         calculate D2E/DX2 analytically  !
 ! R9    R(5,6)                  1.337          calculate D2E/DX2 analytically  !
 ! R10   R(5,7)                  1.2011         calculate D2E/DX2 analytically  !
 ! R11   R(6,19)                 0.9813         calculate D2E/DX2 analytically  !
 ! R12   R(8,9)                  1.4968         calculate D2E/DX2 analytically  !
 ! R13   R(8,20)                 1.091          calculate D2E/DX2 analytically  !
 ! R14   R(8,21)                 1.0901         calculate D2E/DX2 analytically  !
 ! R15   R(9,10)                 1.3659         calculate D2E/DX2 analytically  !
 ! R16   R(9,13)                 1.3809         calculate D2E/DX2 analytically  !
 ! R17   R(10,11)                1.3836         calculate D2E/DX2 analytically  !
 ! R18   R(10,22)                1.0797         calculate D2E/DX2 analytically  !
 ! R19   R(11,12)                1.3114         calculate D2E/DX2 analytically  !
 ! R20   R(12,13)                1.3593         calculate D2E/DX2 analytically  !
 ! R21   R(12,23)                1.0761         calculate D2E/DX2 analytically  !
 ! R22   R(13,24)                1.0059         calculate D2E/DX2 analytically  !
 ! R23   R(14,15)                1.5217         calculate D2E/DX2 analytically  !
 ! R24   R(14,25)                1.092          calculate D2E/DX2 analytically  !
 ! R25   R(14,26)                1.0933         calculate D2E/DX2 analytically  !
 ! R26   R(15,16)                1.4664         calculate D2E/DX2 analytically  !
 ! R27   R(15,27)                1.0911         calculate D2E/DX2 analytically  !
 ! R28   R(15,28)                1.0974         calculate D2E/DX2 analytically  !
 ! R29   R(16,29)                1.013          calculate D2E/DX2 analytically  !
 ! R30   R(16,30)                1.0136         calculate D2E/DX2 analytically  !
 ! A1    A(1,2,3)              120.8376         calculate D2E/DX2 analytically  !
 ! A2    A(1,2,14)             122.7858         calculate D2E/DX2 analytically  !
 ! A3    A(3,2,14)             116.3669         calculate D2E/DX2 analytically  !
 ! A4    A(2,3,4)              121.5214         calculate D2E/DX2 analytically  !
 ! A5    A(2,3,17)             119.8628         calculate D2E/DX2 analytically  !
 ! A6    A(4,3,17)             118.1074         calculate D2E/DX2 analytically  !
 ! A7    A(3,4,5)              111.0619         calculate D2E/DX2 analytically  !
 ! A8    A(3,4,8)              110.6495         calculate D2E/DX2 analytically  !
 ! A9    A(3,4,18)             107.2961         calculate D2E/DX2 analytically  !
 ! A10   A(5,4,8)              110.7731         calculate D2E/DX2 analytically  !
 ! A11   A(5,4,18)             107.1284         calculate D2E/DX2 analytically  !
 ! A12   A(8,4,18)             109.8029         calculate D2E/DX2 analytically  !
 ! A13   A(4,5,6)              114.3675         calculate D2E/DX2 analytically  !
 ! A14   A(4,5,7)              123.6204         calculate D2E/DX2 analytically  !
 ! A15   A(6,5,7)              122.0113         calculate D2E/DX2 analytically  !
 ! A16   A(5,6,19)             109.9703         calculate D2E/DX2 analytically  !
 ! A17   A(4,8,9)              113.2417         calculate D2E/DX2 analytically  !
 ! A18   A(4,8,20)             108.631          calculate D2E/DX2 analytically  !
 ! A19   A(4,8,21)             108.9394         calculate D2E/DX2 analytically  !
 ! A20   A(9,8,20)             110.1707         calculate D2E/DX2 analytically  !
 ! A21   A(9,8,21)             110.1741         calculate D2E/DX2 analytically  !
 ! A22   A(20,8,21)            105.3689         calculate D2E/DX2 analytically  !
 ! A23   A(8,9,10)             133.9358         calculate D2E/DX2 analytically  !
 ! A24   A(8,9,13)             121.1542         calculate D2E/DX2 analytically  !
 ! A25   A(10,9,13)            104.9065         calculate D2E/DX2 analytically  !
 ! A26   A(9,10,11)            110.6353         calculate D2E/DX2 analytically  !
 ! A27   A(9,10,22)            128.5771         calculate D2E/DX2 analytically  !
 ! A28   A(11,10,22)           120.7875         calculate D2E/DX2 analytically  !
 ! A29   A(10,11,12)           105.2927         calculate D2E/DX2 analytically  !
 ! A30   A(11,12,13)           111.594          calculate D2E/DX2 analytically  !
 ! A31   A(11,12,23)           126.0626         calculate D2E/DX2 analytically  !
 ! A32   A(13,12,23)           122.3432         calculate D2E/DX2 analytically  !
 ! A33   A(9,13,12)            107.5703         calculate D2E/DX2 analytically  !
 ! A34   A(9,13,24)            125.686          calculate D2E/DX2 analytically  !
 ! A35   A(12,13,24)           126.7424         calculate D2E/DX2 analytically  !
 ! A36   A(2,14,15)            112.2127         calculate D2E/DX2 analytically  !
 ! A37   A(2,14,25)            109.8338         calculate D2E/DX2 analytically  !
 ! A38   A(2,14,26)            108.1789         calculate D2E/DX2 analytically  !
 ! A39   A(15,14,25)           110.6605         calculate D2E/DX2 analytically  !
 ! A40   A(15,14,26)           108.6005         calculate D2E/DX2 analytically  !
 ! A41   A(25,14,26)           107.1854         calculate D2E/DX2 analytically  !
 ! A42   A(14,15,16)           109.169          calculate D2E/DX2 analytically  !
 ! A43   A(14,15,27)           108.5023         calculate D2E/DX2 analytically  !
 ! A44   A(14,15,28)           109.5343         calculate D2E/DX2 analytically  !
 ! A45   A(16,15,27)           109.0103         calculate D2E/DX2 analytically  !
 ! A46   A(16,15,28)           113.2315         calculate D2E/DX2 analytically  !
 ! A47   A(27,15,28)           107.2794         calculate D2E/DX2 analytically  !
 ! A48   A(15,16,29)           109.9443         calculate D2E/DX2 analytically  !
 ! A49   A(15,16,30)           109.8204         calculate D2E/DX2 analytically  !
 ! A50   A(29,16,30)           105.8152         calculate D2E/DX2 analytically  !
 ! D1    D(1,2,3,4)              7.5256         calculate D2E/DX2 analytically  !
 ! D2    D(1,2,3,17)           179.1912         calculate D2E/DX2 analytically  !
 ! D3    D(14,2,3,4)          -171.3709         calculate D2E/DX2 analytically  !
 ! D4    D(14,2,3,17)            0.2946         calculate D2E/DX2 analytically  !
 ! D5    D(1,2,14,15)           37.429          calculate D2E/DX2 analytically  !
 ! D6    D(1,2,14,25)          160.9631         calculate D2E/DX2 analytically  !
 ! D7    D(1,2,14,26)          -82.3549         calculate D2E/DX2 analytically  !
 ! D8    D(3,2,14,15)         -143.698          calculate D2E/DX2 analytically  !
 ! D9    D(3,2,14,25)          -20.1639         calculate D2E/DX2 analytically  !
 ! D10   D(3,2,14,26)           96.5181         calculate D2E/DX2 analytically  !
 ! D11   D(2,3,4,5)            -81.7802         calculate D2E/DX2 analytically  !
 ! D12   D(2,3,4,8)            154.7647         calculate D2E/DX2 analytically  !
 ! D13   D(2,3,4,18)            34.9931         calculate D2E/DX2 analytically  !
 ! D14   D(17,3,4,5)           106.413          calculate D2E/DX2 analytically  !
 ! D15   D(17,3,4,8)           -17.0421         calculate D2E/DX2 analytically  !
 ! D16   D(17,3,4,18)         -136.8136         calculate D2E/DX2 analytically  !
 ! D17   D(3,4,5,6)             60.0601         calculate D2E/DX2 analytically  !
 ! D18   D(3,4,5,7)           -120.2636         calculate D2E/DX2 analytically  !
 ! D19   D(8,4,5,6)           -176.5556         calculate D2E/DX2 analytically  !
 ! D20   D(8,4,5,7)              3.1206         calculate D2E/DX2 analytically  !
 ! D21   D(18,4,5,6)           -56.816          calculate D2E/DX2 analytically  !
 ! D22   D(18,4,5,7)           122.8603         calculate D2E/DX2 analytically  !
 ! D23   D(3,4,8,9)            -70.7009         calculate D2E/DX2 analytically  !
 ! D24   D(3,4,8,20)           166.5599         calculate D2E/DX2 analytically  !
 ! D25   D(3,4,8,21)            52.268          calculate D2E/DX2 analytically  !
 ! D26   D(5,4,8,9)            165.6775         calculate D2E/DX2 analytically  !
 ! D27   D(5,4,8,20)            42.9384         calculate D2E/DX2 analytically  !
 ! D28   D(5,4,8,21)           -71.3536         calculate D2E/DX2 analytically  !
 ! D29   D(18,4,8,9)            47.5538         calculate D2E/DX2 analytically  !
 ! D30   D(18,4,8,20)          -75.1853         calculate D2E/DX2 analytically  !
 ! D31   D(18,4,8,21)          170.5227         calculate D2E/DX2 analytically  !
 ! D32   D(4,5,6,19)             0.5789         calculate D2E/DX2 analytically  !
 ! D33   D(7,5,6,19)          -179.1032         calculate D2E/DX2 analytically  !
 ! D34   D(4,8,9,10)           -26.9919         calculate D2E/DX2 analytically  !
 ! D35   D(4,8,9,13)           153.7973         calculate D2E/DX2 analytically  !
 ! D36   D(20,8,9,10)           94.8898         calculate D2E/DX2 analytically  !
 ! D37   D(20,8,9,13)          -84.3209         calculate D2E/DX2 analytically  !
 ! D38   D(21,8,9,10)         -149.2757         calculate D2E/DX2 analytically  !
 ! D39   D(21,8,9,13)           31.5136         calculate D2E/DX2 analytically  !
 ! D40   D(8,9,10,11)         -179.6436         calculate D2E/DX2 analytically  !
 ! D41   D(8,9,10,22)            0.4783         calculate D2E/DX2 analytically  !
 ! D42   D(13,9,10,11)          -0.3425         calculate D2E/DX2 analytically  !
 ! D43   D(13,9,10,22)         179.7794         calculate D2E/DX2 analytically  !
 ! D44   D(8,9,13,12)          179.6556         calculate D2E/DX2 analytically  !
 ! D45   D(8,9,13,24)           -0.7376         calculate D2E/DX2 analytically  !
 ! D46   D(10,9,13,12)           0.2438         calculate D2E/DX2 analytically  !
 ! D47   D(10,9,13,24)         179.8506         calculate D2E/DX2 analytically  !
 ! D48   D(9,10,11,12)           0.3093         calculate D2E/DX2 analytically  !
 ! D49   D(22,10,11,12)       -179.8017         calculate D2E/DX2 analytically  !
 ! D50   D(10,11,12,13)         -0.1475         calculate D2E/DX2 analytically  !
 ! D51   D(10,11,12,23)        179.6907         calculate D2E/DX2 analytically  !
 ! D52   D(11,12,13,9)          -0.0609         calculate D2E/DX2 analytically  !
 ! D53   D(11,12,13,24)       -179.6624         calculate D2E/DX2 analytically  !
 ! D54   D(23,12,13,9)        -179.9061         calculate D2E/DX2 analytically  !
 ! D55   D(23,12,13,24)          0.4924         calculate D2E/DX2 analytically  !
 ! D56   D(2,14,15,16)        -177.0867         calculate D2E/DX2 analytically  !
 ! D57   D(2,14,15,27)         -58.4021         calculate D2E/DX2 analytically  !
 ! D58   D(2,14,15,28)          58.4108         calculate D2E/DX2 analytically  !
 ! D59   D(25,14,15,16)         59.8434         calculate D2E/DX2 analytically  !
 ! D60   D(25,14,15,27)        178.5279         calculate D2E/DX2 analytically  !
 ! D61   D(25,14,15,28)        -64.6592         calculate D2E/DX2 analytically  !
 ! D62   D(26,14,15,16)        -57.549          calculate D2E/DX2 analytically  !
 ! D63   D(26,14,15,27)         61.1356         calculate D2E/DX2 analytically  !
 ! D64   D(26,14,15,28)        177.9485         calculate D2E/DX2 analytically  !
 ! D65   D(14,15,16,29)        173.5694         calculate D2E/DX2 analytically  !
 ! D66   D(14,15,16,30)        -70.3925         calculate D2E/DX2 analytically  !
 ! D67   D(27,15,16,29)         55.2023         calculate D2E/DX2 analytically  !
 ! D68   D(27,15,16,30)        171.2403         calculate D2E/DX2 analytically  !
 ! D69   D(28,15,16,29)        -64.1236         calculate D2E/DX2 analytically  !
 ! D70   D(28,15,16,30)         51.9144         calculate D2E/DX2 analytically  !
 --------------------------------------------------------------------------------
 Trust Radius=3.00D-01 FncErr=1.00D-07 GrdErr=1.00D-06
 Number of steps in this run=    160 maximum allowed number of steps=    180.
 GradGradGradGradGradGradGradGradGradGradGradGradGradGradGradGradGradGrad

                          Input orientation:                          
 ---------------------------------------------------------------------
 Center     Atomic      Atomic             Coordinates (Angstroms)
 Number     Number       Type             X           Y           Z
 ---------------------------------------------------------------------
      1          8           0        0.481202   -1.439721    1.723084
      2          6           0        0.870569   -0.536285    0.982547
      3          7           0        0.371376   -0.400166   -0.265140
      4          6           0       -0.757209   -1.207622   -0.730012
      5          6           0       -0.289136   -2.597034   -1.192279
      6          8           0        0.315334   -3.319401   -0.243452
      7          8           0       -0.450114   -3.016463   -2.306155
      8          6           0       -1.507203   -0.490736   -1.846491
      9          6           0       -2.275445    0.702441   -1.370589
     10          6           0       -2.842052    1.050633   -0.177570
     11          7           0       -3.456524    2.286661   -0.271915
     12          6           0       -3.266792    2.673623   -1.510526
     13          7           0       -2.559690    1.754054   -2.219192
     14          6           0        1.893930    0.483862    1.408723
     15          6           0        2.979560   -0.122160    2.286081
     16          7           0        3.896800    0.937264    2.718000
     17          1           0        0.690707    0.349622   -0.852654
     18          1           0       -1.421075   -1.359428    0.123420
     19          1           0        0.339230   -2.814735    0.597781
     20          1           0       -2.178716   -1.202789   -2.328392
     21          1           0       -0.795931   -0.196509   -2.618341
     22          1           0       -2.851101    0.498330    0.750134
     23          1           0       -3.614090    3.593930   -1.946937
     24          1           0       -2.283164    1.820720   -3.184039
     25          1           0        2.331031    0.960230    0.528621
     26          1           0        1.381250    1.264319    1.977355
     27          1           0        2.507837   -0.564041    3.165097
     28          1           0        3.480396   -0.933305    1.742493
     29          1           0        4.561608    0.567281    3.386808
     30          1           0        4.447377    1.257728    1.929579
 ---------------------------------------------------------------------
                    Distance matrix (angstroms):
                    1          2          3          4          5
     1  O    0.000000
     2  C    1.231340   0.000000
     3  N    2.246280   1.350721   0.000000
     4  C    2.757755   2.456260   1.463488   0.000000
     5  C    3.229882   3.212705   2.474287   1.537286   0.000000
     6  O    2.725431   3.091455   2.919854   2.417995   1.336963
     7  O    4.425860   4.325627   3.418421   2.418768   1.201064
     8  C    4.194782   3.695854   2.457221   1.524120   2.519559
     9  C    4.664631   4.119357   3.073015   2.522642   3.855354
    10  C    4.567096   4.200921   3.526840   3.122736   4.566453
    11  N    5.776819   5.316619   4.676741   4.439163   5.893208
    12  C    6.436093   5.799714   4.922949   4.687352   6.061975
    13  N    5.915131   5.221443   4.129180   3.773344   5.014174
    14  C    2.407239   1.506518   2.429299   3.803137   4.585075
    15  C    2.880056   2.513671   3.659049   4.923260   5.376650
    16  N    4.278577   3.786980   4.807958   6.176497   6.730795
    17  H    3.143258   2.045763   1.004653   2.129909   3.123815
    18  H    2.486772   2.582111   2.069793   1.091838   2.131671
    19  H    1.782449   2.371012   2.564334   2.355424   1.909595
    20  H    4.852398   4.550240   3.377008   2.139047   2.608675
    21  H    4.693040   3.982345   2.634699   2.142344   2.837784
    22  H    3.975792   3.869790   3.496060   3.079852   4.462949
    23  H    7.455074   6.764076   5.887714   5.718180   7.067735
    24  H    6.507846   5.732535   4.527570   4.185887   5.240211
    25  H    3.257049   2.139756   2.514156   3.977558   4.741403
    26  H    2.861218   2.119578   2.969703   4.244212   5.267525
    27  H    2.636942   2.728541   4.044483   5.123143   5.562629
    28  H    3.041710   2.747060   3.739096   4.913841   5.058681
    29  H    4.842080   4.541156   5.641872   6.956170   7.383132
    30  H    4.800980   4.112044   4.917234   6.343429   6.858553
                    6          7          8          9         10
     6  O    0.000000
     7  O    2.220906   0.000000
     8  C    3.727294   2.776333   0.000000
     9  C    4.915057   4.247042   1.496780   0.000000
    10  C    5.391718   5.176245   2.634945   1.365861   0.000000
    11  N    6.756897   6.426489   3.740732   2.260926   1.383561
    12  C    7.096015   6.398732   3.636233   2.210861   2.142725
    13  N    6.157049   5.216868   2.507133   1.380874   2.177785
    14  C    4.436943   5.616685   4.807699   5.015580   5.026637
    15  C    4.870215   6.420926   6.111059   6.454942   6.429322
    16  N    6.302087   7.731090   7.216440   7.407314   7.335482
    17  H    3.738150   3.839879   2.554354   3.031633   3.664361
    18  H    2.644089   3.096993   2.154668   2.685762   2.813923
    19  H    0.981292   3.016058   3.845094   4.804324   5.065845
    20  H    3.879085   2.505588   1.090953   2.134630   3.184959
    21  H    4.077678   2.858180   1.090059   2.134000   3.420429
    22  H    5.058517   5.240173   3.086547   2.206923   1.079701
    23  H    8.132428   7.337376   4.597125   3.238033   3.192971
    24  H    6.466846   5.246818   2.781003   2.130542   3.153450
    25  H    4.793159   5.620037   4.741150   4.989296   5.221845
    26  H    5.203715   6.326725   5.103447   4.989574   4.746118
    27  H    4.900744   6.685690   6.421988   6.712392   6.511674
    28  H    4.433402   6.014983   6.160586   6.745121   6.898986
    29  H    6.805581   8.388707   8.083148   8.330449   8.231196
    30  H    6.538039   7.758581   7.264493   7.509713   7.590701
                   11         12         13         14         15
    11  N    0.000000
    12  C    1.311447   0.000000
    13  N    2.209042   1.359341   0.000000
    14  C    5.890839   6.320611   5.883017   0.000000
    15  C    7.332730   7.826080   7.382476   1.521713   0.000000
    16  N    8.051822   8.497789   8.168798   2.435419   1.466377
    17  H    4.613990   4.636332   3.795384   2.565072   3.913194
    18  H    4.194438   4.726727   4.059316   4.004871   5.057027
    19  H    6.417815   6.897131   6.100238   3.735701   4.131786
    20  H    4.247135   4.108453   2.983285   5.779037   7.004922
    21  H    4.330197   3.945892   2.659861   4.890349   6.189767
    22  H    2.146916   3.164693   3.237076   4.790540   6.061415
    23  H    2.130605   1.076121   2.137996   7.160395   8.672023
    24  H    3.174010   2.120286   1.005903   6.350494   7.835385
    25  H    5.991333   6.199150   5.665667   1.092045   2.163521
    26  H    5.432168   5.979610   5.777703   1.093296   2.138277
    27  H    7.450715   8.104952   7.748804   2.135376   1.091078
    28  H    7.908659   8.313640   7.707106   2.153286   1.097397
    29  H    8.979586   9.471241   9.140490   3.322090   2.046901
    30  H    8.269034   8.564314   8.158286   2.718501   2.045892
                   16         17         18         19         20
    16  N    0.000000
    17  H    4.834659   0.000000
    18  H    6.347160   2.886728   0.000000
    19  H    5.588302   3.498636   2.332726   0.000000
    20  H    8.182774   3.580694   2.570980   4.183409   0.000000
    21  H    7.196090   2.371920   3.043097   4.299667   1.734578
    22  H    7.042679   3.890431   2.426728   4.601936   3.580954
    23  H    9.232171   5.500388   5.799263   7.948290   5.021387
    24  H    8.591072   4.055046   4.668600   6.531964   3.143986
    25  H    2.691754   2.229669   4.429820   4.268772   5.760121
    26  H    2.642634   3.053272   4.263115   4.430317   6.107326
    27  H    2.093569   4.503228   5.031977   4.044699   7.249151
    28  H    2.150356   4.020330   5.179518   3.836284   6.976409
    29  H    1.012996   5.744936   7.081978   6.086475   9.012692
    30  H    1.013627   4.762147   6.674612   5.935951   8.251640
                   21         22         23         24         25
    21  H    0.000000
    22  H    4.006638   0.000000
    23  H    4.770769   4.176013   0.000000
    24  H    2.569259   4.189151   2.538909   0.000000
    25  H    4.584682   5.207390   6.957674   5.984571   0.000000
    26  H    5.290989   4.472763   6.766134   6.354329   1.758802
    27  H    6.670691   5.973181   8.994420   8.303752   3.050519
    28  H    6.151969   6.566751   9.189096   8.066846   2.525866
    29  H    8.083837   7.867977  10.220150   9.570687   3.646795
    30  H    7.091591   7.432063   9.245132   8.471495   2.555408
                   26         27         28         29         30
    26  H    0.000000
    27  H    2.454145   0.000000
    28  H    3.048135   1.762393   0.000000
    29  H    3.547830   2.355211   2.474782   0.000000
    30  H    3.066506   2.933797   2.402223   1.616565   0.000000
 Symmetry turned off by external request.
 Stoichiometry    C9H14N4O3
 Framework group  C1[X(C9H14N4O3)]
 Deg. of freedom    84
 Full point group                 C1      NOp   1
 Rotational constants (GHZ):      0.6081288      0.3132744      0.2274180
 Standard basis: 6-31+G(d,p) (6D, 7F)
   374 basis functions,   610 primitive gaussians,   374 cartesian basis functions
    60 alpha electrons       60 beta electrons
       nuclear repulsion energy      1109.6886056220 Hartrees.
 NAtoms=   30 NActive=   30 NUniq=   30 SFac= 1.00D+00 NAtFMM=   60 NAOKFM=F Big=F
 Integral buffers will be    131072 words long.
 Raffenetti 2 integral format.
 Two-electron integral symmetry is turned off.
 Nuclear repulsion after empirical dispersion term =     1109.6350884491 Hartrees.
 One-electron integrals computed using PRISM.
 NBasis=   374 RedAO= T EigKep=  3.25D-06  NBF=   374
 NBsUse=   374 1.00D-06 EigRej= -1.00D+00 NBFU=   374
 ExpMin= 4.38D-02 ExpMax= 5.48D+03 ExpMxC= 8.25D+02 IAcc=3 IRadAn=         5 AccDes= 0.00D+00
 Harris functional with IExCor=  402 and IRadAn=       5 diagonalized for initial guess.
 HarFok:  IExCor=  402 AccDes= 0.00D+00 IRadAn=         5 IDoV= 1 UseB2=F ITyADJ=14
 ICtDFT=  3500011 ScaDFX=  1.000000  1.000000  1.000000  1.000000
 FoFCou: FMM=F IPFlag=           0 FMFlag=      100000 FMFlg1=           0
         NFxFlg=           0 DoJE=T BraDBF=F KetDBF=T FulRan=T
         wScrn=  0.000000 ICntrl=     500 IOpCl=  0 I1Cent=   200000004 NGrid=           0
         NMat0=    1 NMatS0=      1 NMatT0=    0 NMatD0=    1 NMtDS0=    0 NMtDT0=    0
 Symmetry not used in FoFCou.
 Requested convergence on RMS density matrix=1.00D-08 within 128 cycles.
 Requested convergence on MAX density matrix=1.00D-06.
 Requested convergence on             energy=1.00D-06.
 No special actions if energy rises.
 SCF Done:  E(RB3LYP) =  -796.200289163     A.U. after   15 cycles
            NFock= 15  Conv=0.27D-08     -V/T= 2.0090
 DoSCS=F DFT=T ScalE2(SS,OS)=  1.000000  1.000000
 Range of M.O.s used for correlation:     1   374
 NBasis=   374 NAE=    60 NBE=    60 NFC=     0 NFV=     0
 NROrb=    374 NOA=    60 NOB=    60 NVA=   314 NVB=   314

 **** Warning!!: The largest alpha MO coefficient is  0.10843512D+03

 Symmetrizing basis deriv contribution to polar:
 IMax=3 JMax=2 DiffMx= 0.00D+00
 G2DrvN: will do    31 centers at a time, making    1 passes.
 Calling FoFCou, ICntrl=  3107 FMM=F I1Cent=   0 AccDes= 0.00D+00.
 End of G2Drv F.D. properties file   721 does not exist.
 End of G2Drv F.D. properties file   722 does not exist.
 End of G2Drv F.D. properties file   788 does not exist.
          IDoAtm=111111111111111111111111111111
          Differentiating once with respect to nuclear coordinates.
          There are    93 degrees of freedom in the 1st order CPHF.  IDoFFX=6 NUNeed=     0.
     87 vectors produced by pass  0 Test12= 2.03D-14 1.08D-09 XBig12= 2.03D-01 1.13D-01.
 AX will form    87 AO Fock derivatives at one time.
     87 vectors produced by pass  1 Test12= 2.03D-14 1.08D-09 XBig12= 1.10D-02 2.45D-02.
     87 vectors produced by pass  2 Test12= 2.03D-14 1.08D-09 XBig12= 1.96D-04 2.39D-03.
     87 vectors produced by pass  3 Test12= 2.03D-14 1.08D-09 XBig12= 8.36D-07 8.79D-05.
     87 vectors produced by pass  4 Test12= 2.03D-14 1.08D-09 XBig12= 1.77D-09 3.07D-06.
     77 vectors produced by pass  5 Test12= 2.03D-14 1.08D-09 XBig12= 2.20D-12 1.03D-07.
     26 vectors produced by pass  6 Test12= 2.03D-14 1.08D-09 XBig12= 3.16D-15 5.14D-09.
      2 vectors produced by pass  7 Test12= 2.03D-14 1.08D-09 XBig12= 2.65D-16 1.63D-09.
 InvSVY:  IOpt=1 It=  1 EMax= 7.77D-16
 Solved reduced A of dimension   540 with    93 vectors.
 End of Minotr F.D. properties file   721 does not exist.
 End of Minotr F.D. properties file   722 does not exist.
 End of Minotr F.D. properties file   788 does not exist.

 **********************************************************************

            Population analysis using the SCF density.

 **********************************************************************

 Alpha  occ. eigenvalues --  -19.19771 -19.16161 -19.15405 -14.41176 -14.40640
 Alpha  occ. eigenvalues --  -14.33866 -14.33120 -10.33181 -10.32657 -10.27202
 Alpha  occ. eigenvalues --  -10.25503 -10.24098 -10.23080 -10.23026 -10.21951
 Alpha  occ. eigenvalues --  -10.21287  -1.11589  -1.08210  -1.03628  -1.03397
 Alpha  occ. eigenvalues --   -0.97014  -0.90580  -0.88960  -0.83337  -0.78849
 Alpha  occ. eigenvalues --   -0.75540  -0.69551  -0.65856  -0.63423  -0.62262
 Alpha  occ. eigenvalues --   -0.62063  -0.60577  -0.57524  -0.54709  -0.53895
 Alpha  occ. eigenvalues --   -0.52605  -0.51024  -0.48389  -0.47281  -0.46957
 Alpha  occ. eigenvalues --   -0.45861  -0.45199  -0.44610  -0.44169  -0.43577
 Alpha  occ. eigenvalues --   -0.42653  -0.42409  -0.41159  -0.40375  -0.38551
 Alpha  occ. eigenvalues --   -0.38315  -0.37192  -0.32837  -0.31927  -0.29974
 Alpha  occ. eigenvalues --   -0.29802  -0.28412  -0.27914  -0.26181  -0.24420
 Alpha virt. eigenvalues --   -0.02660  -0.02289  -0.01241  -0.00718  -0.00038
 Alpha virt. eigenvalues --    0.00324   0.00955   0.01661   0.02407   0.02715
 Alpha virt. eigenvalues --    0.03382   0.04333   0.04493   0.05057   0.05256
 Alpha virt. eigenvalues --    0.06249   0.06675   0.07338   0.07532   0.08129
 Alpha virt. eigenvalues --    0.08291   0.09222   0.09597   0.09930   0.10890
 Alpha virt. eigenvalues --    0.11291   0.11987   0.12398   0.13083   0.13495
 Alpha virt. eigenvalues --    0.13928   0.14433   0.15249   0.15616   0.15763
 Alpha virt. eigenvalues --    0.15903   0.16437   0.16676   0.17178   0.17331
 Alpha virt. eigenvalues --    0.17860   0.18487   0.18661   0.18984   0.19363
 Alpha virt. eigenvalues --    0.20073   0.20676   0.20738   0.21184   0.21693
 Alpha virt. eigenvalues --    0.21952   0.22241   0.22782   0.23532   0.23603
 Alpha virt. eigenvalues --    0.23825   0.24789   0.25331   0.25374   0.25465
 Alpha virt. eigenvalues --    0.26072   0.26445   0.26772   0.27215   0.27961
 Alpha virt. eigenvalues --    0.28419   0.28995   0.29581   0.30178   0.30249
 Alpha virt. eigenvalues --    0.31168   0.31419   0.31814   0.32061   0.32595
 Alpha virt. eigenvalues --    0.33002   0.33271   0.34195   0.34309   0.34730
 Alpha virt. eigenvalues --    0.35975   0.36241   0.37452   0.37715   0.37818
 Alpha virt. eigenvalues --    0.38377   0.39250   0.40240   0.40869   0.41816
 Alpha virt. eigenvalues --    0.42299   0.44191   0.45544   0.46681   0.48638
 Alpha virt. eigenvalues --    0.50311   0.50482   0.53243   0.61407   0.63045
 Alpha virt. eigenvalues --    0.65579   0.66590   0.68452   0.68598   0.70171
 Alpha virt. eigenvalues --    0.70942   0.71364   0.73084   0.73775   0.76031
 Alpha virt. eigenvalues --    0.76417   0.77334   0.77877   0.79255   0.80054
 Alpha virt. eigenvalues --    0.82066   0.83025   0.84812   0.85223   0.86100
 Alpha virt. eigenvalues --    0.87407   0.88970   0.90190   0.91556   0.92227
 Alpha virt. eigenvalues --    0.92687   0.93351   0.93842   0.96457   0.97067
 Alpha virt. eigenvalues --    0.97777   0.98510   0.99600   1.00332   1.00871
 Alpha virt. eigenvalues --    1.03210   1.04544   1.05619   1.06375   1.06832
 Alpha virt. eigenvalues --    1.08013   1.08471   1.09301   1.10860   1.11664
 Alpha virt. eigenvalues --    1.12395   1.14638   1.15217   1.16927   1.18472
 Alpha virt. eigenvalues --    1.19557   1.21345   1.22007   1.23166   1.23540
 Alpha virt. eigenvalues --    1.24274   1.26516   1.28431   1.28821   1.29932
 Alpha virt. eigenvalues --    1.31177   1.31414   1.33442   1.33696   1.35349
 Alpha virt. eigenvalues --    1.35976   1.37134   1.38819   1.39881   1.40645
 Alpha virt. eigenvalues --    1.41119   1.42078   1.42554   1.43670   1.46300
 Alpha virt. eigenvalues --    1.47953   1.49046   1.50789   1.51617   1.56664
 Alpha virt. eigenvalues --    1.57912   1.58818   1.60415   1.63680   1.65062
 Alpha virt. eigenvalues --    1.65980   1.67728   1.69364   1.70685   1.72868
 Alpha virt. eigenvalues --    1.73882   1.76047   1.76333   1.79562   1.80379
 Alpha virt. eigenvalues --    1.82934   1.84313   1.85435   1.86353   1.87045
 Alpha virt. eigenvalues --    1.89650   1.90956   1.92071   1.92453   1.92971
 Alpha virt. eigenvalues --    1.93899   1.97987   1.99068   2.01243   2.01660
 Alpha virt. eigenvalues --    2.02056   2.05814   2.07329   2.07927   2.08353
 Alpha virt. eigenvalues --    2.08741   2.10328   2.11046   2.11856   2.12847
 Alpha virt. eigenvalues --    2.16439   2.17514   2.20041   2.22050   2.22569
 Alpha virt. eigenvalues --    2.22997   2.23848   2.26239   2.27023   2.27401
 Alpha virt. eigenvalues --    2.31461   2.31706   2.35856   2.37715   2.40330
 Alpha virt. eigenvalues --    2.41565   2.43389   2.43636   2.44514   2.45631
 Alpha virt. eigenvalues --    2.46491   2.49214   2.50206   2.50691   2.52903
 Alpha virt. eigenvalues --    2.53270   2.56513   2.58350   2.59275   2.59487
 Alpha virt. eigenvalues --    2.60361   2.62933   2.63735   2.64047   2.66114
 Alpha virt. eigenvalues --    2.66957   2.68066   2.69535   2.70959   2.71448
 Alpha virt. eigenvalues --    2.72311   2.75491   2.77124   2.79046   2.80013
 Alpha virt. eigenvalues --    2.83428   2.83776   2.85464   2.86234   2.88284
 Alpha virt. eigenvalues --    2.89495   2.91821   2.94199   2.95892   2.97719
 Alpha virt. eigenvalues --    2.99999   3.03343   3.04143   3.08158   3.09457
 Alpha virt. eigenvalues --    3.13434   3.18849   3.22736   3.27802   3.30879
 Alpha virt. eigenvalues --    3.32883   3.34249   3.34799   3.35718   3.41027
 Alpha virt. eigenvalues --    3.41423   3.51142   3.53352   3.56403   3.57375
 Alpha virt. eigenvalues --    3.59751   3.63508   3.70720   4.17423   4.20727
 Alpha virt. eigenvalues --    4.26268   4.26856   4.31284   4.34086   4.35839
 Alpha virt. eigenvalues --    4.41010   4.45712   4.53205   4.57860   4.61581
 Alpha virt. eigenvalues --    4.64778   4.72120   4.75924   4.82346
          Condensed to atoms (all electrons):
               1          2          3          4          5          6
     1  O    8.270869   0.353560  -0.161727   0.064254  -0.111855  -0.029245
     2  C    0.353560   7.997876   0.179142  -0.071840  -0.087030  -0.035139
     3  N   -0.161727   0.179142   7.403618  -0.602870   0.366571   0.062021
     4  C    0.064254  -0.071840  -0.602870  11.347752  -2.524027  -0.582039
     5  C   -0.111855  -0.087030   0.366571  -2.524027   7.457062   0.526643
     6  O   -0.029245  -0.035139   0.062021  -0.582039   0.526643   8.341147
     7  O   -0.000781  -0.015205   0.005408  -0.194797   0.469993  -0.095918
     8  C    0.000289  -0.002029   0.013489  -2.111703   0.300657   0.045393
     9  C    0.000887   0.182072  -0.023465   0.525958  -0.364187   0.020583
    10  C    0.012644  -0.182403   0.001498   0.112196  -0.216124   0.003056
    11  N   -0.000169   0.004565  -0.000844  -0.009124   0.004362  -0.000008
    12  C   -0.000008   0.014762   0.016926  -0.107508  -0.060016  -0.000366
    13  N    0.000475  -0.016865   0.003675   0.043810  -0.009449   0.000364
    14  C    0.030179  -2.416769  -0.171820  -0.417635   0.010483  -0.002236
    15  C    0.023311  -0.173095  -0.000655  -0.062056   0.005123   0.002113
    16  N   -0.002003   0.111800  -0.004936   0.005973  -0.001460  -0.000127
    17  H    0.009944  -0.013435   0.298991  -0.005859  -0.030431  -0.000063
    18  H    0.006386  -0.017203  -0.081028   0.413863  -0.021050   0.003225
    19  H    0.049948   0.005165  -0.021827   0.131626  -0.121358   0.175947
    20  H   -0.000094   0.003708   0.006028  -0.077035   0.001399  -0.000519
    21  H    0.000152   0.001776   0.003661  -0.035930   0.010219   0.000075
    22  H   -0.000401   0.011955   0.001604  -0.012775   0.001072   0.000018
    23  H    0.000000   0.000158   0.000079  -0.003162  -0.000066   0.000000
    24  H   -0.000001   0.000662   0.000102   0.008257  -0.000488   0.000000
    25  H    0.007567  -0.085054   0.003640   0.015912   0.001852   0.000239
    26  H   -0.002472  -0.022748  -0.003521  -0.003306  -0.001530   0.000017
    27  H    0.002766   0.031867   0.000886   0.001189   0.000254   0.000081
    28  H   -0.001794  -0.002596   0.002893  -0.003513   0.000034   0.000074
    29  H    0.000129  -0.019942   0.000028  -0.000105  -0.000011   0.000000
    30  H   -0.000001   0.014515   0.000167  -0.000009  -0.000020   0.000001
               7          8          9         10         11         12
     1  O   -0.000781   0.000289   0.000887   0.012644  -0.000169  -0.000008
     2  C   -0.015205  -0.002029   0.182072  -0.182403   0.004565   0.014762
     3  N    0.005408   0.013489  -0.023465   0.001498  -0.000844   0.016926
     4  C   -0.194797  -2.111703   0.525958   0.112196  -0.009124  -0.107508
     5  C    0.469993   0.300657  -0.364187  -0.216124   0.004362  -0.060016
     6  O   -0.095918   0.045393   0.020583   0.003056  -0.000008  -0.000366
     7  O    8.218760  -0.018247   0.075292   0.006102   0.000143   0.000086
     8  C   -0.018247  14.494109  -4.238054  -1.528076  -0.137375   0.056341
     9  C    0.075292  -4.238054   9.889969  -0.889309  -0.188514   0.097794
    10  C    0.006102  -1.528076  -0.889309   8.514477   0.592633  -0.611192
    11  N    0.000143  -0.137375  -0.188514   0.592633   6.737657   0.386393
    12  C    0.000086   0.056341   0.097794  -0.611192   0.386393   5.443855
    13  N    0.000427  -0.149793   0.376207  -0.149754  -0.010613   0.109916
    14  C   -0.007545  -0.239515  -0.060970   0.080574  -0.000270  -0.012429
    15  C   -0.000999  -0.051624   0.028745  -0.008836   0.001002   0.002259
    16  N    0.000023   0.000106   0.000657  -0.000081   0.000021   0.000101
    17  H   -0.000234  -0.065183   0.025305   0.008485   0.000151   0.001428
    18  H    0.005409  -0.024411  -0.028064   0.028959  -0.000650   0.000001
    19  H    0.008710   0.006814   0.001915   0.002201  -0.000015   0.000071
    20  H   -0.003420   0.512016  -0.118651   0.006027  -0.001494  -0.003441
    21  H    0.000999   0.411664  -0.109163   0.017793  -0.000561   0.002054
    22  H    0.000026   0.032537  -0.008985   0.302120  -0.054415   0.029352
    23  H    0.000000   0.032964   0.038609  -0.048125  -0.061049   0.444633
    24  H   -0.000003  -0.066361   0.069440  -0.009398   0.011084  -0.015687
    25  H   -0.000014  -0.012971   0.002843  -0.003166   0.000051  -0.000015
    26  H    0.000002  -0.004269   0.003275   0.000073   0.000102   0.000208
    27  H   -0.000001  -0.000668   0.000242  -0.000226   0.000002   0.000004
    28  H   -0.000001  -0.000100   0.000206   0.000020   0.000000   0.000001
    29  H    0.000000   0.000016  -0.000031   0.000008   0.000000   0.000000
    30  H    0.000000  -0.000081   0.000072  -0.000020   0.000000   0.000001
              13         14         15         16         17         18
     1  O    0.000475   0.030179   0.023311  -0.002003   0.009944   0.006386
     2  C   -0.016865  -2.416769  -0.173095   0.111800  -0.013435  -0.017203
     3  N    0.003675  -0.171820  -0.000655  -0.004936   0.298991  -0.081028
     4  C    0.043810  -0.417635  -0.062056   0.005973  -0.005859   0.413863
     5  C   -0.009449   0.010483   0.005123  -0.001460  -0.030431  -0.021050
     6  O    0.000364  -0.002236   0.002113  -0.000127  -0.000063   0.003225
     7  O    0.000427  -0.007545  -0.000999   0.000023  -0.000234   0.005409
     8  C   -0.149793  -0.239515  -0.051624   0.000106  -0.065183  -0.024411
     9  C    0.376207  -0.060970   0.028745   0.000657   0.025305  -0.028064
    10  C   -0.149754   0.080574  -0.008836  -0.000081   0.008485   0.028959
    11  N   -0.010613  -0.000270   0.001002   0.000021   0.000151  -0.000650
    12  C    0.109916  -0.012429   0.002259   0.000101   0.001428   0.000001
    13  N    6.990427   0.004121   0.001048   0.000043   0.000297   0.001577
    14  C    0.004121   8.873930   0.023701  -0.170655   0.056434  -0.013552
    15  C    0.001048   0.023701   5.419124   0.233480   0.006577   0.000594
    16  N    0.000043  -0.170655   0.233480   6.877893  -0.000223   0.000012
    17  H    0.000297   0.056434   0.006577  -0.000223   0.387254   0.003405
    18  H    0.001577  -0.013552   0.000594   0.000012   0.003405   0.532072
    19  H   -0.000008   0.021316  -0.004283   0.000124   0.000097  -0.002757
    20  H   -0.001466  -0.000014   0.000009   0.000000   0.000106  -0.002817
    21  H   -0.002240   0.000133   0.000255   0.000002   0.002451   0.004769
    22  H    0.000944  -0.003409   0.000341   0.000002  -0.000036   0.000884
    23  H   -0.099614  -0.000106  -0.000001   0.000000   0.000000   0.000000
    24  H    0.282312  -0.000118  -0.000012   0.000000  -0.000004   0.000002
    25  H    0.000040   0.378511   0.008834  -0.009960   0.002837  -0.000016
    26  H    0.000022   0.370461  -0.009717   0.003879   0.000083   0.000058
    27  H    0.000001  -0.123675   0.472086  -0.050598   0.000002  -0.000001
    28  H    0.000000  -0.055816   0.435872  -0.097741   0.000014   0.000002
    29  H    0.000000   0.058655  -0.065478   0.355719   0.000000   0.000000
    30  H    0.000000  -0.033968  -0.015867   0.352585   0.000002   0.000000
              19         20         21         22         23         24
     1  O    0.049948  -0.000094   0.000152  -0.000401   0.000000  -0.000001
     2  C    0.005165   0.003708   0.001776   0.011955   0.000158   0.000662
     3  N   -0.021827   0.006028   0.003661   0.001604   0.000079   0.000102
     4  C    0.131626  -0.077035  -0.035930  -0.012775  -0.003162   0.008257
     5  C   -0.121358   0.001399   0.010219   0.001072  -0.000066  -0.000488
     6  O    0.175947  -0.000519   0.000075   0.000018   0.000000   0.000000
     7  O    0.008710  -0.003420   0.000999   0.000026   0.000000  -0.000003
     8  C    0.006814   0.512016   0.411664   0.032537   0.032964  -0.066361
     9  C    0.001915  -0.118651  -0.109163  -0.008985   0.038609   0.069440
    10  C    0.002201   0.006027   0.017793   0.302120  -0.048125  -0.009398
    11  N   -0.000015  -0.001494  -0.000561  -0.054415  -0.061049   0.011084
    12  C    0.000071  -0.003441   0.002054   0.029352   0.444633  -0.015687
    13  N   -0.000008  -0.001466  -0.002240   0.000944  -0.099614   0.282312
    14  C    0.021316  -0.000014   0.000133  -0.003409  -0.000106  -0.000118
    15  C   -0.004283   0.000009   0.000255   0.000341  -0.000001  -0.000012
    16  N    0.000124   0.000000   0.000002   0.000002   0.000000   0.000000
    17  H    0.000097   0.000106   0.002451  -0.000036   0.000000  -0.000004
    18  H   -0.002757  -0.002817   0.004769   0.000884   0.000000   0.000002
    19  H    0.349375   0.000026  -0.000029   0.000000   0.000000   0.000000
    20  H    0.000026   0.503368  -0.029302   0.000009   0.000002   0.000199
    21  H   -0.000029  -0.029302   0.568638  -0.000077  -0.000010   0.001962
    22  H    0.000000   0.000009  -0.000077   0.571669  -0.000046  -0.000079
    23  H    0.000000   0.000002  -0.000010  -0.000046   0.558681   0.000251
    24  H    0.000000   0.000199   0.001962  -0.000079   0.000251   0.415840
    25  H   -0.000070   0.000000   0.000004   0.000000   0.000000   0.000000
    26  H    0.000006   0.000000   0.000001   0.000001   0.000000   0.000000
    27  H   -0.000021   0.000000   0.000000   0.000000   0.000000   0.000000
    28  H   -0.000054   0.000000   0.000000   0.000000   0.000000   0.000000
    29  H    0.000000   0.000000   0.000000   0.000000   0.000000   0.000000
    30  H    0.000000   0.000000   0.000000   0.000000   0.000000   0.000000
              25         26         27         28         29         30
     1  O    0.007567  -0.002472   0.002766  -0.001794   0.000129  -0.000001
     2  C   -0.085054  -0.022748   0.031867  -0.002596  -0.019942   0.014515
     3  N    0.003640  -0.003521   0.000886   0.002893   0.000028   0.000167
     4  C    0.015912  -0.003306   0.001189  -0.003513  -0.000105  -0.000009
     5  C    0.001852  -0.001530   0.000254   0.000034  -0.000011  -0.000020
     6  O    0.000239   0.000017   0.000081   0.000074   0.000000   0.000001
     7  O   -0.000014   0.000002  -0.000001  -0.000001   0.000000   0.000000
     8  C   -0.012971  -0.004269  -0.000668  -0.000100   0.000016  -0.000081
     9  C    0.002843   0.003275   0.000242   0.000206  -0.000031   0.000072
    10  C   -0.003166   0.000073  -0.000226   0.000020   0.000008  -0.000020
    11  N    0.000051   0.000102   0.000002   0.000000   0.000000   0.000000
    12  C   -0.000015   0.000208   0.000004   0.000001   0.000000   0.000001
    13  N    0.000040   0.000022   0.000001   0.000000   0.000000   0.000000
    14  C    0.378511   0.370461  -0.123675  -0.055816   0.058655  -0.033968
    15  C    0.008834  -0.009717   0.472086   0.435872  -0.065478  -0.015867
    16  N   -0.009960   0.003879  -0.050598  -0.097741   0.355719   0.352585
    17  H    0.002837   0.000083   0.000002   0.000014   0.000000   0.000002
    18  H   -0.000016   0.000058  -0.000001   0.000002   0.000000   0.000000
    19  H   -0.000070   0.000006  -0.000021  -0.000054   0.000000   0.000000
    20  H    0.000000   0.000000   0.000000   0.000000   0.000000   0.000000
    21  H    0.000004   0.000001   0.000000   0.000000   0.000000   0.000000
    22  H    0.000000   0.000001   0.000000   0.000000   0.000000   0.000000
    23  H    0.000000   0.000000   0.000000   0.000000   0.000000   0.000000
    24  H    0.000000   0.000000   0.000000   0.000000   0.000000   0.000000
    25  H    0.589389  -0.029056   0.004973  -0.006726  -0.000028   0.004420
    26  H   -0.029056   0.495905  -0.005873   0.004864  -0.000003  -0.000391
    27  H    0.004973  -0.005873   0.533444  -0.039194  -0.004955   0.005487
    28  H   -0.006726   0.004864  -0.039194   0.634608  -0.000422  -0.005288
    29  H   -0.000028  -0.000003  -0.004955  -0.000422   0.427010  -0.041328
    30  H    0.004420  -0.000391   0.005487  -0.005288  -0.041328   0.446371
 Mulliken charges:
               1
     1  O   -0.522811
     2  C    0.247772
     3  N   -0.297734
     4  C    0.154500
     5  C    0.393381
     6  O   -0.435335
     7  O   -0.454214
     8  C   -1.255931
     9  C    0.689321
    10  C   -0.042156
    11  N   -0.273065
    12  C    0.204477
    13  N   -0.375902
    14  C   -0.177996
    15  C   -0.271849
    16  N   -0.604637
    17  H    0.311605
    18  H    0.190333
    19  H    0.397082
    20  H    0.205355
    21  H    0.150705
    22  H    0.127689
    23  H    0.136802
    24  H    0.302040
    25  H    0.125964
    26  H    0.203928
    27  H    0.171931
    28  H    0.134658
    29  H    0.290737
    30  H    0.273351
 Sum of Mulliken charges =   0.00000
 Mulliken charges with hydrogens summed into heavy atoms:
               1
     1  O   -0.522811
     2  C    0.247772
     3  N    0.013871
     4  C    0.344834
     5  C    0.393381
     6  O   -0.038253
     7  O   -0.454214
     8  C   -0.899871
     9  C    0.689321
    10  C    0.085533
    11  N   -0.273065
    12  C    0.341278
    13  N   -0.073862
    14  C    0.151896
    15  C    0.034740
    16  N   -0.040549
 APT charges:
               1
     1  O   -0.434023
     2  C    0.251591
     3  N   -0.315280
     4  C   -0.222774
     5  C   -0.283419
     6  O   -0.209667
     7  O    0.120688
     8  C   -1.659359
     9  C    0.138425
    10  C   -0.103383
    11  N   -0.553572
    12  C   -0.280131
    13  N   -0.684997
    14  C   -0.570056
    15  C   -0.676918
    16  N   -1.859797
    17  H    0.444977
    18  H    0.378776
    19  H    0.298327
    20  H    0.685921
    21  H    0.347774
    22  H    0.240610
    23  H    1.032867
    24  H    0.757847
    25  H    0.282390
    26  H    0.396951
    27  H    0.425826
    28  H    0.406258
    29  H    1.128716
    30  H    0.515432
 Sum of APT charges =   0.00000
 APT charges with hydrogens summed into heavy atoms:
               1
     1  O   -0.434023
     2  C    0.251591
     3  N    0.129697
     4  C    0.156003
     5  C   -0.283419
     6  O    0.088660
     7  O    0.120688
     8  C   -0.625664
     9  C    0.138425
    10  C    0.137227
    11  N   -0.553572
    12  C    0.752736
    13  N    0.072850
    14  C    0.109285
    15  C    0.155165
    16  N   -0.215649
 Electronic spatial extent (au):  <R**2>=           4815.6315
 Charge=              0.0000 electrons
 Dipole moment (field-independent basis, Debye):
    X=              3.0615    Y=              3.8507    Z=             -2.7312  Tot=              5.6267
 Quadrupole moment (field-independent basis, Debye-Ang):
   XX=            -91.5831   YY=           -117.0588   ZZ=            -93.3323
   XY=              4.3853   XZ=             10.3136   YZ=            -20.3867
 Traceless Quadrupole moment (field-independent basis, Debye-Ang):
   XX=              9.0750   YY=            -16.4007   ZZ=              7.3258
   XY=              4.3853   XZ=             10.3136   YZ=            -20.3867
 Octapole moment (field-independent basis, Debye-Ang**2):
  XXX=            202.2450  YYY=            114.5835  ZZZ=             13.4884  XYY=             24.0621
  XXY=            -10.9519  XXZ=             12.4677  XZZ=             13.2005  YZZ=             57.5079
  YYZ=             12.4032  XYZ=             14.7864
 Hexadecapole moment (field-independent basis, Debye-Ang**3):
 XXXX=          -2833.4095 YYYY=          -2097.7361 ZZZZ=          -1513.0179 XXXY=            458.6138
 XXXZ=           -581.7151 YYYX=            323.8902 YYYZ=           -254.1701 ZZZX=           -682.3397
 ZZZY=           -222.6121 XXYY=           -837.9678 XXZZ=           -619.4144 YYZZ=           -641.2627
 XXYZ=           -125.8767 YYXZ=           -222.6900 ZZXY=             -2.8786
 N-N= 1.109635088449D+03 E-N=-4.074167131274D+03  KE= 7.891030254732D+02
  Exact polarizability:   0.000   0.000   0.000   0.000   0.000   0.000
 Approx polarizability: 168.733 -11.542 202.592   0.532  -5.901 233.043
 Calling FoFJK, ICntrl=    100147 FMM=F ISym2X=0 I1Cent= 0 IOpClX= 0 NMat=1 NMatS=1 NMatT=0.
 -------------------------------------------------------------------
 Center     Atomic                   Forces (Hartrees/Bohr)
 Number     Number              X              Y              Z
 -------------------------------------------------------------------
      1        8          -0.002215007   -0.012031322    0.008101809
      2        6           0.002905116    0.011011507   -0.003637913
      3        7          -0.005392974   -0.005281948   -0.002012025
      4        6          -0.002600661    0.003134876   -0.004802897
      5        6           0.004073638    0.001581173    0.011643610
      6        8           0.000895660   -0.004026433   -0.001739006
      7        8          -0.002499031   -0.004499753   -0.015143098
      8        6          -0.005059902    0.001849076    0.002248009
      9        6           0.008654587   -0.006064801   -0.006531140
     10        6          -0.003684408    0.003946849    0.008239175
     11        7          -0.001566189   -0.001141552    0.003958088
     12        6          -0.004693797    0.006983863    0.001367586
     13        7           0.003745684   -0.003257409   -0.002465733
     14        6          -0.000937612   -0.000391880    0.000648972
     15        6           0.002205080    0.001514929    0.001933507
     16        7          -0.001147780   -0.001920329    0.000343641
     17        1           0.001429274    0.003604819   -0.002418621
     18        1          -0.001288161   -0.000435439    0.002741784
     19        1           0.000560816    0.001549174    0.006639385
     20        1           0.000006980   -0.003363647   -0.000432510
     21        1           0.003375206    0.000520387   -0.004106274
     22        1           0.000716004   -0.000462693    0.000474976
     23        1          -0.001297582    0.003204793   -0.001016553
     24        1           0.000256996    0.000479388   -0.003212339
     25        1           0.001578349    0.002272014   -0.002151020
     26        1          -0.001278868    0.002036122    0.000734876
     27        1           0.000164871   -0.000504702    0.001033696
     28        1           0.000193903   -0.002946937   -0.001381297
     29        1           0.001290205   -0.000325811    0.003762188
     30        1           0.001609601    0.002965688   -0.002820878
 -------------------------------------------------------------------
 Cartesian Forces:  Max     0.015143098 RMS     0.004113194
 FormGI is forming the generalized inverse of G from B-inverse, IUseBI=4.
 GSVD:  received Info=                   1 from GESDD.

 GradGradGradGradGradGradGradGradGradGradGradGradGradGradGradGradGradGrad
 Berny optimization.
 Internal  Forces:  Max     0.015950227 RMS     0.002919728
 Search for a local minimum.
 Step number   1 out of a maximum of  160
 All quantities printed in internal units (Hartrees-Bohrs-Radians)
 Mixed Optimization -- RFO/linear search
 Second derivative matrix not updated -- analytic derivatives used.
 ITU=  0
     Eigenvalues ---   -0.00026   0.00026   0.00158   0.00226   0.00262
     Eigenvalues ---    0.00279   0.00446   0.00522   0.00871   0.01011
     Eigenvalues ---    0.01934   0.01986   0.02472   0.03298   0.03338
     Eigenvalues ---    0.03680   0.03874   0.04026   0.04293   0.04326
     Eigenvalues ---    0.04603   0.04839   0.05142   0.05152   0.05278
     Eigenvalues ---    0.06142   0.06456   0.07025   0.07642   0.08285
     Eigenvalues ---    0.08328   0.10339   0.10779   0.11015   0.11810
     Eigenvalues ---    0.11895   0.12159   0.13584   0.15101   0.15828
     Eigenvalues ---    0.16630   0.17526   0.18403   0.18927   0.19682
     Eigenvalues ---    0.20874   0.21336   0.22351   0.23207   0.23772
     Eigenvalues ---    0.24086   0.25100   0.27006   0.29135   0.30490
     Eigenvalues ---    0.31473   0.32095   0.32836   0.33844   0.33994
     Eigenvalues ---    0.34202   0.34480   0.34594   0.34669   0.34748
     Eigenvalues ---    0.35356   0.36640   0.37701   0.38071   0.38353
     Eigenvalues ---    0.41609   0.42224   0.45795   0.46005   0.46235
     Eigenvalues ---    0.46796   0.48828   0.48938   0.49212   0.50654
     Eigenvalues ---    0.60075   0.61476   0.82446   0.93533
 RFO step:  Lambda=-4.85403256D-03 EMin=-2.63914634D-04
 Linear search not attempted -- first point.
 Iteration  1 RMS(Cart)=  0.18400145 RMS(Int)=  0.04589625
 Iteration  2 RMS(Cart)=  0.11990230 RMS(Int)=  0.00862355
 Iteration  3 RMS(Cart)=  0.01511082 RMS(Int)=  0.00022742
 Iteration  4 RMS(Cart)=  0.00019490 RMS(Int)=  0.00020897
 Iteration  5 RMS(Cart)=  0.00000003 RMS(Int)=  0.00020897
 Variable       Old X    -DE/DX   Delta X   Delta X   Delta X     New X
                                 (Linear)    (Quad)   (Total)
    R1        2.32689   0.01440   0.00000   0.02145   0.02145   2.34834
    R2        2.55249   0.00751   0.00000   0.00648   0.00648   2.55898
    R3        2.84691   0.00492   0.00000   0.00976   0.00976   2.85667
    R4        2.76559   0.00099   0.00000   0.00562   0.00562   2.77121
    R5        1.89852   0.00456   0.00000   0.01060   0.01060   1.90911
    R6        2.90505   0.00538   0.00000   0.01764   0.01764   2.92269
    R7        2.88017   0.00212   0.00000   0.00050   0.00050   2.88067
    R8        2.06327   0.00299   0.00000   0.01159   0.01159   2.07487
    R9        2.52649   0.00547   0.00000  -0.00360  -0.00360   2.52289
   R10        2.26968   0.01595   0.00000   0.01859   0.01859   2.28827
   R11        1.85437   0.00650   0.00000   0.02207   0.02207   1.87645
   R12        2.82850   0.00211   0.00000  -0.00096  -0.00096   2.82754
   R13        2.06160   0.00238   0.00000   0.00816   0.00816   2.06977
   R14        2.05991   0.00525   0.00000   0.01618   0.01618   2.07610
   R15        2.58110   0.01062   0.00000   0.02177   0.02177   2.60287
   R16        2.60947   0.00523   0.00000   0.00795   0.00797   2.61744
   R17        2.61455   0.00161   0.00000  -0.00273  -0.00275   2.61180
   R18        2.04034   0.00064   0.00000   0.00174   0.00174   2.04208
   R19        2.47828   0.00440   0.00000   0.00622   0.00621   2.48449
   R20        2.56878   0.01081   0.00000   0.02180   0.02181   2.59059
   R21        2.03357   0.00357   0.00000   0.00846   0.00846   2.04204
   R22        1.90088   0.00318   0.00000   0.00694   0.00694   1.90782
   R23        2.87562   0.00522   0.00000   0.01606   0.01606   2.89168
   R24        2.06367   0.00336   0.00000   0.00937   0.00937   2.07304
   R25        2.06603   0.00244   0.00000   0.00738   0.00738   2.07341
   R26        2.77105   0.00199   0.00000  -0.00297  -0.00297   2.76809
   R27        2.06184   0.00097   0.00000   0.00278   0.00278   2.06462
   R28        2.07378   0.00295   0.00000   0.00905   0.00905   2.08283
   R29        1.91429   0.00345   0.00000   0.00508   0.00508   1.91937
   R30        1.91548   0.00401   0.00000   0.00644   0.00644   1.92192
    A1        2.10901  -0.00035   0.00000  -0.00195  -0.00195   2.10706
    A2        2.14302  -0.00166   0.00000  -0.01048  -0.01048   2.13254
    A3        2.03098   0.00204   0.00000   0.01246   0.01246   2.04345
    A4        2.12095   0.00348   0.00000   0.01449   0.01319   2.13414
    A5        2.09200  -0.00171   0.00000  -0.01444  -0.01575   2.07625
    A6        2.06136  -0.00178   0.00000  -0.01200  -0.01333   2.04803
    A7        1.93840   0.00017   0.00000   0.00726   0.00727   1.94566
    A8        1.93120  -0.00189   0.00000  -0.00390  -0.00392   1.92728
    A9        1.87267  -0.00012   0.00000  -0.00501  -0.00500   1.86767
   A10        1.93336   0.00240   0.00000   0.00315   0.00314   1.93650
   A11        1.86974  -0.00085   0.00000  -0.00447  -0.00446   1.86528
   A12        1.91642   0.00025   0.00000   0.00270   0.00270   1.91912
   A13        1.99609   0.00145   0.00000   0.00900   0.00899   2.00508
   A14        2.15758  -0.00205   0.00000  -0.01726  -0.01727   2.14031
   A15        2.12950   0.00059   0.00000   0.00820   0.00819   2.13769
   A16        1.91934   0.00376   0.00000   0.01007   0.01007   1.92941
   A17        1.97644  -0.00272   0.00000  -0.01303  -0.01298   1.96346
   A18        1.89597  -0.00173   0.00000  -0.02227  -0.02218   1.87379
   A19        1.90135   0.00142   0.00000   0.00060   0.00065   1.90200
   A20        1.92284   0.00354   0.00000   0.02510   0.02490   1.94775
   A21        1.92290   0.00010   0.00000   0.01006   0.00997   1.93287
   A22        1.83903  -0.00048   0.00000  -0.00011  -0.00036   1.83867
   A23        2.33762  -0.00095   0.00000  -0.00313  -0.00314   2.33449
   A24        2.11454   0.00340   0.00000   0.01042   0.01041   2.12495
   A25        1.83096  -0.00245   0.00000  -0.00728  -0.00726   1.82370
   A26        1.93095   0.00179   0.00000   0.00552   0.00549   1.93644
   A27        2.24409  -0.00141   0.00000  -0.00986  -0.00987   2.23423
   A28        2.10814  -0.00037   0.00000   0.00433   0.00433   2.11247
   A29        1.83770   0.00128   0.00000   0.00311   0.00309   1.84079
   A30        1.94768  -0.00125   0.00000  -0.00353  -0.00352   1.94416
   A31        2.20021   0.00014   0.00000   0.00105   0.00104   2.20125
   A32        2.13529   0.00111   0.00000   0.00249   0.00249   2.13778
   A33        1.87746   0.00064   0.00000   0.00224   0.00221   1.87966
   A34        2.19363   0.00018   0.00000   0.00462   0.00453   2.19817
   A35        2.21207  -0.00082   0.00000  -0.00672  -0.00681   2.20526
   A36        1.95848   0.00016   0.00000   0.00219   0.00218   1.96066
   A37        1.91696   0.00067   0.00000   0.00793   0.00791   1.92487
   A38        1.88808  -0.00046   0.00000  -0.00721  -0.00721   1.88087
   A39        1.93139  -0.00043   0.00000   0.00103   0.00100   1.93239
   A40        1.89544   0.00040   0.00000   0.00320   0.00321   1.89864
   A41        1.87074  -0.00037   0.00000  -0.00792  -0.00790   1.86284
   A42        1.90536   0.00126   0.00000   0.00628   0.00625   1.91161
   A43        1.89372   0.00008   0.00000  -0.00157  -0.00157   1.89215
   A44        1.91173  -0.00091   0.00000  -0.00570  -0.00579   1.90594
   A45        1.90259  -0.00110   0.00000  -0.00826  -0.00824   1.89435
   A46        1.97626   0.00078   0.00000   0.01461   0.01462   1.99088
   A47        1.87238  -0.00016   0.00000  -0.00619  -0.00618   1.86620
   A48        1.91889   0.00109   0.00000   0.01482   0.01445   1.93334
   A49        1.91673   0.00202   0.00000   0.02412   0.02375   1.94048
   A50        1.84682   0.00014   0.00000   0.02082   0.02011   1.86693
    D1        0.13135   0.00217   0.00000   0.08334   0.08324   0.21459
    D2        3.12748   0.00192   0.00000  -0.01505  -0.01495   3.11253
    D3       -2.99099   0.00120   0.00000   0.08190   0.08180  -2.90919
    D4        0.00514   0.00095   0.00000  -0.01649  -0.01639  -0.01125
    D5        0.65326  -0.00039   0.00000  -0.01434  -0.01435   0.63891
    D6        2.80934  -0.00035   0.00000  -0.00569  -0.00567   2.80367
    D7       -1.43736  -0.00068   0.00000  -0.01491  -0.01492  -1.45228
    D8       -2.50800   0.00061   0.00000  -0.01277  -0.01278  -2.52078
    D9       -0.35193   0.00066   0.00000  -0.00411  -0.00410  -0.35602
   D10        1.68456   0.00032   0.00000  -0.01334  -0.01334   1.67122
   D11       -1.42733   0.00173   0.00000   0.03402   0.03404  -1.39330
   D12        2.70115  -0.00013   0.00000   0.02762   0.02765   2.72881
   D13        0.61075   0.00073   0.00000   0.02964   0.02966   0.64040
   D14        1.85726   0.00198   0.00000   0.13099   0.13097   1.98822
   D15       -0.29744   0.00013   0.00000   0.12459   0.12458  -0.17286
   D16       -2.38785   0.00098   0.00000   0.12662   0.12658  -2.26126
   D17        1.04825   0.00079   0.00000  -0.00254  -0.00257   1.04568
   D18       -2.09900   0.00038   0.00000  -0.01216  -0.01215  -2.11115
   D19       -3.08148   0.00019   0.00000  -0.00016  -0.00017  -3.08165
   D20        0.05447  -0.00022   0.00000  -0.00979  -0.00975   0.04471
   D21       -0.99163   0.00134   0.00000   0.00217   0.00215  -0.98947
   D22        2.14432   0.00094   0.00000  -0.00745  -0.00743   2.13689
   D23       -1.23396   0.00214   0.00000   0.13183   0.13189  -1.10208
   D24        2.90702   0.00071   0.00000   0.12468   0.12463   3.03165
   D25        0.91225   0.00144   0.00000   0.13627   0.13626   1.04851
   D26        2.89162   0.00157   0.00000   0.12307   0.12313   3.01475
   D27        0.74942   0.00014   0.00000   0.11592   0.11587   0.86529
   D28       -1.24535   0.00087   0.00000   0.12751   0.12751  -1.11785
   D29        0.82997   0.00099   0.00000   0.12497   0.12502   0.95499
   D30       -1.31223  -0.00044   0.00000   0.11782   0.11777  -1.19447
   D31        2.97618   0.00029   0.00000   0.12941   0.12940   3.10558
   D32        0.01010   0.00035   0.00000  -0.03251  -0.03257  -0.02247
   D33       -3.12594   0.00075   0.00000  -0.02297  -0.02291   3.13433
   D34       -0.47110   0.00102   0.00000   0.40926   0.40931  -0.06179
   D35        2.68427   0.00104   0.00000   0.40807   0.40814   3.09241
   D36        1.65614  -0.00052   0.00000   0.38976   0.38957   2.04571
   D37       -1.47168  -0.00050   0.00000   0.38857   0.38840  -1.08327
   D38       -2.60535   0.00103   0.00000   0.41022   0.41033  -2.19503
   D39        0.55002   0.00105   0.00000   0.40903   0.40916   0.95917
   D40       -3.13537   0.00054   0.00000   0.00813   0.00818  -3.12719
   D41        0.00835   0.00034   0.00000   0.01680   0.01679   0.02514
   D42       -0.00598   0.00055   0.00000   0.00929   0.00931   0.00333
   D43        3.13774   0.00035   0.00000   0.01795   0.01792  -3.12752
   D44        3.13558  -0.00054   0.00000  -0.00899  -0.00899   3.12660
   D45       -0.01287   0.00003   0.00000   0.01149   0.01158  -0.00130
   D46        0.00425  -0.00052   0.00000  -0.00986  -0.00985  -0.00559
   D47        3.13898   0.00006   0.00000   0.01061   0.01072  -3.13348
   D48        0.00540  -0.00037   0.00000  -0.00506  -0.00508   0.00032
   D49       -3.13813  -0.00018   0.00000  -0.01297  -0.01302   3.13204
   D50       -0.00257   0.00003   0.00000  -0.00145  -0.00145  -0.00402
   D51        3.13619   0.00006   0.00000   0.00210   0.00216   3.13835
   D52       -0.00106   0.00030   0.00000   0.00727   0.00730   0.00624
   D53       -3.13570  -0.00029   0.00000  -0.01355  -0.01342   3.13406
   D54       -3.13995   0.00028   0.00000   0.00387   0.00386  -3.13610
   D55        0.00859  -0.00031   0.00000  -0.01694  -0.01687  -0.00828
   D56       -3.09075   0.00095   0.00000   0.02947   0.02946  -3.06128
   D57       -1.01931   0.00039   0.00000   0.02221   0.02220  -0.99711
   D58        1.01946  -0.00026   0.00000   0.01075   0.01077   1.03023
   D59        1.04446   0.00028   0.00000   0.01687   0.01686   1.06132
   D60        3.11590  -0.00028   0.00000   0.00961   0.00960   3.12550
   D61       -1.12852  -0.00092   0.00000  -0.00185  -0.00183  -1.13034
   D62       -1.00442   0.00074   0.00000   0.02396   0.02396  -0.98046
   D63        1.06702   0.00018   0.00000   0.01671   0.01670   1.08371
   D64        3.10579  -0.00047   0.00000   0.00525   0.00527   3.11105
   D65        3.02936  -0.00115   0.00000  -0.04419  -0.04442   2.98494
   D66       -1.22858   0.00083   0.00000   0.00359   0.00374  -1.22484
   D67        0.96346  -0.00133   0.00000  -0.04113  -0.04133   0.92213
   D68        2.98871   0.00065   0.00000   0.00664   0.00682   2.99553
   D69       -1.11917  -0.00088   0.00000  -0.03696  -0.03710  -1.15627
   D70        0.90608   0.00111   0.00000   0.01081   0.01106   0.91713
         Item               Value     Threshold  Converged?
 Maximum Force            0.015950     0.000450     NO 
 RMS     Force            0.002920     0.000300     NO 
 Maximum Displacement     1.936057     0.001800     NO 
 RMS     Displacement     0.282702     0.001200     NO 
 Predicted change in Energy=-4.123694D-03
 GradGradGradGradGradGradGradGradGradGradGradGradGradGradGradGradGradGrad

                          Input orientation:                          
 ---------------------------------------------------------------------
 Center     Atomic      Atomic             Coordinates (Angstroms)
 Number     Number       Type             X           Y           Z
 ---------------------------------------------------------------------
      1          8           0        0.573426   -1.621144    1.631614
      2          6           0        0.871130   -0.625473    0.950230
      3          7           0        0.346748   -0.451204   -0.286047
      4          6           0       -0.775923   -1.254493   -0.780870
      5          6           0       -0.305271   -2.643423   -1.272193
      6          8           0        0.292588   -3.394541   -0.344420
      7          8           0       -0.479743   -3.028198   -2.407002
      8          6           0       -1.518191   -0.508799   -1.883927
      9          6           0       -2.138929    0.762880   -1.397774
     10          6           0       -2.232856    1.365773   -0.162918
     11          7           0       -2.939511    2.550795   -0.244020
     12          6           0       -3.274669    2.673330   -1.509399
     13          7           0       -2.810669    1.619846   -2.253842
     14          6           0        1.803963    0.449362    1.459875
     15          6           0        2.940682   -0.122303    2.309944
     16          7           0        3.740050    0.974892    2.860248
     17          1           0        0.587166    0.380577   -0.806587
     18          1           0       -1.446611   -1.428210    0.070918
     19          1           0        0.348395   -2.904829    0.517591
     20          1           0       -2.269035   -1.193264   -2.293027
     21          1           0       -0.823303   -0.311080   -2.711581
     22          1           0       -1.826584    1.022629    0.777797
     23          1           0       -3.840949    3.485312   -1.942652
     24          1           0       -2.943733    1.483073   -3.245221
     25          1           0        2.202463    1.035478    0.622566
     26          1           0        1.214468    1.139546    2.076310
     27          1           0        2.503060   -0.683127    3.139179
     28          1           0        3.518752   -0.840825    1.706309
     29          1           0        4.406944    0.627477    3.543014
     30          1           0        4.276103    1.440242    2.131923
 ---------------------------------------------------------------------
                    Distance matrix (angstroms):
                    1          2          3          4          5
     1  O    0.000000
     2  C    1.242688   0.000000
     3  N    2.257778   1.354151   0.000000
     4  C    2.788415   2.470862   1.466462   0.000000
     5  C    3.201447   3.224160   2.490670   1.546622   0.000000
     6  O    2.669929   3.111040   2.944413   2.431462   1.335056
     7  O    4.404473   4.343841   3.438376   2.424470   1.210902
     8  C    4.239246   3.708762   2.456529   1.524387   2.530220
     9  C    4.713558   4.062155   2.981363   2.511603   3.870526
    10  C    4.474063   3.852128   3.157677   3.061097   4.584728
    11  N    5.767478   5.102538   4.451210   4.410163   5.914074
    12  C    6.566300   5.841192   4.936999   4.711929   6.094379
    13  N    6.087108   5.372447   4.258022   3.817285   5.041440
    14  C    2.414687   1.511683   2.445964   3.818360   4.634478
    15  C    2.882804   2.526865   3.684540   4.964689   5.451969
    16  N    4.275097   3.800005   4.842254   6.214653   6.821577
    17  H    3.154663   2.044304   1.010260   2.128880   3.187133
    18  H    2.559989   2.605667   2.073185   1.097972   2.140875
    19  H    1.714507   2.378212   2.581880   2.381953   1.923263
    20  H    4.864717   4.549917   3.379488   2.125970   2.646022
    21  H    4.746626   4.047073   2.696640   2.149399   2.789269
    22  H    3.671320   3.166013   2.833253   2.952731   4.467303
    23  H    7.637930   6.889921   5.981413   5.762800   7.107174
    24  H    6.766838   6.049873   4.829639   4.273955   5.280369
    25  H    3.275604   2.153733   2.545483   4.010534   4.838715
    26  H    2.868814   2.121609   2.977273   4.225702   5.275693
    27  H    2.622235   2.730937   4.054089   5.142468   5.584773
    28  H    3.047855   2.761871   3.766018   4.980102   5.171459
    29  H    4.837935   4.560087   5.684229   7.007132   7.489325
    30  H    4.830343   4.154205   4.986380   6.424090   7.018071
                    6          7          8          9         10
     6  O    0.000000
     7  O    2.232699   0.000000
     8  C    3.738517   2.774771   0.000000
     9  C    4.930109   4.259543   1.496271   0.000000
    10  C    5.391790   5.236058   2.643225   1.377378   0.000000
    11  N    6.767833   6.469476   3.751075   2.273482   1.382105
    12  C    7.134532   6.412856   3.653960   2.225350   2.146646
    13  N    6.198401   5.202018   2.517631   1.385092   2.184121
    14  C    4.507253   5.679918   4.809968   4.879636   4.446254
    15  C    4.976504   6.510999   6.133472   6.350840   5.924096
    16  N    6.422370   7.846994   7.235858   7.262100   6.705813
    17  H    3.814694   3.913997   2.526694   2.815538   3.055724
    18  H    2.657776   3.104011   2.161449   2.727129   2.911907
    19  H    0.992973   3.042084   3.872001   4.827783   5.036267
    20  H    3.899307   2.565451   1.095273   2.155204   3.329767
    21  H    4.044304   2.755636   1.098623   2.147173   3.360708
    22  H    5.026097   5.325986   3.086285   2.213173   1.080625
    23  H    8.183694   7.344327   4.620776   3.256593   3.200915
    24  H    6.532958   5.208207   2.802293   2.139965   3.165391
    25  H    4.920137   5.734629   4.744530   4.796225   4.516430
    26  H    5.221852   6.351419   5.086054   4.843181   4.116960
    27  H    4.936944   6.719866   6.436804   6.650033   6.126234
    28  H    4.597291   6.139372   6.194419   6.649553   6.437708
    29  H    6.943825   8.523284   8.114804   8.202328   7.639762
    30  H    6.736156   7.949017   7.314346   7.353246   6.902057
                   11         12         13         14         15
    11  N    0.000000
    12  C    1.314736   0.000000
    13  N    2.218705   1.370883   0.000000
    14  C    5.460754   6.289286   6.037927   0.000000
    15  C    6.945852   7.812396   7.545944   1.530212   0.000000
    16  N    7.532363   8.437108   8.335575   2.446561   1.464808
    17  H    4.178969   4.545814   3.895590   2.573359   3.937600
    18  H    4.261504   4.760443   4.068883   4.002588   5.095780
    19  H    6.415154   6.953497   6.175209   3.775868   4.204156
    20  H    4.320410   4.071353   2.865046   5.776834   7.033879
    21  H    4.330996   4.044890   2.808491   4.988170   6.278450
    22  H    2.148955   3.170651   3.242827   3.738280   5.136650
    23  H    2.138052   1.080600   2.153666   7.256667   8.780090
    24  H    3.185476   2.130565   1.009577   6.763661   8.250057
    25  H    5.430199   6.101378   5.809192   1.097005   2.175469
    26  H    4.962973   5.946608   5.931495   1.097201   2.150968
    27  H    7.178152   8.139854   7.913538   2.142739   1.092551
    28  H    7.550896   8.297025   7.861251   2.160049   1.102185
    29  H    8.485941   9.419107   9.310332   3.338668   2.057318
    30  H    7.677469   8.473128   8.336039   2.746811   2.063150
                   16         17         18         19         20
    16  N    0.000000
    17  H    4.872327   0.000000
    18  H    6.360559   2.859716   0.000000
    19  H    5.660707   3.550261   2.366847   0.000000
    20  H    8.207695   3.583904   2.513924   4.204755   0.000000
    21  H    7.315955   2.469173   3.062481   4.304411   1.744585
    22  H    5.943593   2.957819   2.578889   4.497017   3.812598
    23  H    9.318884   5.526140   5.824947   8.027284   4.948004
    24  H    9.066861   4.430540   4.659799   6.652108   2.919704
    25  H    2.715707   2.254009   4.437321   4.355985   5.784658
    26  H    2.649573   3.046413   4.206698   4.420028   6.055402
    27  H    2.087337   4.513445   5.056607   4.056016   7.248586
    28  H    2.162725   4.049773   5.260642   3.965391   7.043960
    29  H    1.015684   5.794022   7.109530   6.172698   9.052247
    30  H    1.017035   4.833838   6.724970   6.075574   8.327927
                   21         22         23         24         25
    21  H    0.000000
    22  H    3.867959   0.000000
    23  H    4.910196   4.186086   0.000000
    24  H    2.828424   4.200560   2.551596   0.000000
    25  H    4.699470   4.032057   7.007486   6.453174   0.000000
    26  H    5.401918   3.308746   6.871093   6.762199   1.760777
    27  H    6.740512   5.218386   9.134952   8.667211   3.062238
    28  H    6.217059   5.736481   9.284157   8.466514   2.535277
    29  H    8.207090   6.830772  10.309583  10.042143   3.681741
    30  H    7.247800   6.265050   9.309727   9.002308   2.596531
                   26         27         28         29         30
    26  H    0.000000
    27  H    2.472306   0.000000
    28  H    3.060799   1.763410   0.000000
[...]
 .02095709,0.02543002,-0.06501751,-0.04762477,-0.00000771,0.00000727,-0
 .00005312,0.00001693,-0.00001055,0.00001262,-0.00001492,-0.00002143,-0
 .00001737,-0.00005725,0.00008077,0.00003455,-0.00007104,0.00009832,-0.
 00011203,0.00004346,0.00006303,0.00011958,-0.00004928,-0.00084668,0.00
 011440,0.00059540,-0.00009424,-0.00011091,0.00038262,0.00123831,0.0007
 4951,-0.00017232,-0.00053414,0.00067905,-0.01588069,0.05388394,0.00003
 620,-0.00010961,0.00012131,-0.00010282,0.00009384,-0.00028199,0.000194
 04,-0.00009801,0.00019755,-0.00002300,-0.00013319,-0.00026047,-0.00004
 526,0.00027717,0.00024623,0.00008152,-0.00017265,-0.00000917,0.0000506
 0,-0.00015534,-0.00015734,0.00007528,-0.00011743,0.00076776,0.00329247
 ,-0.00674237,-0.00827138,-0.00097849,0.00104845,-0.00129736,0.00020175
 ,-0.00190343,0.00017227,-0.00241770,0.00491002,-0.00648201,-0.03153569
 ,-0.04616912,-0.45282738,0.00002099,-0.00000269,0.00002862,-0.00005702
 ,0.00000780,-0.00002191,0.00003771,0.00001066,0.00002615,-0.00010157,0
 .00004414,-0.00001099,0.00001704,0.00000053,0.00001098,-0.00002642,0.0
 0004895,-0.00001387,-0.00012309,0.00026346,0.00015005,-0.00003231,0.00
 033162,0.00012497,-0.00005148,-0.00041082,-0.00006985,0.00023592,-0.00
 007502,0.00016512,0.03124816,0.04905653,0.46770157,-0.00119865,-0.0056
 1009,-0.00280722,-0.00450502,-0.00702682,0.01920542,0.00020668,0.00027
 734,-0.00132334,0.00013359,0.00025510,0.00020809,0.00043283,-0.0003861
 2,0.00054130,-0.00033124,-0.00011695,-0.00094720,-0.00014399,0.0000705
 8,-0.00030689,0.00005385,0.00000334,0.00000588,0.00004312,-0.00002414,
 -0.00011035,0.00009583,0.00000840,0.00008895,0.00001666,0.00009133,-0.
 00001459,-0.00003034,0.00002559,-0.00002224,0.00000430,0.00001199,0.00
 003343,-0.07055294,-0.04523716,0.05102146,0.00792516,0.01744208,-0.022
 19862,0.00192741,0.00056773,0.00127832,-0.00098192,-0.00081165,-0.0012
 5669,0.00005838,0.00001671,0.00005275,0.00016016,0.00079179,0.00101978
 ,0.00001158,0.00000082,0.00001408,-0.00002494,-0.00000178,-0.00002259,
 -0.00002325,-0.00006292,0.00003823,-0.00000811,-0.00000080,0.00000079,
 -0.00001222,-0.00001533,-0.00000847,0.07516339,-0.00429161,-0.00466210
 ,-0.00297119,-0.00359583,-0.01469128,0.02214707,0.00185698,0.00096035,
 -0.00058424,0.00003364,0.00004797,-0.00036519,0.00037072,-0.00045301,0
 .00054104,-0.00021162,-0.00007029,-0.00090351,-0.00011071,0.00009308,-
 0.00027707,0.00001451,0.00003691,0.00001421,0.00001239,0.00002618,0.00
 000663,0.00001516,0.00002039,0.00001190,0.00000178,-0.00001726,-0.0000
 1658,-0.00000393,-0.00000407,0.00002179,0.00000743,0.00000486,-0.00002
 442,-0.04566639,-0.14113480,0.11350934,-0.00369921,-0.00764492,0.00922
 401,0.00009901,0.00081858,-0.00114281,-0.00143583,0.00049415,-0.000725
 73,0.00019571,0.00011384,0.00010065,-0.00003726,0.00066934,0.00097102,
 0.00002621,-0.00001974,0.00000998,-0.00002050,-0.00001290,-0.00003570,
 -0.00000609,-0.00000879,0.00000183,-0.00000046,-0.00000039,0.00000056,
 -0.00001184,-0.00000042,-0.00000191,0.04969872,0.15380006,-0.00142781,
 -0.00350485,0.00040076,-0.00431909,-0.00767247,0.00801624,-0.00057413,
 -0.00077422,-0.00028340,0.00025852,0.00004700,0.00066256,-0.00000049,0
 .00000917,-0.00011194,0.00005790,-0.00004185,-0.00006428,0.00000826,0.
 00000826,0.00007517,0.00006124,0.00011224,0.00001275,-0.00001296,0.000
 02364,0.00006508,-0.00007513,0.00000468,-0.00005554,-0.00001429,-0.000
 06964,0.00001312,0.00001633,-0.00001487,0.00001432,-0.00000581,-0.0000
 0044,-0.00002373,0.05451210,0.11737711,-0.19018753,0.00463212,0.009760
 02,-0.01249123,0.00059288,-0.00062899,0.00123260,-0.00035107,-0.000574
 79,0.00016359,-0.00008043,-0.00009283,0.00001005,-0.00007247,0.0000486
 1,0.00015929,0.00001996,-0.00002874,0.00002702,0.00000518,-0.00000266,
 0.00000629,0.00002256,0.00002825,-0.00002764,0.00000772,0.00000063,-0.
 00000033,0.00000955,0.00001159,0.00000340,-0.05446998,-0.12761522,0.20
 689380,-0.00167835,0.00031867,0.00129142,0.01334753,-0.01114868,-0.014
 56383,-0.00204285,-0.00049771,-0.00043123,-0.00080714,0.00077288,0.000
 30948,0.00003897,0.00036073,0.00025299,0.00002917,-0.00007121,0.000060
 51,-0.00000445,-0.00008934,-0.00014073,-0.00018528,-0.00023486,-0.0000
 0252,0.00005400,-0.00013272,-0.00009877,0.00002993,0.00009351,-0.00011
 550,0.00000263,0.00004577,0.00005412,-0.00001685,0.00002849,0.00001875
 ,0.00001732,-0.00002698,0.00013846,-0.11584790,0.07031457,0.09126892,-
 0.01769214,0.01711044,0.01732464,0.00275789,-0.00101168,0.00103433,0.0
 0008119,-0.00025297,-0.00040721,-0.00014690,-0.00010292,-0.00013327,-0
 .00003226,0.00008994,-0.00004419,-0.00004627,0.00008413,-0.00008706,0.
 00001383,0.00002848,0.00000203,-0.00008252,-0.00007636,-0.00001263,-0.
 00000207,0.00000180,0.00001185,0.00000406,-0.00002146,0.00000276,-0.00
 491674,0.00484123,0.00594813,0.12922348,-0.00307763,0.00103758,0.00194
 564,0.01383102,-0.01418249,-0.01694971,-0.00121093,-0.00051690,0.00073
 491,-0.00046916,0.00028629,-0.00023103,0.00002150,0.00021873,0.0000754
 3,0.00004718,0.00005324,0.00020106,-0.00000068,-0.00003505,-0.00001587
 ,-0.00014635,-0.00012809,0.00001648,0.00001789,-0.00005887,-0.00002074
 ,-0.00005697,0.00008475,-0.00012865,-0.00001147,-0.00003255,0.00003368
 ,0.00000377,-0.00000961,0.00003214,0.00001043,0.00000296,0.00004807,0.
 07413631,-0.12186941,-0.09362618,0.00988362,-0.00855313,-0.00768902,-0
 .00169503,0.00096575,0.00007472,-0.00022097,-0.00005409,-0.00012385,-0
 .00000441,-0.00000467,-0.00012248,-0.00007441,-0.00014577,-0.00016797,
 -0.00002474,0.00004438,-0.00004620,0.00000291,0.00000716,-0.00000526,-
 0.00005943,0.00001130,-0.00001698,0.00000247,0.00000154,0.00000773,0.0
 0000496,-0.00000788,0.00000101,-0.01056578,0.01150220,0.01377448,-0.08
 175853,0.13159779,-0.00000970,0.00156979,0.00040284,0.00486549,-0.0067
 0613,-0.00963505,-0.00186638,-0.00099472,0.00030593,-0.00059758,0.0003
 4032,0.00030045,-0.00001610,0.00030280,-0.00003090,0.00009405,0.000015
 21,0.00021099,-0.00000260,-0.00004045,0.00001934,-0.00006115,-0.000159
 20,-0.00000959,0.00003163,-0.00011590,-0.00017050,0.00007199,0.0001298
 0,-0.00012543,0.00003570,0.00009253,0.00006725,-0.00001527,0.00001998,
 -0.00000456,0.00002048,-0.00003373,0.00019867,0.09509076,-0.09286599,-
 0.15786157,-0.01017922,0.00920741,0.01016793,0.00103665,0.00047289,0.0
 0047881,0.00079711,-0.00044181,-0.00043765,-0.00016559,-0.00012613,-0.
 00016046,-0.00012236,-0.00017643,-0.00021703,-0.00004002,0.00006646,-0
 .00003348,-0.00000411,0.00002755,0.00001644,-0.00016609,-0.00011915,0.
 00005023,-0.00000266,-0.00000043,0.00001451,0.00000347,-0.00002276,-0.
 00001021,0.01183059,-0.01255774,-0.01520390,-0.09805151,0.10109028,0.1
 7126683,-0.00087537,-0.00067754,0.00078048,0.00087878,0.00107770,-0.00
 158635,0.00009169,-0.00040545,0.00066591,-0.00001985,-0.00012969,0.000
 00671,-0.00011303,0.00005499,-0.00014316,0.00006117,0.00007518,0.00022
 460,0.00003167,-0.00000310,0.00007572,0.00000508,0.00002219,0.00000134
 ,-0.00001000,0.00000795,0.00002350,-0.00002154,0.00000064,-0.00002417,
 -0.00000131,-0.00002587,0.00001015,0.00000836,-0.00000912,0.00000292,-
 0.00000093,-0.00000472,-0.00000007,0.00741073,0.01742462,-0.02172267,-
 0.07407127,-0.04707802,0.06372005,-0.00800547,-0.01517797,0.01214839,0
 .00032097,0.00017986,0.00030802,-0.00002378,-0.00001705,-0.00001408,-0
 .00000032,-0.00025069,-0.00022099,0.00000285,-0.00000500,0.00000306,0.
 00000493,0.00000084,0.00000847,0.00001065,0.00001567,-0.00000886,0.000
 00251,-0.00000025,0.00000020,0.00000410,0.00000492,0.00000038,-0.00466
 443,0.00185550,-0.00342486,0.00154273,-0.00009515,0.00043496,0.0835867
 0,-0.00067131,-0.00018261,-0.00120859,-0.00052889,-0.00058338,-0.00021
 295,0.00004074,-0.00005413,0.00040549,-0.00007011,0.00000595,-0.000012
 95,0.00001694,0.00000326,-0.00005486,0.00001512,-0.00002408,0.00004476
 ,-0.00000291,0.00001095,0.00004574,0.00000362,0.00000258,-0.00000794,0
 .00000210,0.00000872,-0.00000180,0.00001055,-0.00000153,0.00001640,0.0
 0000535,0.00000399,-0.00001093,0.00000017,-0.00000332,0.00000531,0.000
 00236,-0.00000138,-0.00001366,-0.00138578,-0.00726965,0.01079414,-0.04
 659846,-0.13998053,0.11305574,-0.01052641,-0.01977154,0.01779316,0.000
 01423,0.00007119,-0.00006070,0.00000869,0.00001360,-0.00001443,-0.0000
 4177,0.00002613,-0.00005381,0.00000404,-0.00000201,0.00000265,-0.00000
 007,-0.00000254,-0.00000465,-0.00000555,0.00000050,0.00001125,-0.00000
 183,-0.00000065,-0.00000041,-0.00000342,-0.00000033,-0.00000173,0.0016
 3081,-0.00030932,0.00072856,-0.00050804,0.00018984,0.00003304,0.055911
 04,0.15846184,0.00090805,-0.00157116,0.00195199,0.00097281,0.00342862,
 -0.00206016,-0.00013201,-0.00046173,0.00072627,0.00002972,-0.00009796,
 -0.00005426,-0.00014441,0.00014624,-0.00027281,0.00010509,-0.00001122,
 0.00031055,0.00004044,-0.00002492,0.00013564,-0.00001955,0.00000077,-0
 .00000005,-0.00001145,0.00001349,0.00002526,-0.00001750,-0.00000692,-0
 .00000461,-0.00000536,-0.00002196,-0.00000102,0.00000863,-0.00001022,0
 .00000691,-0.00000284,-0.00000586,-0.00001514,0.00308767,0.00859583,-0
 .01279940,0.06471058,0.11997236,-0.20251552,-0.00630629,-0.01231495,0.
 01322481,0.00016172,-0.00002288,0.00023416,-0.00003868,-0.00000665,-0.
 00001921,-0.00005883,-0.00020502,-0.00028120,-0.00000334,-0.00000128,-
 0.00000169,0.00001301,-0.00000425,0.00001525,0.00001485,0.00002092,-0.
 00000324,0.00000313,0.00000015,-0.00000092,0.00000619,0.00000639,0.000
 00028,-0.00308897,0.00065967,-0.00015207,-0.00002613,-0.00044340,0.001
 13271,-0.06443743,-0.12561235,0.21401153,0.00025936,-0.00164203,-0.000
 03420,0.00067743,0.00338183,0.00109489,-0.00015688,-0.00062266,-0.0007
 6258,0.00001453,0.00006096,0.00001796,-0.00026819,0.00027959,-0.000129
 43,0.00026616,-0.00018508,0.00003081,0.00008663,-0.00008548,0.00001188
 ,-0.00004822,-0.00003316,0.00000521,-0.00000514,0.00001967,0.00006369,
 -0.00000999,-0.00005283,0.00005277,-0.00001787,-0.00002231,-0.00003449
 ,0.00000320,0.00000381,0.00000406,-0.00000863,0.00000912,-0.00007955,-
 0.01768607,0.01331855,0.01610224,-0.12507428,0.06927353,0.08479766,0.0
 1113500,-0.01632803,-0.01655003,-0.00006968,0.00008003,0.00019009,-0.0
 0003059,-0.00000327,-0.00000514,-0.00021492,0.00013405,0.00013559,-0.0
 0001273,0.00000433,-0.00001583,0.00001205,0.00000518,-0.00000166,0.000
 05361,0.00003772,-0.00000747,0.00000038,0.00000101,-0.00000603,-0.0000
 0055,0.00000657,0.00000899,0.00133774,-0.00026960,-0.00032002,-0.00394
 764,0.00189738,-0.00318738,-0.00475331,0.00552605,0.00617696,0.1359096
 6,0.00008852,0.00055539,-0.00021179,-0.00032494,-0.00103881,-0.0002007
 3,0.00003334,0.00033845,0.00045653,0.00004224,0.00000373,0.00004903,0.
 00014298,-0.00011131,0.00004612,-0.00012702,0.00004530,-0.00002713,-0.
 00005551,0.00003236,0.00000211,0.00003071,0.00000825,-0.00000639,-0.00
 000749,-0.00001892,-0.00002842,0.00000822,0.00000993,-0.00001845,0.000
 00417,0.00002564,0.00002490,-0.00000254,0.00000100,-0.00002239,-0.0000
 0273,0.00000271,0.00004798,0.00987843,-0.00536305,-0.00662177,0.070564
 45,-0.11691251,-0.07600427,0.00319160,-0.02180011,-0.02182398,0.000139
 61,-0.00007036,-0.00010115,0.00000198,-0.00000976,0.00000971,0.0000797
 2,0.00000878,-0.00003852,0.00000023,0.00000173,0.00000628,-0.00000347,
 -0.00000040,0.00000895,-0.00001557,-0.00001934,-0.00000224,-0.00000045
 ,-0.00000055,0.00000096,0.00000598,-0.00000471,-0.00000243,-0.00056830
 ,0.00001652,-0.00050011,0.00164312,-0.00027697,0.00088337,-0.00978746,
 0.01143286,0.01112622,-0.07577947,0.13231281,-0.00009796,0.00051101,0.
 00033240,0.00031902,0.00005708,0.00101283,0.00031416,0.00009556,-0.000
 11958,0.00003407,0.00006706,0.00001462,0.00016277,-0.00015447,0.000184
 59,-0.00019920,0.00012247,-0.00008354,-0.00005508,0.00003076,-0.000074
 83,0.00000183,0.00000816,0.00001103,-0.00000085,-0.00000597,0.00000361
 ,-0.00000011,-0.00002568,0.00001923,-0.00000645,0.00001430,0.00000368,
 -0.00000376,0.00000720,-0.00002162,-0.00000520,0.00001652,-0.00000297,
 -0.01084122,0.00924060,0.00947416,0.08698424,-0.07606230,-0.14831203,-
 0.00041385,-0.01480415,-0.00826121,-0.00001432,-0.00002726,-0.00000643
 ,0.00000507,0.00000379,0.00002107,0.00016328,-0.00007692,-0.00003401,0
 .00000303,-0.00000021,-0.00000028,0.00000101,-0.00000415,0.00000229,0.
 00002319,0.00000714,-0.00001220,-0.00000216,-0.00000001,-0.00000245,0.
 00000085,-0.00000390,0.00000246,0.00073630,-0.00031992,0.00101928,-0.0
 0364154,0.00136443,-0.00071185,0.01463192,-0.01350056,-0.01499600,-0.0
 8721690,0.09283415,0.15978572,-0.00002798,-0.00062193,0.00034214,-0.00
 042746,0.00202021,-0.00118192,-0.00055054,-0.00070272,-0.00036500,0.00
 013860,0.00005650,-0.00012216,-0.00008042,0.00013078,0.00010105,-0.000
 00384,-0.00009136,-0.00006475,0.00001158,-0.00007730,-0.00011322,-0.00
 003044,-0.00006839,0.00000360,0.00000028,-0.00002649,0.00000535,-0.000
 00523,-0.00002148,0.00000272,-0.00001722,0.00001774,0.00000714,-0.0000
 0776,0.00001829,-0.00002222,-0.00000843,0.00001324,0.00001115,-0.00293
 663,-0.00555168,-0.00176820,-0.01336022,0.01342284,-0.00685254,-0.2280
 2665,0.07649452,-0.19772246,-0.00000568,-0.00004010,0.00010167,-0.0000
 1064,-0.00000966,0.00000621,0.00001816,0.00013217,0.00007966,-0.000023
 10,0.00002010,-0.00002329,0.00000235,0.00000919,0.00000558,0.00002262,
 0.00000029,-0.00002099,0.00000084,0.00000192,-0.00000195,0.00000579,-0
 .00000442,0.00000740,0.00029330,0.00006343,0.00009406,0.00051795,-0.00
 025067,0.00006445,0.00016164,-0.00011641,0.00049138,0.00112408,0.00022
 765,0.00033919,0.23139282,0.00015801,-0.00013263,0.00009108,-0.0008849
 0,0.00126717,-0.00044338,-0.00013970,-0.00032771,-0.00017219,0.0000647
 5,-0.00005736,-0.00009112,-0.00008745,0.00007539,-0.00003540,0.0000507
 6,-0.00005341,0.00002344,0.00002892,-0.00002954,-0.00000933,-0.0000108
 0,-0.00002063,0.00000304,0.00000529,-0.00000159,-0.00000158,0.00000406
 ,0.00000065,0.00000322,0.00000583,0.00000232,-0.00000275,-0.00000312,0
 .00000573,-0.00000016,0.00000229,-0.00000096,0.00000077,-0.00187367,-0
 .00385559,-0.00150478,-0.02246610,0.00733469,-0.02352188,0.08466505,-0
 .09565565,0.11859405,-0.00006223,-0.00001812,0.00005718,0.00000172,0.0
 0000901,0.00000085,-0.00001957,0.00004062,0.00000805,-0.00000531,0.000
 00374,-0.00000502,0.00000046,0.00000038,-0.00000118,-0.00000165,-0.000
 00276,-0.00000013,-0.00000097,0.00000018,0.00000058,-0.00000393,-0.000
 00076,-0.00000060,0.00009344,-0.00000391,-0.00033584,-0.00005860,-0.00
 009715,0.00029555,-0.00004405,0.00107842,0.00048182,-0.00026763,-0.000
 15647,-0.00056207,-0.07774292,0.09848200,0.00018364,-0.00007576,-0.000
 05673,-0.00032395,0.00049502,0.00026523,0.00004842,0.00003895,0.000080
 70,-0.00001554,-0.00000885,0.00000023,-0.00003374,0.00000443,-0.000052
 60,0.00005965,-0.00000307,0.00001582,0.00002177,0.00000909,0.00002988,
 0.00000031,0.00000745,-0.00000231,0.00000225,0.00001022,-0.00000055,0.
 00000674,0.00001035,0.00000158,0.00001128,-0.00000711,-0.00000990,0.00
 000157,-0.00000320,0.00001475,0.00000716,-0.00000647,-0.00001136,0.000
 39942,-0.00241163,0.00019388,-0.00992494,0.00427812,-0.00924601,-0.158
 20461,0.09002181,-0.18311658,-0.00003083,0.00001555,-0.00001527,0.0000
 0763,0.00000560,-0.00000167,-0.00004341,-0.00000815,0.00001568,0.00000
 468,-0.00000419,0.00000418,-0.00000037,-0.00000265,-0.00000505,-0.0000
 1412,-0.00000233,0.00001086,-0.00000166,-0.00000078,0.00000131,-0.0000
 0756,0.00000080,-0.00000218,0.00025095,-0.00014436,0.00016009,-0.00005
 131,0.00009075,0.00017519,0.00069578,0.00049472,0.00125948,0.00017463,
 0.00045272,-0.00056409,0.18841684,-0.10333848,0.20928138,0.00004814,0.
 00095565,-0.00042129,-0.00028841,-0.00102930,-0.00035377,0.00003754,0.
 00014740,0.00002091,-0.00004657,-0.00000628,-0.00002723,0.00007720,-0.
 00012382,0.00000942,-0.00006012,0.00008512,0.00000190,-0.00002675,0.00
 005531,0.00002449,0.00001342,0.00000101,0.00000016,0.00000554,-0.00000
 691,-0.00003201,0.00002546,0.00000858,0.00000298,0.00002582,0.00002710
 ,0.00001814,-0.00000681,0.00000268,-0.00002318,0.00000677,0.00000620,0
 .00003240,0.00028387,-0.00096221,0.00179247,-0.00909295,-0.00510796,0.
 01764953,-0.13283130,-0.12653965,0.12275232,-0.00007283,-0.00004111,-0
 .00007936,0.00001795,0.00001366,0.00000292,0.00002846,-0.00007213,-0.0
 0005285,0.00000649,0.00000165,0.00000359,-0.00000659,-0.00000490,-0.00
 000596,-0.00001891,-0.00001845,0.00000610,-0.00000563,-0.00000241,0.00
 000121,-0.00001018,-0.00000648,-0.00000787,-0.00047019,0.00026845,-0.0
 0109795,-0.00021133,-0.00013714,0.00011038,-0.00156395,-0.00273085,-0.
 00243742,0.00142488,0.00059201,-0.00122135,0.01183224,0.01859200,-0.02
 164069,0.13087875,-0.00012627,0.00006354,-0.00023325,-0.00011994,-0.00
 035142,0.00014616,0.00008081,-0.00001926,-0.00011062,-0.00001809,0.000
 00099,-0.00001012,-0.00007529,0.00007594,-0.00003527,0.00008022,-0.000
 05409,0.00001123,0.00003587,-0.00002253,0.00001102,-0.00001289,0.00000
 687,-0.00000109,-0.00000048,0.00001349,0.00001859,-0.00001617,0.000008
 67,-0.00000571,-0.00001177,-0.00003293,-0.00001667,0.00000569,-0.00000
 679,0.00003086,0.00000060,-0.00001127,-0.00002779,0.00067815,0.0007933
 7,-0.00026652,-0.01487780,-0.01826205,0.02157976,-0.09231967,-0.127881
 64,0.12895718,-0.00003744,0.00007320,0.00002663,0.00000499,0.00000428,
 0.00000169,-0.00004822,0.00003400,0.00003995,0.00000119,-0.00000513,-0
 .00000051,0.00000188,0.00000098,-0.00000353,0.00000446,0.00001085,0.00
 000361,0.00000553,0.00000172,0.00000089,0.00000263,0.00000809,0.000002
 15,-0.00055794,0.00042879,-0.00007672,0.00025832,-0.00003089,-0.000186
 43,-0.00291998,-0.00312284,-0.00362976,0.00125217,0.00098779,0.0011673
 6,-0.00730333,-0.00788604,0.01008141,0.11603278,0.15517431,-0.00019271
 ,0.00016761,-0.00023335,0.00004480,-0.00027848,0.00012175,0.00007005,0
 .00004207,-0.00008217,-0.00004198,-0.00001560,-0.00001864,-0.00000397,
 -0.00002332,-0.00001375,0.00001940,0.00000835,-0.00000126,0.00000916,0
 .00001811,0.00001813,-0.00000240,0.00000919,0.00000104,0.00000677,0.00
 000730,-0.00000124,0.00000054,0.00000935,-0.00000044,0.00000534,-0.000
 01146,-0.00000616,-0.00000044,-0.00000232,0.00001370,0.00000616,-0.000
 00358,-0.00000872,0.00054142,-0.00066491,0.00148459,-0.00880229,-0.014
 50789,0.01120430,0.10761717,0.16468252,-0.24456355,-0.00007408,0.00001
 201,-0.00001363,0.00001059,0.00000875,0.00000290,-0.00001990,-0.000007
 78,0.00000339,0.00000574,-0.00000368,0.00000146,-0.00000162,-0.0000037
 4,-0.00000644,-0.00000601,0.00000016,0.00000547,-0.00000019,-0.0000001
 5,0.00000131,-0.00000598,0.00000117,-0.00000261,0.00025086,0.00046589,
 -0.00033383,0.00008900,0.00009655,-0.00019594,-0.00215989,-0.00265864,
 0.00014246,-0.00051670,-0.00033923,0.00131613,0.01817910,0.01046625,-0
 .01842593,-0.11502795,-0.15747449,0.24959106\\0.00000459,0.00001109,0.
 00000614,0.00000120,-0.00000500,0.00000579,-0.00000864,0.00000362,-0.0
 0000131,-0.00000212,-0.00000596,-0.00000227,0.00000085,-0.00000251,-0.
 00000054,-0.00000398,-0.00000475,-0.00001095,-0.00000048,0.00000300,0.
 00000145,0.00000292,-0.00000332,-0.00000057,-0.00000342,0.00000152,-0.
 00000111,0.00000188,0.00000067,-0.00000080,0.00000078,0.00000014,-0.00
 000100,0.00000215,-0.00000166,0.00000055,-0.00000149,0.00000098,0.0000
 0252,0.00000026,-0.00000061,-0.00000030,-0.00000012,-0.00000038,0.0000
 0016,0.00000135,-0.00000080,-0.00000084,0.00000470,0.00000185,-0.00000
 074,-0.00000066,0.00000082,-0.00000231,0.00000182,0.00000238,0.0000014
 2,0.00000010,0.00000317,0.00000027,0.00000026,-0.00000158,0.00000183,-
 0.00000153,0.00000013,0.00000049,0.00000038,-0.00000058,0.00000080,0.0
 0000008,-0.00000004,0.00000126,-0.00000016,-0.00000119,0.00000041,0.00
 000049,-0.00000054,-0.00000021,0.,-0.00000020,-0.00000056,-0.00000018,
 0.00000056,0.00000034,-0.00000054,0.00000008,-0.00000063,-0.00000049,-
 0.00000089,0.00000069\\\@


 Statistics are no substitute for judgment.
                            -- Henry Clay
 Job cpu time:       0 days  2 hours 37 minutes 40.1 seconds.
 File lengths (MBytes):  RWF=    417 Int=      0 D2E=      0 Chk=     13 Scr=      1
 Normal termination of Gaussian 09 at Sat Jul 24 02:32:34 2021.
