 Entering Gaussian System, Link 0=g09
 Input=opt_freq-conf-609.com
 Output=opt_freq-conf-609.log
 Initial command:
 /aerosol/software/g09/l1.exe "/scratch/nicole/10324/Gau-83506.inp" -scrdir="/scratch/nicole/10324/"
 Entering Link 1 = /aerosol/software/g09/l1.exe PID=     83508.
  
 Copyright (c) 1988,1990,1992,1993,1995,1998,2003,2009,2013,
            Gaussian, Inc.  All Rights Reserved.
  
 This is part of the Gaussian(R) 09 program.  It is based on
 the Gaussian(R) 03 system (copyright 2003, Gaussian, Inc.),
 the Gaussian(R) 98 system (copyright 1998, Gaussian, Inc.),
 the Gaussian(R) 94 system (copyright 1995, Gaussian, Inc.),
 the Gaussian 92(TM) system (copyright 1992, Gaussian, Inc.),
 the Gaussian 90(TM) system (copyright 1990, Gaussian, Inc.),
 the Gaussian 88(TM) system (copyright 1988, Gaussian, Inc.),
 the Gaussian 86(TM) system (copyright 1986, Carnegie Mellon
 University), and the Gaussian 82(TM) system (copyright 1983,
 Carnegie Mellon University). Gaussian is a federally registered
 trademark of Gaussian, Inc.
  
 This software contains proprietary and confidential information,
 including trade secrets, belonging to Gaussian, Inc.
  
 This software is provided under written license and may be
 used, copied, transmitted, or stored only in accord with that
 written license.
  
 The following legend is applicable only to US Government
 contracts under FAR:
  
                    RESTRICTED RIGHTS LEGEND
  
 Use, reproduction and disclosure by the US Government is
 subject to restrictions as set forth in subparagraphs (a)
 and (c) of the Commercial Computer Software - Restricted
 Rights clause in FAR 52.227-19.
  
 Gaussian, Inc.
 340 Quinnipiac St., Bldg. 40, Wallingford CT 06492
  
  
 ---------------------------------------------------------------
 Warning -- This program may not be used in any manner that
 competes with the business of Gaussian, Inc. or will provide
 assistance to any competitor of Gaussian, Inc.  The licensee
 of this program is prohibited from giving any competitor of
 Gaussian, Inc. access to this program.  By using this program,
 the user acknowledges that Gaussian, Inc. is engaged in the
 business of creating and licensing software in the field of
 computational chemistry and represents and warrants to the
 licensee that it is not a competitor of Gaussian, Inc. and that
 it will not use this program in any manner prohibited above.
 ---------------------------------------------------------------
  

 Cite this work as:
 Gaussian 09, Revision D.01,
 M. J. Frisch, G. W. Trucks, H. B. Schlegel, G. E. Scuseria, 
 M. A. Robb, J. R. Cheeseman, G. Scalmani, V. Barone, B. Mennucci, 
 G. A. Petersson, H. Nakatsuji, M. Caricato, X. Li, H. P. Hratchian, 
 A. F. Izmaylov, J. Bloino, G. Zheng, J. L. Sonnenberg, M. Hada, 
 M. Ehara, K. Toyota, R. Fukuda, J. Hasegawa, M. Ishida, T. Nakajima, 
 Y. Honda, O. Kitao, H. Nakai, T. Vreven, J. A. Montgomery, Jr., 
 J. E. Peralta, F. Ogliaro, M. Bearpark, J. J. Heyd, E. Brothers, 
 K. N. Kudin, V. N. Staroverov, T. Keith, R. Kobayashi, J. Normand, 
 K. Raghavachari, A. Rendell, J. C. Burant, S. S. Iyengar, J. Tomasi, 
 M. Cossi, N. Rega, J. M. Millam, M. Klene, J. E. Knox, J. B. Cross, 
 V. Bakken, C. Adamo, J. Jaramillo, R. Gomperts, R. E. Stratmann, 
 O. Yazyev, A. J. Austin, R. Cammi, C. Pomelli, J. W. Ochterski, 
 R. L. Martin, K. Morokuma, V. G. Zakrzewski, G. A. Voth, 
 P. Salvador, J. J. Dannenberg, S. Dapprich, A. D. Daniels, 
 O. Farkas, J. B. Foresman, J. V. Ortiz, J. Cioslowski, 
 and D. J. Fox, Gaussian, Inc., Wallingford CT, 2013.
 
 ******************************************
 Gaussian 09:  ES64L-G09RevD.01 24-Apr-2013
                24-Jul-2021 
 ******************************************
 %mem=2gb
 %nproc=4
 Will use up to    4 processors via shared memory.
 %chk=conf-609.chk
 ----------------------------------------------------------------------
 # B3LYP/6-31+G(d,p) EmpiricalDispersion=GD3BJ opt=calcfc freq=noraman 
 nosymm integral(ultrafinegrid)
 ----------------------------------------------------------------------
 1/10=4,14=-1,18=20,19=15,26=4,38=1/1,3;
 2/9=110,12=2,15=1,17=6,18=5,40=1/2;
 3/5=1,6=6,7=111,11=2,16=1,25=1,30=1,71=2,74=-5,75=-5,124=41,140=1/1,2,3;
 4//1;
 5/5=2,38=5/2;
 8/6=4,10=90,11=11/1;
 11/6=1,8=1,9=11,15=111,16=1,31=1/1,2,10;
 10/6=1,13=1,31=1/2;
 6/7=2,8=2,9=2,10=2,28=1/1;
 7/10=1,18=20,25=1,30=1/1,2,3,16;
 1/10=4,14=-1,18=20,19=15,26=4/3(2);
 2/9=110,15=1/2;
 99//99;
 2/9=110,15=1/2;
 3/5=1,6=6,7=111,11=2,16=1,25=1,30=1,71=1,74=-5,75=-5,124=41/1,2,3;
 4/5=5,16=3,69=1/1;
 5/5=2,38=5/2;
 7/30=1/1,2,3,16;
 1/14=-1,18=20,19=15,26=4/3(-5);
 2/9=110,15=1/2;
 6/7=2,8=2,9=2,10=2,19=2,28=1/1;
 99/9=1/99;
 ------------------------------------------------------------
 Candidate Structure: Conf:609 OPT and FREQ calc in gas phase
 ------------------------------------------------------------
 Symbolic Z-matrix:
 Charge =  0 Multiplicity = 1
 O                     1.4177    0.85748  -0.67657 
 C                     1.59436  -0.0041    0.17026 
 N                     0.53894  -0.70679   0.68996 
 C                    -0.76947  -0.61446   0.04509 
 C                    -0.64827  -1.10746  -1.38772 
 O                    -1.61879  -0.61874  -2.20018 
 O                     0.17932  -1.88567  -1.77113 
 C                    -1.37787   0.79834   0.19937 
 C                    -2.85873   0.80124   0.37903 
 C                    -3.64977   1.26082   1.39423 
 N                    -4.98461   1.02988   1.11578 
 C                    -4.99278   0.43648  -0.05264 
 N                    -3.73342   0.27218  -0.53474 
 C                     2.94924  -0.35503   0.76111 
 C                     4.10813   0.28615  -0.00412 
 N                     5.43796  -0.03063   0.50635 
 H                     0.73699  -1.56765   1.16964 
 H                    -1.39207  -1.34935   0.56809 
 H                    -1.43624  -0.99233  -3.07559 
 H                    -0.94483   1.25313   1.08786 
 H                    -1.07567   1.42915  -0.63282 
 H                    -3.34519   1.74821   2.30793 
 H                    -5.85793   0.10731  -0.60024 
 H                    -3.44962  -0.1468   -1.40521 
 H                     2.9628   -0.0272    1.80781 
 H                     3.05558  -1.44622   0.77465 
 H                     4.05694  -0.02324  -1.04839 
 H                     3.98105   1.36867   0.00486 
 H                     5.59424  -1.03199   0.48736 
 H                     5.52208   0.25863   1.47443 
 

 GradGradGradGradGradGradGradGradGradGradGradGradGradGradGradGradGradGrad
 Berny optimization.
 Initialization pass.
                           ----------------------------
                           !    Initial Parameters    !
                           ! (Angstroms and Degrees)  !
 --------------------------                            --------------------------
 ! Name  Definition              Value          Derivative Info.                !
 --------------------------------------------------------------------------------
 ! R1    R(1,2)                  1.2209         calculate D2E/DX2 analytically  !
 ! R2    R(2,3)                  1.3703         calculate D2E/DX2 analytically  !
 ! R3    R(2,14)                 1.5192         calculate D2E/DX2 analytically  !
 ! R4    R(3,4)                  1.4616         calculate D2E/DX2 analytically  !
 ! R5    R(3,17)                 1.0052         calculate D2E/DX2 analytically  !
 ! R6    R(4,5)                  1.5201         calculate D2E/DX2 analytically  !
 ! R7    R(4,8)                  1.5459         calculate D2E/DX2 analytically  !
 ! R8    R(4,18)                 1.096          calculate D2E/DX2 analytically  !
 ! R9    R(5,6)                  1.3568         calculate D2E/DX2 analytically  !
 ! R10   R(5,7)                  1.199          calculate D2E/DX2 analytically  !
 ! R11   R(6,19)                 0.9691         calculate D2E/DX2 analytically  !
 ! R12   R(8,9)                  1.4917         calculate D2E/DX2 analytically  !
 ! R13   R(8,20)                 1.088          calculate D2E/DX2 analytically  !
 ! R14   R(8,21)                 1.0871         calculate D2E/DX2 analytically  !
 ! R15   R(9,10)                 1.3666         calculate D2E/DX2 analytically  !
 ! R16   R(9,13)                 1.3711         calculate D2E/DX2 analytically  !
 ! R17   R(10,11)                1.383          calculate D2E/DX2 analytically  !
 ! R18   R(10,22)                1.0794         calculate D2E/DX2 analytically  !
 ! R19   R(11,12)                1.3105         calculate D2E/DX2 analytically  !
 ! R20   R(12,13)                1.3584         calculate D2E/DX2 analytically  !
 ! R21   R(12,23)                1.0755         calculate D2E/DX2 analytically  !
 ! R22   R(13,24)                1.0069         calculate D2E/DX2 analytically  !
 ! R23   R(14,15)                1.5296         calculate D2E/DX2 analytically  !
 ! R24   R(14,25)                1.0969         calculate D2E/DX2 analytically  !
 ! R25   R(14,26)                1.0964         calculate D2E/DX2 analytically  !
 ! R26   R(15,16)                1.4592         calculate D2E/DX2 analytically  !
 ! R27   R(15,27)                1.0903         calculate D2E/DX2 analytically  !
 ! R28   R(15,28)                1.09           calculate D2E/DX2 analytically  !
 ! R29   R(16,29)                1.0137         calculate D2E/DX2 analytically  !
 ! R30   R(16,30)                1.0139         calculate D2E/DX2 analytically  !
 ! A1    A(1,2,3)              120.8952         calculate D2E/DX2 analytically  !
 ! A2    A(1,2,14)             124.1813         calculate D2E/DX2 analytically  !
 ! A3    A(3,2,14)             114.8943         calculate D2E/DX2 analytically  !
 ! A4    A(2,3,4)              119.3244         calculate D2E/DX2 analytically  !
 ! A5    A(2,3,17)             117.9301         calculate D2E/DX2 analytically  !
 ! A6    A(4,3,17)             116.1694         calculate D2E/DX2 analytically  !
 ! A7    A(3,4,5)              108.9051         calculate D2E/DX2 analytically  !
 ! A8    A(3,4,8)              111.4689         calculate D2E/DX2 analytically  !
 ! A9    A(3,4,18)             104.8106         calculate D2E/DX2 analytically  !
 ! A10   A(5,4,8)              114.9501         calculate D2E/DX2 analytically  !
 ! A11   A(5,4,18)             106.1182         calculate D2E/DX2 analytically  !
 ! A12   A(8,4,18)             109.9739         calculate D2E/DX2 analytically  !
 ! A13   A(4,5,6)              112.9903         calculate D2E/DX2 analytically  !
 ! A14   A(4,5,7)              124.5388         calculate D2E/DX2 analytically  !
 ! A15   A(6,5,7)              122.4154         calculate D2E/DX2 analytically  !
 ! A16   A(5,6,19)             105.5045         calculate D2E/DX2 analytically  !
 ! A17   A(4,8,9)              113.8582         calculate D2E/DX2 analytically  !
 ! A18   A(4,8,20)             107.8698         calculate D2E/DX2 analytically  !
 ! A19   A(4,8,21)             110.151          calculate D2E/DX2 analytically  !
 ! A20   A(9,8,20)             107.2145         calculate D2E/DX2 analytically  !
 ! A21   A(9,8,21)             111.5329         calculate D2E/DX2 analytically  !
 ! A22   A(20,8,21)            105.7795         calculate D2E/DX2 analytically  !
 ! A23   A(8,9,10)             131.6629         calculate D2E/DX2 analytically  !
 ! A24   A(8,9,13)             123.5236         calculate D2E/DX2 analytically  !
 ! A25   A(10,9,13)            104.8078         calculate D2E/DX2 analytically  !
 ! A26   A(9,10,11)            110.668          calculate D2E/DX2 analytically  !
 ! A27   A(9,10,22)            128.1211         calculate D2E/DX2 analytically  !
 ! A28   A(11,10,22)           121.2102         calculate D2E/DX2 analytically  !
 ! A29   A(10,11,12)           105.1382         calculate D2E/DX2 analytically  !
 ! A30   A(11,12,13)           111.4322         calculate D2E/DX2 analytically  !
 ! A31   A(11,12,23)           126.6952         calculate D2E/DX2 analytically  !
 ! A32   A(13,12,23)           121.8722         calculate D2E/DX2 analytically  !
 ! A33   A(9,13,12)            107.9521         calculate D2E/DX2 analytically  !
 ! A34   A(9,13,24)            123.8417         calculate D2E/DX2 analytically  !
 ! A35   A(12,13,24)           128.2027         calculate D2E/DX2 analytically  !
 ! A36   A(2,14,15)            112.5997         calculate D2E/DX2 analytically  !
 ! A37   A(2,14,25)            108.2457         calculate D2E/DX2 analytically  !
 ! A38   A(2,14,26)            108.7351         calculate D2E/DX2 analytically  !
 ! A39   A(15,14,25)           110.0428         calculate D2E/DX2 analytically  !
 ! A40   A(15,14,26)           110.4801         calculate D2E/DX2 analytically  !
 ! A41   A(25,14,26)           106.5261         calculate D2E/DX2 analytically  !
 ! A42   A(14,15,16)           115.1154         calculate D2E/DX2 analytically  !
 ! A43   A(14,15,27)           108.9426         calculate D2E/DX2 analytically  !
 ! A44   A(14,15,28)           108.8971         calculate D2E/DX2 analytically  !
 ! A45   A(16,15,27)           108.4343         calculate D2E/DX2 analytically  !
 ! A46   A(16,15,28)           108.6001         calculate D2E/DX2 analytically  !
 ! A47   A(27,15,28)           106.5126         calculate D2E/DX2 analytically  !
 ! A48   A(15,16,29)           110.3896         calculate D2E/DX2 analytically  !
 ! A49   A(15,16,30)           110.346          calculate D2E/DX2 analytically  !
 ! A50   A(29,16,30)           106.6742         calculate D2E/DX2 analytically  !
 ! D1    D(1,2,3,4)             12.0744         calculate D2E/DX2 analytically  !
 ! D2    D(1,2,3,17)           162.572          calculate D2E/DX2 analytically  !
 ! D3    D(14,2,3,4)          -169.8126         calculate D2E/DX2 analytically  !
 ! D4    D(14,2,3,17)          -19.315          calculate D2E/DX2 analytically  !
 ! D5    D(1,2,14,15)          -11.2469         calculate D2E/DX2 analytically  !
 ! D6    D(1,2,14,25)          110.6307         calculate D2E/DX2 analytically  !
 ! D7    D(1,2,14,26)         -134.0235         calculate D2E/DX2 analytically  !
 ! D8    D(3,2,14,15)          170.7105         calculate D2E/DX2 analytically  !
 ! D9    D(3,2,14,25)          -67.4119         calculate D2E/DX2 analytically  !
 ! D10   D(3,2,14,26)           47.9339         calculate D2E/DX2 analytically  !
 ! D11   D(2,3,4,5)             60.0931         calculate D2E/DX2 analytically  !
 ! D12   D(2,3,4,8)            -67.7728         calculate D2E/DX2 analytically  !
 ! D13   D(2,3,4,18)           173.3023         calculate D2E/DX2 analytically  !
 ! D14   D(17,3,4,5)           -90.908          calculate D2E/DX2 analytically  !
 ! D15   D(17,3,4,8)           141.2261         calculate D2E/DX2 analytically  !
 ! D16   D(17,3,4,18)           22.3011         calculate D2E/DX2 analytically  !
 ! D17   D(3,4,5,6)           -156.8426         calculate D2E/DX2 analytically  !
 ! D18   D(3,4,5,7)             25.8192         calculate D2E/DX2 analytically  !
 ! D19   D(8,4,5,6)            -30.9674         calculate D2E/DX2 analytically  !
 ! D20   D(8,4,5,7)            151.6944         calculate D2E/DX2 analytically  !
 ! D21   D(18,4,5,6)            90.8097         calculate D2E/DX2 analytically  !
 ! D22   D(18,4,5,7)           -86.5285         calculate D2E/DX2 analytically  !
 ! D23   D(3,4,8,9)           -143.8929         calculate D2E/DX2 analytically  !
 ! D24   D(3,4,8,20)           -25.0377         calculate D2E/DX2 analytically  !
 ! D25   D(3,4,8,21)            89.965          calculate D2E/DX2 analytically  !
 ! D26   D(5,4,8,9)             91.5679         calculate D2E/DX2 analytically  !
 ! D27   D(5,4,8,20)          -149.5769         calculate D2E/DX2 analytically  !
 ! D28   D(5,4,8,21)           -34.5742         calculate D2E/DX2 analytically  !
 ! D29   D(18,4,8,9)           -28.0945         calculate D2E/DX2 analytically  !
 ! D30   D(18,4,8,20)           90.7606         calculate D2E/DX2 analytically  !
 ! D31   D(18,4,8,21)         -154.2367         calculate D2E/DX2 analytically  !
 ! D32   D(4,5,6,19)           179.6235         calculate D2E/DX2 analytically  !
 ! D33   D(7,5,6,19)            -2.9738         calculate D2E/DX2 analytically  !
 ! D34   D(4,8,9,10)           119.8815         calculate D2E/DX2 analytically  !
 ! D35   D(4,8,9,13)           -59.1069         calculate D2E/DX2 analytically  !
 ! D36   D(20,8,9,10)            0.6533         calculate D2E/DX2 analytically  !
 ! D37   D(20,8,9,13)         -178.3351         calculate D2E/DX2 analytically  !
 ! D38   D(21,8,9,10)         -114.7065         calculate D2E/DX2 analytically  !
 ! D39   D(21,8,9,13)           66.3052         calculate D2E/DX2 analytically  !
 ! D40   D(8,9,10,11)         -179.4414         calculate D2E/DX2 analytically  !
 ! D41   D(8,9,10,22)            0.862          calculate D2E/DX2 analytically  !
 ! D42   D(13,9,10,11)          -0.3138         calculate D2E/DX2 analytically  !
 ! D43   D(13,9,10,22)         179.9897         calculate D2E/DX2 analytically  !
 ! D44   D(8,9,13,12)          179.6249         calculate D2E/DX2 analytically  !
 ! D45   D(8,9,13,24)           -1.0112         calculate D2E/DX2 analytically  !
 ! D46   D(10,9,13,12)           0.4067         calculate D2E/DX2 analytically  !
 ! D47   D(10,9,13,24)         179.7705         calculate D2E/DX2 analytically  !
 ! D48   D(9,10,11,12)           0.0957         calculate D2E/DX2 analytically  !
 ! D49   D(22,10,11,12)        179.8165         calculate D2E/DX2 analytically  !
 ! D50   D(10,11,12,13)          0.172          calculate D2E/DX2 analytically  !
 ! D51   D(10,11,12,23)       -179.599          calculate D2E/DX2 analytically  !
 ! D52   D(11,12,13,9)          -0.3752         calculate D2E/DX2 analytically  !
 ! D53   D(11,12,13,24)       -179.7028         calculate D2E/DX2 analytically  !
 ! D54   D(23,12,13,9)         179.4086         calculate D2E/DX2 analytically  !
 ! D55   D(23,12,13,24)          0.081          calculate D2E/DX2 analytically  !
 ! D56   D(2,14,15,16)        -179.1721         calculate D2E/DX2 analytically  !
 ! D57   D(2,14,15,27)         -57.159          calculate D2E/DX2 analytically  !
 ! D58   D(2,14,15,28)          58.633          calculate D2E/DX2 analytically  !
 ! D59   D(25,14,15,16)         59.9738         calculate D2E/DX2 analytically  !
 ! D60   D(25,14,15,27)       -178.0131         calculate D2E/DX2 analytically  !
 ! D61   D(25,14,15,28)        -62.2211         calculate D2E/DX2 analytically  !
 ! D62   D(26,14,15,16)        -57.3794         calculate D2E/DX2 analytically  !
 ! D63   D(26,14,15,27)         64.6337         calculate D2E/DX2 analytically  !
 ! D64   D(26,14,15,28)       -179.5743         calculate D2E/DX2 analytically  !
 ! D65   D(14,15,16,29)         59.1042         calculate D2E/DX2 analytically  !
 ! D66   D(14,15,16,30)        -58.5613         calculate D2E/DX2 analytically  !
 ! D67   D(27,15,16,29)        -63.1825         calculate D2E/DX2 analytically  !
 ! D68   D(27,15,16,30)        179.152          calculate D2E/DX2 analytically  !
 ! D69   D(28,15,16,29)       -178.5413         calculate D2E/DX2 analytically  !
 ! D70   D(28,15,16,30)         63.7932         calculate D2E/DX2 analytically  !
 --------------------------------------------------------------------------------
 Trust Radius=3.00D-01 FncErr=1.00D-07 GrdErr=1.00D-06
 Number of steps in this run=    160 maximum allowed number of steps=    180.
 GradGradGradGradGradGradGradGradGradGradGradGradGradGradGradGradGradGrad

                          Input orientation:                          
 ---------------------------------------------------------------------
 Center     Atomic      Atomic             Coordinates (Angstroms)
 Number     Number       Type             X           Y           Z
 ---------------------------------------------------------------------
      1          8           0        1.417701    0.857484   -0.676571
      2          6           0        1.594364   -0.004096    0.170265
      3          7           0        0.538935   -0.706795    0.689955
      4          6           0       -0.769472   -0.614461    0.045092
      5          6           0       -0.648268   -1.107456   -1.387719
      6          8           0       -1.618787   -0.618740   -2.200176
      7          8           0        0.179315   -1.885674   -1.771125
      8          6           0       -1.377870    0.798338    0.199367
      9          6           0       -2.858733    0.801239    0.379029
     10          6           0       -3.649774    1.260823    1.394234
     11          7           0       -4.984605    1.029882    1.115776
     12          6           0       -4.992777    0.436482   -0.052640
     13          7           0       -3.733425    0.272184   -0.534742
     14          6           0        2.949245   -0.355035    0.761106
     15          6           0        4.108125    0.286154   -0.004116
     16          7           0        5.437961   -0.030629    0.506347
     17          1           0        0.736987   -1.567649    1.169641
     18          1           0       -1.392069   -1.349352    0.568090
     19          1           0       -1.436240   -0.992330   -3.075593
     20          1           0       -0.944825    1.253127    1.087858
     21          1           0       -1.075666    1.429147   -0.632825
     22          1           0       -3.345191    1.748206    2.307926
     23          1           0       -5.857934    0.107305   -0.600236
     24          1           0       -3.449616   -0.146799   -1.405213
     25          1           0        2.962802   -0.027195    1.807808
     26          1           0        3.055580   -1.446224    0.774651
     27          1           0        4.056937   -0.023239   -1.048389
     28          1           0        3.981055    1.368669    0.004859
     29          1           0        5.594239   -1.031986    0.487363
     30          1           0        5.522075    0.258626    1.474429
 ---------------------------------------------------------------------
                    Distance matrix (angstroms):
                    1          2          3          4          5
     1  O    0.000000
     2  C    1.220926   0.000000
     3  N    2.255347   1.370326   0.000000
     4  C    2.733340   2.444573   1.461610   0.000000
     5  C    2.938529   2.945185   2.426255   1.520092   0.000000
     6  O    3.704169   4.039940   3.607821   2.400537   1.356774
     7  O    3.202588   3.051507   2.752454   2.411395   1.198965
     8  C    2.930185   3.078786   2.486009   1.545946   2.585191
     9  C    4.405150   4.530146   3.730281   2.545728   3.413308
    10  C    5.489100   5.531646   4.681113   3.692291   4.728324
    11  N    6.650696   6.726510   5.805762   4.649470   5.444219
    12  C    6.454516   6.605621   5.697225   4.353199   4.800098
    13  N    5.186212   5.381329   4.550972   3.147596   3.485566
    14  C    2.425437   1.519195   2.436881   3.795898   4.257427
    15  C    2.831430   2.536464   3.769191   4.960291   5.145851
    16  N    4.283751   3.858354   4.948875   6.251867   6.464459
    17  H    3.123001   2.044149   1.005183   2.107747   2.944622
    18  H    3.783400   3.299509   2.038752   1.096001   2.106405
    19  H    4.161983   4.549369   4.261713   3.213415   1.866299
    20  H    2.975109   2.978266   2.490214   2.146159   3.433480
    21  H    2.558435   3.134995   2.986458   2.174778   2.680837
    22  H    5.690848   5.660332   4.871478   4.163765   5.393143
    23  H    7.314606   7.492851   6.576267   5.179752   5.407069
    24  H    5.022975   5.286230   4.540029   3.083060   2.961540
    25  H    3.056490   2.134175   2.754375   4.169163   4.941476
    26  H    3.177383   2.140133   2.624391   3.981848   4.302220
    27  H    2.807042   2.747681   3.983143   4.983921   4.840416
    28  H    2.701192   2.758285   4.077388   5.148003   5.431491
    29  H    4.729515   4.141994   5.069802   6.392711   6.518475
    30  H    4.672399   4.146900   5.136061   6.510673   6.937666
                    6          7          8          9         10
     6  O    0.000000
     7  O    2.241066   0.000000
     8  C    2.797134   3.675811   0.000000
     9  C    3.194700   4.590469   1.491725   0.000000
    10  C    4.536238   5.880635   2.608284   1.366603   0.000000
    11  N    5.004221   6.595509   3.728533   2.261505   1.382985
    12  C    4.136329   5.924200   3.641703   2.207607   2.139309
    13  N    2.835333   4.636220   2.522775   1.371116   2.169182
    14  C    5.450289   4.053093   4.513285   5.934270   6.823408
    15  C    6.199922   4.824387   5.513609   6.996373   7.942944
    16  N    7.580820   6.023407   6.872916   8.339266   9.221883
    17  H    4.219687   3.010024   3.318425   4.377888   5.224402
    18  H    2.872018   2.868592   2.179158   2.609959   3.548628
    19  H    0.969148   2.260469   3.732997   4.144248   5.473188
    20  H    3.843082   4.391988   1.088015   2.090380   2.722255
    21  H    2.635415   3.722733   1.087102   2.144165   3.280752
    22  H    5.376420   6.501222   3.036218   2.203187   1.079419
    23  H    4.588826   6.464621   4.603027   3.230434   3.191313
    24  H    2.051007   4.040634   2.785694   2.105098   3.139804
    25  H    6.115947   4.900051   4.702129   6.051280   6.749533
    26  H    5.602145   3.866134   5.002448   6.339299   7.257669
    27  H    5.821947   4.361991   5.636401   7.109415   8.185879
    28  H    6.337996   5.310188   5.392698   6.873477   7.757032
    29  H    7.708526   5.928824   7.214107   8.650156   9.567192
    30  H    8.078639   6.608837   7.037494   8.469491   9.226790
                   11         12         13         14         15
    11  N    0.000000
    12  C    1.310491   0.000000
    13  N    2.205395   1.358449   0.000000
    14  C    8.061623   8.022743   6.835986   0.000000
    15  C    9.191574   9.102273   7.859495   1.529605   0.000000
    16  N   10.494092  10.456145   9.235252   2.522667   1.459242
    17  H    6.283844   6.191988   5.125865   2.555664   4.022296
    18  H    4.343620   4.066892   3.054106   4.457907   5.766666
    19  H    5.852164   4.881466   3.651299   5.861645   6.465947
    20  H    4.046040   4.284106   3.372146   4.225723   5.259254
    21  H    4.300793   4.082372   2.900322   4.618036   5.345409
    22  H    2.150556   3.163453   3.226473   6.814411   7.939462
    23  H    2.135075   1.075506   2.131903   8.923755   9.985473
    24  H    3.177445   2.133312   1.006884   6.758826   7.698699
    25  H    8.047211   8.183368   7.100466   1.096926   2.166338
    26  H    8.419741   8.306928   7.124466   1.096442   2.171513
    27  H    9.356397   9.115930   7.812864   2.147404   1.090344
    28  H    9.040574   9.022303   7.810675   2.146555   1.089984
    29  H   10.796210  10.702005   9.473694   2.743937   2.046358
    30  H   10.541053  10.626650   9.471073   2.739501   2.045998
                   16         17         18         19         20
    16  N    0.000000
    17  H    4.990145   0.000000
    18  H    6.956447   2.223151   0.000000
    19  H    7.810877   4.803740   3.661399   0.000000
    20  H    6.536524   3.285112   2.691298   4.755827   0.000000
    21  H    6.771705   3.938956   3.043413   3.458422   1.734604
    22  H    9.140771   5.380963   4.054205   6.335370   2.737777
    23  H   11.350806   7.030712   4.840535   5.185361   5.319887
    24  H    9.091566   5.116281   3.094117   2.749323   3.801207
    25  H    2.796466   2.781098   4.716980   6.643091   4.174578
    26  H    2.784176   2.355129   4.453497   5.933536   4.836097
    27  H    2.079540   4.280996   5.836373   5.934954   5.586617
    28  H    2.081370   4.527986   6.047754   6.664126   5.044852
    29  H    1.013657   4.934099   6.993979   7.881869   6.952820
    30  H    1.013867   5.130813   7.156287   8.407481   6.554332
                   21         22         23         24         25
    21  H    0.000000
    22  H    3.728345   0.000000
    23  H    4.961694   4.178975   0.000000
    24  H    2.952258   4.170054   2.551970   0.000000
    25  H    4.938303   6.572134   9.144514   7.173347   0.000000
    26  H    5.226465   7.316090   9.151748   6.982685   1.757743
    27  H    5.350302   8.318315   9.925852   7.516044   3.058596
    28  H    5.097129   7.689086   9.937951   7.713612   2.497179
    29  H    7.197196   9.537155  11.559979   9.282064   3.110891
    30  H    7.024302   9.030059  11.568567   9.431222   2.596674
                   26         27         28         29         30
    26  H    0.000000
    27  H    2.520135   0.000000
    28  H    3.061488   1.747140   0.000000
    29  H    2.588227   2.395706   2.932290   0.000000
    30  H    3.078929   2.930988   2.401370   1.626404   0.000000
 Symmetry turned off by external request.
 Stoichiometry    C9H14N4O3
 Framework group  C1[X(C9H14N4O3)]
 Deg. of freedom    84
 Full point group                 C1      NOp   1
 Rotational constants (GHZ):      1.2523698      0.2304720      0.2066994
 Standard basis: 6-31+G(d,p) (6D, 7F)
   374 basis functions,   610 primitive gaussians,   374 cartesian basis functions
    60 alpha electrons       60 beta electrons
       nuclear repulsion energy      1113.3337131870 Hartrees.
 NAtoms=   30 NActive=   30 NUniq=   30 SFac= 1.00D+00 NAtFMM=   60 NAOKFM=F Big=F
 Integral buffers will be    131072 words long.
 Raffenetti 2 integral format.
 Two-electron integral symmetry is turned off.
 Nuclear repulsion after empirical dispersion term =     1113.2796995233 Hartrees.
 One-electron integrals computed using PRISM.
 NBasis=   374 RedAO= T EigKep=  1.68D-06  NBF=   374
 NBsUse=   374 1.00D-06 EigRej= -1.00D+00 NBFU=   374
 ExpMin= 4.38D-02 ExpMax= 5.48D+03 ExpMxC= 8.25D+02 IAcc=3 IRadAn=         5 AccDes= 0.00D+00
 Harris functional with IExCor=  402 and IRadAn=       5 diagonalized for initial guess.
 HarFok:  IExCor=  402 AccDes= 0.00D+00 IRadAn=         5 IDoV= 1 UseB2=F ITyADJ=14
 ICtDFT=  3500011 ScaDFX=  1.000000  1.000000  1.000000  1.000000
 FoFCou: FMM=F IPFlag=           0 FMFlag=      100000 FMFlg1=           0
         NFxFlg=           0 DoJE=T BraDBF=F KetDBF=T FulRan=T
         wScrn=  0.000000 ICntrl=     500 IOpCl=  0 I1Cent=   200000004 NGrid=           0
         NMat0=    1 NMatS0=      1 NMatT0=    0 NMatD0=    1 NMtDS0=    0 NMtDT0=    0
 Symmetry not used in FoFCou.
 Requested convergence on RMS density matrix=1.00D-08 within 128 cycles.
 Requested convergence on MAX density matrix=1.00D-06.
 Requested convergence on             energy=1.00D-06.
 No special actions if energy rises.
 SCF Done:  E(RB3LYP) =  -796.195944044     A.U. after   15 cycles
            NFock= 15  Conv=0.51D-08     -V/T= 2.0090
 DoSCS=F DFT=T ScalE2(SS,OS)=  1.000000  1.000000
 Range of M.O.s used for correlation:     1   374
 NBasis=   374 NAE=    60 NBE=    60 NFC=     0 NFV=     0
 NROrb=    374 NOA=    60 NOB=    60 NVA=   314 NVB=   314

 **** Warning!!: The largest alpha MO coefficient is  0.16963507D+03

 Symmetrizing basis deriv contribution to polar:
 IMax=3 JMax=2 DiffMx= 0.00D+00
 G2DrvN: will do    31 centers at a time, making    1 passes.
 Calling FoFCou, ICntrl=  3107 FMM=F I1Cent=   0 AccDes= 0.00D+00.
 End of G2Drv F.D. properties file   721 does not exist.
 End of G2Drv F.D. properties file   722 does not exist.
 End of G2Drv F.D. properties file   788 does not exist.
          IDoAtm=111111111111111111111111111111
          Differentiating once with respect to nuclear coordinates.
          There are    93 degrees of freedom in the 1st order CPHF.  IDoFFX=6 NUNeed=     0.
     87 vectors produced by pass  0 Test12= 2.03D-14 1.08D-09 XBig12= 2.67D-01 1.01D-01.
 AX will form    87 AO Fock derivatives at one time.
     87 vectors produced by pass  1 Test12= 2.03D-14 1.08D-09 XBig12= 3.02D-02 4.44D-02.
     87 vectors produced by pass  2 Test12= 2.03D-14 1.08D-09 XBig12= 3.00D-04 2.00D-03.
     87 vectors produced by pass  3 Test12= 2.03D-14 1.08D-09 XBig12= 1.16D-06 1.42D-04.
     87 vectors produced by pass  4 Test12= 2.03D-14 1.08D-09 XBig12= 2.89D-09 7.61D-06.
     78 vectors produced by pass  5 Test12= 2.03D-14 1.08D-09 XBig12= 3.95D-12 1.44D-07.
     25 vectors produced by pass  6 Test12= 2.03D-14 1.08D-09 XBig12= 6.28D-15 6.95D-09.
      6 vectors produced by pass  7 Test12= 2.03D-14 1.08D-09 XBig12= 2.80D-16 1.48D-09.
      3 vectors produced by pass  8 Test12= 2.03D-14 1.08D-09 XBig12= 3.80D-16 2.09D-09.
      3 vectors produced by pass  9 Test12= 2.03D-14 1.08D-09 XBig12= 7.04D-16 3.14D-09.
      3 vectors produced by pass 10 Test12= 2.03D-14 1.08D-09 XBig12= 2.85D-15 4.83D-09.
      3 vectors produced by pass 11 Test12= 2.03D-14 1.08D-09 XBig12= 2.73D-15 4.79D-09.
      3 vectors produced by pass 12 Test12= 2.03D-14 1.08D-09 XBig12= 7.42D-15 6.42D-09.
      3 vectors produced by pass 13 Test12= 2.03D-14 1.08D-09 XBig12= 1.17D-15 2.93D-09.
      2 vectors produced by pass 14 Test12= 2.03D-14 1.08D-09 XBig12= 5.86D-16 2.02D-09.
 InvSVY:  IOpt=1 It=  1 EMax= 9.99D-16
 Solved reduced A of dimension   564 with    93 vectors.
 End of Minotr F.D. properties file   721 does not exist.
 End of Minotr F.D. properties file   722 does not exist.
 End of Minotr F.D. properties file   788 does not exist.

 **********************************************************************

            Population analysis using the SCF density.

 **********************************************************************

 Alpha  occ. eigenvalues --  -19.24287 -19.18015 -19.14455 -14.39070 -14.38531
 Alpha  occ. eigenvalues --  -14.32955 -14.31729 -10.35631 -10.31015 -10.27369
 Alpha  occ. eigenvalues --  -10.24010 -10.22313 -10.21742 -10.21397 -10.21095
 Alpha  occ. eigenvalues --  -10.19813  -1.15192  -1.06829  -1.05908  -1.02177
 Alpha  occ. eigenvalues --   -0.95321  -0.89680  -0.87483  -0.82159  -0.77512
 Alpha  occ. eigenvalues --   -0.74949  -0.69236  -0.66666  -0.62740  -0.61896
 Alpha  occ. eigenvalues --   -0.60080  -0.59392  -0.55597  -0.53610  -0.52644
 Alpha  occ. eigenvalues --   -0.52112  -0.51552  -0.49237  -0.48295  -0.46359
 Alpha  occ. eigenvalues --   -0.45758  -0.44412  -0.44112  -0.43476  -0.42804
 Alpha  occ. eigenvalues --   -0.41699  -0.41027  -0.40016  -0.39763  -0.39008
 Alpha  occ. eigenvalues --   -0.38849  -0.36104  -0.35446  -0.31519  -0.29396
 Alpha  occ. eigenvalues --   -0.28375  -0.28161  -0.27011  -0.24908  -0.23017
 Alpha virt. eigenvalues --   -0.03651  -0.02096  -0.01272  -0.00928   0.00082
 Alpha virt. eigenvalues --    0.01632   0.01678   0.01921   0.02761   0.03501
 Alpha virt. eigenvalues --    0.03859   0.04195   0.04988   0.05210   0.05744
 Alpha virt. eigenvalues --    0.06321   0.06830   0.06927   0.07694   0.08051
 Alpha virt. eigenvalues --    0.08855   0.08886   0.09374   0.10104   0.10250
 Alpha virt. eigenvalues --    0.11617   0.12210   0.12789   0.13079   0.13339
 Alpha virt. eigenvalues --    0.13644   0.14755   0.15008   0.15591   0.15725
 Alpha virt. eigenvalues --    0.16301   0.16901   0.17272   0.17731   0.17926
 Alpha virt. eigenvalues --    0.18694   0.18764   0.19171   0.19696   0.20227
 Alpha virt. eigenvalues --    0.20619   0.21053   0.21388   0.22105   0.22353
 Alpha virt. eigenvalues --    0.22592   0.23016   0.23117   0.23990   0.24288
 Alpha virt. eigenvalues --    0.24332   0.25106   0.25191   0.25486   0.26123
 Alpha virt. eigenvalues --    0.26317   0.26987   0.27366   0.27764   0.27962
 Alpha virt. eigenvalues --    0.28621   0.28906   0.29420   0.29929   0.30020
 Alpha virt. eigenvalues --    0.30766   0.31502   0.31898   0.32612   0.33113
 Alpha virt. eigenvalues --    0.33638   0.34695   0.34861   0.34938   0.35375
 Alpha virt. eigenvalues --    0.35781   0.37495   0.37789   0.38245   0.38660
 Alpha virt. eigenvalues --    0.39053   0.40041   0.40435   0.42276   0.42923
 Alpha virt. eigenvalues --    0.43959   0.45178   0.46580   0.47636   0.50270
 Alpha virt. eigenvalues --    0.50479   0.52546   0.54155   0.63355   0.65078
 Alpha virt. eigenvalues --    0.66600   0.67388   0.68696   0.70451   0.70844
 Alpha virt. eigenvalues --    0.71585   0.72973   0.73682   0.73859   0.74874
 Alpha virt. eigenvalues --    0.76511   0.77545   0.78817   0.79909   0.80871
 Alpha virt. eigenvalues --    0.82184   0.83996   0.84786   0.86020   0.87013
 Alpha virt. eigenvalues --    0.87553   0.88647   0.90367   0.90692   0.91813
 Alpha virt. eigenvalues --    0.92358   0.93254   0.95380   0.96272   0.96625
 Alpha virt. eigenvalues --    0.97464   0.99099   1.00399   1.01224   1.01556
 Alpha virt. eigenvalues --    1.02870   1.03925   1.05316   1.06299   1.07688
 Alpha virt. eigenvalues --    1.08056   1.08643   1.10492   1.10955   1.12532
 Alpha virt. eigenvalues --    1.13774   1.14320   1.16354   1.17358   1.18698
 Alpha virt. eigenvalues --    1.20858   1.21569   1.22536   1.24471   1.25381
 Alpha virt. eigenvalues --    1.26174   1.28258   1.28651   1.29532   1.29893
 Alpha virt. eigenvalues --    1.31217   1.31669   1.33842   1.34359   1.35411
 Alpha virt. eigenvalues --    1.36040   1.38616   1.39333   1.40332   1.41421
 Alpha virt. eigenvalues --    1.42035   1.42600   1.44711   1.45341   1.47241
 Alpha virt. eigenvalues --    1.48748   1.51110   1.53876   1.54389   1.57119
 Alpha virt. eigenvalues --    1.58500   1.59802   1.63025   1.63762   1.67100
 Alpha virt. eigenvalues --    1.67799   1.69402   1.71459   1.72771   1.74169
 Alpha virt. eigenvalues --    1.74944   1.77356   1.78741   1.79678   1.80268
 Alpha virt. eigenvalues --    1.81872   1.83882   1.84588   1.86843   1.88293
 Alpha virt. eigenvalues --    1.89343   1.91111   1.91859   1.92658   1.94647
 Alpha virt. eigenvalues --    1.96990   1.98926   2.00947   2.01358   2.02832
 Alpha virt. eigenvalues --    2.04572   2.07366   2.07680   2.08041   2.10239
 Alpha virt. eigenvalues --    2.10907   2.11252   2.13219   2.14094   2.17087
 Alpha virt. eigenvalues --    2.18568   2.20066   2.21286   2.22533   2.22790
 Alpha virt. eigenvalues --    2.24957   2.27634   2.27923   2.29368   2.31305
 Alpha virt. eigenvalues --    2.33538   2.33858   2.35013   2.36167   2.36977
 Alpha virt. eigenvalues --    2.39636   2.41571   2.43314   2.44666   2.45666
 Alpha virt. eigenvalues --    2.47002   2.49344   2.50876   2.51453   2.52431
 Alpha virt. eigenvalues --    2.53752   2.55381   2.56362   2.57341   2.58757
 Alpha virt. eigenvalues --    2.60071   2.61734   2.61878   2.64001   2.65995
 Alpha virt. eigenvalues --    2.68464   2.69099   2.70636   2.72339   2.73472
 Alpha virt. eigenvalues --    2.74355   2.75686   2.76919   2.77648   2.80063
 Alpha virt. eigenvalues --    2.82489   2.84688   2.86977   2.87996   2.89896
 Alpha virt. eigenvalues --    2.90887   2.92967   2.94397   2.95332   2.98255
 Alpha virt. eigenvalues --    2.99936   3.02543   3.05315   3.07868   3.09649
 Alpha virt. eigenvalues --    3.14132   3.20602   3.24589   3.26521   3.31930
 Alpha virt. eigenvalues --    3.35059   3.35982   3.36604   3.37213   3.40528
 Alpha virt. eigenvalues --    3.44777   3.49323   3.50981   3.52445   3.55728
 Alpha virt. eigenvalues --    3.60130   3.61575   3.75863   4.17330   4.21256
 Alpha virt. eigenvalues --    4.23836   4.31714   4.33201   4.34507   4.36863
 Alpha virt. eigenvalues --    4.44510   4.49296   4.54710   4.58993   4.63376
 Alpha virt. eigenvalues --    4.64852   4.72742   4.79564   4.85297
          Condensed to atoms (all electrons):
               1          2          3          4          5          6
     1  O    8.141214   0.324131  -0.252261   0.247925  -0.060298  -0.002782
     2  C    0.324131   8.872980   0.307339  -0.632765  -0.116860   0.027634
     3  N   -0.252261   0.307339   7.671234  -1.165524   0.275430   0.063657
     4  C    0.247925  -0.632765  -1.165524  11.449538  -1.311257  -0.454211
     5  C   -0.060298  -0.116860   0.275430  -1.311257   5.791283   0.329809
     6  O   -0.002782   0.027634   0.063657  -0.454211   0.329809   8.463269
     7  O    0.009120   0.019599  -0.067511  -0.075212   0.508379  -0.163073
     8  C   -0.167504   1.298122   0.326771  -1.776284  -0.353835   0.072276
     9  C    0.070281  -1.048840  -0.003119  -0.173330   0.503192  -0.050264
    10  C   -0.012267  -0.001036  -0.015687   0.259077  -0.016862   0.008832
    11  N    0.000050  -0.001845   0.001876  -0.017807   0.003498  -0.000846
    12  C    0.001450  -0.018886  -0.000383   0.031456   0.013376  -0.005960
    13  N    0.000304  -0.001437   0.008237  -0.070466   0.060609   0.021847
    14  C    0.150706  -2.519052  -0.212083  -0.233087  -0.152698   0.001669
    15  C   -0.007343  -0.921656   0.060653  -0.121190  -0.000004   0.001081
    16  N   -0.000484   0.195551  -0.005972   0.010254   0.001212  -0.000018
    17  H    0.007652  -0.038589   0.253526   0.083793  -0.034327  -0.001491
    18  H    0.001454   0.027609  -0.002055   0.190916   0.028319   0.008116
    19  H    0.000066  -0.006690  -0.004438   0.098930  -0.039092   0.189463
    20  H    0.000589  -0.019361   0.000151   0.006105   0.027822  -0.001580
    21  H   -0.007862   0.025984  -0.002901  -0.089889  -0.016252   0.002460
    22  H    0.000013   0.000809  -0.000551   0.010151  -0.000165  -0.000056
    23  H   -0.000001   0.000140  -0.000041   0.005128  -0.002088  -0.000455
    24  H   -0.000060  -0.003898  -0.000813   0.001831   0.008378  -0.000017
    25  H    0.000517  -0.074093   0.004538  -0.003066  -0.003262   0.000016
    26  H    0.004459  -0.186208   0.012196  -0.011828   0.005258  -0.000013
    27  H   -0.002756   0.103978  -0.000277   0.001938  -0.002003   0.000007
    28  H   -0.001621   0.051302   0.001686  -0.000661   0.001871  -0.000003
    29  H   -0.000066   0.021674   0.000397   0.000253   0.000242   0.000000
    30  H   -0.000033   0.031631  -0.000133   0.000159  -0.000075   0.000000
               7          8          9         10         11         12
     1  O    0.009120  -0.167504   0.070281  -0.012267   0.000050   0.001450
     2  C    0.019599   1.298122  -1.048840  -0.001036  -0.001845  -0.018886
     3  N   -0.067511   0.326771  -0.003119  -0.015687   0.001876  -0.000383
     4  C   -0.075212  -1.776284  -0.173330   0.259077  -0.017807   0.031456
     5  C    0.508379  -0.353835   0.503192  -0.016862   0.003498   0.013376
     6  O   -0.163073   0.072276  -0.050264   0.008832  -0.000846  -0.005960
     7  O    8.197814  -0.101169   0.080444   0.005326  -0.000053   0.001937
     8  C   -0.101169  24.222636 -16.039474  -0.340334  -0.248567  -0.662787
     9  C    0.080444 -16.039474  22.443645  -0.884326   0.033048   0.448262
    10  C    0.005326  -0.340334  -0.884326   7.011871   0.405699  -0.517992
    11  N   -0.000053  -0.248567   0.033048   0.405699   6.808280   0.463005
    12  C    0.001937  -0.662787   0.448262  -0.517992   0.463005   5.402028
    13  N   -0.002649   0.017989   0.184393  -0.187241  -0.037747   0.124340
    14  C   -0.014219   0.111998  -0.331108   0.007399  -0.000375  -0.002968
    15  C   -0.001994  -0.001486  -0.030099   0.002356   0.000006  -0.000093
    16  N   -0.000142   0.002500   0.000402  -0.000073   0.000000   0.000000
    17  H   -0.002104  -0.010601  -0.010577  -0.000900  -0.000020   0.000080
    18  H   -0.001552  -0.094741   0.103804   0.004196   0.000242   0.004263
    19  H    0.010491  -0.009102  -0.001166  -0.000354   0.000027  -0.000617
    20  H   -0.000378   0.377883  -0.103007   0.023140   0.000564   0.001836
    21  H    0.002113   0.367240   0.028894   0.012738  -0.001248  -0.003225
    22  H   -0.000002   0.204214  -0.223185   0.368434  -0.069243   0.008770
    23  H    0.000000   0.035798   0.021631  -0.035202  -0.054718   0.442334
    24  H    0.000408  -0.244152   0.250031   0.001516   0.011737  -0.010066
    25  H    0.000121   0.000890   0.004469   0.000293   0.000000   0.000006
    26  H    0.000139  -0.002747  -0.003561   0.000069   0.000000  -0.000007
    27  H   -0.000088   0.002426   0.001106   0.000006   0.000000   0.000001
    28  H    0.000013  -0.001123  -0.001875  -0.000026   0.000000  -0.000002
    29  H    0.000013  -0.000085  -0.000055  -0.000001   0.000000   0.000000
    30  H   -0.000002   0.000369   0.000072   0.000001   0.000000   0.000000
              13         14         15         16         17         18
     1  O    0.000304   0.150706  -0.007343  -0.000484   0.007652   0.001454
     2  C   -0.001437  -2.519052  -0.921656   0.195551  -0.038589   0.027609
     3  N    0.008237  -0.212083   0.060653  -0.005972   0.253526  -0.002055
     4  C   -0.070466  -0.233087  -0.121190   0.010254   0.083793   0.190916
     5  C    0.060609  -0.152698  -0.000004   0.001212  -0.034327   0.028319
     6  O    0.021847   0.001669   0.001081  -0.000018  -0.001491   0.008116
     7  O   -0.002649  -0.014219  -0.001994  -0.000142  -0.002104  -0.001552
     8  C    0.017989   0.111998  -0.001486   0.002500  -0.010601  -0.094741
     9  C    0.184393  -0.331108  -0.030099   0.000402  -0.010577   0.103804
    10  C   -0.187241   0.007399   0.002356  -0.000073  -0.000900   0.004196
    11  N   -0.037747  -0.000375   0.000006   0.000000  -0.000020   0.000242
    12  C    0.124340  -0.002968  -0.000093   0.000000   0.000080   0.004263
    13  N    7.043218  -0.000887   0.000271  -0.000002   0.000060   0.005192
    14  C   -0.000887   8.374361   0.792959  -0.175969   0.043889   0.005128
    15  C    0.000271   0.792959   5.629507   0.112154   0.002970   0.000324
    16  N   -0.000002  -0.175969   0.112154   6.857742   0.000006  -0.000008
    17  H    0.000060   0.043889   0.002970   0.000006   0.405255  -0.007196
    18  H    0.005192   0.005128   0.000324  -0.000008  -0.007196   0.548726
    19  H    0.000714  -0.000562  -0.000048   0.000000   0.000010  -0.000325
    20  H    0.016441  -0.010140   0.000447  -0.000001   0.000556  -0.000527
    21  H   -0.012035   0.002174   0.000155  -0.000005  -0.000220   0.004199
    22  H    0.003788   0.000086  -0.000003   0.000000   0.000000  -0.000015
    23  H   -0.111061   0.000001   0.000000   0.000000   0.000000  -0.000002
    24  H    0.260467  -0.000125  -0.000004   0.000000   0.000001   0.000292
    25  H   -0.000007   0.407806  -0.008268  -0.012822  -0.000121   0.000012
    26  H    0.000003   0.505136   0.004995  -0.012243   0.000970  -0.000011
    27  H   -0.000001  -0.155174   0.414620  -0.046258   0.000000   0.000000
    28  H    0.000001  -0.100349   0.415007  -0.045903  -0.000003   0.000000
    29  H    0.000000  -0.018056  -0.045015   0.359964   0.000000   0.000000
    30  H    0.000000  -0.021214  -0.050262   0.358110   0.000000   0.000000
              19         20         21         22         23         24
     1  O    0.000066   0.000589  -0.007862   0.000013  -0.000001  -0.000060
     2  C   -0.006690  -0.019361   0.025984   0.000809   0.000140  -0.003898
     3  N   -0.004438   0.000151  -0.002901  -0.000551  -0.000041  -0.000813
     4  C    0.098930   0.006105  -0.089889   0.010151   0.005128   0.001831
     5  C   -0.039092   0.027822  -0.016252  -0.000165  -0.002088   0.008378
     6  O    0.189463  -0.001580   0.002460  -0.000056  -0.000455  -0.000017
     7  O    0.010491  -0.000378   0.002113  -0.000002   0.000000   0.000408
     8  C   -0.009102   0.377883   0.367240   0.204214   0.035798  -0.244152
     9  C   -0.001166  -0.103007   0.028894  -0.223185   0.021631   0.250031
    10  C   -0.000354   0.023140   0.012738   0.368434  -0.035202   0.001516
    11  N    0.000027   0.000564  -0.001248  -0.069243  -0.054718   0.011737
    12  C   -0.000617   0.001836  -0.003225   0.008770   0.442334  -0.010066
    13  N    0.000714   0.016441  -0.012035   0.003788  -0.111061   0.260467
    14  C   -0.000562  -0.010140   0.002174   0.000086   0.000001  -0.000125
    15  C   -0.000048   0.000447   0.000155  -0.000003   0.000000  -0.000004
    16  N    0.000000  -0.000001  -0.000005   0.000000   0.000000   0.000000
    17  H    0.000010   0.000556  -0.000220   0.000000   0.000000   0.000001
    18  H   -0.000325  -0.000527   0.004199  -0.000015  -0.000002   0.000292
    19  H    0.360059   0.000000  -0.000170   0.000000   0.000000   0.000224
    20  H    0.000000   0.538040  -0.026747   0.001707   0.000004  -0.000001
    21  H   -0.000170  -0.026747   0.507906  -0.000105  -0.000005   0.000832
    22  H    0.000000   0.001707  -0.000105   0.574141  -0.000045  -0.000096
    23  H    0.000000   0.000004  -0.000005  -0.000045   0.569009   0.000255
    24  H    0.000224  -0.000001   0.000832  -0.000096   0.000255   0.395477
    25  H    0.000000  -0.000008   0.000004   0.000000   0.000000   0.000000
    26  H    0.000000  -0.000001  -0.000001   0.000000   0.000000   0.000000
    27  H    0.000000   0.000000   0.000000   0.000000   0.000000   0.000000
    28  H    0.000000   0.000000  -0.000001   0.000000   0.000000   0.000000
    29  H    0.000000   0.000000   0.000000   0.000000   0.000000   0.000000
    30  H    0.000000   0.000000   0.000000   0.000000   0.000000   0.000000
              25         26         27         28         29         30
     1  O    0.000517   0.004459  -0.002756  -0.001621  -0.000066  -0.000033
     2  C   -0.074093  -0.186208   0.103978   0.051302   0.021674   0.031631
     3  N    0.004538   0.012196  -0.000277   0.001686   0.000397  -0.000133
     4  C   -0.003066  -0.011828   0.001938  -0.000661   0.000253   0.000159
     5  C   -0.003262   0.005258  -0.002003   0.001871   0.000242  -0.000075
     6  O    0.000016  -0.000013   0.000007  -0.000003   0.000000   0.000000
     7  O    0.000121   0.000139  -0.000088   0.000013   0.000013  -0.000002
     8  C    0.000890  -0.002747   0.002426  -0.001123  -0.000085   0.000369
     9  C    0.004469  -0.003561   0.001106  -0.001875  -0.000055   0.000072
    10  C    0.000293   0.000069   0.000006  -0.000026  -0.000001   0.000001
    11  N    0.000000   0.000000   0.000000   0.000000   0.000000   0.000000
    12  C    0.000006  -0.000007   0.000001  -0.000002   0.000000   0.000000
    13  N   -0.000007   0.000003  -0.000001   0.000001   0.000000   0.000000
    14  C    0.407806   0.505136  -0.155174  -0.100349  -0.018056  -0.021214
    15  C   -0.008268   0.004995   0.414620   0.415007  -0.045015  -0.050262
    16  N   -0.012822  -0.012243  -0.046258  -0.045903   0.359964   0.358110
    17  H   -0.000121   0.000970   0.000000  -0.000003   0.000000   0.000000
    18  H    0.000012  -0.000011   0.000000   0.000000   0.000000   0.000000
    19  H    0.000000   0.000000   0.000000   0.000000   0.000000   0.000000
    20  H   -0.000008  -0.000001   0.000000   0.000000   0.000000   0.000000
    21  H    0.000004  -0.000001   0.000000  -0.000001   0.000000   0.000000
    22  H    0.000000   0.000000   0.000000   0.000000   0.000000   0.000000
    23  H    0.000000   0.000000   0.000000   0.000000   0.000000   0.000000
    24  H    0.000000   0.000000   0.000000   0.000000   0.000000   0.000000
    25  H    0.546544  -0.033548   0.004475  -0.005974  -0.000732   0.003334
    26  H   -0.033548   0.563848  -0.005153   0.004502   0.003373  -0.000759
    27  H    0.004475  -0.005153   0.550500  -0.024305  -0.006326   0.005986
    28  H   -0.005974   0.004502  -0.024305   0.544931   0.005882  -0.006315
    29  H   -0.000732   0.003373  -0.006326   0.005882   0.441120  -0.045954
    30  H    0.003334  -0.000759   0.005986  -0.006315  -0.045954   0.443008
 Mulliken charges:
               1
     1  O   -0.444593
     2  C    0.282733
     3  N   -0.253940
     4  C   -0.260877
     5  C    0.550398
     6  O   -0.509365
     7  O   -0.405767
     8  C   -0.987122
     9  C    0.730314
    10  C   -0.098653
    11  N   -0.295565
    12  C    0.279843
    13  N   -0.324342
    14  C   -0.455245
    15  C   -0.250035
    16  N   -0.597994
    17  H    0.307382
    18  H    0.173639
    19  H    0.402580
    20  H    0.166465
    21  H    0.205967
    22  H    0.121355
    23  H    0.129319
    24  H    0.327783
    25  H    0.168875
    26  H    0.151132
    27  H    0.157299
    28  H    0.162965
    29  H    0.283371
    30  H    0.282078
 Sum of Mulliken charges =   0.00000
 Mulliken charges with hydrogens summed into heavy atoms:
               1
     1  O   -0.444593
     2  C    0.282733
     3  N    0.053442
     4  C   -0.087238
     5  C    0.550398
     6  O   -0.106785
     7  O   -0.405767
     8  C   -0.614690
     9  C    0.730314
    10  C    0.022702
    11  N   -0.295565
    12  C    0.409162
    13  N    0.003441
    14  C   -0.135239
    15  C    0.070228
    16  N   -0.032546
 APT charges:
               1
     1  O   -0.512171
     2  C    0.510899
     3  N   -0.444852
     4  C   -0.890367
     5  C    0.199693
     6  O   -0.731868
     7  O   -0.176078
     8  C   -1.180789
     9  C    0.091016
    10  C   -0.007035
    11  N   -0.241339
    12  C   -0.494715
    13  N   -0.425120
    14  C   -0.751237
    15  C   -0.931453
    16  N   -1.122167
    17  H    0.649227
    18  H    0.483791
    19  H    0.891300
    20  H    0.331486
    21  H    0.365705
    22  H    0.487284
    23  H    1.039936
    24  H    0.312407
    25  H    0.435014
    26  H    0.418463
    27  H    0.299782
    28  H    0.315870
    29  H    0.535346
    30  H    0.541970
 Sum of APT charges =   0.00000
 APT charges with hydrogens summed into heavy atoms:
               1
     1  O   -0.512171
     2  C    0.510899
     3  N    0.204374
     4  C   -0.406577
     5  C    0.199693
     6  O    0.159433
     7  O   -0.176078
     8  C   -0.483598
     9  C    0.091016
    10  C    0.480250
    11  N   -0.241339
    12  C    0.545222
    13  N   -0.112713
    14  C    0.102240
    15  C   -0.315801
    16  N   -0.044851
 Electronic spatial extent (au):  <R**2>=           5203.2502
 Charge=              0.0000 electrons
 Dipole moment (field-independent basis, Debye):
    X=              1.0395    Y=             -3.7966    Z=             -0.0692  Tot=              3.9370
 Quadrupole moment (field-independent basis, Debye-Ang):
   XX=           -122.1568   YY=            -97.9148   ZZ=            -87.8260
   XY=              4.0020   XZ=             26.5072   YZ=             -0.9727
 Traceless Quadrupole moment (field-independent basis, Debye-Ang):
   XX=            -19.5242   YY=              4.7177   ZZ=             14.8066
   XY=              4.0020   XZ=             26.5072   YZ=             -0.9727
 Octapole moment (field-independent basis, Debye-Ang**2):
  XXX=            160.0008  YYY=             -9.5490  ZZZ=            -12.6107  XYY=             54.5541
  XXY=            -87.9630  XXZ=            -43.3803  XZZ=             42.1223  YZZ=             -6.7117
  YYZ=             17.7717  XYZ=              1.3148
 Hexadecapole moment (field-independent basis, Debye-Ang**3):
 XXXX=          -7066.9598 YYYY=           -557.5350 ZZZZ=           -583.5881 XXXY=            338.7160
 XXXZ=            617.1971 YYYX=            265.4789 YYYZ=           -164.3390 ZZZX=             82.4676
 ZZZY=           -103.0255 XXYY=          -1088.1396 XXZZ=          -1061.5314 YYZZ=           -206.7343
 XXYZ=            -74.7555 YYXZ=             20.0492 ZZXY=            112.9870
 N-N= 1.113279699523D+03 E-N=-4.082072081270D+03  KE= 7.891245721519D+02
  Exact polarizability:   0.000   0.000   0.000   0.000   0.000   0.000
 Approx polarizability: 221.256  -6.102 179.337  -2.599   6.346 204.123
 Calling FoFJK, ICntrl=    100147 FMM=F ISym2X=0 I1Cent= 0 IOpClX= 0 NMat=1 NMatS=1 NMatT=0.
 -------------------------------------------------------------------
 Center     Atomic                   Forces (Hartrees/Bohr)
 Number     Number              X              Y              Z
 -------------------------------------------------------------------
      1        8           0.001331936    0.006437441   -0.007030569
      2        6           0.002042211   -0.005099253    0.006677461
      3        7          -0.006614939   -0.000265438   -0.002757170
      4        6           0.008579732    0.002082963    0.010104905
      5        6          -0.006728834    0.007131018    0.004871957
      6        8          -0.000219003    0.000157764   -0.002267796
      7        8           0.010167274   -0.010921007   -0.006961072
      8        6          -0.006358064    0.001008441    0.001605331
      9        6           0.011041625   -0.000414799    0.000156230
     10        6          -0.007926671    0.002809197    0.007631387
     11        7          -0.001267339    0.004193865    0.007105764
     12        6          -0.004739320   -0.001648924   -0.002066014
     13        7           0.001239854   -0.003552055   -0.008891665
     14        6          -0.001372208    0.000865485   -0.000127683
     15        6           0.000006992    0.000425532   -0.000911634
     16        7          -0.000584450    0.000071617    0.000227000
     17        1           0.002276344   -0.003257628    0.002392964
     18        1          -0.003774309    0.002230036   -0.000924794
     19        1          -0.001415408   -0.000610192   -0.004754137
     20        1           0.001760507   -0.000615571    0.002614742
     21        1           0.001598794    0.000282265   -0.003748565
     22        1           0.000786259    0.000443080    0.000874093
     23        1          -0.004207223   -0.001040603   -0.000791423
     24        1          -0.000480963   -0.000363556   -0.002993950
     25        1          -0.000153883    0.000113998    0.001290758
     26        1           0.000746449   -0.001278451    0.000082181
     27        1           0.000303620    0.000070711   -0.002655168
     28        1           0.000028973    0.002233589   -0.000861360
     29        1           0.002043930   -0.003140862   -0.000705292
     30        1           0.001888115    0.001651338    0.002813521
 -------------------------------------------------------------------
 Cartesian Forces:  Max     0.011041625 RMS     0.004022155
 FormGI is forming the generalized inverse of G from B-inverse, IUseBI=4.

 GradGradGradGradGradGradGradGradGradGradGradGradGradGradGradGradGradGrad
 Berny optimization.
 Internal  Forces:  Max     0.016332743 RMS     0.003192656
 Search for a local minimum.
 Step number   1 out of a maximum of  160
 All quantities printed in internal units (Hartrees-Bohrs-Radians)
 Mixed Optimization -- RFO/linear search
 Second derivative matrix not updated -- analytic derivatives used.
 ITU=  0
     Eigenvalues ---   -0.00112   0.00026   0.00213   0.00250   0.00289
     Eigenvalues ---    0.00409   0.00587   0.00926   0.01073   0.01167
     Eigenvalues ---    0.01877   0.02003   0.02024   0.02524   0.03043
     Eigenvalues ---    0.03349   0.04123   0.04166   0.04246   0.04392
     Eigenvalues ---    0.04410   0.04701   0.04992   0.05060   0.05401
     Eigenvalues ---    0.05562   0.06213   0.06364   0.07682   0.08100
     Eigenvalues ---    0.08779   0.10495   0.10682   0.10972   0.11782
     Eigenvalues ---    0.11973   0.12130   0.13635   0.14672   0.15548
     Eigenvalues ---    0.16664   0.17986   0.18254   0.18779   0.19075
     Eigenvalues ---    0.20919   0.21138   0.23014   0.23305   0.23802
     Eigenvalues ---    0.24280   0.25390   0.25553   0.27303   0.28765
     Eigenvalues ---    0.30587   0.32949   0.33241   0.33565   0.33809
     Eigenvalues ---    0.34100   0.34432   0.35007   0.35181   0.35275
     Eigenvalues ---    0.35920   0.37514   0.37552   0.37897   0.38441
     Eigenvalues ---    0.39525   0.42698   0.45355   0.45718   0.45936
     Eigenvalues ---    0.46010   0.47842   0.48671   0.49157   0.52156
     Eigenvalues ---    0.58257   0.61024   0.84762   0.94550
 RFO step:  Lambda=-4.16566322D-03 EMin=-1.12260768D-03
 Linear search not attempted -- first point.
 Iteration  1 RMS(Cart)=  0.15401655 RMS(Int)=  0.02495350
 Iteration  2 RMS(Cart)=  0.05937045 RMS(Int)=  0.00199473
 Iteration  3 RMS(Cart)=  0.00272690 RMS(Int)=  0.00010773
 Iteration  4 RMS(Cart)=  0.00000494 RMS(Int)=  0.00010770
 Iteration  5 RMS(Cart)=  0.00000000 RMS(Int)=  0.00010770
 Variable       Old X    -DE/DX   Delta X   Delta X   Delta X     New X
                                 (Linear)    (Quad)   (Total)
    R1        2.30721   0.00923   0.00000   0.01249   0.01249   2.31970
    R2        2.58954   0.00650   0.00000   0.00729   0.00729   2.59683
    R3        2.87086   0.00203   0.00000   0.00106   0.00106   2.87193
    R4        2.76204   0.00112   0.00000  -0.01009  -0.01009   2.75196
    R5        1.89952   0.00438   0.00000   0.00803   0.00803   1.90755
    R6        2.87256   0.01011   0.00000   0.02846   0.02846   2.90102
    R7        2.92141   0.00452   0.00000   0.01347   0.01347   2.93488
    R8        2.07114   0.00021   0.00000   0.00020   0.00020   2.07134
    R9        2.56393   0.00521   0.00000   0.00692   0.00692   2.57085
   R10        2.26572   0.01633   0.00000   0.01690   0.01690   2.28262
   R11        1.83142   0.00426   0.00000   0.00689   0.00689   1.83832
   R12        2.81895   0.00564   0.00000   0.00452   0.00452   2.82347
   R13        2.05605   0.00258   0.00000   0.00811   0.00811   2.06417
   R14        2.05432   0.00348   0.00000   0.00962   0.00962   2.06395
   R15        2.58251   0.01232   0.00000   0.02164   0.02164   2.60415
   R16        2.59103   0.01182   0.00000   0.02298   0.02301   2.61404
   R17        2.61346   0.00069   0.00000  -0.00565  -0.00567   2.60780
   R18        2.03981   0.00116   0.00000   0.00344   0.00344   2.04325
   R19        2.47647   0.00786   0.00000   0.01301   0.01299   2.48946
   R20        2.56710   0.01027   0.00000   0.01773   0.01773   2.58483
   R21        2.03241   0.00411   0.00000   0.00981   0.00981   2.04222
   R22        1.90273   0.00260   0.00000   0.00583   0.00583   1.90857
   R23        2.89054   0.00439   0.00000   0.01674   0.01674   2.90727
   R24        2.07289   0.00126   0.00000   0.00423   0.00423   2.07712
   R25        2.07197   0.00135   0.00000   0.00227   0.00227   2.07425
   R26        2.75757   0.00418   0.00000   0.00433   0.00433   2.76190
   R27        2.06045   0.00251   0.00000   0.00857   0.00857   2.06902
   R28        2.05977   0.00221   0.00000   0.00425   0.00425   2.06402
   R29        1.91553   0.00343   0.00000   0.00531   0.00531   1.92084
   R30        1.91593   0.00331   0.00000   0.00495   0.00495   1.92088
    A1        2.11002   0.00205   0.00000  -0.00017  -0.00018   2.10984
    A2        2.16737  -0.00400   0.00000  -0.01787  -0.01788   2.14949
    A3        2.00528   0.00195   0.00000   0.01780   0.01779   2.02307
    A4        2.08260   0.00271   0.00000   0.00031   0.00014   2.08274
    A5        2.05827  -0.00282   0.00000  -0.00426  -0.00451   2.05376
    A6        2.02754   0.00051   0.00000   0.01936   0.01924   2.04678
    A7        1.90075  -0.00381   0.00000  -0.00385  -0.00403   1.89672
    A8        1.94550   0.00158   0.00000   0.01454   0.01452   1.96002
    A9        1.82929   0.00205   0.00000   0.02867   0.02890   1.85819
   A10        2.00626   0.00400   0.00000   0.01162   0.01146   2.01772
   A11        1.85211   0.00020   0.00000  -0.01079  -0.01091   1.84120
   A12        1.91941  -0.00426   0.00000  -0.03982  -0.03989   1.87951
   A13        1.97205   0.00386   0.00000   0.01057   0.01057   1.98262
   A14        2.17361   0.00034   0.00000  -0.00298  -0.00299   2.17062
   A15        2.13655  -0.00420   0.00000  -0.00785  -0.00786   2.12869
   A16        1.84140   0.00475   0.00000   0.01688   0.01688   1.85828
   A17        1.98720   0.00570   0.00000   0.00765   0.00766   1.99486
   A18        1.88268  -0.00359   0.00000  -0.02614  -0.02617   1.85651
   A19        1.92250  -0.00234   0.00000  -0.00952  -0.00959   1.91291
   A20        1.87125  -0.00152   0.00000   0.00139   0.00138   1.87262
   A21        1.94662  -0.00032   0.00000   0.01012   0.01012   1.95673
   A22        1.84620   0.00169   0.00000   0.01614   0.01596   1.86216
   A23        2.29795  -0.00307   0.00000  -0.00312  -0.00317   2.29478
   A24        2.15589   0.00515   0.00000   0.00885   0.00880   2.16470
   A25        1.82924  -0.00207   0.00000  -0.00554  -0.00554   1.82371
   A26        1.93152   0.00212   0.00000   0.00634   0.00634   1.93786
   A27        2.23614  -0.00154   0.00000  -0.01087  -0.01087   2.22526
   A28        2.11552  -0.00057   0.00000   0.00452   0.00452   2.12004
   A29        1.83501   0.00122   0.00000   0.00222   0.00218   1.83719
   A30        1.94486   0.00054   0.00000   0.00157   0.00156   1.94642
   A31        2.21125  -0.00186   0.00000  -0.01274  -0.01274   2.19851
   A32        2.12707   0.00132   0.00000   0.01119   0.01118   2.13826
   A33        1.88412  -0.00180   0.00000  -0.00455  -0.00452   1.87960
   A34        2.16144   0.00204   0.00000   0.00677   0.00674   2.16819
   A35        2.23756  -0.00024   0.00000  -0.00215  -0.00218   2.23538
   A36        1.96523   0.00104   0.00000  -0.00183  -0.00190   1.96333
   A37        1.88924  -0.00060   0.00000  -0.01259  -0.01261   1.87663
   A38        1.89779   0.00024   0.00000   0.02756   0.02759   1.92537
   A39        1.92061   0.00008   0.00000  -0.00411  -0.00420   1.91641
   A40        1.92824  -0.00085   0.00000  -0.00631  -0.00640   1.92184
   A41        1.85923   0.00005   0.00000  -0.00259  -0.00255   1.85668
   A42        2.00914   0.00004   0.00000   0.00081   0.00081   2.00995
   A43        1.90141   0.00049   0.00000   0.00339   0.00339   1.90479
   A44        1.90061   0.00041   0.00000   0.00235   0.00235   1.90296
   A45        1.89253  -0.00024   0.00000  -0.00409  -0.00409   1.88844
   A46        1.89543  -0.00022   0.00000   0.00191   0.00191   1.89734
   A47        1.85899  -0.00053   0.00000  -0.00490  -0.00490   1.85409
   A48        1.92666   0.00196   0.00000   0.02169   0.02129   1.94796
   A49        1.92590   0.00214   0.00000   0.02013   0.01973   1.94563
   A50        1.86182  -0.00059   0.00000   0.01559   0.01485   1.87666
    D1        0.21074  -0.00111   0.00000  -0.05679  -0.05666   0.15407
    D2        2.83742  -0.00017   0.00000  -0.01919  -0.01926   2.81815
    D3       -2.96379  -0.00095   0.00000  -0.06516  -0.06509  -3.02888
    D4       -0.33711   0.00000   0.00000  -0.02756  -0.02769  -0.36480
    D5       -0.19629  -0.00007   0.00000  -0.28442  -0.28439  -0.48068
    D6        1.93087   0.00029   0.00000  -0.29955  -0.29948   1.63139
    D7       -2.33915   0.00015   0.00000  -0.29482  -0.29487  -2.63403
    D8        2.97946  -0.00037   0.00000  -0.27615  -0.27615   2.70331
    D9       -1.17656  -0.00002   0.00000  -0.29128  -0.29125  -1.46781
   D10        0.83660  -0.00015   0.00000  -0.28655  -0.28664   0.54996
   D11        1.04882   0.00086   0.00000  -0.01780  -0.01770   1.03112
   D12       -1.18286  -0.00261   0.00000  -0.04076  -0.04058  -1.22344
   D13        3.02470   0.00043   0.00000  -0.01787  -0.01788   3.00681
   D14       -1.58664   0.00091   0.00000  -0.04811  -0.04818  -1.63483
   D15        2.46486  -0.00256   0.00000  -0.07107  -0.07106   2.39379
   D16        0.38923   0.00048   0.00000  -0.04817  -0.04837   0.34086
   D17       -2.73742  -0.00023   0.00000   0.07416   0.07419  -2.66323
   D18        0.45063  -0.00006   0.00000   0.08071   0.08074   0.53137
   D19       -0.54048   0.00178   0.00000   0.09927   0.09928  -0.44120
   D20        2.64757   0.00195   0.00000   0.10582   0.10584   2.75340
   D21        1.58493  -0.00097   0.00000   0.04820   0.04815   1.63308
   D22       -1.51021  -0.00080   0.00000   0.05475   0.05471  -1.45550
   D23       -2.51140   0.00106   0.00000  -0.02038  -0.02024  -2.53165
   D24       -0.43699   0.00018   0.00000  -0.03179  -0.03168  -0.46867
   D25        1.57019  -0.00103   0.00000  -0.03213  -0.03193   1.53825
   D26        1.59816   0.00174   0.00000  -0.03655  -0.03656   1.56160
   D27       -2.61061   0.00086   0.00000  -0.04796  -0.04800  -2.65860
   D28       -0.60343  -0.00035   0.00000  -0.04830  -0.04825  -0.65169
   D29       -0.49034   0.00191   0.00000  -0.00093  -0.00109  -0.49143
   D30        1.58407   0.00103   0.00000  -0.01234  -0.01252   1.57155
   D31       -2.69194  -0.00018   0.00000  -0.01268  -0.01278  -2.70472
   D32        3.13502   0.00026   0.00000   0.00713   0.00712  -3.14104
   D33       -0.05190   0.00022   0.00000   0.00087   0.00088  -0.05103
   D34        2.09233  -0.00168   0.00000  -0.10800  -0.10802   1.98431
   D35       -1.03161  -0.00213   0.00000  -0.12428  -0.12432  -1.15593
   D36        0.01140   0.00040   0.00000  -0.08092  -0.08088  -0.06948
   D37       -3.11253  -0.00005   0.00000  -0.09721  -0.09719   3.07346
   D38       -2.00201  -0.00057   0.00000  -0.10645  -0.10644  -2.10844
   D39        1.15724  -0.00102   0.00000  -0.12274  -0.12275   1.03450
   D40       -3.13184  -0.00022   0.00000  -0.01058  -0.01049   3.14085
   D41        0.01505  -0.00025   0.00000  -0.00868  -0.00863   0.00642
   D42       -0.00548   0.00023   0.00000   0.00358   0.00358  -0.00190
   D43        3.14141   0.00020   0.00000   0.00548   0.00545  -3.13633
   D44        3.13505  -0.00007   0.00000   0.00763   0.00768  -3.14046
   D45       -0.01765  -0.00021   0.00000   0.01356   0.01362  -0.00402
   D46        0.00710  -0.00039   0.00000  -0.00494  -0.00492   0.00218
   D47        3.13759  -0.00053   0.00000   0.00100   0.00102   3.13861
   D48        0.00167   0.00001   0.00000  -0.00082  -0.00081   0.00086
   D49        3.13839   0.00003   0.00000  -0.00262  -0.00261   3.13578
   D50        0.00300  -0.00025   0.00000  -0.00239  -0.00241   0.00059
   D51       -3.13459  -0.00005   0.00000  -0.00693  -0.00688  -3.14148
   D52       -0.00655   0.00041   0.00000   0.00474   0.00475  -0.00180
   D53       -3.13641   0.00054   0.00000  -0.00161  -0.00157  -3.13797
   D54        3.13127   0.00021   0.00000   0.00897   0.00898   3.14025
   D55        0.00141   0.00034   0.00000   0.00262   0.00266   0.00408
   D56       -3.12714  -0.00022   0.00000  -0.04204  -0.04202   3.11403
   D57       -0.99761  -0.00014   0.00000  -0.04422  -0.04420  -1.04181
   D58        1.02334  -0.00028   0.00000  -0.04692  -0.04690   0.97644
   D59        1.04674  -0.00021   0.00000  -0.02185  -0.02184   1.02490
   D60       -3.10691  -0.00013   0.00000  -0.02403  -0.02403  -3.13094
   D61       -1.08596  -0.00027   0.00000  -0.02673  -0.02672  -1.11269
   D62       -1.00146   0.00019   0.00000  -0.01236  -0.01238  -1.01384
   D63        1.12807   0.00028   0.00000  -0.01454  -0.01457   1.11350
   D64       -3.13416   0.00014   0.00000  -0.01724  -0.01726   3.13176
   D65        1.03156   0.00089   0.00000   0.00249   0.00269   1.03425
   D66       -1.02209  -0.00089   0.00000  -0.04237  -0.04256  -1.06465
   D67       -1.10274   0.00042   0.00000   0.00066   0.00085  -1.10189
   D68        3.12679  -0.00137   0.00000  -0.04421  -0.04440   3.08239
   D69       -3.11613   0.00129   0.00000   0.00760   0.00779  -3.10834
   D70        1.11340  -0.00050   0.00000  -0.03726  -0.03746   1.07594
         Item               Value     Threshold  Converged?
 Maximum Force            0.016333     0.000450     NO 
 RMS     Force            0.003193     0.000300     NO 
 Maximum Displacement     0.970486     0.001800     NO 
 RMS     Displacement     0.201110     0.001200     NO 
 Predicted change in Energy=-2.813347D-03
 GradGradGradGradGradGradGradGradGradGradGradGradGradGradGradGradGradGrad

                          Input orientation:                          
 ---------------------------------------------------------------------
 Center     Atomic      Atomic             Coordinates (Angstroms)
 Number     Number       Type             X           Y           Z
 ---------------------------------------------------------------------
      1          8           0        1.432043    0.868965   -0.688865
      2          6           0        1.606595    0.035581    0.195352
      3          7           0        0.551931   -0.681752    0.706726
      4          6           0       -0.751334   -0.590923    0.063313
      5          6           0       -0.612284   -1.048486   -1.395452
      6          8           0       -1.526679   -0.487046   -2.231789
      7          8           0        0.185958   -1.869760   -1.779327
      8          6           0       -1.415577    0.797507    0.270878
      9          6           0       -2.902453    0.752926    0.410867
     10          6           0       -3.728096    1.041803    1.475716
     11          7           0       -5.053534    0.856505    1.139205
     12          6           0       -5.040110    0.457863   -0.116323
     13          7           0       -3.764563    0.377336   -0.603625
     14          6           0        2.961462   -0.231854    0.829764
     15          6           0        4.129093    0.084233   -0.120812
     16          7           0        5.462027   -0.118190    0.443455
     17          1           0        0.762536   -1.532900    1.206868
     18          1           0       -1.388962   -1.340637    0.545817
     19          1           0       -1.346306   -0.845188   -3.118090
     20          1           0       -1.013204    1.194655    1.205495
     21          1           0       -1.097492    1.478061   -0.521936
     22          1           0       -3.437693    1.378166    2.461417
     23          1           0       -5.906911    0.216383   -0.714867
     24          1           0       -3.467518    0.103253   -1.529196
     25          1           0        3.034548    0.394077    1.730336
     26          1           0        3.023684   -1.273326    1.170775
     27          1           0        4.039662   -0.536798   -1.018077
     28          1           0        4.044460    1.120061   -0.456768
     29          1           0        5.599710   -1.079746    0.742879
     30          1           0        5.619076    0.479237    1.250712
 ---------------------------------------------------------------------
                    Distance matrix (angstroms):
                    1          2          3          4          5
     1  O    0.000000
     2  C    1.227532   0.000000
     3  N    2.264287   1.374185   0.000000
     4  C    2.732065   2.443311   1.456273   0.000000
     5  C    2.890529   2.937564   2.430853   1.535153   0.000000
     6  O    3.601863   3.997694   3.604636   2.424756   1.360438
     7  O    3.200383   3.089966   2.779525   2.430897   1.207908
     8  C    3.005853   3.117652   2.499852   1.553074   2.613355
     9  C    4.473336   4.570836   3.752147   2.560085   3.428228
    10  C    5.598421   5.577700   4.677672   3.677198   4.724531
    11  N    6.738301   6.776584   5.828766   4.664924   5.456938
    12  C    6.510421   6.667394   5.766026   4.418803   4.848804
    13  N    5.220506   5.441001   4.633660   3.234483   3.549199
    14  C    2.420156   1.519758   2.454258   3.808048   4.288372
    15  C    2.865757   2.542700   3.750685   4.930345   5.038692
    16  N    4.300860   3.866466   4.949339   6.242903   6.414382
    17  H    3.132251   2.048349   1.009430   2.118216   2.982760
    18  H    3.790099   3.315142   2.055989   1.096108   2.111186
    19  H    4.069236   4.524851   4.273083   3.246532   1.883507
    20  H    3.110291   3.037628   2.493857   2.135754   3.457939
    21  H    2.607184   3.147591   2.982448   2.177851   2.716964
    22  H    5.822190   5.690555   4.820716   4.104234   5.361624
    23  H    7.367957   7.570598   6.674145   5.276105   5.485997
    24  H    5.029729   5.359596   4.666000   3.224224   3.081680
    25  H    2.940421   2.126910   2.892848   4.252304   5.015070
    26  H    3.252844   2.161674   2.583576   3.992857   4.456046
    27  H    2.980642   2.778461   3.893613   4.911820   4.695193
    28  H    2.634700   2.746734   4.098537   5.118359   5.221973
    29  H    4.818382   4.181950   5.063573   6.405975   6.569803
    30  H    4.630884   4.172604   5.226832   6.567898   6.940171
                    6          7          8          9         10
     6  O    0.000000
     7  O    2.247164   0.000000
     8  C    2.815273   3.725932   0.000000
     9  C    3.227060   4.605835   1.494117   0.000000
    10  C    4.574845   5.864497   2.618981   1.378056   0.000000
    11  N    5.060379   6.588067   3.740615   2.273401   1.379986
    12  C    4.208592   5.957785   3.660946   2.221389   2.144052
    13  N    2.899345   4.694500   2.541463   1.383291   2.183233
    14  C    5.438900   4.146505   4.531049   5.960769   6.840295
    15  C    6.063855   4.702879   5.604065   7.083253   8.074729
    16  N    7.492329   5.987125   6.940441   8.409782   9.320381
    17  H    4.261300   3.059946   3.324312   4.392125   5.183353
    18  H    2.909068   2.857733   2.155913   2.586866   3.465873
    19  H    0.972795   2.278129   3.766743   4.174818   5.507878
    20  H    3.860919   4.442723   1.092309   2.096621   2.732585
    21  H    2.639970   3.799497   1.092193   2.157273   3.331818
    22  H    5.399738   6.454749   3.037199   2.209562   1.081240
    23  H    4.688528   6.527490   4.634812   3.252987   3.198001
    24  H    2.146846   4.159716   2.816508   2.122550   3.158841
    25  H    6.105702   5.055408   4.700679   6.092434   6.798362
    26  H    5.735982   4.136608   4.980483   6.308904   7.144183
    27  H    5.697343   4.148171   5.762066   7.204043   8.309575
    28  H    6.063917   5.057295   5.517746   7.010505   8.009572
    29  H    7.745021   6.024479   7.277438   8.703774   9.594059
    30  H    8.007704   6.649638   7.109691   8.567187   9.366788
                   11         12         13         14         15
    11  N    0.000000
    12  C    1.317364   0.000000
    13  N    2.220024   1.367834   0.000000
    14  C    8.094470   8.086776   6.903993   0.000000
    15  C    9.300789   9.176813   7.913837   1.538462   0.000000
    16  N   10.583531  10.532810   9.299026   2.532781   1.461536
    17  H    6.288124   6.275721   5.236555   2.582673   3.963780
    18  H    4.313772   4.123580   3.148988   4.498468   5.737907
    19  H    5.896089   4.934849   3.696629   5.875253   6.310903
    20  H    4.054998   4.301865   3.392772   4.239584   5.425435
    21  H    4.335434   4.092624   2.886440   4.607169   5.424098
    22  H    2.152050   3.171663   3.240831   6.797326   8.099284
    23  H    2.139063   1.080699   2.151264   9.013037  10.054438
    24  H    3.194245   2.143596   1.009970   6.856294   7.726086
    25  H    8.122828   8.283376   7.188571   1.099164   2.172736
    26  H    8.353361   8.347360   7.207876   1.097645   2.175567
    27  H    9.448882   9.178495   7.868503   2.161023   1.094880
    28  H    9.240676   9.115033   7.845639   2.157713   1.092231
    29  H   10.835024  10.784630   9.572134   2.772512   2.064831
    30  H   10.679858  10.746511   9.565648   2.783121   2.063288
                   16         17         18         19         20
    16  N    0.000000
    17  H    4.966832   0.000000
    18  H    6.959951   2.258960   0.000000
    19  H    7.717936   4.860599   3.697500   0.000000
    20  H    6.650781   3.254660   2.646522   4.792214   0.000000
    21  H    6.819625   3.938826   3.028219   3.492766   1.752553
    22  H    9.247501   5.262141   3.906240   6.359883   2.736633
    23  H   11.432690   7.157833   4.942215   5.263224   5.347259
    24  H    9.147523   5.296829   3.272750   2.814901   3.833191
    25  H    2.794841   3.024780   4.896913   6.650933   4.159408
    26  H    2.794432   2.276285   4.457191   6.137955   4.731660
    27  H    2.081930   4.084379   5.706302   5.789112   5.785642
    28  H    2.086423   4.536178   6.048330   6.324967   5.324345
    29  H    1.016466   4.880459   6.996316   7.950424   7.008391
    30  H    1.016487   5.257052   7.274711   8.328090   6.670907
                   21         22         23         24         25
    21  H    0.000000
    22  H    3.793009   0.000000
    23  H    4.975899   4.187548   0.000000
    24  H    2.919194   4.189426   2.574212   0.000000
[...]
 .00013054,0.00019767,0.00030740,0.00030818,-0.00039167,0.00003167,-0.0
 0028074,0.00012006,-0.00073159,-0.00024008,-0.00001249,-0.00008141,0.0
 0182928,-0.00024178,0.00010772,-0.00116462,-0.00001185,-0.00353467,0.0
 1771651,0.00008160,0.00002578,-0.00026326,-0.00019139,-0.00019554,0.00
 028045,0.00037398,-0.00009443,-0.00032058,-0.00053324,0.00045442,0.000
 03457,0.00098321,-0.00134950,0.00351134,0.00062604,0.00043707,-0.00561
 962,-0.00084424,0.00078153,-0.00071855,-0.00025099,0.00025479,0.000725
 32,0.01319884,0.00094429,-0.01280940,-0.00283728,-0.00109444,-0.003206
 77,-0.00109317,-0.00076382,0.00354211,0.00043870,0.00145314,0.00154401
 ,0.12698706,-0.03072045,-0.40726929,0.00003203,0.00002648,-0.00000771,
 -0.00002886,0.00003681,0.00005390,0.00003182,-0.00002111,-0.00003235,0
 .00002269,0.00001700,0.00003328,-0.00010820,0.00003633,-0.00017281,0.0
 0143013,-0.00032147,-0.00019042,0.00036183,-0.00003863,0.00008416,-0.0
 0030300,-0.00006908,0.00005952,0.00068687,-0.00009968,-0.00011828,-0.0
 0002945,0.00018432,-0.00009172,-0.13903108,0.03011236,0.42094717,0.001
 95948,0.00226974,0.00285476,-0.01268911,-0.03101851,-0.00992864,-0.004
 45711,0.00205409,-0.00177705,-0.00072620,0.00018969,0.00120077,0.00005
 646,0.00002768,0.00055900,-0.00003925,0.00005600,-0.00020119,0.0000441
 6,-0.00004100,-0.00021051,-0.00028412,-0.00023888,-0.00016949,-0.00005
 703,0.00016881,0.00002300,0.00002226,0.00002329,-0.00004588,-0.0000638
 1,-0.00002137,-0.00001405,-0.00004013,-0.00001212,0.00001882,0.0000285
 4,0.00002545,0.00005016,-0.07477066,-0.08089503,-0.03269796,0.00564641
 ,0.02015645,0.00835117,0.00302330,-0.00021930,-0.00052179,0.00034387,0
 .00018440,-0.00070733,-0.00026123,-0.00001162,-0.00012873,-0.00001496,
 -0.00000881,-0.00000089,-0.00002849,-0.00002995,0.00000936,-0.00000979
 ,0.00002227,-0.00003039,-0.00000027,-0.00000531,0.00000356,-0.00000200
 ,-0.00000401,0.00000088,0.00002059,-0.00001402,0.00000821,0.08511050,0
 .00063171,0.00068360,-0.00033202,0.00151376,0.00381971,0.00366656,0.00
 027697,0.00000741,-0.00067717,0.00028179,0.00007897,-0.00005404,0.0000
 6821,-0.00013237,0.00004004,-0.00008111,0.00007453,-0.00009539,-0.0001
 0290,0.00006928,-0.00001809,-0.00005584,-0.00005660,-0.00003192,0.0000
 0357,0.00003072,-0.00000885,0.00000350,0.00000553,-0.00001291,-0.00001
 957,-0.00000356,0.00000252,-0.00000245,-0.00000119,-0.00000065,-0.0000
 0533,0.00000876,0.00001928,-0.08179141,-0.25432896,-0.07127557,-0.0039
 6303,-0.01106983,-0.00525797,-0.00041220,0.00183337,0.00157756,0.00048
 268,0.00023793,-0.00009233,0.00003528,0.00000603,-0.00000634,0.0000052
 9,-0.00000674,0.00000901,-0.00000242,-0.00001334,-0.00000264,-0.000017
 17,0.00001453,-0.00000479,0.00000048,-0.00000283,0.00000050,-0.0000004
 3,-0.00000223,0.00000035,0.00001372,-0.00000830,-0.00000030,0.08658414
 ,0.27359971,0.00006052,0.00186819,0.00053133,-0.00208044,-0.01151935,-
 0.00324268,-0.00100134,0.00070776,-0.00039747,0.00007323,-0.00032437,0
 .00023355,0.00009146,-0.00008750,0.00009924,-0.00005816,0.00005750,-0.
 00009158,-0.00008869,0.00002415,-0.00000277,-0.00001390,-0.00001642,0.
 00004449,0.00000241,0.00001632,-0.00001315,0.00000414,0.00000181,-0.00
 000164,-0.00001806,-0.00000387,0.00000052,-0.00000331,-0.00000162,-0.0
 0000487,-0.00000891,0.00000538,0.00001303,-0.03219692,-0.07036514,-0.0
 7219770,-0.00668915,-0.02404951,-0.01059804,-0.00186253,0.00218045,0.0
 0115600,-0.00035797,-0.00018361,0.00007749,-0.00009163,0.00001547,-0.0
 0003915,0.00000496,-0.00000514,0.00001441,0.00000370,-0.00000538,-0.00
 001667,0.00001234,-0.00000831,-0.00000594,0.00000210,0.00000029,-0.000
 00146,-0.00000142,-0.00000117,-0.00000017,0.00001331,-0.00000698,0.000
 00129,0.03088538,0.08067844,0.07744910,-0.00804086,0.00207363,-0.00446
 873,0.00727756,0.02077833,-0.02283077,-0.00031995,-0.00072997,0.001454
 14,0.00051565,0.00017836,0.00011788,0.00026600,0.00042284,-0.00015261,
 -0.00005695,-0.00011218,0.00006124,0.00000338,-0.00015735,0.00004002,0
 .00002655,0.00010678,-0.00002294,0.00001675,-0.00008247,0.00002056,-0.
 00000638,-0.00001536,-0.00001020,-0.00001712,0.00000667,0.00000811,0.0
 0000381,0.00000308,-0.00000308,-0.00000721,0.00000082,0.00001736,-0.05
 027553,-0.00827591,0.00366305,-0.00159391,-0.01332425,0.01746176,0.002
 43718,-0.00085815,-0.00080046,-0.00168675,-0.00064078,-0.00076464,0.00
 006414,-0.00001017,0.00005809,0.00001196,0.00000964,0.00003023,0.00000
 284,0.00000111,-0.00000516,0.00008784,-0.00007590,0.00002569,-0.000001
 92,0.00000406,0.00000231,-0.00000074,0.00000008,0.00000056,0.00001572,
 0.00000568,-0.00000475,-0.00037499,-0.00650630,0.00948643,0.05430530,0
 .00251804,0.00224929,0.00118944,-0.00362106,-0.00633778,0.00206000,-0.
 00046976,0.00016916,-0.00130339,0.00034488,0.00020313,-0.00016968,-0.0
 0027097,-0.00015385,-0.00005312,0.00009654,0.00001055,-0.00000600,0.00
 007324,0.00007695,-0.00000816,0.00002096,0.00000468,0.00005655,-0.0000
 1232,0.00002044,-0.00000986,0.00000794,0.00001073,0.00002795,0.0000337
 0,0.00000136,-0.00001991,-0.00000889,-0.00000171,0.00000643,0.00000875
 ,-0.00000545,-0.00004210,-0.00397043,-0.15256585,0.12572146,0.00161823
 ,0.00759498,-0.01018307,-0.00178269,0.00071832,-0.00059154,-0.00018913
 ,0.00103654,0.00014328,0.00004997,0.00001069,0.00001441,-0.00002995,-0
 .00001475,-0.00003167,0.00000700,-0.00002155,0.00001100,-0.00005538,0.
 00003340,-0.00000732,0.00000300,-0.00000508,-0.00000333,0.00000093,-0.
 00000021,-0.00000100,-0.00002744,0.00000114,0.00000638,0.00029139,-0.0
 1637746,0.02220736,0.00427476,0.16221033,-0.00377666,0.00067134,0.0002
 6887,0.00627525,0.00757450,-0.00984734,0.00046785,-0.00044758,0.001174
 77,-0.00025516,-0.00028981,0.00003844,0.00018353,0.00023011,-0.0000762
 8,-0.00002520,-0.00007235,0.00008033,-0.00003634,-0.00015992,0.0000909
 0,0.00003989,0.00004872,0.00001286,0.00001219,-0.00005989,0.00001574,-
 0.00000792,-0.00001452,-0.00000889,-0.00001762,0.00000093,0.00001414,0
 .00001058,0.00000164,-0.00000886,-0.00001031,-0.00000299,0.00002092,0.
 00031614,0.12568388,-0.19964275,0.00038371,0.01569828,-0.01988924,-0.0
 0141442,-0.00082627,0.00244982,-0.00108697,-0.00076943,0.00031532,-0.0
 0003562,0.00000865,0.00000834,0.00003668,0.00002902,0.00001909,0.00000
 564,0.00001649,-0.00001197,0.00007676,-0.00006155,0.00001648,-0.000000
 75,0.00000568,0.00000150,-0.00000077,0.00000178,-0.00000006,0.00001650
 ,0.00000670,-0.00000685,0.00024437,-0.00632603,0.00844880,-0.00497882,
 -0.13812530,0.21792499,-0.00023825,-0.00015969,-0.00050372,0.00185141,
 0.00095261,0.00084413,0.00002069,-0.00037020,-0.00016527,-0.00005863,-
 0.00000463,0.00002853,-0.00029104,0.00030703,0.00003347,0.00015477,-0.
 00016611,0.00011340,0.00024830,-0.00011853,-0.00004235,0.00001295,0.00
 001204,0.00000481,0.00000041,-0.00000772,0.00001261,0.,-0.00000206,0.0
 0000487,0.00001193,0.00000198,-0.00000643,-0.00000589,-0.00000058,0.00
 000269,0.00000801,-0.00000663,-0.00001516,0.00564197,0.01865980,0.0075
 0037,-0.07504403,-0.07335169,-0.02807952,-0.02174925,-0.03077848,-0.01
 052397,-0.00007186,0.00005463,0.00022200,-0.00001264,-0.00000727,-0.00
 000867,-0.00001031,0.00000511,-0.00003284,0.00000911,0.00000192,-0.000
 00707,0.00000967,-0.00000189,0.00000614,0.00000018,0.00000060,-0.00000
 096,0.00000056,0.00000053,-0.00000029,-0.00001983,0.00000764,0.0000035
 6,-0.00252431,0.00173708,0.00345079,0.00057724,-0.00063651,-0.00058852
 ,0.09548068,0.00083048,0.00004637,0.00064239,-0.00168039,-0.00056479,-
 0.00126800,0.00081814,0.00052239,0.00024699,-0.00002440,-0.00000908,-0
 .00009336,0.00072729,-0.00076998,-0.00028843,-0.00030215,0.00033875,-0
 .00014258,-0.00081117,0.00027601,0.00025596,0.00004613,0.00000573,0.00
 003146,-0.00000227,-0.00000078,-0.00003342,-0.00000392,0.00000275,-0.0
 0000113,-0.00001232,0.00000230,0.00002376,0.00003178,0.00000444,-0.000
 01046,-0.00002174,0.00001340,0.00003044,-0.00149591,-0.00949162,-0.003
 17302,-0.07921663,-0.25467979,-0.07392349,0.00183676,0.00734684,0.0019
 8111,0.00008935,-0.00010814,-0.00021530,0.00003802,0.00002290,0.000026
 97,0.00005000,-0.00002775,0.00005600,-0.00002126,0.00001223,0.00002194
 ,-0.00002030,-0.00000151,-0.00001383,-0.00000060,-0.00000214,0.0000026
 9,0.00000116,-0.00000207,0.00000025,0.00004433,-0.00002191,-0.00001690
 ,0.00149648,0.00087487,-0.00143805,0.00026157,0.00097247,-0.00019300,0
 .08282913,0.26964845,0.00020068,-0.00015767,0.00047978,-0.00208010,-0.
 00053364,-0.00064319,0.00038594,0.00049587,0.00014145,0.00009440,0.000
 02446,-0.00004041,-0.00005052,0.00000041,0.00009461,0.00000578,0.00002
 224,-0.00002672,0.00007152,0.00003559,-0.00014019,-0.00001751,-0.00001
 264,-0.00003143,-0.00000542,0.00001039,0.00000274,0.,0.00000356,-0.000
 00186,0.00000748,0.00000245,-0.00000367,-0.00000285,-0.00000078,0.0000
 0483,0.00000486,0.00000320,-0.00000615,-0.00342868,-0.02291523,-0.0090
 0848,-0.02887020,-0.07180222,-0.07838559,-0.00750947,-0.00873660,-0.00
 188134,0.00024121,-0.00012672,-0.00022064,0.00003064,-0.00000409,0.000
 00400,-0.00001994,-0.00000006,-0.00000118,-0.00000547,-0.00001077,0.00
 000590,-0.00001383,0.00001043,-0.00000571,-0.00000086,-0.00000293,0.00
 000065,0.00000047,-0.00000116,0.00000037,-0.00000636,-0.00000146,0.000
 00224,0.00316188,-0.00171887,-0.00270406,-0.00103203,0.00046705,0.0007
 3541,0.03143585,0.08407848,0.08262837,0.00034385,0.00081791,-0.0017254
 0,0.00064836,-0.00264544,0.00309927,-0.00013133,0.00054063,-0.00048047
 ,0.00007336,-0.00000960,0.00000617,-0.00025950,-0.00000802,0.00011741,
 0.00006003,0.00000285,-0.00003234,0.00015071,0.00005550,-0.00012214,-0
 .00001523,-0.00001684,0.00001544,-0.00000386,0.00002193,-0.00000049,0.
 00000357,0.00000481,0.00000605,0.00001380,-0.00000154,-0.00001109,-0.0
 0001060,-0.00000244,0.00000355,0.00000631,-0.00000144,-0.00001861,-0.0
 0178942,-0.01169048,0.01600429,-0.04711468,-0.00759038,0.00417439,-0.0
 0749152,0.02727887,-0.02769973,0.00029405,0.00017435,0.00008888,0.0000
 0054,0.00000126,-0.00001935,-0.00004018,-0.00001919,-0.00001987,0.0000
 0539,-0.00001104,-0.00000360,-0.00001994,0.00002441,-0.00000727,0.0000
 0118,-0.00000172,-0.00000132,0.00000015,-0.00000038,-0.00000012,-0.000
 01850,0.00000119,0.00000679,0.00081046,0.00025870,-0.00073889,-0.00252
 236,0.00188313,0.00287848,0.00049276,-0.00688151,0.00903877,0.06130631
 ,-0.00007620,-0.00031339,-0.00060188,-0.00005142,0.00031275,0.00029514
 ,0.00005726,0.00012606,0.00015745,0.00001331,0.00000386,0.00010046,-0.
 00014274,0.00017133,0.00011763,0.00005387,-0.00004109,0.00001481,0.000
 20159,0.00000743,-0.00015454,-0.00002654,-0.00000767,-0.00001735,-0.00
 000278,-0.00000141,0.00001299,0.00000018,-0.00000001,-0.00000093,0.000
 00812,0.00000113,-0.00000998,-0.00001195,-0.00000127,0.00000622,0.0000
 0868,-0.00000196,-0.00001390,0.00155466,0.00731929,-0.01059428,-0.0036
 3628,-0.16248223,0.13208017,0.00223441,-0.00193413,0.00265361,-0.00005
 585,-0.00008536,-0.00015234,-0.00000528,-0.00000926,-0.00001040,-0.000
 04014,-0.00000761,0.00000007,0.00000348,-0.00000363,-0.00000752,0.0000
 0815,0.00000283,0.00000620,-0.00000047,0.00000004,-0.00000084,-0.00000
 027,0.00000012,0.00000027,-0.00001701,0.00000617,0.00000745,-0.0006742
 5,0.00108368,0.00016647,0.00213278,0.00035980,-0.00234336,-0.00018367,
 -0.01701829,0.02126888,-0.00218203,0.17005157,-0.00089094,-0.00111989,
 0.00180223,-0.00147929,0.00211184,-0.00258269,0.00020374,-0.00016725,0
 .00050285,-0.00005892,0.00007795,0.00006997,0.00013337,0.00001842,-0.0
 0007389,-0.00001790,-0.00000438,0.00004391,-0.00004331,0.00000454,0.00
 004102,0.00000088,0.00002116,-0.00001615,0.00000146,-0.00002027,0.0000
 0502,-0.00000383,-0.00000472,-0.00000390,0.00000130,0.00000041,0.00000
 503,0.00000504,0.00000108,0.00000021,0.00000024,-0.00000040,0.00000497
 ,0.00536269,0.01420515,-0.02033058,0.00067373,0.12962216,-0.20409361,-
 0.00422535,0.00727302,-0.00592234,-0.00013151,-0.00025021,-0.00010987,
 0.00001299,-0.00000142,0.00001737,0.00000467,0.00000237,0.00001014,-0.
 00000543,0.00001005,-0.00000024,0.00001346,-0.00001287,0.00000977,-0.0
 0000181,0.00000264,0.00000128,0.00000043,0.00000081,0.00000028,0.00000
 200,0.00000405,-0.00000350,-0.00085301,0.00016445,0.00086037,0.0028449
 1,-0.00196047,-0.00245327,0.00050025,-0.00721972,0.00982190,-0.0005433
 1,-0.14207262,0.22262055,0.00023896,-0.00041765,0.00099706,-0.00097724
 ,0.00007396,-0.00096441,0.00035415,0.00002574,0.00010541,-0.00014275,0
 .00004372,-0.00002730,0.00001050,-0.00005283,-0.00020247,0.00005576,-0
 .00002000,0.00012323,-0.00001912,0.00003615,0.00011559,0.00001344,0.00
 002045,0.00001576,-0.00001862,-0.00002240,0.00000270,-0.00000867,-0.00
 000489,0.00000814,0.00003867,0.00000538,0.00000276,0.00001047,0.000003
 21,0.00000646,0.00000891,-0.00000318,-0.00002048,0.00216967,0.00066495
 ,-0.00181980,-0.00473505,0.02781509,-0.02904818,-0.04658766,-0.0129405
 2,-0.02167774,-0.00010698,-0.00003549,0.00001556,0.00001349,0.00000821
 ,0.00001283,-0.00000147,-0.00000450,-0.00001700,-0.00001264,0.00001057
 ,0.00001046,-0.00000450,-0.00000286,-0.00000219,-0.00000471,0.00000278
 ,0.00000384,0.00000242,0.00000094,0.00000083,-0.00001764,0.00000470,-0
 .00000700,-0.00009717,0.00000476,0.00025684,-0.00062010,-0.00025928,0.
 00110227,0.00104888,-0.00058900,0.00037503,-0.00608528,0.00044024,-0.0
 0169270,0.05481152,-0.00052057,0.00025999,-0.00057219,0.00106105,0.000
 40361,0.00062767,-0.00053314,-0.00025723,-0.00007591,0.00013854,-0.000
 05658,0.00001617,-0.00007864,0.00017935,0.00021757,-0.00000918,-0.0000
 3684,-0.00009353,0.00006607,-0.00015489,-0.00012768,-0.00001727,-0.000
 01191,-0.00001779,0.00002193,0.00001313,0.00000391,0.00000895,0.000000
 61,-0.00000553,-0.00003650,-0.00000902,-0.00000623,-0.00001588,-0.0000
 0323,-0.00000534,-0.00000542,-0.00000198,0.00001541,-0.00207664,-0.000
 04099,-0.00010170,0.00141564,-0.00182154,0.00339515,0.00193438,-0.2051
 2563,0.17736537,0.00000214,0.00008958,0.00002778,-0.00003142,-0.000008
 19,-0.00001255,0.00000495,0.00002062,0.00001202,0.00001657,-0.00000873
 ,-0.00001509,0.00001218,-0.00000454,0.00000765,0.00000416,0.00000081,-
 0.00000401,-0.00000323,0.00000094,-0.00000105,0.00001258,0.00000254,0.
 00000855,0.00014790,-0.00032915,-0.00002982,0.00069591,-0.00005789,-0.
 00030687,-0.00004555,0.00050473,-0.00058262,0.00022056,0.00197941,-0.0
 0065876,-0.00539734,0.22598455,-0.00021886,-0.00001696,0.00003784,0.00
 090695,0.00018341,-0.00016300,-0.00034427,-0.00021275,0.00004870,0.000
 14005,-0.00001052,0.00001730,-0.00002058,0.00010525,0.00012124,-0.0000
 1802,-0.00002402,-0.00006532,0.00000750,-0.00011645,-0.00007031,-0.000
 01234,-0.00000475,-0.00001130,0.00001670,0.00000872,-0.00000030,0.0000
 0647,0.00000082,-0.00000459,-0.00003101,-0.00000668,-0.00000218,-0.000
 00918,-0.00000223,-0.00000584,-0.00000687,-0.00000136,0.00001536,0.000
 20606,-0.00110290,0.00234810,0.00673812,0.00452802,-0.01114698,-0.0416
 4078,0.21918326,-0.25252456,0.00000613,0.00006171,0.00003234,-0.000014
 86,-0.00000465,-0.00000165,0.00001378,0.00002024,0.00000858,0.00001162
 ,-0.00000757,-0.00001036,0.00000794,-0.00000399,0.00000391,0.00000337,
 0.00000017,-0.00000305,-0.00000238,0.00000070,-0.00000088,0.00001373,0
 .00000168,0.00000471,0.00003198,-0.00008755,-0.00006251,-0.00035403,0.
 00048814,0.00040552,-0.00015136,-0.00013826,-0.00032180,-0.00388075,-0
 .00060168,0.00016669,0.03677323,-0.20799466,0.25491094,0.00038427,-0.0
 0013893,0.00049396,-0.00055842,0.00049537,-0.00085426,0.00072982,0.000
 11985,0.00022656,-0.00009210,0.00004983,-0.00013008,0.00007112,-0.0001
 8038,-0.00023798,0.00001112,0.00004653,0.00009329,-0.00010517,0.000100
 06,0.00015155,0.00002309,0.00002270,0.00002169,-0.00001876,-0.00002457
 ,-0.00000335,-0.00001126,-0.00000413,0.00000918,0.00004270,0.00000644,
 0.00000770,0.00001821,0.00000466,0.00000487,0.00000511,-0.00000123,-0.
 00001900,0.00171703,-0.00178213,-0.00009766,-0.01822177,-0.03347927,-0
 .01157850,-0.09822310,-0.11818806,-0.05719807,-0.00001576,-0.00006813,
 -0.00003111,0.00004564,0.00001476,0.00002580,-0.00000113,-0.00000999,-
 0.00001270,-0.00001829,0.00001015,0.00001710,-0.00001313,0.00000124,-0
 .00000822,-0.00000512,0.00000209,0.00000448,0.00000298,0.00000087,0.00
 000091,-0.00001299,0.00000164,-0.00001070,-0.00062541,0.00105852,0.000
 86371,-0.00008715,0.00010135,0.00018526,-0.00554348,0.00198296,-0.0020
 1126,0.00129158,0.00039014,0.00018616,0.00066276,0.00300729,0.00182167
 ,0.11854757,-0.00002735,-0.00012484,0.00011690,0.00022901,0.00007825,-
 0.00027882,0.00004921,-0.00003172,0.00007530,0.00000342,0.00002716,0.0
 0001106,0.00002534,-0.00001009,-0.00003335,-0.00000709,-0.00000310,0.0
 0001106,-0.00001689,0.00001627,0.00001574,0.00000210,0.00000124,-0.000
 00372,0.00000020,-0.00000195,-0.00000208,-0.00000003,-0.00000088,-0.00
 000126,-0.00000284,-0.00000030,0.00000288,0.00000281,0.00000035,-0.000
 00173,-0.00000228,-0.00000063,0.00000460,0.00118113,0.00115025,0.00130
 494,0.00752398,0.00562927,-0.00059926,-0.14640264,-0.33816619,-0.07302
 665,0.00000070,-0.00001525,-0.00000381,0.00000669,-0.00000191,0.000004
 07,0.00000483,0.00000136,-0.00000004,-0.00000030,0.00000275,-0.0000005
 5,0.00000168,-0.00000052,0.00000112,0.00000013,0.00000072,-0.00000011,
 0.00000015,0.00000022,0.,0.00000245,0.00000093,-0.00000135,-0.00050361
 ,-0.00009610,0.00011667,-0.00016731,-0.00014241,0.00002114,0.00127110,
 0.00210323,0.00018444,-0.00022408,0.00048181,-0.00002712,-0.00941091,-
 0.02151152,-0.01424516,0.14646039,0.35061359,-0.00021282,0.00034230,-0
 .00039599,0.00078827,-0.00053697,0.00047678,-0.00030908,0.00005128,-0.
 00013649,0.00009525,-0.00003581,0.00005716,0.00018904,-0.00013222,0.00
 013338,-0.00012561,0.00009852,-0.00015887,-0.00017566,0.00004475,-0.00
 006413,-0.00001021,-0.00001910,-0.00000110,0.00001787,0.00002308,-0.00
 000342,0.00000833,0.00000545,-0.00000663,-0.00003940,-0.00000486,-0.00
 000412,-0.00001060,-0.00000291,-0.00000515,-0.00001076,0.00000653,0.00
 001862,0.00022525,0.00163157,0.00078732,0.00115537,-0.01282587,-0.0052
 3445,-0.08114405,-0.10434822,-0.06816498,0.00005478,0.00004658,-0.0000
 4113,-0.00002129,-0.00000366,-0.00001061,0.00000739,-0.00001127,0.0000
 3842,0.00000997,-0.00000501,-0.00000905,0.00000478,-0.00000230,0.00000
 339,0.00000457,-0.00000337,-0.00000358,-0.00000270,-0.00000202,-0.0000
 0070,0.00002358,-0.00001112,0.00000703,-0.00011639,-0.00015527,0.00045
 022,0.00013589,0.00011644,-0.00009673,-0.00403732,0.00077052,-0.000499
 84,-0.00013473,-0.00030620,-0.00039351,0.01555127,0.02891405,0.0062734
 2,0.06807901,0.08635509,0.06698473\\-0.00000002,0.00000373,-0.00000062
 ,0.00000150,-0.00000447,-0.00000239,-0.00000102,-0.00000065,-0.0000012
 6,0.00000518,-0.00000215,0.00000544,-0.00000733,0.00000154,0.00000693,
 -0.00000282,0.00000177,-0.00000375,0.00000575,-0.00000479,-0.00000470,
 -0.00000678,0.00000288,0.00000160,0.00000842,-0.00000223,0.00000326,-0
 .00000468,-0.00000162,0.00000458,-0.00000166,0.00000016,0.00000527,-0.
 00000161,0.00000075,-0.00000114,-0.00000054,0.00000332,-0.00000943,-0.
 00000194,-0.00001373,-0.00000454,-0.00000263,0.00000819,0.00000046,0.0
 0000150,-0.00000040,-0.00000111,0.00000130,-0.00000070,0.00000263,-0.0
 0000150,0.00000140,-0.00000135,0.00000021,0.00000087,-0.00000322,-0.00
 000122,-0.00000025,0.00000040,0.00000125,0.00000166,-0.00000285,0.0000
 0072,-0.00000012,0.00000045,-0.00000257,-0.00000086,-0.00000091,0.0000
 0423,-0.00000308,-0.00000106,0.00000846,0.00000350,0.00000453,-0.00000
 298,0.00000666,0.00000169,-0.00000166,-0.00000091,-0.00000018,0.000001
 47,-0.00000050,-0.00000141,0.00000011,-0.00000094,0.00000168,0.0000008
 5,0.00000098,0.00000099\\\@


 Some scientists claim that hydrogen, because it is so
 plentiful, is the basic building block of the universe. 
 I dispute that. I say that stupidity is far more
 abundant than hydrogen, and THAT is the basic building 
 block of the universe.
                   --Frank Zappa
 Job cpu time:       0 days  2 hours 35 minutes 51.5 seconds.
 File lengths (MBytes):  RWF=    417 Int=      0 D2E=      0 Chk=     13 Scr=      1
 Normal termination of Gaussian 09 at Sat Jul 24 02:38:22 2021.
