 Entering Gaussian System, Link 0=g09
 Input=opt_freq-conf-900.com
 Output=opt_freq-conf-900.log
 Initial command:
 /aerosol/software/g09/l1.exe "/scratch/nicole/10329/Gau-83149.inp" -scrdir="/scratch/nicole/10329/"
 Entering Link 1 = /aerosol/software/g09/l1.exe PID=     83158.
  
 Copyright (c) 1988,1990,1992,1993,1995,1998,2003,2009,2013,
            Gaussian, Inc.  All Rights Reserved.
  
 This is part of the Gaussian(R) 09 program.  It is based on
 the Gaussian(R) 03 system (copyright 2003, Gaussian, Inc.),
 the Gaussian(R) 98 system (copyright 1998, Gaussian, Inc.),
 the Gaussian(R) 94 system (copyright 1995, Gaussian, Inc.),
 the Gaussian 92(TM) system (copyright 1992, Gaussian, Inc.),
 the Gaussian 90(TM) system (copyright 1990, Gaussian, Inc.),
 the Gaussian 88(TM) system (copyright 1988, Gaussian, Inc.),
 the Gaussian 86(TM) system (copyright 1986, Carnegie Mellon
 University), and the Gaussian 82(TM) system (copyright 1983,
 Carnegie Mellon University). Gaussian is a federally registered
 trademark of Gaussian, Inc.
  
 This software contains proprietary and confidential information,
 including trade secrets, belonging to Gaussian, Inc.
  
 This software is provided under written license and may be
 used, copied, transmitted, or stored only in accord with that
 written license.
  
 The following legend is applicable only to US Government
 contracts under FAR:
  
                    RESTRICTED RIGHTS LEGEND
  
 Use, reproduction and disclosure by the US Government is
 subject to restrictions as set forth in subparagraphs (a)
 and (c) of the Commercial Computer Software - Restricted
 Rights clause in FAR 52.227-19.
  
 Gaussian, Inc.
 340 Quinnipiac St., Bldg. 40, Wallingford CT 06492
  
  
 ---------------------------------------------------------------
 Warning -- This program may not be used in any manner that
 competes with the business of Gaussian, Inc. or will provide
 assistance to any competitor of Gaussian, Inc.  The licensee
 of this program is prohibited from giving any competitor of
 Gaussian, Inc. access to this program.  By using this program,
 the user acknowledges that Gaussian, Inc. is engaged in the
 business of creating and licensing software in the field of
 computational chemistry and represents and warrants to the
 licensee that it is not a competitor of Gaussian, Inc. and that
 it will not use this program in any manner prohibited above.
 ---------------------------------------------------------------
  

 Cite this work as:
 Gaussian 09, Revision D.01,
 M. J. Frisch, G. W. Trucks, H. B. Schlegel, G. E. Scuseria, 
 M. A. Robb, J. R. Cheeseman, G. Scalmani, V. Barone, B. Mennucci, 
 G. A. Petersson, H. Nakatsuji, M. Caricato, X. Li, H. P. Hratchian, 
 A. F. Izmaylov, J. Bloino, G. Zheng, J. L. Sonnenberg, M. Hada, 
 M. Ehara, K. Toyota, R. Fukuda, J. Hasegawa, M. Ishida, T. Nakajima, 
 Y. Honda, O. Kitao, H. Nakai, T. Vreven, J. A. Montgomery, Jr., 
 J. E. Peralta, F. Ogliaro, M. Bearpark, J. J. Heyd, E. Brothers, 
 K. N. Kudin, V. N. Staroverov, T. Keith, R. Kobayashi, J. Normand, 
 K. Raghavachari, A. Rendell, J. C. Burant, S. S. Iyengar, J. Tomasi, 
 M. Cossi, N. Rega, J. M. Millam, M. Klene, J. E. Knox, J. B. Cross, 
 V. Bakken, C. Adamo, J. Jaramillo, R. Gomperts, R. E. Stratmann, 
 O. Yazyev, A. J. Austin, R. Cammi, C. Pomelli, J. W. Ochterski, 
 R. L. Martin, K. Morokuma, V. G. Zakrzewski, G. A. Voth, 
 P. Salvador, J. J. Dannenberg, S. Dapprich, A. D. Daniels, 
 O. Farkas, J. B. Foresman, J. V. Ortiz, J. Cioslowski, 
 and D. J. Fox, Gaussian, Inc., Wallingford CT, 2013.
 
 ******************************************
 Gaussian 09:  ES64L-G09RevD.01 24-Apr-2013
                24-Jul-2021 
 ******************************************
 %mem=2gb
 %nproc=4
 Will use up to    4 processors via shared memory.
 %chk=conf-900.chk
 ----------------------------------------------------------------------
 # B3LYP/6-31+G(d,p) EmpiricalDispersion=GD3BJ opt=calcfc freq=noraman 
 nosymm integral(ultrafinegrid)
 ----------------------------------------------------------------------
 1/10=4,14=-1,18=20,19=15,26=4,38=1/1,3;
 2/9=110,12=2,15=1,17=6,18=5,40=1/2;
 3/5=1,6=6,7=111,11=2,16=1,25=1,30=1,71=2,74=-5,75=-5,124=41,140=1/1,2,3;
 4//1;
 5/5=2,38=5/2;
 8/6=4,10=90,11=11/1;
 11/6=1,8=1,9=11,15=111,16=1,31=1/1,2,10;
 10/6=1,13=1,31=1/2;
 6/7=2,8=2,9=2,10=2,28=1/1;
 7/10=1,18=20,25=1,30=1/1,2,3,16;
 1/10=4,14=-1,18=20,19=15,26=4/3(2);
 2/9=110,15=1/2;
 99//99;
 2/9=110,15=1/2;
 3/5=1,6=6,7=111,11=2,16=1,25=1,30=1,71=1,74=-5,75=-5,124=41/1,2,3;
 4/5=5,16=3,69=1/1;
 5/5=2,38=5/2;
 7/30=1/1,2,3,16;
 1/14=-1,18=20,19=15,26=4/3(-5);
 2/9=110,15=1/2;
 6/7=2,8=2,9=2,10=2,19=2,28=1/1;
 99/9=1/99;
 ------------------------------------------------------------
 Candidate Structure: Conf:900 OPT and FREQ calc in gas phase
 ------------------------------------------------------------
 Symbolic Z-matrix:
 Charge =  0 Multiplicity = 1
 O                    -0.82672   0.57174  -0.96785 
 C                    -1.22909  -0.54922  -0.64952 
 N                    -0.43138  -1.42426  -0.00173 
 C                     0.95992  -1.12022   0.27281 
 C                     1.61867  -2.41781   0.68934 
 O                     2.92994  -2.25252   0.9456 
 O                     1.05262  -3.47689   0.78607 
 C                     1.13632  -0.01601   1.36123 
 C                     1.95978   1.13444   0.8748 
 C                     3.19006   1.59905   1.2347 
 N                     3.54237   2.69371   0.46381 
 C                     2.53244   2.87303  -0.35249 
 N                     1.55281   1.95523  -0.14982 
 C                    -2.63628  -1.03664  -0.95808 
 C                    -3.55512   0.07309  -1.43111 
 N                    -3.82051   1.00949  -0.33497 
 H                    -0.72051  -2.37758   0.15843 
 H                     1.43873  -0.80577  -0.66191 
 H                     3.27157  -3.11944   1.20092 
 H                     0.14997   0.336     1.65821 
 H                     1.60794  -0.42166   2.25634 
 H                     3.8462    1.20985   1.99991 
 H                     2.44361   3.63558  -1.10536 
 H                     0.68931   1.84637  -0.65881 
 H                    -3.04854  -1.50417  -0.05902 
 H                    -2.56143  -1.81752  -1.72349 
 H                    -4.50577  -0.3706   -1.73887 
 H                    -3.10828   0.55223  -2.31242 
 H                    -2.96873   1.53246  -0.16398 
 H                    -4.50977   1.68835  -0.63264 
 

 GradGradGradGradGradGradGradGradGradGradGradGradGradGradGradGradGradGrad
 Berny optimization.
 Initialization pass.
                           ----------------------------
                           !    Initial Parameters    !
                           ! (Angstroms and Degrees)  !
 --------------------------                            --------------------------
 ! Name  Definition              Value          Derivative Info.                !
 --------------------------------------------------------------------------------
 ! R1    R(1,2)                  1.2328         calculate D2E/DX2 analytically  !
 ! R2    R(2,3)                  1.3497         calculate D2E/DX2 analytically  !
 ! R3    R(2,14)                 1.5208         calculate D2E/DX2 analytically  !
 ! R4    R(3,4)                  1.4504         calculate D2E/DX2 analytically  !
 ! R5    R(3,17)                 1.009          calculate D2E/DX2 analytically  !
 ! R6    R(4,5)                  1.5137         calculate D2E/DX2 analytically  !
 ! R7    R(4,8)                  1.5605         calculate D2E/DX2 analytically  !
 ! R8    R(4,18)                 1.0963         calculate D2E/DX2 analytically  !
 ! R9    R(5,6)                  1.3463         calculate D2E/DX2 analytically  !
 ! R10   R(5,7)                  1.2047         calculate D2E/DX2 analytically  !
 ! R11   R(6,19)                 0.9661         calculate D2E/DX2 analytically  !
 ! R12   R(8,9)                  1.4961         calculate D2E/DX2 analytically  !
 ! R13   R(8,20)                 1.0886         calculate D2E/DX2 analytically  !
 ! R14   R(8,21)                 1.09           calculate D2E/DX2 analytically  !
 ! R15   R(9,10)                 1.3634         calculate D2E/DX2 analytically  !
 ! R16   R(9,13)                 1.3745         calculate D2E/DX2 analytically  !
 ! R17   R(10,11)                1.3844         calculate D2E/DX2 analytically  !
 ! R18   R(10,22)                1.0805         calculate D2E/DX2 analytically  !
 ! R19   R(11,12)                1.3109         calculate D2E/DX2 analytically  !
 ! R20   R(12,13)                1.3576         calculate D2E/DX2 analytically  !
 ! R21   R(12,23)                1.0753         calculate D2E/DX2 analytically  !
 ! R22   R(13,24)                1.0082         calculate D2E/DX2 analytically  !
 ! R23   R(14,15)                1.5164         calculate D2E/DX2 analytically  !
 ! R24   R(14,25)                1.094          calculate D2E/DX2 analytically  !
 ! R25   R(14,26)                1.096          calculate D2E/DX2 analytically  !
 ! R26   R(15,16)                1.4659         calculate D2E/DX2 analytically  !
 ! R27   R(15,27)                1.0933         calculate D2E/DX2 analytically  !
 ! R28   R(15,28)                1.0982         calculate D2E/DX2 analytically  !
 ! R29   R(16,29)                1.014          calculate D2E/DX2 analytically  !
 ! R30   R(16,30)                1.0122         calculate D2E/DX2 analytically  !
 ! A1    A(1,2,3)              121.3681         calculate D2E/DX2 analytically  !
 ! A2    A(1,2,14)             122.7535         calculate D2E/DX2 analytically  !
 ! A3    A(3,2,14)             115.8782         calculate D2E/DX2 analytically  !
 ! A4    A(2,3,4)              121.4608         calculate D2E/DX2 analytically  !
 ! A5    A(2,3,17)             121.2899         calculate D2E/DX2 analytically  !
 ! A6    A(4,3,17)             116.2892         calculate D2E/DX2 analytically  !
 ! A7    A(3,4,5)              106.8498         calculate D2E/DX2 analytically  !
 ! A8    A(3,4,8)              112.8802         calculate D2E/DX2 analytically  !
 ! A9    A(3,4,18)             108.5241         calculate D2E/DX2 analytically  !
 ! A10   A(5,4,8)              111.4368         calculate D2E/DX2 analytically  !
 ! A11   A(5,4,18)             106.8843         calculate D2E/DX2 analytically  !
 ! A12   A(8,4,18)             110.0208         calculate D2E/DX2 analytically  !
 ! A13   A(4,5,6)              111.7786         calculate D2E/DX2 analytically  !
 ! A14   A(4,5,7)              124.835          calculate D2E/DX2 analytically  !
 ! A15   A(6,5,7)              123.3863         calculate D2E/DX2 analytically  !
 ! A16   A(5,6,19)             106.5317         calculate D2E/DX2 analytically  !
 ! A17   A(4,8,9)              112.3075         calculate D2E/DX2 analytically  !
 ! A18   A(4,8,20)             108.4622         calculate D2E/DX2 analytically  !
 ! A19   A(4,8,21)             110.9981         calculate D2E/DX2 analytically  !
 ! A20   A(9,8,20)             109.8016         calculate D2E/DX2 analytically  !
 ! A21   A(9,8,21)             108.362          calculate D2E/DX2 analytically  !
 ! A22   A(20,8,21)            106.7591         calculate D2E/DX2 analytically  !
 ! A23   A(8,9,10)             132.2888         calculate D2E/DX2 analytically  !
 ! A24   A(8,9,13)             122.5895         calculate D2E/DX2 analytically  !
 ! A25   A(10,9,13)            105.0974         calculate D2E/DX2 analytically  !
 ! A26   A(9,10,11)            110.6144         calculate D2E/DX2 analytically  !
 ! A27   A(9,10,22)            127.7431         calculate D2E/DX2 analytically  !
 ! A28   A(11,10,22)           121.642          calculate D2E/DX2 analytically  !
 ! A29   A(10,11,12)           105.0013         calculate D2E/DX2 analytically  !
 ! A30   A(11,12,13)           111.7452         calculate D2E/DX2 analytically  !
 ! A31   A(11,12,23)           126.6302         calculate D2E/DX2 analytically  !
 ! A32   A(13,12,23)           121.6246         calculate D2E/DX2 analytically  !
 ! A33   A(9,13,12)            107.5381         calculate D2E/DX2 analytically  !
 ! A34   A(9,13,24)            124.433          calculate D2E/DX2 analytically  !
 ! A35   A(12,13,24)           127.9973         calculate D2E/DX2 analytically  !
 ! A36   A(2,14,15)            112.9165         calculate D2E/DX2 analytically  !
 ! A37   A(2,14,25)            108.5965         calculate D2E/DX2 analytically  !
 ! A38   A(2,14,26)            107.8686         calculate D2E/DX2 analytically  !
 ! A39   A(15,14,25)           109.924          calculate D2E/DX2 analytically  !
 ! A40   A(15,14,26)           110.1777         calculate D2E/DX2 analytically  !
 ! A41   A(25,14,26)           107.1681         calculate D2E/DX2 analytically  !
 ! A42   A(14,15,16)           110.1156         calculate D2E/DX2 analytically  !
 ! A43   A(14,15,27)           108.5228         calculate D2E/DX2 analytically  !
 ! A44   A(14,15,28)           108.8501         calculate D2E/DX2 analytically  !
 ! A45   A(16,15,27)           108.1986         calculate D2E/DX2 analytically  !
 ! A46   A(16,15,28)           113.2703         calculate D2E/DX2 analytically  !
 ! A47   A(27,15,28)           107.7561         calculate D2E/DX2 analytically  !
 ! A48   A(15,16,29)           107.666          calculate D2E/DX2 analytically  !
 ! A49   A(15,16,30)           109.3782         calculate D2E/DX2 analytically  !
 ! A50   A(29,16,30)           106.0034         calculate D2E/DX2 analytically  !
 ! D1    D(1,2,3,4)             -4.0497         calculate D2E/DX2 analytically  !
 ! D2    D(1,2,3,17)          -172.4215         calculate D2E/DX2 analytically  !
 ! D3    D(14,2,3,4)           175.7875         calculate D2E/DX2 analytically  !
 ! D4    D(14,2,3,17)            7.4157         calculate D2E/DX2 analytically  !
 ! D5    D(1,2,14,15)          -11.5739         calculate D2E/DX2 analytically  !
 ! D6    D(1,2,14,25)         -133.7551         calculate D2E/DX2 analytically  !
 ! D7    D(1,2,14,26)          110.4154         calculate D2E/DX2 analytically  !
 ! D8    D(3,2,14,15)          168.5914         calculate D2E/DX2 analytically  !
 ! D9    D(3,2,14,25)           46.4101         calculate D2E/DX2 analytically  !
 ! D10   D(3,2,14,26)          -69.4193         calculate D2E/DX2 analytically  !
 ! D11   D(2,3,4,5)           -166.4882         calculate D2E/DX2 analytically  !
 ! D12   D(2,3,4,8)             70.6718         calculate D2E/DX2 analytically  !
 ! D13   D(2,3,4,18)           -51.557          calculate D2E/DX2 analytically  !
 ! D14   D(17,3,4,5)             2.4357         calculate D2E/DX2 analytically  !
 ! D15   D(17,3,4,8)          -120.4043         calculate D2E/DX2 analytically  !
 ! D16   D(17,3,4,18)          117.3668         calculate D2E/DX2 analytically  !
 ! D17   D(3,4,5,6)            178.8366         calculate D2E/DX2 analytically  !
 ! D18   D(3,4,5,7)             -1.2448         calculate D2E/DX2 analytically  !
 ! D19   D(8,4,5,6)            -57.4281         calculate D2E/DX2 analytically  !
 ! D20   D(8,4,5,7)            122.4904         calculate D2E/DX2 analytically  !
 ! D21   D(18,4,5,6)            62.807          calculate D2E/DX2 analytically  !
 ! D22   D(18,4,5,7)          -117.2745         calculate D2E/DX2 analytically  !
 ! D23   D(3,4,8,9)           -124.279          calculate D2E/DX2 analytically  !
 ! D24   D(3,4,8,20)            -2.7444         calculate D2E/DX2 analytically  !
 ! D25   D(3,4,8,21)           114.2409         calculate D2E/DX2 analytically  !
 ! D26   D(5,4,8,9)            115.476          calculate D2E/DX2 analytically  !
 ! D27   D(5,4,8,20)          -122.9893         calculate D2E/DX2 analytically  !
 ! D28   D(5,4,8,21)            -6.004          calculate D2E/DX2 analytically  !
 ! D29   D(18,4,8,9)            -2.894          calculate D2E/DX2 analytically  !
 ! D30   D(18,4,8,20)          118.6406         calculate D2E/DX2 analytically  !
 ! D31   D(18,4,8,21)         -124.374          calculate D2E/DX2 analytically  !
 ! D32   D(4,5,6,19)          -179.9334         calculate D2E/DX2 analytically  !
 ! D33   D(7,5,6,19)             0.1467         calculate D2E/DX2 analytically  !
 ! D34   D(4,8,9,10)          -113.4026         calculate D2E/DX2 analytically  !
 ! D35   D(4,8,9,13)            64.522          calculate D2E/DX2 analytically  !
 ! D36   D(20,8,9,10)          125.8315         calculate D2E/DX2 analytically  !
 ! D37   D(20,8,9,13)          -56.2439         calculate D2E/DX2 analytically  !
 ! D38   D(21,8,9,10)            9.5732         calculate D2E/DX2 analytically  !
 ! D39   D(21,8,9,13)         -172.5022         calculate D2E/DX2 analytically  !
 ! D40   D(8,9,10,11)          178.7649         calculate D2E/DX2 analytically  !
 ! D41   D(8,9,10,22)           -0.9809         calculate D2E/DX2 analytically  !
 ! D42   D(13,9,10,11)           0.5759         calculate D2E/DX2 analytically  !
 ! D43   D(13,9,10,22)        -179.1699         calculate D2E/DX2 analytically  !
 ! D44   D(8,9,13,12)         -178.9923         calculate D2E/DX2 analytically  !
 ! D45   D(8,9,13,24)           -0.8995         calculate D2E/DX2 analytically  !
 ! D46   D(10,9,13,12)          -0.5824         calculate D2E/DX2 analytically  !
 ! D47   D(10,9,13,24)         177.5105         calculate D2E/DX2 analytically  !
 ! D48   D(9,10,11,12)          -0.3412         calculate D2E/DX2 analytically  !
 ! D49   D(22,10,11,12)        179.4226         calculate D2E/DX2 analytically  !
 ! D50   D(10,11,12,13)         -0.0436         calculate D2E/DX2 analytically  !
 ! D51   D(10,11,12,23)        179.9924         calculate D2E/DX2 analytically  !
 ! D52   D(11,12,13,9)           0.4032         calculate D2E/DX2 analytically  !
 ! D53   D(11,12,13,24)       -177.6006         calculate D2E/DX2 analytically  !
 ! D54   D(23,12,13,9)        -179.6307         calculate D2E/DX2 analytically  !
 ! D55   D(23,12,13,24)          2.3654         calculate D2E/DX2 analytically  !
 ! D56   D(2,14,15,16)         -68.0822         calculate D2E/DX2 analytically  !
 ! D57   D(2,14,15,27)         173.6574         calculate D2E/DX2 analytically  !
 ! D58   D(2,14,15,28)          56.6415         calculate D2E/DX2 analytically  !
 ! D59   D(25,14,15,16)         53.3511         calculate D2E/DX2 analytically  !
 ! D60   D(25,14,15,27)        -64.9094         calculate D2E/DX2 analytically  !
 ! D61   D(25,14,15,28)        178.0747         calculate D2E/DX2 analytically  !
 ! D62   D(26,14,15,16)        171.2363         calculate D2E/DX2 analytically  !
 ! D63   D(26,14,15,27)         52.9758         calculate D2E/DX2 analytically  !
 ! D64   D(26,14,15,28)        -64.0401         calculate D2E/DX2 analytically  !
 ! D65   D(14,15,16,29)         71.1881         calculate D2E/DX2 analytically  !
 ! D66   D(14,15,16,30)       -174.0572         calculate D2E/DX2 analytically  !
 ! D67   D(27,15,16,29)       -170.3521         calculate D2E/DX2 analytically  !
 ! D68   D(27,15,16,30)        -55.5974         calculate D2E/DX2 analytically  !
 ! D69   D(28,15,16,29)        -50.9567         calculate D2E/DX2 analytically  !
 ! D70   D(28,15,16,30)         63.7981         calculate D2E/DX2 analytically  !
 --------------------------------------------------------------------------------
 Trust Radius=3.00D-01 FncErr=1.00D-07 GrdErr=1.00D-06
 Number of steps in this run=    160 maximum allowed number of steps=    180.
 GradGradGradGradGradGradGradGradGradGradGradGradGradGradGradGradGradGrad

                          Input orientation:                          
 ---------------------------------------------------------------------
 Center     Atomic      Atomic             Coordinates (Angstroms)
 Number     Number       Type             X           Y           Z
 ---------------------------------------------------------------------
      1          8           0       -0.826723    0.571738   -0.967851
      2          6           0       -1.229094   -0.549225   -0.649519
      3          7           0       -0.431377   -1.424261   -0.001728
      4          6           0        0.959925   -1.120223    0.272813
      5          6           0        1.618670   -2.417810    0.689338
      6          8           0        2.929943   -2.252524    0.945600
      7          8           0        1.052621   -3.476888    0.786072
      8          6           0        1.136320   -0.016008    1.361235
      9          6           0        1.959780    1.134444    0.874800
     10          6           0        3.190060    1.599053    1.234702
     11          7           0        3.542369    2.693712    0.463813
     12          6           0        2.532436    2.873028   -0.352489
     13          7           0        1.552808    1.955230   -0.149818
     14          6           0       -2.636284   -1.036645   -0.958076
     15          6           0       -3.555117    0.073091   -1.431113
     16          7           0       -3.820507    1.009488   -0.334969
     17          1           0       -0.720507   -2.377581    0.158427
     18          1           0        1.438730   -0.805768   -0.661906
     19          1           0        3.271568   -3.119437    1.200919
     20          1           0        0.149967    0.336002    1.658207
     21          1           0        1.607938   -0.421655    2.256343
     22          1           0        3.846198    1.209845    1.999911
     23          1           0        2.443610    3.635583   -1.105356
     24          1           0        0.689308    1.846367   -0.658808
     25          1           0       -3.048535   -1.504174   -0.059019
     26          1           0       -2.561425   -1.817523   -1.723489
     27          1           0       -4.505767   -0.370602   -1.738872
     28          1           0       -3.108278    0.552227   -2.312420
     29          1           0       -2.968731    1.532462   -0.163977
     30          1           0       -4.509771    1.688346   -0.632639
 ---------------------------------------------------------------------
                    Distance matrix (angstroms):
                    1          2          3          4          5
     1  O    0.000000
     2  C    1.232799   0.000000
     3  N    2.252488   1.349694   0.000000
     4  C    2.755738   2.443059   1.450356   0.000000
     5  C    4.202810   3.659769   2.380631   1.513661   0.000000
     6  O    5.074474   4.768985   3.589139   2.369750   1.346263
     7  O    4.795785   3.979743   2.652576   2.413689   1.204747
     8  C    3.102196   3.150021   2.509684   1.560470   2.540228
     9  C    3.387713   3.914998   3.610111   2.538824   3.573411
    10  C    4.694802   5.262538   4.876883   3.645984   4.347629
    11  N    5.063734   5.875628   5.741522   4.609946   5.466180
    12  C    4.118077   5.094030   5.232008   4.337033   5.469309
    13  N    2.871480   3.776371   3.921719   3.160466   4.453313
    14  C    2.421053   1.520845   2.434432   3.801945   4.767203
    15  C    2.812009   2.531511   3.747393   4.971214   6.121190
    16  N    3.091102   3.040387   4.185736   5.268548   6.510010
    17  H    3.158838   2.062601   1.008992   2.101875   2.399007
    18  H    2.668970   2.680159   2.077419   1.096284   2.111141
    19  H    5.926578   5.503278   4.246385   3.194046   1.867102
    20  H    2.811703   2.830377   2.488347   2.167011   3.267916
    21  H    4.160509   4.063134   3.203578   2.200525   2.537766
    22  H    5.572341   5.989357   5.407654   4.091780   4.454140
    23  H    4.483429   5.586516   5.923307   5.168982   6.367497
    24  H    2.004629   3.069073   3.519189   3.121187   4.567758
    25  H    3.173616   2.137986   2.619005   4.040456   4.814309
    26  H    3.047745   2.130047   2.766988   4.107476   4.863669
    27  H    3.875286   3.457627   4.552859   5.872189   6.898985
    28  H    2.648346   2.740396   4.051123   5.102038   6.338431
    29  H    2.481412   2.755995   3.899577   4.760448   6.113677
    30  H    3.863163   3.971127   5.169107   6.214940   7.494393
                    6          7          8          9         10
     6  O    0.000000
     7  O    2.246965   0.000000
     8  C    2.896867   3.509346   0.000000
     9  C    3.523887   4.700553   1.496077   0.000000
    10  C    3.871161   5.525857   2.615776   1.363444   0.000000
    11  N    5.007237   6.661756   3.733231   2.259383   1.384438
    12  C    5.302295   6.618732   3.637653   2.203826   2.138845
    13  N    4.560881   5.534798   2.518437   1.374466   2.173557
    14  C    6.007097   4.754457   4.544605   5.403412   6.760286
    15  C    7.287883   6.224911   5.460286   6.071062   7.411649
    16  N    7.605863   6.718012   5.338435   5.906850   7.208295
    17  H    3.736450   2.178623   3.235981   4.475650   5.680186
    18  H    2.626955   3.062777   2.192777   2.529305   3.528094
    19  H    0.966145   2.285518   3.770445   4.463480   4.719315
    20  H    3.864782   4.014167   1.088575   2.127594   3.319159
    21  H    2.611096   3.435771   1.090042   2.110426   2.762267
    22  H    3.733510   5.589539   3.042049   2.197756   1.080530
    23  H    6.254018   7.489967   4.596433   3.226578   3.190692
    24  H    4.939177   5.527813   2.783672   2.114920   3.146475
    25  H    6.108313   4.628743   4.663129   5.737382   7.086876
    26  H    6.121142   4.702417   5.141429   5.992205   7.314607
    27  H    8.126364   6.849820   6.447445   7.134406   8.482184
    28  H    7.412248   6.568676   5.642273   6.015194   7.303902
    29  H    7.095888   6.493648   4.644941   5.052494   6.315968
    30  H    8.565666   7.722214   6.225648   6.665904   7.923531
                   11         12         13         14         15
    11  N    0.000000
    12  C    1.310904   0.000000
    13  N    2.209129   1.357608   0.000000
    14  C    7.356159   6.509066   5.210862   0.000000
    15  C    7.799532   6.786853   5.592411   1.516421   0.000000
    16  N    7.595170   6.620647   5.459050   2.444853   1.465880
    17  H    6.631996   6.197706   4.902675   2.591310   4.070313
    18  H    4.235433   3.850386   2.810402   4.092280   5.128604
    19  H    5.865949   6.234504   5.525475   6.625858   7.982698
    20  H    4.300437   4.019397   2.803358   4.061070   4.831218
    21  H    4.081751   4.302980   3.382637   5.359489   6.363902
    22  H    2.157259   3.166376   3.230568   7.471210   8.236722
    23  H    2.134639   1.075262   2.128419   6.903385   6.984425
    24  H    3.180916   2.131897   1.008243   4.411448   4.664344
    25  H    7.831706   7.098821   5.757437   1.094001   2.151054
    26  H    7.898850   7.058918   5.799744   1.096007   2.155766
    27  H    8.889001   7.872706   6.681387   2.132657   1.093305
    28  H    7.518280   6.406645   5.326442   2.140453   1.098152
    29  H    6.643572   5.665288   4.541283   2.709506   2.019714
    30  H    8.188402   7.146652   6.087628   3.322866   2.039111
                   16         17         18         19         20
    16  N    0.000000
    17  H    4.617973   0.000000
    18  H    5.573295   2.793894   0.000000
    19  H    8.348923   4.192112   3.490341   0.000000
    20  H    4.493440   3.220341   2.889199   4.679056   0.000000
    21  H    6.183130   3.694395   2.948280   3.340601   1.748568
    22  H    8.016868   6.092247   4.116293   4.439739   3.813461
    23  H    6.835864   6.911362   4.575154   7.185731   4.877019
    24  H    4.598225   4.527381   2.755987   5.897954   2.817915
    25  H    2.643972   2.495964   4.581135   6.643811   4.070078
    26  H    3.391941   2.691515   4.260499   6.653643   4.839957
    27  H    2.084508   4.685712   6.056919   8.757021   5.806488
    28  H    2.150970   4.515563   5.024303   8.156415   5.140894
    29  H    1.014033   4.521824   5.014077   7.902180   3.805017
    30  H    1.012196   5.613917   6.450281   9.328770   5.365629
                   21         22         23         24         25
    21  H    0.000000
    22  H    2.781610   0.000000
    23  H    5.334843   4.182600   0.000000
    24  H    3.806036   4.176111   2.545246   0.000000
    25  H    5.311826   7.690412   7.594445   5.055427   0.000000
    26  H    5.930523   8.005392   7.427573   5.012475   1.762363
    27  H    7.303544   9.286099   8.046410   5.750678   2.496080
    28  H    6.638128   8.209348   6.464329   4.339457   3.051257
    29  H    5.533754   7.157496   5.882411   3.704679   3.039497
    30  H    7.086938   8.773910   7.236346   5.201546   3.557588
                   26         27         28         29         30
    26  H    0.000000
    27  H    2.423691   0.000000
    28  H    2.502319   1.770183   0.000000
    29  H    3.717576   2.909369   2.365617   0.000000
    30  H    4.156576   2.337314   2.465079   1.618254   0.000000
 Symmetry turned off by external request.
 Stoichiometry    C9H14N4O3
 Framework group  C1[X(C9H14N4O3)]
 Deg. of freedom    84
 Full point group                 C1      NOp   1
 Rotational constants (GHZ):      0.6120385      0.3669297      0.2426803
 Standard basis: 6-31+G(d,p) (6D, 7F)
   374 basis functions,   610 primitive gaussians,   374 cartesian basis functions
    60 alpha electrons       60 beta electrons
       nuclear repulsion energy      1127.3674257685 Hartrees.
 NAtoms=   30 NActive=   30 NUniq=   30 SFac= 1.00D+00 NAtFMM=   60 NAOKFM=F Big=F
 Integral buffers will be    131072 words long.
 Raffenetti 2 integral format.
 Two-electron integral symmetry is turned off.
 Nuclear repulsion after empirical dispersion term =     1127.3132326002 Hartrees.
 One-electron integrals computed using PRISM.
 NBasis=   374 RedAO= T EigKep=  6.87D-06  NBF=   374
 NBsUse=   374 1.00D-06 EigRej= -1.00D+00 NBFU=   374
 ExpMin= 4.38D-02 ExpMax= 5.48D+03 ExpMxC= 8.25D+02 IAcc=3 IRadAn=         5 AccDes= 0.00D+00
 Harris functional with IExCor=  402 and IRadAn=       5 diagonalized for initial guess.
 HarFok:  IExCor=  402 AccDes= 0.00D+00 IRadAn=         5 IDoV= 1 UseB2=F ITyADJ=14
 ICtDFT=  3500011 ScaDFX=  1.000000  1.000000  1.000000  1.000000
 FoFCou: FMM=F IPFlag=           0 FMFlag=      100000 FMFlg1=           0
         NFxFlg=           0 DoJE=T BraDBF=F KetDBF=T FulRan=T
         wScrn=  0.000000 ICntrl=     500 IOpCl=  0 I1Cent=   200000004 NGrid=           0
         NMat0=    1 NMatS0=      1 NMatT0=    0 NMatD0=    1 NMtDS0=    0 NMtDT0=    0
 Symmetry not used in FoFCou.
 Requested convergence on RMS density matrix=1.00D-08 within 128 cycles.
 Requested convergence on MAX density matrix=1.00D-06.
 Requested convergence on             energy=1.00D-06.
 No special actions if energy rises.
 SCF Done:  E(RB3LYP) =  -796.209263465     A.U. after   14 cycles
            NFock= 14  Conv=0.82D-08     -V/T= 2.0090
 DoSCS=F DFT=T ScalE2(SS,OS)=  1.000000  1.000000
 Range of M.O.s used for correlation:     1   374
 NBasis=   374 NAE=    60 NBE=    60 NFC=     0 NFV=     0
 NROrb=    374 NOA=    60 NOB=    60 NVA=   314 NVB=   314

 **** Warning!!: The largest alpha MO coefficient is  0.98354452D+02

 Symmetrizing basis deriv contribution to polar:
 IMax=3 JMax=2 DiffMx= 0.00D+00
 G2DrvN: will do    31 centers at a time, making    1 passes.
 Calling FoFCou, ICntrl=  3107 FMM=F I1Cent=   0 AccDes= 0.00D+00.
 End of G2Drv F.D. properties file   721 does not exist.
 End of G2Drv F.D. properties file   722 does not exist.
 End of G2Drv F.D. properties file   788 does not exist.
          IDoAtm=111111111111111111111111111111
          Differentiating once with respect to nuclear coordinates.
          There are    93 degrees of freedom in the 1st order CPHF.  IDoFFX=6 NUNeed=     0.
     87 vectors produced by pass  0 Test12= 2.03D-14 1.08D-09 XBig12= 1.74D-01 7.63D-02.
 AX will form    87 AO Fock derivatives at one time.
     87 vectors produced by pass  1 Test12= 2.03D-14 1.08D-09 XBig12= 2.44D-02 4.50D-02.
     87 vectors produced by pass  2 Test12= 2.03D-14 1.08D-09 XBig12= 3.59D-04 3.41D-03.
     87 vectors produced by pass  3 Test12= 2.03D-14 1.08D-09 XBig12= 1.71D-06 1.79D-04.
     87 vectors produced by pass  4 Test12= 2.03D-14 1.08D-09 XBig12= 3.56D-09 5.29D-06.
     81 vectors produced by pass  5 Test12= 2.03D-14 1.08D-09 XBig12= 4.11D-12 1.76D-07.
     26 vectors produced by pass  6 Test12= 2.03D-14 1.08D-09 XBig12= 4.22D-15 4.39D-09.
      6 vectors produced by pass  7 Test12= 2.03D-14 1.08D-09 XBig12= 3.82D-16 2.54D-09.
      6 vectors produced by pass  8 Test12= 2.03D-14 1.08D-09 XBig12= 3.50D-15 6.75D-09.
      6 vectors produced by pass  9 Test12= 2.03D-14 1.08D-09 XBig12= 1.56D-15 4.32D-09.
      6 vectors produced by pass 10 Test12= 2.03D-14 1.08D-09 XBig12= 3.34D-15 5.30D-09.
      4 vectors produced by pass 11 Test12= 2.03D-14 1.08D-09 XBig12= 7.62D-16 2.33D-09.
      4 vectors produced by pass 12 Test12= 2.03D-14 1.08D-09 XBig12= 3.30D-15 7.95D-09.
      4 vectors produced by pass 13 Test12= 2.03D-14 1.08D-09 XBig12= 1.38D-15 4.83D-09.
      4 vectors produced by pass 14 Test12= 2.03D-14 1.08D-09 XBig12= 2.58D-15 4.32D-09.
      4 vectors produced by pass 15 Test12= 2.03D-14 1.08D-09 XBig12= 1.37D-15 3.08D-09.
      4 vectors produced by pass 16 Test12= 2.03D-14 1.08D-09 XBig12= 5.15D-15 6.76D-09.
      4 vectors produced by pass 17 Test12= 2.03D-14 1.08D-09 XBig12= 1.77D-15 4.19D-09.
      4 vectors produced by pass 18 Test12= 2.03D-14 1.08D-09 XBig12= 3.59D-15 4.19D-09.
      2 vectors produced by pass 19 Test12= 2.03D-14 1.08D-09 XBig12= 1.17D-15 2.97D-09.
 InvSVY:  IOpt=1 It=  1 EMax= 4.16D-16
 Solved reduced A of dimension   600 with    93 vectors.
 End of Minotr F.D. properties file   721 does not exist.
 End of Minotr F.D. properties file   722 does not exist.
 End of Minotr F.D. properties file   788 does not exist.

 **********************************************************************

            Population analysis using the SCF density.

 **********************************************************************

 Alpha  occ. eigenvalues --  -19.23831 -19.18831 -19.15293 -14.39021 -14.37869
 Alpha  occ. eigenvalues --  -14.32670 -14.30978 -10.36172 -10.31836 -10.27242
 Alpha  occ. eigenvalues --  -10.23232 -10.22346 -10.22162 -10.21683 -10.21307
 Alpha  occ. eigenvalues --  -10.19240  -1.15330  -1.07273  -1.06466  -1.01212
 Alpha  occ. eigenvalues --   -0.96007  -0.89647  -0.86583  -0.82302  -0.77739
 Alpha  occ. eigenvalues --   -0.75124  -0.69282  -0.66801  -0.62282  -0.61392
 Alpha  occ. eigenvalues --   -0.60613  -0.58676  -0.54952  -0.54066  -0.52710
 Alpha  occ. eigenvalues --   -0.51579  -0.50490  -0.49649  -0.48938  -0.48035
 Alpha  occ. eigenvalues --   -0.46034  -0.44903  -0.44108  -0.43724  -0.42483
 Alpha  occ. eigenvalues --   -0.40812  -0.40399  -0.40068  -0.39953  -0.39003
 Alpha  occ. eigenvalues --   -0.37777  -0.37461  -0.36292  -0.32379  -0.29387
 Alpha  occ. eigenvalues --   -0.28983  -0.27417  -0.26313  -0.25351  -0.22524
 Alpha virt. eigenvalues --   -0.03532  -0.01790  -0.01273  -0.00373   0.00618
 Alpha virt. eigenvalues --    0.01432   0.01586   0.02317   0.02824   0.03354
 Alpha virt. eigenvalues --    0.04063   0.04363   0.04897   0.05274   0.05929
 Alpha virt. eigenvalues --    0.06415   0.06642   0.07345   0.07944   0.08160
 Alpha virt. eigenvalues --    0.08335   0.08853   0.09655   0.10280   0.10810
 Alpha virt. eigenvalues --    0.11374   0.11759   0.12957   0.13425   0.13600
 Alpha virt. eigenvalues --    0.14356   0.14934   0.15406   0.15492   0.15930
 Alpha virt. eigenvalues --    0.15997   0.16803   0.17023   0.18166   0.18397
 Alpha virt. eigenvalues --    0.18642   0.18907   0.19178   0.19631   0.19842
 Alpha virt. eigenvalues --    0.20649   0.20853   0.21051   0.21177   0.22067
 Alpha virt. eigenvalues --    0.22107   0.22791   0.23592   0.23849   0.24038
 Alpha virt. eigenvalues --    0.24446   0.24745   0.25248   0.25409   0.26103
 Alpha virt. eigenvalues --    0.26496   0.26807   0.26953   0.27710   0.28258
 Alpha virt. eigenvalues --    0.28419   0.28488   0.29583   0.29774   0.30026
 Alpha virt. eigenvalues --    0.31049   0.31806   0.32136   0.32429   0.32725
 Alpha virt. eigenvalues --    0.33365   0.33877   0.34728   0.35264   0.36191
 Alpha virt. eigenvalues --    0.36403   0.36871   0.37826   0.38405   0.38824
 Alpha virt. eigenvalues --    0.39333   0.40927   0.41450   0.41897   0.43630
 Alpha virt. eigenvalues --    0.45188   0.46241   0.47148   0.49338   0.50009
 Alpha virt. eigenvalues --    0.50761   0.53380   0.54480   0.63385   0.65102
 Alpha virt. eigenvalues --    0.65741   0.66410   0.68048   0.69442   0.70811
 Alpha virt. eigenvalues --    0.71873   0.72742   0.73519   0.74788   0.75187
 Alpha virt. eigenvalues --    0.76178   0.78682   0.79604   0.80935   0.81888
 Alpha virt. eigenvalues --    0.83105   0.83522   0.84032   0.85503   0.86283
 Alpha virt. eigenvalues --    0.87433   0.88372   0.89662   0.89708   0.92201
 Alpha virt. eigenvalues --    0.93333   0.93949   0.95291   0.96264   0.97008
 Alpha virt. eigenvalues --    0.98494   0.99153   1.00717   1.01767   1.03084
 Alpha virt. eigenvalues --    1.04206   1.04909   1.06222   1.06758   1.07745
 Alpha virt. eigenvalues --    1.07930   1.08269   1.09810   1.11142   1.11669
 Alpha virt. eigenvalues --    1.13040   1.13131   1.15433   1.16125   1.19013
 Alpha virt. eigenvalues --    1.20703   1.23509   1.24895   1.25582   1.26502
 Alpha virt. eigenvalues --    1.27135   1.28006   1.28867   1.30025   1.31169
 Alpha virt. eigenvalues --    1.32871   1.33389   1.33741   1.34465   1.35527
 Alpha virt. eigenvalues --    1.36746   1.37587   1.38691   1.39308   1.42349
 Alpha virt. eigenvalues --    1.43104   1.44294   1.44911   1.46859   1.48051
 Alpha virt. eigenvalues --    1.49647   1.50474   1.52007   1.54861   1.56333
 Alpha virt. eigenvalues --    1.58793   1.58908   1.60096   1.62788   1.67424
 Alpha virt. eigenvalues --    1.68022   1.71445   1.72074   1.72762   1.74572
 Alpha virt. eigenvalues --    1.75549   1.77544   1.78044   1.79206   1.80493
 Alpha virt. eigenvalues --    1.81423   1.83033   1.84317   1.85173   1.86954
 Alpha virt. eigenvalues --    1.89191   1.89973   1.91866   1.93257   1.93440
 Alpha virt. eigenvalues --    1.95088   1.96887   1.99501   2.00060   2.02839
 Alpha virt. eigenvalues --    2.03543   2.05268   2.06742   2.09422   2.10312
 Alpha virt. eigenvalues --    2.11551   2.11763   2.13286   2.15340   2.17104
 Alpha virt. eigenvalues --    2.17803   2.19765   2.21489   2.21973   2.24750
 Alpha virt. eigenvalues --    2.25695   2.28140   2.28465   2.29278   2.31597
 Alpha virt. eigenvalues --    2.33421   2.35064   2.35134   2.37180   2.39163
 Alpha virt. eigenvalues --    2.41802   2.42824   2.45198   2.46954   2.47780
 Alpha virt. eigenvalues --    2.49362   2.49633   2.50073   2.51485   2.52429
 Alpha virt. eigenvalues --    2.55979   2.56188   2.56381   2.57761   2.58991
 Alpha virt. eigenvalues --    2.59157   2.60482   2.62382   2.63689   2.66139
 Alpha virt. eigenvalues --    2.66413   2.67555   2.69082   2.71369   2.71962
 Alpha virt. eigenvalues --    2.73907   2.75946   2.76578   2.79437   2.80997
 Alpha virt. eigenvalues --    2.81842   2.84219   2.86028   2.86468   2.89120
 Alpha virt. eigenvalues --    2.91258   2.91981   2.95358   2.96705   2.97658
 Alpha virt. eigenvalues --    2.99413   3.03145   3.05632   3.07787   3.10415
 Alpha virt. eigenvalues --    3.12850   3.18023   3.26129   3.28107   3.32142
 Alpha virt. eigenvalues --    3.33975   3.35193   3.38212   3.41098   3.41918
 Alpha virt. eigenvalues --    3.43630   3.47681   3.52208   3.54372   3.55178
 Alpha virt. eigenvalues --    3.59729   3.62047   3.78899   4.18573   4.22904
 Alpha virt. eigenvalues --    4.24323   4.28959   4.34660   4.36431   4.40843
 Alpha virt. eigenvalues --    4.45042   4.46371   4.56705   4.61354   4.62671
 Alpha virt. eigenvalues --    4.67583   4.71004   4.78536   4.81774
          Condensed to atoms (all electrons):
               1          2          3          4          5          6
     1  O    8.330163   0.318485  -0.193084   0.079370   0.014216   0.000458
     2  C    0.318485   7.037952   0.058008  -0.238977  -0.147679   0.014283
     3  N   -0.193084   0.058008   7.357594  -0.351516   0.096062   0.022642
     4  C    0.079370  -0.238977  -0.351516  10.287963  -2.051522  -0.068527
     5  C    0.014216  -0.147679   0.096062  -2.051522   7.155300   0.075682
     6  O    0.000458   0.014283   0.022642  -0.068527   0.075682   8.311202
     7  O   -0.000225   0.062679   0.019500  -0.173407   0.449571  -0.148604
     8  C   -0.022712  -0.141951  -0.080754  -0.021074   0.391225  -0.045668
     9  C   -0.059623   0.035119   0.204440  -1.013508  -0.135628   0.056299
    10  C    0.014133  -0.047449   0.001648   0.085155  -0.011427  -0.001355
    11  N   -0.001393  -0.000082   0.001042  -0.009560   0.000963  -0.000279
    12  C    0.005534   0.018064   0.005083  -0.003245  -0.022459   0.000425
    13  N    0.004773   0.038272  -0.004189  -0.010583  -0.055381   0.000908
    14  C    0.040031  -1.212435  -0.069708  -0.165694  -0.286084  -0.003899
    15  C    0.022268  -0.112864  -0.008778  -0.107193  -0.015223  -0.000142
    16  N   -0.010186   0.065443  -0.003663  -0.004781  -0.000781  -0.000004
    17  H    0.011207  -0.041599   0.295796   0.013112  -0.015826   0.001626
    18  H    0.005699   0.020901  -0.059525   0.459093  -0.140816   0.002301
    19  H    0.000010  -0.005771  -0.003034   0.014861   0.047972   0.189119
    20  H   -0.001853  -0.003402  -0.003802  -0.025905  -0.045351   0.000540
    21  H    0.000410  -0.001010   0.006008  -0.073289  -0.007111   0.005366
    22  H   -0.000022  -0.001313   0.000008   0.005401   0.008458   0.000300
    23  H   -0.000536  -0.001910  -0.000084   0.004201   0.000725   0.000007
    24  H    0.020791  -0.002372   0.001448  -0.001243  -0.001374   0.000003
    25  H    0.002286  -0.147098   0.008569   0.002616  -0.006921  -0.000002
    26  H    0.002539  -0.025306  -0.006122  -0.008306  -0.001513  -0.000006
    27  H   -0.000116   0.010044   0.000374  -0.000997  -0.000310   0.000000
    28  H   -0.005131  -0.006526   0.001409  -0.003425  -0.001118   0.000000
    29  H    0.003787  -0.017783   0.001081  -0.013471  -0.001195   0.000000
    30  H    0.000056  -0.009715   0.000013   0.001160   0.000098   0.000000
               7          8          9         10         11         12
     1  O   -0.000225  -0.022712  -0.059623   0.014133  -0.001393   0.005534
     2  C    0.062679  -0.141951   0.035119  -0.047449  -0.000082   0.018064
     3  N    0.019500  -0.080754   0.204440   0.001648   0.001042   0.005083
     4  C   -0.173407  -0.021074  -1.013508   0.085155  -0.009560  -0.003245
     5  C    0.449571   0.391225  -0.135628  -0.011427   0.000963  -0.022459
     6  O   -0.148604  -0.045668   0.056299  -0.001355  -0.000279   0.000425
     7  O    8.237444   0.001157  -0.017905   0.000875  -0.000054   0.000543
     8  C    0.001157   8.281320  -2.030861  -0.521058  -0.043075  -0.031083
     9  C   -0.017905  -2.030861   9.849031  -1.036960  -0.194323  -0.089178
    10  C    0.000875  -0.521058  -1.036960   7.370513   0.494556  -0.417099
    11  N   -0.000054  -0.043075  -0.194323   0.494556   6.773171   0.423075
    12  C    0.000543  -0.031083  -0.089178  -0.417099   0.423075   5.297801
    13  N    0.000873  -0.169323   0.280112  -0.052866  -0.031653   0.108238
    14  C   -0.002806  -0.086512   0.085136  -0.003611  -0.000554   0.008393
    15  C    0.001640   0.001303   0.004625  -0.007131   0.000054   0.000829
    16  N    0.000004  -0.004175   0.003075   0.002900  -0.000011   0.000640
    17  H    0.014859   0.017227  -0.016071  -0.002101  -0.000004  -0.000136
    18  H    0.003932  -0.007312  -0.029321  -0.012762  -0.000992  -0.002329
    19  H    0.000787  -0.000557  -0.009099  -0.001061  -0.000014  -0.000336
    20  H   -0.000268   0.524374  -0.104628  -0.030052  -0.001622  -0.006387
    21  H    0.002445   0.510540  -0.154131   0.024769  -0.001380  -0.004858
    22  H   -0.000013   0.042532  -0.117720   0.402092  -0.062508   0.023493
    23  H    0.000000   0.021164   0.046693  -0.037125  -0.051892   0.437312
    24  H    0.000031  -0.056739   0.090010  -0.012714   0.008304  -0.028975
    25  H    0.000128   0.001191  -0.001233  -0.000185   0.000000  -0.000032
    26  H   -0.000055   0.001876  -0.001710  -0.000198   0.000000  -0.000016
    27  H    0.000001  -0.000106   0.000190   0.000012   0.000000   0.000002
    28  H    0.000002   0.001230  -0.001754  -0.000226  -0.000001  -0.000037
    29  H    0.000002  -0.001133   0.003595   0.000493   0.000000  -0.000006
    30  H    0.000000   0.000242  -0.000187   0.000002   0.000000   0.000005
              13         14         15         16         17         18
     1  O    0.004773   0.040031   0.022268  -0.010186   0.011207   0.005699
     2  C    0.038272  -1.212435  -0.112864   0.065443  -0.041599   0.020901
     3  N   -0.004189  -0.069708  -0.008778  -0.003663   0.295796  -0.059525
     4  C   -0.010583  -0.165694  -0.107193  -0.004781   0.013112   0.459093
     5  C   -0.055381  -0.286084  -0.015223  -0.000781  -0.015826  -0.140816
     6  O    0.000908  -0.003899  -0.000142  -0.000004   0.001626   0.002301
     7  O    0.000873  -0.002806   0.001640   0.000004   0.014859   0.003932
     8  C   -0.169323  -0.086512   0.001303  -0.004175   0.017227  -0.007312
     9  C    0.280112   0.085136   0.004625   0.003075  -0.016071  -0.029321
    10  C   -0.052866  -0.003611  -0.007131   0.002900  -0.002101  -0.012762
    11  N   -0.031653  -0.000554   0.000054  -0.000011  -0.000004  -0.000992
    12  C    0.108238   0.008393   0.000829   0.000640  -0.000136  -0.002329
    13  N    7.040111   0.003207   0.003395  -0.001197   0.000290   0.017338
    14  C    0.003207   7.253913   0.115652  -0.190560   0.013384   0.016597
    15  C    0.003395   0.115652   5.323773   0.267751   0.007198   0.000556
    16  N   -0.001197  -0.190560   0.267751   6.917735  -0.000051   0.000029
    17  H    0.000290   0.013384   0.007198  -0.000051   0.363288   0.003017
    18  H    0.017338   0.016597   0.000556   0.000029   0.003017   0.523870
    19  H   -0.000265  -0.000436  -0.000016   0.000000  -0.000040  -0.000326
    20  H   -0.002949   0.018179  -0.001294   0.000091   0.000207   0.001913
    21  H    0.009311  -0.000703  -0.000147   0.000001  -0.000124   0.003591
    22  H    0.000940  -0.000160   0.000001   0.000000   0.000000   0.000001
    23  H   -0.117446  -0.000244   0.000012   0.000000   0.000000   0.000002
    24  H    0.261647   0.005344  -0.000108  -0.000290  -0.000005   0.000401
    25  H    0.000053   0.468416  -0.001188  -0.000466   0.000106  -0.000016
    26  H    0.000088   0.357703  -0.013180   0.010616   0.000321   0.000059
    27  H   -0.000007  -0.038155   0.406892  -0.051373  -0.000010   0.000000
    28  H    0.000204  -0.106118   0.494467  -0.090587   0.000000  -0.000003
    29  H   -0.000584  -0.004211  -0.010497   0.359771  -0.000007   0.000000
    30  H    0.000007   0.054823  -0.060325   0.335926   0.000000   0.000000
              19         20         21         22         23         24
     1  O    0.000010  -0.001853   0.000410  -0.000022  -0.000536   0.020791
     2  C   -0.005771  -0.003402  -0.001010  -0.001313  -0.001910  -0.002372
     3  N   -0.003034  -0.003802   0.006008   0.000008  -0.000084   0.001448
     4  C    0.014861  -0.025905  -0.073289   0.005401   0.004201  -0.001243
     5  C    0.047972  -0.045351  -0.007111   0.008458   0.000725  -0.001374
     6  O    0.189119   0.000540   0.005366   0.000300   0.000007   0.000003
     7  O    0.000787  -0.000268   0.002445  -0.000013   0.000000   0.000031
     8  C   -0.000557   0.524374   0.510540   0.042532   0.021164  -0.056739
     9  C   -0.009099  -0.104628  -0.154131  -0.117720   0.046693   0.090010
    10  C   -0.001061  -0.030052   0.024769   0.402092  -0.037125  -0.012714
    11  N   -0.000014  -0.001622  -0.001380  -0.062508  -0.051892   0.008304
    12  C   -0.000336  -0.006387  -0.004858   0.023493   0.437312  -0.028975
    13  N   -0.000265  -0.002949   0.009311   0.000940  -0.117446   0.261647
    14  C   -0.000436   0.018179  -0.000703  -0.000160  -0.000244   0.005344
    15  C   -0.000016  -0.001294  -0.000147   0.000001   0.000012  -0.000108
    16  N    0.000000   0.000091   0.000001   0.000000   0.000000  -0.000290
    17  H   -0.000040   0.000207  -0.000124   0.000000   0.000000  -0.000005
    18  H   -0.000326   0.001913   0.003591   0.000001   0.000002   0.000401
    19  H    0.386459   0.000006  -0.000290   0.000009   0.000000   0.000000
    20  H    0.000006   0.527021  -0.026574  -0.000047  -0.000006   0.000817
    21  H   -0.000290  -0.026574   0.541781   0.001924   0.000005  -0.000008
    22  H    0.000009  -0.000047   0.001924   0.575322  -0.000046  -0.000092
    23  H    0.000000  -0.000006   0.000005  -0.000046   0.570507   0.000355
    24  H    0.000000   0.000817  -0.000008  -0.000092   0.000355   0.362317
    25  H    0.000000   0.000000  -0.000002   0.000000   0.000000  -0.000002
    26  H    0.000000  -0.000002   0.000000   0.000000   0.000000  -0.000004
    27  H    0.000000   0.000000   0.000000   0.000000   0.000000   0.000000
    28  H    0.000000   0.000000   0.000000   0.000000   0.000000  -0.000001
    29  H    0.000000  -0.000016   0.000000   0.000000   0.000000  -0.000025
    30  H    0.000000   0.000000   0.000000   0.000000   0.000000   0.000000
              25         26         27         28         29         30
     1  O    0.002286   0.002539  -0.000116  -0.005131   0.003787   0.000056
     2  C   -0.147098  -0.025306   0.010044  -0.006526  -0.017783  -0.009715
     3  N    0.008569  -0.006122   0.000374   0.001409   0.001081   0.000013
     4  C    0.002616  -0.008306  -0.000997  -0.003425  -0.013471   0.001160
     5  C   -0.006921  -0.001513  -0.000310  -0.001118  -0.001195   0.000098
     6  O   -0.000002  -0.000006   0.000000   0.000000   0.000000   0.000000
     7  O    0.000128  -0.000055   0.000001   0.000002   0.000002   0.000000
     8  C    0.001191   0.001876  -0.000106   0.001230  -0.001133   0.000242
     9  C   -0.001233  -0.001710   0.000190  -0.001754   0.003595  -0.000187
    10  C   -0.000185  -0.000198   0.000012  -0.000226   0.000493   0.000002
    11  N    0.000000   0.000000   0.000000  -0.000001   0.000000   0.000000
    12  C   -0.000032  -0.000016   0.000002  -0.000037  -0.000006   0.000005
    13  N    0.000053   0.000088  -0.000007   0.000204  -0.000584   0.000007
    14  C    0.468416   0.357703  -0.038155  -0.106118  -0.004211   0.054823
    15  C   -0.001188  -0.013180   0.406892   0.494467  -0.010497  -0.060325
    16  N   -0.000466   0.010616  -0.051373  -0.090587   0.359771   0.335926
    17  H    0.000106   0.000321  -0.000010   0.000000  -0.000007   0.000000
    18  H   -0.000016   0.000059   0.000000  -0.000003   0.000000   0.000000
    19  H    0.000000   0.000000   0.000000   0.000000   0.000000   0.000000
    20  H    0.000000  -0.000002   0.000000   0.000000  -0.000016   0.000000
    21  H   -0.000002   0.000000   0.000000   0.000000   0.000000   0.000000
    22  H    0.000000   0.000000   0.000000   0.000000   0.000000   0.000000
    23  H    0.000000   0.000000   0.000000   0.000000   0.000000   0.000000
    24  H   -0.000002  -0.000004   0.000000  -0.000001  -0.000025   0.000000
    25  H    0.518262  -0.026557  -0.004182   0.004863  -0.000060  -0.000051
    26  H   -0.026557   0.544448  -0.003968   0.000078  -0.000077  -0.000207
    27  H   -0.004182  -0.003968   0.592780  -0.043189   0.005967  -0.005256
    28  H    0.004863   0.000078  -0.043189   0.618387  -0.004715  -0.001808
    29  H   -0.000060  -0.000077   0.005967  -0.004715   0.414626  -0.036428
    30  H   -0.000051  -0.000207  -0.005256  -0.001808  -0.036428   0.436261
 Mulliken charges:
               1
     1  O   -0.581335
     2  C    0.485993
     3  N   -0.296466
     4  C   -0.606708
     5  C    0.707445
     6  O   -0.412676
     7  O   -0.453136
     8  C   -0.531290
     9  C    0.355513
    10  C   -0.201767
    11  N   -0.301767
    12  C    0.276739
    13  N   -0.323325
    14  C   -0.268886
    15  C   -0.312328
    16  N   -0.605856
    17  H    0.334336
    18  H    0.194102
    19  H    0.382022
    20  H    0.181009
    21  H    0.163475
    22  H    0.121439
    23  H    0.128307
    24  H    0.352483
    25  H    0.181505
    26  H    0.169499
    27  H    0.131407
    28  H    0.143998
    29  H    0.300884
    30  H    0.285384
 Sum of Mulliken charges =   0.00000
 Mulliken charges with hydrogens summed into heavy atoms:
               1
     1  O   -0.581335
     2  C    0.485993
     3  N    0.037870
     4  C   -0.412606
     5  C    0.707445
     6  O   -0.030654
     7  O   -0.453136
     8  C   -0.186806
     9  C    0.355513
    10  C   -0.080328
    11  N   -0.301767
    12  C    0.405045
    13  N    0.029158
    14  C    0.082117
    15  C   -0.036922
    16  N   -0.019588
 APT charges:
               1
     1  O   -0.639358
     2  C    0.411506
     3  N   -0.623337
     4  C   -0.684477
     5  C    0.169033
     6  O   -0.850879
     7  O   -0.061079
     8  C   -1.112514
     9  C    0.107283
    10  C   -0.398315
    11  N   -0.119545
    12  C   -0.311916
    13  N   -0.484311
    14  C   -1.005920
    15  C   -1.115501
    16  N   -0.964688
    17  H    0.752437
    18  H    0.334369
    19  H    1.146280
    20  H    0.258382
    21  H    0.568614
    22  H    0.727351
    23  H    0.714575
    24  H    0.188448
    25  H    0.436434
    26  H    0.517649
    27  H    0.795966
    28  H    0.269515
    29  H   -0.002794
    30  H    0.976791
 Sum of APT charges =   0.00000
 APT charges with hydrogens summed into heavy atoms:
               1
     1  O   -0.639358
     2  C    0.411506
     3  N    0.129100
     4  C   -0.350108
     5  C    0.169033
     6  O    0.295402
     7  O   -0.061079
     8  C   -0.285518
     9  C    0.107283
    10  C    0.329037
    11  N   -0.119545
    12  C    0.402659
    13  N   -0.295863
    14  C   -0.051837
    15  C   -0.050020
    16  N    0.009310
 Electronic spatial extent (au):  <R**2>=           4462.4480
 Charge=              0.0000 electrons
 Dipole moment (field-independent basis, Debye):
    X=             -2.8882    Y=             -3.5220    Z=             -1.2408  Tot=              4.7207
 Quadrupole moment (field-independent basis, Debye-Ang):
   XX=           -105.1553   YY=            -99.5225   ZZ=            -92.0537
   XY=            -18.1917   XZ=              6.7288   YZ=             -4.9940
 Traceless Quadrupole moment (field-independent basis, Debye-Ang):
   XX=             -6.2448   YY=             -0.6120   ZZ=              6.8568
   XY=            -18.1917   XZ=              6.7288   YZ=             -4.9940
 Octapole moment (field-independent basis, Debye-Ang**2):
  XXX=           -182.8542  YYY=              3.2749  ZZZ=            -20.9658  XYY=            -69.5972
  XXY=            -81.8981  XXZ=            -30.3387  XZZ=            -29.5092  YZZ=             -5.3449
  YYZ=            -30.1875  XYZ=            -22.1896
 Hexadecapole moment (field-independent basis, Debye-Ang**3):
 XXXX=          -3606.0638 YYYY=          -2117.4530 ZZZZ=           -559.4331 XXXY=           -613.5362
 XXXZ=           -282.9637 YYYX=           -396.4492 YYYZ=              0.3403 ZZZX=           -419.2810
 ZZZY=             58.8745 XXYY=           -904.8147 XXZZ=           -609.0926 YYZZ=           -412.1398
 XXYZ=            -74.2773 YYXZ=           -157.8452 ZZXY=            -77.6766
 N-N= 1.127313232600D+03 E-N=-4.110113243618D+03  KE= 7.890996298560D+02
  Exact polarizability:   0.000   0.000   0.000   0.000   0.000   0.000
 Approx polarizability: 211.081  20.457 217.068  17.594 -25.735 176.116
 Calling FoFJK, ICntrl=    100147 FMM=F ISym2X=0 I1Cent= 0 IOpClX= 0 NMat=1 NMatS=1 NMatT=0.
 -------------------------------------------------------------------
 Center     Atomic                   Forces (Hartrees/Bohr)
 Number     Number              X              Y              Z
 -------------------------------------------------------------------
      1        8           0.000573789    0.009333259   -0.002908108
      2        6          -0.003648635   -0.004817810   -0.000308084
      3        7           0.002284982   -0.000460261    0.000306849
      4        6          -0.004210474   -0.004477411   -0.000318045
      5        6           0.008348375    0.013281406   -0.001755713
      6        8          -0.002802017    0.003457079   -0.001736860
      7        8          -0.007600696   -0.015139003    0.001784558
      8        6           0.006266822    0.008493135   -0.003723963
      9        6          -0.008087872   -0.010585958    0.003745389
     10        6           0.012122645    0.006110400    0.002864102
     11        7           0.007937962   -0.001081762    0.006621309
     12        6          -0.001603592    0.002092844   -0.003998306
     13        7          -0.004599204    0.001379133   -0.001673550
     14        6           0.002658350   -0.003860936    0.001332147
     15        6          -0.002542277    0.001131940   -0.000709371
     16        7           0.001722476   -0.001036175   -0.001592536
     17        1          -0.002508939   -0.003272250    0.001532887
     18        1           0.001555630    0.002892101    0.001806734
     19        1           0.004378726   -0.005037135    0.002054434
     20        1          -0.004485562   -0.001165363   -0.000321466
     21        1           0.001185324   -0.001322292    0.000607587
     22        1           0.000333754    0.000278477    0.000315335
     23        1           0.001249242    0.003649818   -0.002683742
     24        1          -0.005725432   -0.002908605   -0.001978674
     25        1          -0.001404266   -0.000652171    0.000898413
     26        1           0.000531235   -0.000894079   -0.001271057
     27        1          -0.000783005   -0.000613673   -0.000372567
     28        1           0.000230738    0.000233793   -0.001537921
     29        1           0.002753070    0.002461213    0.002472443
     30        1          -0.004131147    0.002530283    0.000547775
 -------------------------------------------------------------------
 Cartesian Forces:  Max     0.015139003 RMS     0.004308318
 FormGI is forming the generalized inverse of G from B-inverse, IUseBI=4.

 GradGradGradGradGradGradGradGradGradGradGradGradGradGradGradGradGradGrad
 Berny optimization.
 Internal  Forces:  Max     0.017022724 RMS     0.002968154
 Search for a local minimum.
 Step number   1 out of a maximum of  160
 All quantities printed in internal units (Hartrees-Bohrs-Radians)
 Mixed Optimization -- RFO/linear search
 Second derivative matrix not updated -- analytic derivatives used.
 ITU=  0
     Eigenvalues ---   -0.00022   0.00172   0.00287   0.00363   0.00379
     Eigenvalues ---    0.00425   0.00545   0.00697   0.00879   0.01387
     Eigenvalues ---    0.01996   0.02025   0.02258   0.02736   0.03486
     Eigenvalues ---    0.03710   0.04110   0.04167   0.04312   0.04434
     Eigenvalues ---    0.04537   0.04586   0.05224   0.05366   0.05400
     Eigenvalues ---    0.06156   0.06204   0.06287   0.07863   0.07879
     Eigenvalues ---    0.08385   0.10518   0.10961   0.10976   0.11789
     Eigenvalues ---    0.11924   0.12467   0.12745   0.15183   0.15428
     Eigenvalues ---    0.15649   0.17282   0.17858   0.19344   0.20213
     Eigenvalues ---    0.21486   0.22125   0.22501   0.23384   0.23615
     Eigenvalues ---    0.24983   0.25289   0.25377   0.27812   0.29818
     Eigenvalues ---    0.31605   0.32112   0.32795   0.33362   0.33696
     Eigenvalues ---    0.34095   0.34311   0.34645   0.34962   0.35362
     Eigenvalues ---    0.36497   0.37550   0.37708   0.38496   0.38564
     Eigenvalues ---    0.42828   0.42943   0.45630   0.45935   0.46427
     Eigenvalues ---    0.47159   0.47644   0.47791   0.49451   0.53486
     Eigenvalues ---    0.60740   0.66679   0.80922   0.91917
 RFO step:  Lambda=-3.74096124D-03 EMin=-2.17611480D-04
 Linear search not attempted -- first point.
 Iteration  1 RMS(Cart)=  0.11404478 RMS(Int)=  0.01682299
 Iteration  2 RMS(Cart)=  0.05042794 RMS(Int)=  0.00087912
 Iteration  3 RMS(Cart)=  0.00149467 RMS(Int)=  0.00016204
 Iteration  4 RMS(Cart)=  0.00000088 RMS(Int)=  0.00016203
 Variable       Old X    -DE/DX   Delta X   Delta X   Delta X     New X
                                 (Linear)    (Quad)   (Total)
    R1        2.32965   0.00942   0.00000   0.01171   0.01171   2.34136
    R2        2.55055   0.00651   0.00000   0.00758   0.00758   2.55813
    R3        2.87398   0.00117   0.00000   0.00117   0.00117   2.87515
    R4        2.74078   0.00438   0.00000   0.00136   0.00136   2.74213
    R5        1.90672   0.00405   0.00000   0.00818   0.00818   1.91490
    R6        2.86040   0.00405   0.00000   0.00575   0.00575   2.86615
    R7        2.94886   0.00386   0.00000   0.02347   0.02347   2.97233
    R8        2.07168  -0.00003   0.00000  -0.00093  -0.00093   2.07074
    R9        2.54407   0.00140   0.00000  -0.00319  -0.00319   2.54088
   R10        2.27664   0.01702   0.00000   0.01882   0.01882   2.29546
   R11        1.82575   0.00661   0.00000   0.01159   0.01159   1.83734
   R12        2.82718  -0.00097   0.00000  -0.01256  -0.01256   2.81462
   R13        2.05711   0.00360   0.00000   0.01113   0.01113   2.06824
   R14        2.05988   0.00150   0.00000   0.00486   0.00486   2.06474
   R15        2.57654   0.01416   0.00000   0.02606   0.02606   2.60260
   R16        2.59737   0.00610   0.00000   0.01380   0.01381   2.61118
   R17        2.61621  -0.00069   0.00000  -0.00902  -0.00903   2.60718
   R18        2.04190   0.00033   0.00000   0.00111   0.00111   2.04301
   R19        2.47725   0.01006   0.00000   0.01734   0.01733   2.49458
   R20        2.56551   0.00909   0.00000   0.01396   0.01397   2.57948
   R21        2.03195   0.00436   0.00000   0.01019   0.01019   2.04214
   R22        1.90530   0.00622   0.00000   0.01654   0.01654   1.92184
   R23        2.86562   0.00548   0.00000   0.01965   0.01965   2.88527
   R24        2.06736   0.00155   0.00000   0.00206   0.00206   2.06942
   R25        2.07115   0.00156   0.00000   0.00508   0.00508   2.07623
   R26        2.77011   0.00353   0.00000   0.00280   0.00280   2.77291
   R27        2.06605   0.00103   0.00000   0.00246   0.00246   2.06851
   R28        2.07521   0.00143   0.00000   0.00242   0.00242   2.07762
   R29        1.91624   0.00400   0.00000   0.00631   0.00631   1.92255
   R30        1.91277   0.00435   0.00000   0.00695   0.00695   1.91972
    A1        2.11827   0.00396   0.00000   0.01098   0.01097   2.12924
    A2        2.14245  -0.00205   0.00000  -0.00903  -0.00904   2.13341
    A3        2.02246  -0.00191   0.00000  -0.00197  -0.00198   2.02048
    A4        2.11989   0.00392   0.00000   0.01550   0.01491   2.13480
    A5        2.11691  -0.00290   0.00000  -0.00982  -0.01045   2.10646
    A6        2.02963  -0.00091   0.00000   0.00515   0.00457   2.03420
    A7        1.86488  -0.00058   0.00000   0.00754   0.00748   1.87237
    A8        1.97013   0.00107   0.00000   0.00342   0.00341   1.97354
    A9        1.89410   0.00111   0.00000   0.01261   0.01251   1.90662
   A10        1.94494   0.00042   0.00000   0.00064   0.00060   1.94554
   A11        1.86548   0.00036   0.00000   0.00874   0.00857   1.87405
   A12        1.92023  -0.00233   0.00000  -0.03118  -0.03115   1.88907
   A13        1.95090  -0.00021   0.00000  -0.00110  -0.00111   1.94980
   A14        2.17878   0.00071   0.00000  -0.00037  -0.00038   2.17840
   A15        2.15350  -0.00050   0.00000   0.00146   0.00146   2.15495
   A16        1.85933   0.00411   0.00000   0.02136   0.02136   1.88069
   A17        1.96014   0.00543   0.00000   0.02019   0.02027   1.98041
   A18        1.89302  -0.00409   0.00000  -0.03412  -0.03431   1.85872
   A19        1.93728  -0.00154   0.00000  -0.01107  -0.01128   1.92601
   A20        1.91640   0.00074   0.00000   0.01742   0.01763   1.93403
   A21        1.89127  -0.00211   0.00000   0.00335   0.00339   1.89467
   A22        1.86330   0.00143   0.00000   0.00394   0.00350   1.86679
   A23        2.30888   0.00180   0.00000   0.01691   0.01687   2.32575
   A24        2.13959  -0.00176   0.00000  -0.01455  -0.01460   2.12499
   A25        1.83430  -0.00003   0.00000  -0.00195  -0.00196   1.83234
   A26        1.93059   0.00047   0.00000   0.00140   0.00139   1.93197
   A27        2.22954   0.00013   0.00000  -0.00031  -0.00031   2.22923
   A28        2.12305  -0.00060   0.00000  -0.00107  -0.00107   2.12199
   A29        1.83262   0.00067   0.00000   0.00408   0.00405   1.83667
   A30        1.95032   0.00059   0.00000  -0.00044  -0.00043   1.94989
   A31        2.21011  -0.00206   0.00000  -0.01509  -0.01509   2.19503
   A32        2.12275   0.00147   0.00000   0.01552   0.01552   2.13827
   A33        1.87689  -0.00170   0.00000  -0.00300  -0.00300   1.87390
   A34        2.17176  -0.00156   0.00000  -0.02279  -0.02282   2.14895
   A35        2.23397   0.00324   0.00000   0.02532   0.02526   2.25923
   A36        1.97076  -0.00057   0.00000  -0.01109  -0.01117   1.95959
   A37        1.89537   0.00061   0.00000   0.01948   0.01951   1.91487
   A38        1.88266   0.00011   0.00000  -0.00892  -0.00908   1.87358
   A39        1.91854  -0.00037   0.00000  -0.00082  -0.00077   1.91777
   A40        1.92296   0.00024   0.00000  -0.00646  -0.00661   1.91636
   A41        1.87044   0.00003   0.00000   0.00906   0.00909   1.87953
   A42        1.92188   0.00080   0.00000  -0.00041  -0.00041   1.92147
   A43        1.89408  -0.00074   0.00000  -0.00650  -0.00650   1.88758
   A44        1.89979   0.00006   0.00000   0.00114   0.00114   1.90093
   A45        1.88842   0.00024   0.00000   0.00238   0.00238   1.89080
   A46        1.97694  -0.00034   0.00000   0.00305   0.00305   1.97999
   A47        1.88070  -0.00007   0.00000  -0.00012  -0.00013   1.88057
   A48        1.87913   0.00308   0.00000   0.02952   0.02907   1.90820
   A49        1.90901   0.00235   0.00000   0.02188   0.02144   1.93045
   A50        1.85011  -0.00079   0.00000   0.01321   0.01231   1.86242
    D1       -0.07068  -0.00002   0.00000   0.00025   0.00012  -0.07056
    D2       -3.00932  -0.00059   0.00000  -0.06517  -0.06499  -3.07431
    D3        3.06807   0.00025   0.00000  -0.00737  -0.00755   3.06052
    D4        0.12943  -0.00033   0.00000  -0.07279  -0.07266   0.05677
    D5       -0.20200   0.00008   0.00000  -0.27154  -0.27158  -0.47358
    D6       -2.33447   0.00050   0.00000  -0.27700  -0.27696  -2.61143
    D7        1.92711   0.00010   0.00000  -0.29308  -0.29302   1.63409
    D8        2.94247  -0.00020   0.00000  -0.26385  -0.26392   2.67855
    D9        0.81001   0.00023   0.00000  -0.26930  -0.26931   0.54070
   D10       -1.21160  -0.00018   0.00000  -0.28539  -0.28536  -1.49696
   D11       -2.90577   0.00034   0.00000   0.01377   0.01361  -2.89215
   D12        1.23346  -0.00046   0.00000   0.00553   0.00537   1.23883
   D13       -0.89984   0.00100   0.00000   0.03396   0.03388  -0.86596
   D14        0.04251   0.00063   0.00000   0.07433   0.07445   0.11696
   D15       -2.10145  -0.00017   0.00000   0.06610   0.06621  -2.03525
   D16        2.04844   0.00129   0.00000   0.09453   0.09471   2.14315
   D17        3.12129  -0.00026   0.00000  -0.04709  -0.04707   3.07422
   D18       -0.02173  -0.00021   0.00000  -0.05453  -0.05450  -0.07623
   D19       -1.00231   0.00094   0.00000  -0.03735  -0.03732  -1.03963
   D20        2.13786   0.00100   0.00000  -0.04479  -0.04476   2.09310
   D21        1.09619  -0.00143   0.00000  -0.06953  -0.06958   1.02661
   D22       -2.04683  -0.00138   0.00000  -0.07697  -0.07701  -2.12384
   D23       -2.16908  -0.00087   0.00000   0.02176   0.02181  -2.14727
   D24       -0.04790   0.00075   0.00000   0.03325   0.03304  -0.01486
   D25        1.99388  -0.00085   0.00000   0.01122   0.01135   2.00523
   D26        2.01544  -0.00118   0.00000   0.00916   0.00925   2.02469
   D27       -2.14657   0.00044   0.00000   0.02065   0.02048  -2.12609
   D28       -0.10479  -0.00116   0.00000  -0.00139  -0.00121  -0.10600
   D29       -0.05051  -0.00038   0.00000   0.01794   0.01798  -0.03253
   D30        2.07067   0.00124   0.00000   0.02943   0.02921   2.09988
   D31       -2.17074  -0.00037   0.00000   0.00739   0.00752  -2.16322
   D32       -3.14043   0.00000   0.00000  -0.01215  -0.01216   3.13060
   D33        0.00256  -0.00006   0.00000  -0.00484  -0.00484  -0.00228
   D34       -1.97925  -0.00086   0.00000  -0.05516  -0.05515  -2.03440
   D35        1.12612  -0.00056   0.00000  -0.03770  -0.03764   1.08848
   D36        2.19617   0.00022   0.00000  -0.03733  -0.03741   2.15876
   D37       -0.98164   0.00051   0.00000  -0.01987  -0.01990  -1.00154
   D38        0.16708  -0.00071   0.00000  -0.05347  -0.05347   0.11361
   D39       -3.01073  -0.00041   0.00000  -0.03601  -0.03596  -3.04669
   D40        3.12004   0.00000   0.00000   0.00922   0.00943   3.12947
   D41       -0.01712  -0.00007   0.00000   0.00383   0.00395  -0.01317
   D42        0.01005  -0.00022   0.00000  -0.00574  -0.00571   0.00434
   D43       -3.12710  -0.00029   0.00000  -0.01113  -0.01119  -3.13829
   D44       -3.12401   0.00016   0.00000  -0.00463  -0.00452  -3.12852
   D45       -0.01570  -0.00028   0.00000  -0.01787  -0.01751  -0.03321
   D46       -0.01016   0.00043   0.00000   0.00919   0.00913  -0.00103
   D47        3.09814  -0.00001   0.00000  -0.00405  -0.00386   3.09428
   D48       -0.00596  -0.00004   0.00000   0.00000  -0.00003  -0.00598
   D49        3.13152   0.00002   0.00000   0.00500   0.00506   3.13658
   D50       -0.00076   0.00033   0.00000   0.00606   0.00607   0.00531
   D51        3.14146   0.00015   0.00000   0.00365   0.00380  -3.13793
   D52        0.00704  -0.00048   0.00000  -0.00984  -0.00981  -0.00277
   D53       -3.09972   0.00011   0.00000   0.00525   0.00554  -3.09417
   D54       -3.13515  -0.00031   0.00000  -0.00758  -0.00763   3.14041
   D55        0.04128   0.00028   0.00000   0.00751   0.00772   0.04900
   D56       -1.18826   0.00032   0.00000   0.08623   0.08626  -1.10200
   D57        3.03089   0.00001   0.00000   0.08745   0.08748   3.11837
   D58        0.98858   0.00047   0.00000   0.09057   0.09060   1.07918
   D59        0.93115   0.00044   0.00000   0.10305   0.10306   1.03421
   D60       -1.13288   0.00013   0.00000   0.10427   0.10428  -1.02860
   D61        3.10799   0.00059   0.00000   0.10739   0.10740  -3.06780
   D62        2.98864   0.00039   0.00000   0.10975   0.10972   3.09836
   D63        0.92460   0.00008   0.00000   0.11098   0.11094   1.03554
   D64       -1.11771   0.00054   0.00000   0.11410   0.11406  -1.00365
   D65        1.24247  -0.00043   0.00000   0.05776   0.05751   1.29998
   D66       -3.03787   0.00149   0.00000   0.10031   0.10056  -2.93732
   D67       -2.97321  -0.00073   0.00000   0.05108   0.05083  -2.92238
   D68       -0.97036   0.00119   0.00000   0.09363   0.09387  -0.87649
   D69       -0.88936  -0.00086   0.00000   0.05443   0.05419  -0.83517
   D70        1.11349   0.00105   0.00000   0.09698   0.09723   1.21072
         Item               Value     Threshold  Converged?
 Maximum Force            0.017023     0.000450     NO 
 RMS     Force            0.002968     0.000300     NO 
 Maximum Displacement     0.815269     0.001800     NO 
 RMS     Displacement     0.157844     0.001200     NO 
 Predicted change in Energy=-2.215774D-03
 GradGradGradGradGradGradGradGradGradGradGradGradGradGradGradGradGradGrad

                          Input orientation:                          
 ---------------------------------------------------------------------
 Center     Atomic      Atomic             Coordinates (Angstroms)
 Number     Number       Type             X           Y           Z
 ---------------------------------------------------------------------
      1          8           0       -0.766222    0.550929   -1.156482
      2          6           0       -1.191704   -0.553375   -0.789616
      3          7           0       -0.436635   -1.405976   -0.057870
      4          6           0        0.947789   -1.126066    0.274745
      5          6           0        1.562084   -2.420404    0.772458
      6          8           0        2.874638   -2.281730    1.029089
      7          8           0        0.954076   -3.459543    0.933796
      8          6           0        1.106827    0.029714    1.329669
      9          6           0        1.955629    1.156426    0.851696
     10          6           0        3.158800    1.676774    1.274061
     11          7           0        3.541339    2.732884    0.472966
     12          6           0        2.585175    2.847451   -0.429932
     13          7           0        1.601452    1.919485   -0.244480
     14          6           0       -2.587862   -1.043576   -1.143593
     15          6           0       -3.566740    0.107232   -1.364094
     16          7           0       -3.730802    0.874097   -0.123872
     17          1           0       -0.782777   -2.327550    0.182345
     18          1           0        1.486284   -0.836746   -0.634691
     19          1           0        3.205614   -3.137038    1.351938
     20          1           0        0.095943    0.377014    1.564941
     21          1           0        1.534362   -0.358552    2.257176
     22          1           0        3.765011    1.349593    2.107291
     23          1           0        2.554192    3.575174   -1.228228
     24          1           0        0.767533    1.742271   -0.798966
     25          1           0       -2.959856   -1.702353   -0.351849
     26          1           0       -2.502413   -1.640606   -2.061951
     27          1           0       -4.537636   -0.318456   -1.636705
     28          1           0       -3.217464    0.714883   -2.211157
     29          1           0       -2.901824    1.442722    0.032662
     30          1           0       -4.514680    1.515616   -0.201217
 ---------------------------------------------------------------------
                    Distance matrix (angstroms):
                    1          2          3          4          5
     1  O    0.000000
     2  C    1.238997   0.000000
     3  N    2.268271   1.353703   0.000000
     4  C    2.792590   2.457290   1.451073   0.000000
     5  C    4.239180   3.675490   2.390270   1.516703   0.000000
     6  O    5.104561   4.778079   3.593459   2.370093   1.344577
     7  O    4.838655   4.002541   2.671070   2.424769   1.214707
     8  C    3.156094   3.180348   2.523637   1.572891   2.553590
     9  C    3.436260   3.939928   3.621621   2.560934   3.599288
    10  C    4.751933   5.306526   4.919811   3.707170   4.425831
    11  N    5.096186   5.898755   5.765086   4.653739   5.528429
    12  C    4.127197   5.095077   5.230813   4.355048   5.499342
    13  N    2.882807   3.770137   3.904781   3.157887   4.457618
    14  C    2.420947   1.521464   2.436782   3.810422   4.773778
    15  C    2.843039   2.531249   3.713971   4.958608   6.103986
    16  N    3.155860   2.987961   4.006822   5.103799   6.298555
    17  H    3.174646   2.063887   1.013320   2.108782   2.419758
    18  H    2.696608   2.697392   2.086711   1.095790   2.119856
    19  H    5.972333   5.531544   4.272015   3.209693   1.884290
    20  H    2.860021   2.840352   2.469050   2.156269   3.256247
    21  H    4.215792   4.092962   3.215799   2.205261   2.540942
    22  H    5.641113   6.048337   5.471280   4.174188   4.565911
    23  H    4.491810   5.591872   5.926773   5.190483   6.397967
    24  H    1.974720   3.018060   3.451188   3.068013   4.519796
    25  H    3.246035   2.153637   2.557520   3.999302   4.714616
    26  H    2.938888   2.125762   2.887703   4.198666   5.016184
    27  H    3.900001   3.459481   4.526989   5.864791   6.886861
    28  H    2.673538   2.780820   4.107030   5.188269   6.447951
    29  H    2.601951   2.754097   3.768346   4.634306   5.949581
    30  H    3.986739   3.958422   5.018635   6.086345   7.305297
                    6          7          8          9         10
     6  O    0.000000
     7  O    2.254969   0.000000
     8  C    2.925453   3.514963   0.000000
     9  C    3.563279   4.724090   1.489431   0.000000
    10  C    3.976243   5.599852   2.631823   1.377234   0.000000
    11  N    5.089216   6.726994   3.737368   2.267847   1.379658
    12  C    5.340508   6.655706   3.636118   2.213248   2.145489
    13  N    4.570906   5.544491   2.508752   1.381775   2.188654
    14  C    6.007701   4.764217   4.573806   5.428121   6.802167
    15  C    7.275013   6.199997   5.394868   6.042111   7.392984
    16  N    7.410830   6.468940   5.121369   5.776413   7.075671
    17  H    3.754432   2.205163   3.231664   4.481628   5.723853
    18  H    2.604548   3.102009   2.180242   2.530290   3.571894
    19  H    0.972280   2.312634   3.799174   4.499615   4.814670
    20  H    3.882936   3.981696   1.094466   2.138839   3.339922
    21  H    2.646345   3.421142   1.092614   2.109028   2.783499
    22  H    3.891245   5.692648   3.068015   2.210813   1.081116
    23  H    6.285021   7.531399   4.605213   3.245721   3.198581
    24  H    4.896352   5.485995   2.753009   2.116477   3.165421
    25  H    6.023619   4.478779   4.729215   5.812326   7.176353
    26  H    6.235242   4.922433   5.226822   6.015553   7.360932
    27  H    8.118049   6.828822   6.385966   7.108440   8.466914
    28  H    7.522804   6.687175   5.630844   6.028012   7.329988
    29  H    6.944920   6.301762   4.443884   4.934332   6.190881
    30  H    8.398542   7.479823   6.012725   6.565253   7.815671
                   11         12         13         14         15
    11  N    0.000000
    12  C    1.320075   0.000000
    13  N    2.222500   1.365000   0.000000
    14  C    7.378483   6.512275   5.209462   0.000000
    15  C    7.797027   6.799083   5.589992   1.526821   0.000000
    16  N    7.529631   6.624150   5.435101   2.454305   1.467361
    17  H    6.662615   6.204726   4.889176   2.581672   4.008752
    18  H    4.265257   3.850039   2.786098   4.111013   5.191934
    19  H    5.944854   6.274880   5.539884   6.646399   7.985418
    20  H    4.314312   4.034706   2.814211   4.069035   4.697583
    21  H    4.094916   4.313144   3.384116   5.387691   6.273101
    22  H    2.152799   3.173814   3.246012   7.526918   8.206616
    23  H    2.139619   1.080656   2.148669   6.912361   7.036398
    24  H    3.208290   2.159035   1.016996   4.374744   4.666760
    25  H    7.913102   7.173158   5.825356   1.095091   2.160451
    26  H    7.879096   6.977801   5.728801   1.098694   2.162113
    27  H    8.889951   7.887567   6.680949   2.137892   1.094608
    28  H    7.547070   6.433602   5.342363   2.151342   1.099431
    29  H    6.585798   5.682817   4.536916   2.768361   2.043667
    30  H    8.175311   7.227312   6.129605   3.339186   2.057770
                   16         17         18         19         20
    16  N    0.000000
    17  H    4.362931   0.000000
    18  H    5.514155   2.835257   0.000000
    19  H    8.147459   4.234440   3.492010   0.000000
    20  H    4.212264   3.162023   2.871349   4.697231   0.000000
    21  H    5.908534   3.681170   2.931531   3.366381   1.757639
    22  H    7.835267   6.157043   4.182241   4.584031   3.834333
    23  H    6.929399   6.925838   4.577964   7.220484   4.906425
    24  H    4.630820   4.464290   2.682335   5.863300   2.811230
    25  H    2.698968   2.327210   4.538440   6.555473   4.163624
    26  H    3.404235   2.909623   4.311956   6.817296   4.896590
    27  H    2.088499   4.630807   6.128644   8.765519   5.674881
[...]
 45957,-0.00021649,-0.00019755,-0.00017648,0.00006754,0.00048856,-0.001
 05638,-0.00010876,0.00004652,-0.00000380,0.00004968,-0.00021437,-0.000
 04173,0.00025885,-0.00009765,-0.00010979,-0.00020233,0.00048975,0.0013
 5180,0.00076118,0.00071433,-0.00054545,0.00003677,0.06715157,0.0590033
 5,-0.00128289,0.00146603,-0.00646204,0.00148883,-0.00302625,0.00246699
 ,-0.00071618,0.00132477,-0.00141013,0.00060152,0.00037220,0.00063064,0
 .00025220,0.00029054,-0.00022314,-0.00013047,-0.00007198,-0.00009814,-
 0.00025920,-0.00018573,0.00006476,0.00058453,-0.00026524,0.00044586,-0
 .01583162,-0.01133138,-0.00870559,-0.00176633,0.00401155,-0.00330086,0
 .00336902,0.00505459,0.00436264,0.00866722,-0.00757327,0.00736788,-0.1
 7986725,-0.01558554,-0.16961785,-0.00013394,0.00066304,0.00026336,-0.0
 0025827,0.00018541,0.00022857,0.00009325,-0.00012310,-0.00031564,-0.00
 013460,-0.00004681,-0.00000736,0.00008008,-0.00011785,0.00017107,-0.00
 001816,0.00002585,0.00003615,0.00043476,0.00042551,-0.00045914,0.00007
 392,-0.00049792,0.00005786,-0.00110262,0.00006267,0.00073532,0.0002438
 5,-0.00022675,-0.00070520,0.18523279,0.02501118,0.17435086,-0.00624225
 ,-0.00387757,-0.00302712,-0.00631973,-0.01638978,0.02763502,0.00047333
 ,0.00074625,-0.00196448,0.00040758,-0.00004855,-0.00021966,-0.00010696
 ,-0.00022248,0.00004199,0.00013677,0.00002684,0.00001512,0.00015801,0.
 00017663,-0.00004610,-0.00007570,0.00001809,-0.00002063,0.00008966,-0.
 00009563,0.00017679,-0.00007970,-0.00004112,-0.00002012,-0.00015139,-0
 .00001049,-0.00012300,0.00016248,0.00021717,-0.00008917,-0.00037363,-0
 .00030875,-0.00007553,-0.08173242,-0.04863171,0.07004577,0.00685738,0.
 01324979,-0.01826658,0.00038932,-0.00182862,0.00005128,-0.00187261,0.0
 0055083,-0.00034389,0.00016028,-0.00004815,0.00008253,-0.00001000,-0.0
 0000431,-0.00000015,-0.00001235,0.00000216,0.00005897,-0.00003303,0.00
 000331,-0.00003093,-0.00001355,-0.00000338,-0.00000843,-0.00000332,-0.
 00000202,0.00000254,0.00055088,0.00046154,0.00011642,0.08988198,-0.003
 50275,-0.00035870,-0.00072143,-0.00288873,-0.00875197,0.00861870,0.001
 76796,0.00017566,-0.00009993,-0.00009661,-0.00012020,-0.00072143,-0.00
 003700,0.00006391,-0.00003360,0.00002317,-0.00002285,0.00001557,0.0000
 0602,-0.00004029,-0.00001407,-0.00011474,-0.00000109,0.00002201,0.0000
 2779,-0.00005867,0.00005582,-0.00003500,-0.00002295,-0.00001836,-0.000
 05547,0.00001538,-0.00005431,0.00006681,0.00008405,-0.00003270,-0.0001
 3359,-0.00013017,-0.00003596,-0.04946653,-0.12256530,0.10842496,-0.007
 95606,-0.01399094,0.02086277,-0.00128107,0.00237824,-0.00061384,0.0001
 1638,0.00094424,0.00039438,0.00021525,-0.00001515,0.00006178,-0.000002
 59,0.00000183,0.00000678,-0.00000302,-0.00001461,0.00000783,-0.0000124
 4,0.00000122,-0.00000796,-0.00000761,-0.00000074,-0.00000305,0.0000020
 0,0.00000192,0.00000045,0.00020384,0.00018488,0.00008985,0.05265226,0.
 13268347,-0.00161950,-0.00209183,0.00010987,-0.00453746,-0.00360927,0.
 00521289,-0.00065950,-0.00036741,-0.00002648,0.00030052,-0.00019432,0.
 00052942,0.00019654,0.00021392,-0.00003884,-0.00008322,-0.00004951,0.0
 0000970,-0.00010793,-0.00014508,-0.00000945,-0.00002636,0.00003075,0.0
 0002568,0.00000344,-0.00000067,-0.00002539,0.00001034,0.00000167,0.000
 00062,0.00000569,-0.00000836,0.00001987,-0.00002523,-0.00001986,-0.000
 00981,-0.00001900,-0.00003426,-0.00002733,0.07163926,0.11072719,-0.200
 29776,0.00142206,0.00354613,-0.00660060,0.00000764,-0.00087237,0.00170
 161,0.00015177,-0.00026938,0.00035814,-0.00013777,-0.00005031,-0.00001
 765,0.00001959,0.00000071,0.00000536,0.00002023,-0.00000643,-0.0000131
 1,0.00000642,-0.00000488,-0.00000499,0.00000091,0.00000142,0.00000331,
 -0.00000423,-0.00000356,0.00000166,-0.00000130,0.00003787,-0.00000231,
 -0.07348850,-0.12168960,0.21648145,-0.00278275,0.00046356,0.00318309,0
 .00298700,-0.01963252,-0.02846649,-0.00178646,0.00100270,0.00105866,-0
 .00044592,0.00073807,0.00095845,-0.00007651,-0.00041632,0.00017623,-0.
 00016382,0.00016088,-0.00008722,-0.00002660,0.00020131,-0.00002225,0.0
 0013773,0.00017689,0.00012571,0.00001791,-0.00001531,0.00001121,0.0000
 1794,-0.00000991,0.00000875,-0.00005607,-0.00004379,0.00000885,0.00002
 398,0.00000997,-0.00000784,-0.00006375,-0.00001883,-0.00012522,-0.0463
 0165,0.00375862,0.00481938,0.00076692,0.00917243,0.01808968,-0.0034247
 5,0.00415686,-0.00048925,-0.00014562,-0.00024170,-0.00064056,-0.000241
 63,0.00004209,-0.00017070,-0.00001756,-0.00000466,-0.00002890,0.000036
 29,0.00002542,0.00004974,-0.00002411,-0.00000908,-0.00001126,-0.000001
 02,0.00000253,0.00000043,-0.00000375,-0.00000353,0.00000304,0.00009452
 ,0.00018478,0.00016190,-0.00052980,0.00736992,0.00882688,0.05087494,-0
 .00220221,0.00037705,0.00165105,0.00014265,-0.00763689,-0.00894854,0.0
 0070753,-0.00001252,0.00079394,-0.00041954,0.00007312,-0.00008668,-0.0
 0002349,0.00005283,-0.00002539,-0.00000888,-0.00000568,0.00001164,-0.0
 0000388,-0.00004971,-0.00000488,0.00010080,-0.00000519,0.00003452,0.00
 001698,-0.00002385,0.00005502,-0.00001341,-0.00000417,-0.00000675,-0.0
 0002083,0.00000998,-0.00001816,0.00003223,0.00003257,-0.00001276,-0.00
 005363,-0.00002072,-0.00003757,0.00640045,-0.13384113,-0.12206871,-0.0
 0110624,-0.01254955,-0.02121008,0.00519166,-0.00324402,0.00102350,0.00
 006449,0.00013876,0.00015387,0.00006692,0.00000902,-0.00004085,0.00000
 076,-0.00000045,-0.00000244,0.00000905,-0.00002723,-0.00000737,0.00000
 732,0.00002160,0.00002103,-0.00000141,-0.00000231,-0.00000141,0.000002
 50,-0.00000329,-0.00000366,0.00008870,0.00007178,0.00006184,0.00007882
 ,0.01161011,0.01424260,-0.00786848,0.14502635,0.00004664,0.00074985,-0
 .00007275,0.00001741,-0.00328289,-0.00570756,-0.00125637,0.00016769,0.
 00094601,-0.00042051,0.00030625,0.00031358,-0.00010519,-0.00032128,0.0
 0007080,-0.00000937,0.00009161,-0.00002866,0.00005235,0.00019399,0.000
 02819,0.00012626,0.00006954,0.00002482,0.00000371,0.00001356,0.0000232
 6,0.00000536,0.00000578,0.00000382,-0.00001409,-0.00001226,0.00000444,
 0.00000477,-0.00000056,0.00000158,-0.00003249,-0.00000589,-0.00001416,
 0.00926563,-0.12240934,-0.21427385,-0.00016968,0.00515547,0.00480516,-
 0.00014740,0.00019069,0.00022315,0.00005752,-0.00046365,-0.00083301,-0
 .00011726,0.00001314,-0.00009054,-0.00001407,-0.00000659,-0.00001885,0
 .00001374,0.00000955,-0.00000147,0.00000341,-0.00000380,-0.00000445,0.
 00000134,-0.00000075,-0.00000213,0.00000193,-0.00000197,-0.00000139,0.
 00001684,0.00001044,-0.00000561,0.00023769,-0.01461066,-0.01836266,-0.
 00800055,0.13472096,0.23164214,-0.00007448,0.00030744,-0.00039951,-0.0
 0001779,0.00342987,0.00011534,-0.00157185,-0.00025076,-0.00054196,0.00
 029567,0.00026535,-0.00022777,0.00011781,-0.00031976,0.00006429,-0.000
 18103,0.00011727,-0.00005211,-0.00008202,0.00016376,-0.00006459,-0.000
 05944,0.00005421,0.00000606,0.00003932,-0.00003197,0.00002204,0.000007
 37,-0.00000784,0.00000044,-0.00007849,-0.00005034,-0.00001206,0.000054
 99,0.00005138,-0.00000564,-0.00011670,-0.00005332,-0.00006767,-0.01864
 536,-0.00706865,-0.00210317,-0.27034040,-0.08940114,-0.03701525,0.0038
 1804,0.00118421,0.00040775,-0.00006395,-0.00014371,0.00014739,-0.00000
 555,-0.00001217,0.00000505,0.00000890,-0.00001176,0.00000542,-0.000010
 57,0.00000644,0.00003791,-0.00002452,-0.00002057,-0.00002679,-0.000001
 89,0.00000314,-0.00000166,0.00000017,-0.00000079,0.00000215,0.00016193
 ,0.00014270,0.00005555,0.00092131,-0.00018586,-0.00041047,0.00024723,-
 0.00009916,0.00048318,0.29079497,-0.00051640,0.00144634,-0.00046429,0.
 00161455,-0.00646080,0.00127717,0.00182263,0.00090385,0.00049339,-0.00
 007070,-0.00031722,0.00037205,0.00002239,0.00020242,-0.00002218,0.0001
 0326,-0.00008384,0.00003589,0.00002776,-0.00007090,0.00003106,0.000087
 49,-0.00005672,-0.00001623,-0.00000257,-0.00000475,0.00005139,-0.00001
 693,0.00000304,-0.00000400,0.00000018,0.00002191,-0.00002353,0.0000326
 3,0.00002214,0.00000662,-0.00001214,0.00003135,0.00001692,0.02620957,0
 .00866713,0.00425564,-0.08703535,-0.08237368,-0.01316810,-0.02026266,-
 0.01170390,-0.00746539,0.00005864,0.00008159,-0.00013910,-0.00000390,0
 .00000332,-0.00001106,0.00001111,-0.00000250,-0.00000314,0.00000415,-0
 .00001075,0.00000040,0.00000604,0.00002618,0.00002059,-0.00000005,-0.0
 0000266,-0.00000368,0.00000754,0.00000242,-0.00000494,0.00000647,-0.00
 008860,-0.00002185,-0.00050647,0.00107608,-0.00005467,-0.00072065,0.00
 103983,-0.00028344,0.09441938,0.09458037,0.00059846,-0.00075226,0.0007
 8832,0.00033021,0.00232370,0.00015872,-0.00031446,-0.00024356,-0.00008
 701,-0.00003792,-0.00000737,-0.00013317,-0.00003727,-0.00004490,0.0000
 1626,0.00001873,0.00001112,0.00000240,0.00002773,0.00001913,-0.0000084
 6,0.00000641,-0.00001355,-0.00003930,-0.00000213,0.00000865,-0.0000028
 0,0.00000295,0.00000154,0.00000715,0.00000526,0.00000135,0.00000635,-0
 .00000447,0.00000034,0.00000321,-0.00000153,0.00003207,0.00002566,-0.0
 0765175,-0.00074674,-0.00156012,-0.02935635,-0.01239892,-0.05604725,-0
 .02775277,-0.01443681,-0.00823955,-0.00005529,-0.00003780,0.00004778,0
 .00000461,0.00000292,0.00000815,-0.00000436,-0.00000040,-0.00000072,-0
 .00000978,-0.00001199,0.00001289,-0.00000916,-0.00000115,0.00000072,0.
 00000187,-0.00000125,-0.00000105,0.00000119,-0.00000395,-0.00000364,-0
 .00002664,-0.00006637,-0.00006998,-0.00025764,-0.00048553,0.00014512,0
 .00052154,0.00003265,0.00018902,0.03992417,0.02110152,0.06246050,-0.00
 075063,-0.00080346,0.00041308,0.00091020,0.00121765,-0.00142475,0.0001
 1465,-0.00072510,0.00049226,-0.00018188,-0.00009640,0.00007999,-0.0000
 0091,0.00013426,-0.00002586,0.00001401,-0.00003858,0.00001005,-0.00000
 947,-0.00009509,0.00002536,-0.00000422,-0.00000138,-0.00000134,-0.0000
 2736,0.00003721,-0.00005711,0.00001565,0.00000642,0.00000563,0.0000579
 2,0.00001536,0.00003469,-0.00006884,-0.00006472,0.00001027,0.00010471,
 0.00003639,0.00003074,0.00588575,0.01297596,-0.01718665,-0.07534906,-0
 .03916735,0.06084047,0.00318135,0.00142354,0.00203447,0.00037193,-0.00
 003336,0.00009611,-0.00003787,0.00001361,-0.00002464,-0.00000180,0.000
 00491,0.00000089,-0.00000400,0.00000326,-0.00002466,0.00000957,-0.0000
 0191,0.00000698,0.00000307,0.00000093,0.00000361,-0.00000345,-0.000001
 82,0.00000128,-0.00013814,-0.00006188,-0.00003841,-0.00254330,0.003335
 85,-0.00147495,0.00093637,-0.00073413,0.00028060,-0.00798102,-0.015311
 02,0.02404151,0.07535306,0.00016079,0.00152394,-0.00110117,-0.00213341
 ,-0.00164417,0.00023947,0.00043821,0.00024299,0.00012464,-0.00012497,-
 0.00001457,-0.00008333,-0.00014879,-0.00001882,-0.00000375,0.00012590,
 -0.00001597,0.00002013,0.00010853,0.00002741,0.00000554,0.00005481,-0.
 00003027,-0.00001843,-0.00000812,0.00001350,0.00001111,-0.00000654,0.0
 0000408,0.00000253,0.00002332,0.00001730,-0.00000514,-0.00000739,-0.00
 000718,0.00000010,0.00003411,0.00001550,0.00002325,-0.00642001,-0.0152
 1101,0.02152435,-0.03749431,-0.11226278,0.10047532,0.00719339,0.008876
 57,-0.02619427,-0.00028287,0.00021573,-0.00011179,0.00005842,0.0000257
 5,0.00000844,-0.00001257,0.00000253,-0.00000219,0.00000662,-0.00001077
 ,-0.00000431,0.00000425,0.00001014,0.00001129,0.00000034,-0.00000212,-
 0.00000053,-0.00000175,0.00000262,0.00000092,-0.00005370,-0.00002636,-
 0.00001218,0.00405246,-0.00347040,0.00080319,-0.00046131,0.00028296,-0
 .00023465,-0.00301771,-0.00512127,0.00882508,0.03717970,0.12393621,0.0
 0053879,-0.00151482,0.00160555,0.00146889,0.00220764,-0.00117796,0.000
 03925,-0.00057508,0.00042897,-0.00009323,-0.00004030,-0.00008959,0.000
 00348,0.00005791,-0.00001566,-0.00000742,-0.00000973,0.00001619,-0.000
 00255,-0.00005025,0.00003863,0.00007706,-0.00001820,-0.00005283,-0.000
 01874,0.00004660,-0.00002172,0.00001969,0.00001629,0.00001956,0.000030
 84,-0.00001174,0.00004628,-0.00005391,-0.00003548,-0.00000393,0.000039
 55,0.00005235,0.00004803,0.00112304,0.00520882,-0.00444574,0.05722289,
 0.10097750,-0.20812231,0.00799644,-0.00090957,-0.03187236,0.00007465,-
 0.00011939,0.00001143,-0.00001033,0.00000880,0.00000760,0.00000397,-0.
 00000221,-0.00000979,-0.00000599,-0.00001101,-0.00000205,0.00000512,0.
 00000041,0.00001342,0.00000878,-0.00000362,0.00000115,-0.00000441,-0.0
 0001224,-0.00000437,-0.00009779,-0.00007427,-0.00012796,-0.00038930,0.
 00057165,0.00090321,-0.00044890,0.00040707,0.00047321,-0.00069361,-0.0
 0198113,0.00547636,-0.06749793,-0.10441750,0.23600730,-0.00125428,-0.0
 0209018,0.00000898,0.00045180,0.00414524,-0.00082641,0.00024336,-0.001
 03191,0.00067302,-0.00033084,-0.00003943,-0.00001581,-0.00019695,0.000
 26556,-0.00009444,0.00016197,-0.00009134,0.00003849,0.00008593,-0.0001
 8007,0.00007512,-0.00004518,-0.00003056,0.00006266,-0.00012837,0.00008
 604,-0.00016256,0.00003484,0.00003244,0.00000048,0.00016095,0.00008620
 ,0.00008892,-0.00018259,-0.00019774,0.00001579,0.00028896,0.00001847,0
 .00005743,0.00058722,-0.00009003,-0.00018081,0.00278970,0.00044902,0.0
 0171661,-0.30669149,-0.16348592,-0.01463676,0.00010148,0.00009524,0.00
 007458,0.00000765,0.00003229,-0.00002076,-0.00002389,0.00001618,-0.000
 00568,0.00001506,0.00005021,-0.00014506,0.00006749,-0.00001780,0.00001
 050,0.00000861,-0.00000215,0.00000471,0.00000685,0.00000255,-0.0000050
 8,-0.00045532,-0.00006856,0.00009118,-0.00012152,0.00001561,-0.0000128
 2,-0.00023420,-0.00008026,0.00004459,0.00173748,0.00071599,0.00043051,
 0.00057930,0.00103674,0.00097469,0.32691404,-0.00081090,0.00199323,0.0
 0077641,0.00082994,-0.00412882,0.00055006,-0.00023496,0.00067526,-0.00
 043267,0.00038457,0.00002390,-0.00000702,0.00026428,-0.00022550,0.0000
 7472,-0.00020922,0.00008770,-0.00004474,-0.00013437,0.00015098,-0.0000
 5741,0.00012979,0.00005908,-0.00008379,0.00006410,0.00001711,0.0000250
 4,0.00002574,0.00000466,0.00002087,-0.00007875,-0.00012864,0.00001776,
 -0.00000290,0.00002629,-0.00003105,-0.00009749,-0.00013927,-0.00011546
 ,-0.00104986,-0.00047731,-0.00052348,-0.01967195,-0.01241400,0.0041124
 3,-0.18880797,-0.17756459,-0.03233970,-0.00008150,-0.00013423,-0.00005
 458,-0.00000734,-0.00001976,0.00002418,0.00002752,-0.00001578,0.000004
 88,-0.00001464,0.00002167,0.00014004,-0.00006292,-0.00000059,-0.000008
 22,-0.00000091,0.00000628,0.00000654,-0.00002920,-0.00000340,0.0000240
 4,0.00021487,0.00039535,0.00007258,-0.00004871,-0.00003404,-0.00008914
 ,0.00052554,0.00012702,-0.00004132,0.00102318,-0.00205012,-0.00341636,
 0.00094402,0.00166829,-0.00004049,0.18246151,0.17861759,-0.00067562,0.
 00210113,-0.00112195,-0.00028470,-0.00268861,0.00243059,-0.00027173,0.
 00092470,-0.00110898,0.00029977,0.00008938,0.00015672,0.00004251,0.000
 07851,-0.00004224,-0.00001657,-0.00002017,-0.00002076,-0.00005716,-0.0
 0003296,-0.00001479,-0.00031483,0.00003930,0.00019397,-0.00000943,-0.0
 0009792,-0.00001349,-0.00004393,-0.00003980,-0.00005728,-0.00002987,0.
 00005835,-0.00007456,0.00006600,0.00003250,0.00000375,-0.00002370,-0.0
 0010005,-0.00007408,0.00044532,0.00079557,0.00063855,-0.02915045,-0.02
 150484,-0.00744316,0.02347161,-0.00523321,-0.02364573,-0.00007133,0.00
 005789,-0.00001046,0.00001112,-0.00005134,0.00000252,-0.00000851,0.000
 01098,0.00001176,0.00001893,0.00010585,-0.00008954,0.00004307,-0.00002
 983,-0.00004374,-0.00001541,0.00000548,-0.00000082,0.00001504,0.000019
 86,0.00000131,0.00021431,0.00009057,0.00029879,0.00008159,0.00016195,-
 0.00012317,-0.00003409,0.00005424,-0.00003453,0.00060385,-0.00433674,-
 0.00476449,-0.00133482,0.00051306,0.00143416,0.01060784,0.02817150,0.0
 3595279,-0.00024444,0.00081502,0.00034138,-0.00023266,-0.00111023,0.00
 034878,0.00010622,0.00017328,-0.00014732,0.00005723,-0.00001536,-0.000
 00002,0.00002038,0.00001439,-0.00000702,-0.00000924,-0.00000212,0.0000
 0081,-0.00001061,-0.00000548,0.00000729,0.00003272,0.00000884,-0.00001
 923,0.00001005,0.00001211,0.,0.00000305,-0.00000217,0.00000447,-0.0000
 0033,-0.00002598,0.00000795,-0.00001448,0.00000186,-0.00001635,0.00000
 316,-0.00002427,-0.00000545,0.00112617,-0.00091560,0.00027478,0.001707
 32,-0.00186168,-0.00290340,-0.29179837,0.17193121,-0.01659842,-0.00003
 180,0.00001608,-0.00004786,0.00000871,-0.00000486,0.00000924,0.0000011
 2,0.00000053,-0.00000154,-0.00000174,-0.00000251,0.00002674,-0.0000093
 3,0.00000210,0.00000355,-0.00000012,0.00000037,0.00000366,-0.00001306,
 -0.00000164,0.00000872,0.00003652,0.00008121,-0.00000707,0.00003229,-0
 .00002379,-0.00000305,0.00018514,-0.00027532,-0.00037598,0.00104987,-0
 .00069094,-0.00039364,-0.00043559,-0.00030414,-0.00030298,-0.02457804,
 0.02444850,-0.00357884,0.31299988,-0.00007541,0.00114011,0.00026765,-0
 .00172865,-0.00094932,0.00006332,0.00022806,0.00018745,0.00005114,-0.0
 0007200,-0.00003508,-0.00002499,-0.00005121,0.00004391,-0.00002402,0.0
 0005288,-0.00002060,0.00001789,0.00003380,-0.00001748,0.00002955,0.000
 04510,-0.00001437,-0.00001593,0.00000549,0.00000529,0.00001778,-0.0000
 0545,0.00000272,-0.00000316,0.00001093,0.00000093,-0.00000201,-0.00000
 072,0.00000540,-0.00000488,0.00002175,0.00001245,0.00001897,-0.0001038
 1,-0.00337432,-0.00601875,0.01692328,-0.01384905,0.00918614,0.19848896
 ,-0.18892744,-0.01322469,-0.00005347,0.00006217,-0.00010697,0.00002388
 ,-0.00000272,0.00000933,-0.00000461,0.00000246,-0.00000589,-0.00000218
 ,-0.00001559,0.00000112,0.00000419,0.00000907,0.00000976,0.00000044,-0
 .00000196,0.00000091,-0.00000503,-0.00000008,0.00000327,0.00000614,-0.
 00002210,-0.00003175,-0.00016841,0.00037709,-0.00004451,0.00145455,-0.
 00144626,-0.00001948,-0.00049283,0.00023970,0.00030885,-0.00019289,0.0
 0097015,0.00027201,-0.02210336,0.01346163,0.00082466,-0.19223943,0.192
 15582,0.00004544,0.00043595,0.00004257,-0.00005193,-0.00076569,-0.0003
 9630,-0.00005621,0.00015007,0.00009543,0.00009091,0.00003595,0.0000416
 7,0.00007666,-0.00012493,0.00005142,-0.00007370,0.00004062,-0.00002677
 ,-0.00003872,0.00007988,-0.00004322,0.00004368,0.00001313,-0.00003002,
 0.00002645,-0.00002073,0.00004097,-0.00000298,-0.00000674,-0.00000406,
 -0.00005215,-0.00003380,-0.00003331,0.00005523,0.00003916,0.00001600,-
 0.00008610,-0.00002086,-0.00004852,-0.00036850,-0.00130972,-0.00376010
 ,0.02673327,-0.02001093,-0.00299680,-0.05171669,0.01081899,-0.02582403
 ,0.00000950,-0.00009008,-0.00003006,-0.00001289,-0.00000429,-0.0000049
 7,0.00000940,-0.00000556,0.00000812,0.00000570,0.00001364,0.00006622,-
 0.00003262,0.00000971,-0.00000344,-0.00000639,0.00000584,-0.00000139,0
 .00000423,0.00000520,0.00000256,0.00011749,0.00003521,0.00003020,-0.00
 017448,-0.00015210,0.00005166,0.00052968,-0.00078867,0.00070245,-0.000
 25834,0.00034081,0.00160896,0.00068313,-0.00039918,-0.00058480,0.00113
 012,0.00326439,-0.00244115,0.02337080,0.00844470,0.03347071\\-0.000000
 07,0.00000027,0.00000072,0.00000084,-0.00000143,0.00000087,-0.00000054
 ,-0.00000019,-0.00000067,-0.00000049,-0.00000036,-0.00000038,0.0000004
 8,0.00000088,0.00000026,0.00000010,0.00000074,0.00000031,0.00000011,-0
 .00000018,0.00000102,0.00000011,0.00000151,-0.00000014,0.00000029,-0.0
 0000021,-0.00000060,0.00000004,0.00000070,-0.00000071,0.,0.00000055,-0
 .00000101,-0.00000040,0.00000003,-0.00000101,-0.00000083,0.00000032,-0
 .00000116,0.00000008,-0.00000061,0.00000063,-0.00000015,-0.00000057,0.
 00000019,0.00000015,-0.00000088,0.00000053,0.00000040,0.00000001,0.000
 00094,0.00000005,0.00000008,0.00000020,0.00000050,0.00000056,0.0000006
 6,-0.00000019,0.00000034,0.,0.00000022,0.00000104,0.00000010,0.0000000
 9,0.00000097,-0.00000066,-0.00000041,-0.00000003,-0.00000123,0.0000001
 1,-0.00000046,-0.00000017,0.00000020,-0.00000038,0.00000074,0.00000009
 ,-0.00000059,0.00000067,-0.00000020,-0.00000073,0.00000062,-0.00000029
 ,-0.00000095,-0.00000009,-0.00000011,-0.00000007,-0.00000048,-0.000000
 20,-0.00000038,-0.00000014\\\@


 ADVERTISING--  HE WHO HAS SOMETHING TO SELL AND GOES AND WHISPERS
                IN A WELL, IS NOT SO APT TO GET THE DOLLARS AS HE
                WHO CLIMBS A TREE AND HOLLERS.

                   -- FROM THE BACK OF A SUGAR PACKET
 Job cpu time:       0 days  2 hours 40 minutes 46.0 seconds.
 File lengths (MBytes):  RWF=    417 Int=      0 D2E=      0 Chk=     13 Scr=      1
 Normal termination of Gaussian 09 at Sat Jul 24 02:41:03 2021.
