 Entering Gaussian System, Link 0=g09
 Input=opt_freq-conf-591.com
 Output=opt_freq-conf-591.log
 Initial command:
 /aerosol/software/g09/l1.exe "/scratch/nicole/10321/Gau-482007.inp" -scrdir="/scratch/nicole/10321/"
 Entering Link 1 = /aerosol/software/g09/l1.exe PID=    482011.
  
 Copyright (c) 1988,1990,1992,1993,1995,1998,2003,2009,2013,
            Gaussian, Inc.  All Rights Reserved.
  
 This is part of the Gaussian(R) 09 program.  It is based on
 the Gaussian(R) 03 system (copyright 2003, Gaussian, Inc.),
 the Gaussian(R) 98 system (copyright 1998, Gaussian, Inc.),
 the Gaussian(R) 94 system (copyright 1995, Gaussian, Inc.),
 the Gaussian 92(TM) system (copyright 1992, Gaussian, Inc.),
 the Gaussian 90(TM) system (copyright 1990, Gaussian, Inc.),
 the Gaussian 88(TM) system (copyright 1988, Gaussian, Inc.),
 the Gaussian 86(TM) system (copyright 1986, Carnegie Mellon
 University), and the Gaussian 82(TM) system (copyright 1983,
 Carnegie Mellon University). Gaussian is a federally registered
 trademark of Gaussian, Inc.
  
 This software contains proprietary and confidential information,
 including trade secrets, belonging to Gaussian, Inc.
  
 This software is provided under written license and may be
 used, copied, transmitted, or stored only in accord with that
 written license.
  
 The following legend is applicable only to US Government
 contracts under FAR:
  
                    RESTRICTED RIGHTS LEGEND
  
 Use, reproduction and disclosure by the US Government is
 subject to restrictions as set forth in subparagraphs (a)
 and (c) of the Commercial Computer Software - Restricted
 Rights clause in FAR 52.227-19.
  
 Gaussian, Inc.
 340 Quinnipiac St., Bldg. 40, Wallingford CT 06492
  
  
 ---------------------------------------------------------------
 Warning -- This program may not be used in any manner that
 competes with the business of Gaussian, Inc. or will provide
 assistance to any competitor of Gaussian, Inc.  The licensee
 of this program is prohibited from giving any competitor of
 Gaussian, Inc. access to this program.  By using this program,
 the user acknowledges that Gaussian, Inc. is engaged in the
 business of creating and licensing software in the field of
 computational chemistry and represents and warrants to the
 licensee that it is not a competitor of Gaussian, Inc. and that
 it will not use this program in any manner prohibited above.
 ---------------------------------------------------------------
  

 Cite this work as:
 Gaussian 09, Revision D.01,
 M. J. Frisch, G. W. Trucks, H. B. Schlegel, G. E. Scuseria, 
 M. A. Robb, J. R. Cheeseman, G. Scalmani, V. Barone, B. Mennucci, 
 G. A. Petersson, H. Nakatsuji, M. Caricato, X. Li, H. P. Hratchian, 
 A. F. Izmaylov, J. Bloino, G. Zheng, J. L. Sonnenberg, M. Hada, 
 M. Ehara, K. Toyota, R. Fukuda, J. Hasegawa, M. Ishida, T. Nakajima, 
 Y. Honda, O. Kitao, H. Nakai, T. Vreven, J. A. Montgomery, Jr., 
 J. E. Peralta, F. Ogliaro, M. Bearpark, J. J. Heyd, E. Brothers, 
 K. N. Kudin, V. N. Staroverov, T. Keith, R. Kobayashi, J. Normand, 
 K. Raghavachari, A. Rendell, J. C. Burant, S. S. Iyengar, J. Tomasi, 
 M. Cossi, N. Rega, J. M. Millam, M. Klene, J. E. Knox, J. B. Cross, 
 V. Bakken, C. Adamo, J. Jaramillo, R. Gomperts, R. E. Stratmann, 
 O. Yazyev, A. J. Austin, R. Cammi, C. Pomelli, J. W. Ochterski, 
 R. L. Martin, K. Morokuma, V. G. Zakrzewski, G. A. Voth, 
 P. Salvador, J. J. Dannenberg, S. Dapprich, A. D. Daniels, 
 O. Farkas, J. B. Foresman, J. V. Ortiz, J. Cioslowski, 
 and D. J. Fox, Gaussian, Inc., Wallingford CT, 2013.
 
 ******************************************
 Gaussian 09:  ES64L-G09RevD.01 24-Apr-2013
                24-Jul-2021 
 ******************************************
 %mem=2gb
 %nproc=4
 Will use up to    4 processors via shared memory.
 %chk=conf-591.chk
 ----------------------------------------------------------------------
 # B3LYP/6-31+G(d,p) EmpiricalDispersion=GD3BJ opt=calcfc freq=noraman 
 nosymm integral(ultrafinegrid)
 ----------------------------------------------------------------------
 1/10=4,14=-1,18=20,19=15,26=4,38=1/1,3;
 2/9=110,12=2,15=1,17=6,18=5,40=1/2;
 3/5=1,6=6,7=111,11=2,16=1,25=1,30=1,71=2,74=-5,75=-5,124=41,140=1/1,2,3;
 4//1;
 5/5=2,38=5/2;
 8/6=4,10=90,11=11/1;
 11/6=1,8=1,9=11,15=111,16=1,31=1/1,2,10;
 10/6=1,13=1,31=1/2;
 6/7=2,8=2,9=2,10=2,28=1/1;
 7/10=1,18=20,25=1,30=1/1,2,3,16;
 1/10=4,14=-1,18=20,19=15,26=4/3(2);
 2/9=110,15=1/2;
 99//99;
 2/9=110,15=1/2;
 3/5=1,6=6,7=111,11=2,16=1,25=1,30=1,71=1,74=-5,75=-5,124=41/1,2,3;
 4/5=5,16=3,69=1/1;
 5/5=2,38=5/2;
 7/30=1/1,2,3,16;
 1/14=-1,18=20,19=15,26=4/3(-5);
 2/9=110,15=1/2;
 6/7=2,8=2,9=2,10=2,19=2,28=1/1;
 99/9=1/99;
 ------------------------------------------------------------
 Candidate Structure: Conf:591 OPT and FREQ calc in gas phase
 ------------------------------------------------------------
 Symbolic Z-matrix:
 Charge =  0 Multiplicity = 1
 O                    -1.50958  -0.24594  -1.12071 
 C                    -1.65441  -0.21585   0.0925 
 N                    -0.5916   -0.29727   0.93485 
 C                     0.76368  -0.4252    0.42429 
 C                     1.58669  -1.02445   1.54156 
 O                     2.3125   -2.09563   1.1682 
 O                     1.5985   -0.57963   2.66283 
 C                     1.31394   0.95998   0.02517 
 C                     2.70026   0.91407  -0.52907 
 C                     3.9178    1.22596   0.01077 
 N                     4.93794   0.98003  -0.89233 
 C                     4.33935   0.52657  -1.96961 
 N                     2.98641   0.46695  -1.80145 
 C                    -3.00269  -0.05793   0.77323 
 C                    -4.17095  -0.43485  -0.12418 
 N                    -5.42234  -0.19908   0.60083 
 H                    -0.71097  -0.23088   1.93345 
 H                     0.74552  -1.08257  -0.44413 
 H                     2.80172  -2.37166   1.95519 
 H                     1.31406   1.5975    0.90708 
 H                     0.6228    1.38591  -0.69981 
 H                     4.1116    1.5998    1.00794 
 H                     4.81374   0.23118  -2.88829 
 H                     2.31183   0.15899  -2.48369 
 H                    -3.02322  -0.65284   1.69002 
 H                    -3.1142    0.9894    1.07929 
 H                    -4.11323  -1.49734  -0.37067 
 H                    -4.08587   0.12045  -1.06646 
 H                    -6.20558  -0.54364   0.05872 
 H                    -5.57369   0.79812   0.70512 
 

 GradGradGradGradGradGradGradGradGradGradGradGradGradGradGradGradGradGrad
 Berny optimization.
 Initialization pass.
                           ----------------------------
                           !    Initial Parameters    !
                           ! (Angstroms and Degrees)  !
 --------------------------                            --------------------------
 ! Name  Definition              Value          Derivative Info.                !
 --------------------------------------------------------------------------------
 ! R1    R(1,2)                  1.2222         calculate D2E/DX2 analytically  !
 ! R2    R(2,3)                  1.3586         calculate D2E/DX2 analytically  !
 ! R3    R(2,14)                 1.5186         calculate D2E/DX2 analytically  !
 ! R4    R(3,4)                  1.4539         calculate D2E/DX2 analytically  !
 ! R5    R(3,17)                 1.0079         calculate D2E/DX2 analytically  !
 ! R6    R(4,5)                  1.5115         calculate D2E/DX2 analytically  !
 ! R7    R(4,8)                  1.543          calculate D2E/DX2 analytically  !
 ! R8    R(4,18)                 1.0893         calculate D2E/DX2 analytically  !
 ! R9    R(5,6)                  1.3467         calculate D2E/DX2 analytically  !
 ! R10   R(5,7)                  1.2063         calculate D2E/DX2 analytically  !
 ! R11   R(6,19)                 0.9669         calculate D2E/DX2 analytically  !
 ! R12   R(8,9)                  1.4937         calculate D2E/DX2 analytically  !
 ! R13   R(8,20)                 1.0882         calculate D2E/DX2 analytically  !
 ! R14   R(8,21)                 1.0884         calculate D2E/DX2 analytically  !
 ! R15   R(9,10)                 1.3679         calculate D2E/DX2 analytically  !
 ! R16   R(9,13)                 1.3787         calculate D2E/DX2 analytically  !
 ! R17   R(10,11)                1.3845         calculate D2E/DX2 analytically  !
 ! R18   R(10,22)                1.0824         calculate D2E/DX2 analytically  !
 ! R19   R(11,12)                1.3132         calculate D2E/DX2 analytically  !
 ! R20   R(12,13)                1.3647         calculate D2E/DX2 analytically  !
 ! R21   R(12,23)                1.0753         calculate D2E/DX2 analytically  !
 ! R22   R(13,24)                1.0076         calculate D2E/DX2 analytically  !
 ! R23   R(14,15)                1.5206         calculate D2E/DX2 analytically  !
 ! R24   R(14,25)                1.0931         calculate D2E/DX2 analytically  !
 ! R25   R(14,26)                1.0968         calculate D2E/DX2 analytically  !
 ! R26   R(15,16)                1.4653         calculate D2E/DX2 analytically  !
 ! R27   R(15,27)                1.0922         calculate D2E/DX2 analytically  !
 ! R28   R(15,28)                1.097          calculate D2E/DX2 analytically  !
 ! R29   R(16,29)                1.013          calculate D2E/DX2 analytically  !
 ! R30   R(16,30)                1.014          calculate D2E/DX2 analytically  !
 ! A1    A(1,2,3)              121.4187         calculate D2E/DX2 analytically  !
 ! A2    A(1,2,14)             123.5544         calculate D2E/DX2 analytically  !
 ! A3    A(3,2,14)             115.0146         calculate D2E/DX2 analytically  !
 ! A4    A(2,3,4)              121.1161         calculate D2E/DX2 analytically  !
 ! A5    A(2,3,17)             121.1786         calculate D2E/DX2 analytically  !
 ! A6    A(4,3,17)             117.6531         calculate D2E/DX2 analytically  !
 ! A7    A(3,4,5)              106.432          calculate D2E/DX2 analytically  !
 ! A8    A(3,4,8)              110.1376         calculate D2E/DX2 analytically  !
 ! A9    A(3,4,18)             108.5126         calculate D2E/DX2 analytically  !
 ! A10   A(5,4,8)              110.6663         calculate D2E/DX2 analytically  !
 ! A11   A(5,4,18)             111.0446         calculate D2E/DX2 analytically  !
 ! A12   A(8,4,18)             109.9672         calculate D2E/DX2 analytically  !
 ! A13   A(4,5,6)              113.8206         calculate D2E/DX2 analytically  !
 ! A14   A(4,5,7)              123.1051         calculate D2E/DX2 analytically  !
 ! A15   A(6,5,7)              123.073          calculate D2E/DX2 analytically  !
 ! A16   A(5,6,19)             105.9096         calculate D2E/DX2 analytically  !
 ! A17   A(4,8,9)              113.5389         calculate D2E/DX2 analytically  !
 ! A18   A(4,8,20)             108.4415         calculate D2E/DX2 analytically  !
 ! A19   A(4,8,21)             107.2857         calculate D2E/DX2 analytically  !
 ! A20   A(9,8,20)             108.5794         calculate D2E/DX2 analytically  !
 ! A21   A(9,8,21)             110.7451         calculate D2E/DX2 analytically  !
 ! A22   A(20,8,21)            108.0966         calculate D2E/DX2 analytically  !
 ! A23   A(8,9,10)             132.2717         calculate D2E/DX2 analytically  !
 ! A24   A(8,9,13)             123.0274         calculate D2E/DX2 analytically  !
 ! A25   A(10,9,13)            104.681          calculate D2E/DX2 analytically  !
 ! A26   A(9,10,11)            110.9726         calculate D2E/DX2 analytically  !
 ! A27   A(9,10,22)            126.9908         calculate D2E/DX2 analytically  !
 ! A28   A(11,10,22)           122.0282         calculate D2E/DX2 analytically  !
 ! A29   A(10,11,12)           105.1044         calculate D2E/DX2 analytically  !
 ! A30   A(11,12,13)           111.4636         calculate D2E/DX2 analytically  !
 ! A31   A(11,12,23)           126.4854         calculate D2E/DX2 analytically  !
 ! A32   A(13,12,23)           122.0508         calculate D2E/DX2 analytically  !
 ! A33   A(9,13,12)            107.7781         calculate D2E/DX2 analytically  !
 ! A34   A(9,13,24)            125.8051         calculate D2E/DX2 analytically  !
 ! A35   A(12,13,24)           126.4152         calculate D2E/DX2 analytically  !
 ! A36   A(2,14,15)            113.0663         calculate D2E/DX2 analytically  !
 ! A37   A(2,14,25)            109.6361         calculate D2E/DX2 analytically  !
 ! A38   A(2,14,26)            108.3393         calculate D2E/DX2 analytically  !
 ! A39   A(15,14,25)           110.2211         calculate D2E/DX2 analytically  !
 ! A40   A(15,14,26)           108.8604         calculate D2E/DX2 analytically  !
 ! A41   A(25,14,26)           106.4831         calculate D2E/DX2 analytically  !
 ! A42   A(14,15,16)           108.9191         calculate D2E/DX2 analytically  !
 ! A43   A(14,15,27)           109.4936         calculate D2E/DX2 analytically  !
 ! A44   A(14,15,28)           108.7749         calculate D2E/DX2 analytically  !
 ! A45   A(16,15,27)           108.259          calculate D2E/DX2 analytically  !
 ! A46   A(16,15,28)           114.1907         calculate D2E/DX2 analytically  !
 ! A47   A(27,15,28)           107.125          calculate D2E/DX2 analytically  !
 ! A48   A(15,16,29)           109.9255         calculate D2E/DX2 analytically  !
 ! A49   A(15,16,30)           109.6695         calculate D2E/DX2 analytically  !
 ! A50   A(29,16,30)           105.9114         calculate D2E/DX2 analytically  !
 ! D1    D(1,2,3,4)             -0.0656         calculate D2E/DX2 analytically  !
 ! D2    D(1,2,3,17)           177.2451         calculate D2E/DX2 analytically  !
 ! D3    D(14,2,3,4)          -178.8382         calculate D2E/DX2 analytically  !
 ! D4    D(14,2,3,17)           -1.5275         calculate D2E/DX2 analytically  !
 ! D5    D(1,2,14,15)           20.6569         calculate D2E/DX2 analytically  !
 ! D6    D(1,2,14,25)          144.0797         calculate D2E/DX2 analytically  !
 ! D7    D(1,2,14,26)         -100.0943         calculate D2E/DX2 analytically  !
 ! D8    D(3,2,14,15)         -160.6            calculate D2E/DX2 analytically  !
 ! D9    D(3,2,14,25)          -37.1772         calculate D2E/DX2 analytically  !
 ! D10   D(3,2,14,26)           78.6488         calculate D2E/DX2 analytically  !
 ! D11   D(2,3,4,5)           -158.086          calculate D2E/DX2 analytically  !
 ! D12   D(2,3,4,8)             81.9102         calculate D2E/DX2 analytically  !
 ! D13   D(2,3,4,18)           -38.5106         calculate D2E/DX2 analytically  !
 ! D14   D(17,3,4,5)            24.5115         calculate D2E/DX2 analytically  !
 ! D15   D(17,3,4,8)           -95.4923         calculate D2E/DX2 analytically  !
 ! D16   D(17,3,4,18)          144.0868         calculate D2E/DX2 analytically  !
 ! D17   D(3,4,5,6)            129.2775         calculate D2E/DX2 analytically  !
 ! D18   D(3,4,5,7)            -51.1291         calculate D2E/DX2 analytically  !
 ! D19   D(8,4,5,6)           -111.0615         calculate D2E/DX2 analytically  !
 ! D20   D(8,4,5,7)             68.5318         calculate D2E/DX2 analytically  !
 ! D21   D(18,4,5,6)            11.3623         calculate D2E/DX2 analytically  !
 ! D22   D(18,4,5,7)          -169.0443         calculate D2E/DX2 analytically  !
 ! D23   D(3,4,8,9)           -179.2007         calculate D2E/DX2 analytically  !
 ! D24   D(3,4,8,20)            60.0281         calculate D2E/DX2 analytically  !
 ! D25   D(3,4,8,21)           -56.5037         calculate D2E/DX2 analytically  !
 ! D26   D(5,4,8,9)             63.3907         calculate D2E/DX2 analytically  !
 ! D27   D(5,4,8,20)           -57.3805         calculate D2E/DX2 analytically  !
 ! D28   D(5,4,8,21)          -173.9123         calculate D2E/DX2 analytically  !
 ! D29   D(18,4,8,9)           -59.6599         calculate D2E/DX2 analytically  !
 ! D30   D(18,4,8,20)          179.5689         calculate D2E/DX2 analytically  !
 ! D31   D(18,4,8,21)           63.0371         calculate D2E/DX2 analytically  !
 ! D32   D(4,5,6,19)           178.8488         calculate D2E/DX2 analytically  !
 ! D33   D(7,5,6,19)            -0.7447         calculate D2E/DX2 analytically  !
 ! D34   D(4,8,9,10)          -102.8953         calculate D2E/DX2 analytically  !
 ! D35   D(4,8,9,13)            75.2209         calculate D2E/DX2 analytically  !
 ! D36   D(20,8,9,10)           17.7983         calculate D2E/DX2 analytically  !
 ! D37   D(20,8,9,13)         -164.0855         calculate D2E/DX2 analytically  !
 ! D38   D(21,8,9,10)          136.3359         calculate D2E/DX2 analytically  !
 ! D39   D(21,8,9,13)          -45.5479         calculate D2E/DX2 analytically  !
 ! D40   D(8,9,10,11)          178.2377         calculate D2E/DX2 analytically  !
 ! D41   D(8,9,10,22)           -0.7218         calculate D2E/DX2 analytically  !
 ! D42   D(13,9,10,11)          -0.1296         calculate D2E/DX2 analytically  !
 ! D43   D(13,9,10,22)        -179.0891         calculate D2E/DX2 analytically  !
 ! D44   D(8,9,13,12)         -178.5056         calculate D2E/DX2 analytically  !
 ! D45   D(8,9,13,24)            1.9218         calculate D2E/DX2 analytically  !
 ! D46   D(10,9,13,12)           0.0535         calculate D2E/DX2 analytically  !
 ! D47   D(10,9,13,24)        -179.5191         calculate D2E/DX2 analytically  !
 ! D48   D(9,10,11,12)           0.1564         calculate D2E/DX2 analytically  !
 ! D49   D(22,10,11,12)        179.1761         calculate D2E/DX2 analytically  !
 ! D50   D(10,11,12,13)         -0.1201         calculate D2E/DX2 analytically  !
 ! D51   D(10,11,12,23)        179.7237         calculate D2E/DX2 analytically  !
 ! D52   D(11,12,13,9)           0.0439         calculate D2E/DX2 analytically  !
 ! D53   D(11,12,13,24)        179.6132         calculate D2E/DX2 analytically  !
 ! D54   D(23,12,13,9)        -179.808          calculate D2E/DX2 analytically  !
 ! D55   D(23,12,13,24)         -0.2387         calculate D2E/DX2 analytically  !
 ! D56   D(2,14,15,16)        -177.7752         calculate D2E/DX2 analytically  !
 ! D57   D(2,14,15,27)          64.0166         calculate D2E/DX2 analytically  !
 ! D58   D(2,14,15,28)         -52.7432         calculate D2E/DX2 analytically  !
 ! D59   D(25,14,15,16)         59.1254         calculate D2E/DX2 analytically  !
 ! D60   D(25,14,15,27)        -59.0828         calculate D2E/DX2 analytically  !
 ! D61   D(25,14,15,28)       -175.8427         calculate D2E/DX2 analytically  !
 ! D62   D(26,14,15,16)        -57.3205         calculate D2E/DX2 analytically  !
 ! D63   D(26,14,15,27)       -175.5287         calculate D2E/DX2 analytically  !
 ! D64   D(26,14,15,28)         67.7115         calculate D2E/DX2 analytically  !
 ! D65   D(14,15,16,29)       -173.5509         calculate D2E/DX2 analytically  !
 ! D66   D(14,15,16,30)         70.3928         calculate D2E/DX2 analytically  !
 ! D67   D(27,15,16,29)        -54.5684         calculate D2E/DX2 analytically  !
 ! D68   D(27,15,16,30)       -170.6246         calculate D2E/DX2 analytically  !
 ! D69   D(28,15,16,29)         64.6492         calculate D2E/DX2 analytically  !
 ! D70   D(28,15,16,30)        -51.4071         calculate D2E/DX2 analytically  !
 --------------------------------------------------------------------------------
 Trust Radius=3.00D-01 FncErr=1.00D-07 GrdErr=1.00D-06
 Number of steps in this run=    160 maximum allowed number of steps=    180.
 GradGradGradGradGradGradGradGradGradGradGradGradGradGradGradGradGradGrad

                          Input orientation:                          
 ---------------------------------------------------------------------
 Center     Atomic      Atomic             Coordinates (Angstroms)
 Number     Number       Type             X           Y           Z
 ---------------------------------------------------------------------
      1          8           0       -1.509581   -0.245936   -1.120711
      2          6           0       -1.654408   -0.215845    0.092497
      3          7           0       -0.591603   -0.297270    0.934847
      4          6           0        0.763675   -0.425200    0.424293
      5          6           0        1.586691   -1.024454    1.541556
      6          8           0        2.312500   -2.095628    1.168200
      7          8           0        1.598497   -0.579631    2.662833
      8          6           0        1.313942    0.959980    0.025173
      9          6           0        2.700265    0.914070   -0.529073
     10          6           0        3.917795    1.225960    0.010771
     11          7           0        4.937944    0.980033   -0.892326
     12          6           0        4.339346    0.526565   -1.969614
     13          7           0        2.986410    0.466949   -1.801446
     14          6           0       -3.002685   -0.057933    0.773225
     15          6           0       -4.170954   -0.434851   -0.124179
     16          7           0       -5.422337   -0.199076    0.600835
     17          1           0       -0.710969   -0.230878    1.933447
     18          1           0        0.745517   -1.082571   -0.444126
     19          1           0        2.801724   -2.371659    1.955187
     20          1           0        1.314056    1.597504    0.907083
     21          1           0        0.622798    1.385906   -0.699814
     22          1           0        4.111603    1.599804    1.007935
     23          1           0        4.813744    0.231179   -2.888290
     24          1           0        2.311827    0.158989   -2.483687
     25          1           0       -3.023218   -0.652842    1.690023
     26          1           0       -3.114197    0.989396    1.079293
     27          1           0       -4.113228   -1.497344   -0.370668
     28          1           0       -4.085865    0.120445   -1.066461
     29          1           0       -6.205576   -0.543642    0.058721
     30          1           0       -5.573690    0.798119    0.705120
 ---------------------------------------------------------------------
                    Distance matrix (angstroms):
                    1          2          3          4          5
     1  O    0.000000
     2  C    1.222193   0.000000
     3  N    2.251807   1.358579   0.000000
     4  C    2.754427   2.449703   1.453895   0.000000
     5  C    4.157000   3.641201   2.375259   1.511534   0.000000
     6  O    4.823772   4.519633   3.423793   2.396369   1.346702
     7  O    4.907820   4.161773   2.803962   2.394125   1.206345
     8  C    3.277128   3.193463   2.457496   1.542989   2.512327
     9  C    4.406637   4.541612   3.800894   2.540262   3.047200
    10  C    5.736126   5.756295   4.848589   3.584104   3.583534
    11  N    6.567019   6.771936   5.962042   4.597030   4.601375
    12  C    5.960482   6.381894   5.781769   4.407048   4.723462
    13  N    4.602775   5.058698   4.568753   3.269617   3.919077
    14  C    2.419029   1.518610   2.428317   3.800278   4.752564
    15  C    2.848100   2.535333   3.735267   4.965026   6.022688
    16  N    4.274995   3.802101   4.843263   6.192661   7.119879
    17  H    3.156880   2.068671   1.007899   2.118935   2.462231
    18  H    2.498637   2.607454   2.075127   1.089320   2.157286
    19  H    5.706768   5.289070   4.105954   3.207177   1.860741
    20  H    3.934863   3.572613   2.687466   2.151124   2.711374
    21  H    2.717922   2.894655   2.641962   2.136251   3.429674
    22  H    6.287734   6.114041   5.071920   3.955995   3.680579
    23  H    6.583039   7.135960   6.641793   5.273244   5.622635
    24  H    4.077355   4.744286   4.508264   3.345803   4.257809
    25  H    3.218213   2.148649   2.570890   3.999307   4.627245
    26  H    2.990126   2.134796   2.835463   4.179473   5.134941
    27  H    2.984555   2.811149   3.942891   5.056248   6.030696
    28  H    2.602772   2.714453   4.048406   5.102756   6.347475
    29  H    4.850985   4.563082   5.687265   6.979838   7.946659
    30  H    4.576100   4.094411   5.106255   6.460462   7.435889
                    6          7          8          9         10
     6  O    0.000000
     7  O    2.245433   0.000000
     8  C    3.411798   3.067348   0.000000
     9  C    3.476978   3.692330   1.493716   0.000000
    10  C    3.866466   3.958881   2.617442   1.367876   0.000000
    11  N    4.538547   5.120900   3.738395   2.267931   1.384474
    12  C    4.563976   5.495042   3.649670   2.216282   2.142144
    13  N    3.979919   4.790764   2.525226   1.378670   2.174329
    14  C    5.706084   5.001366   4.497666   5.929959   7.079743
    15  C    6.816421   6.408975   5.661444   7.014070   8.258593
    16  N    7.984141   7.327262   6.859465   8.276016   9.466624
    17  H    3.633767   2.446889   3.026536   4.360210   5.219629
    18  H    2.466032   3.260938   2.171489   2.795502   3.949632
    19  H    0.966893   2.271538   4.127744   4.120420   4.239013
    20  H    3.834617   2.811313   1.088211   2.109787   2.778647
    21  H    4.297167   4.015310   1.088439   2.137206   3.374540
    22  H    4.113231   3.715417   3.033497   2.196474   1.082432
    23  H    5.303335   6.466080   4.611727   3.240222   3.193253
    24  H    4.291803   5.247958   2.816334   2.131091   3.152757
    25  H    5.551920   4.723555   4.917711   6.335445   7.384270
    26  H    6.242941   5.213341   4.551972   6.033281   7.116643
    27  H    6.634458   6.532084   5.970704   7.229364   8.488770
    28  H    7.130481   6.834450   5.572648   6.853480   8.151145
    29  H    8.729102   8.227165   7.668452   9.043474  10.276985
    30  H    8.413097   7.561157   6.923005   8.366302   9.526461
                   11         12         13         14         15
    11  N    0.000000
    12  C    1.313203   0.000000
    13  N    2.213197   1.364650   0.000000
    14  C    8.179549   7.859404   6.540160   0.000000
    15  C    9.250079   8.761002   7.406371   1.520609   0.000000
    16  N   10.533530  10.120485   8.770494   2.429888   1.465331
    17  H    6.431292   6.427542   5.301604   2.574488   4.030747
    18  H    4.693790   4.222801   3.043835   4.071958   4.969265
    19  H    4.889336   5.115471   4.712123   6.359366   7.529491
    20  H    4.092885   4.309835   3.378026   4.625218   5.939638
    21  H    4.338465   4.020397   2.764912   4.171168   5.160093
    22  H    2.162857   3.173249   3.231415   7.308644   8.603618
    23  H    2.135435   1.075301   2.139151   8.636368   9.423837
    24  H    3.178527   2.123727   1.007648   6.236872   6.924332
    25  H    8.527304   8.306100   7.039881   1.093095   2.157810
    26  H    8.290014   8.066309   6.766758   1.096818   2.143259
    27  H    9.398577   8.837356   7.504028   2.147953   1.092237
    28  H    9.066330   8.483207   7.118802   2.142322   1.097037
    29  H   11.287343  10.791426   9.432609   3.317369   2.045721
    30  H   10.633879  10.271136   8.925685   2.710632   2.043433
                   16         17         18         19         20
    16  N    0.000000
    17  H    4.896310   0.000000
    18  H    6.317826   2.915405   0.000000
    19  H    8.613337   4.113689   3.412688   0.000000
    20  H    6.978573   2.914984   3.054800   4.366455   0.000000
    21  H    6.383377   3.365559   2.484716   5.090780   1.762025
    22  H    9.710701   5.240722   4.542483   4.287842   2.799365
    23  H   10.822960   7.347456   4.924465   5.855106   5.340367
    24  H    8.334253   5.366598   2.855627   5.133009   3.816044
    25  H    2.673575   2.363008   4.352312   6.079030   4.948636
    26  H    2.639867   2.827393   4.638021   6.860175   4.473128
    27  H    2.084007   4.299796   4.876970   7.347829   6.377001
    28  H    2.160585   4.529106   5.017649   7.923372   5.935969
    29  H    1.012954   5.814045   6.990063   9.384545   7.864419
    30  H    1.013992   5.119929   6.692543   9.041998   6.936919
                   21         22         23         24         25
    21  H    0.000000
    22  H    3.890234   0.000000
    23  H    4.866914   4.188880   0.000000
    24  H    2.745969   4.184085   2.535449   0.000000
    25  H    4.812613   7.513011   9.119233   6.822143   0.000000
    26  H    4.157832   7.251887   8.897688   6.544168   1.754484
    27  H    5.554404   8.896107   9.434885   6.963449   2.479466
    28  H    4.889512   8.584294   9.084843   6.552899   3.053751
    29  H    7.136190  10.580148  11.432875   8.916484   3.577774
    30  H    6.380893   9.723132  11.006035   8.529851   3.095194
                   26         27         28         29         30
    26  H    0.000000
    27  H    3.047020   0.000000
    28  H    2.510672   1.761284   0.000000
    29  H    3.598388   2.339197   2.490024   0.000000
    30  H    2.495135   2.925649   2.410677   1.617849   0.000000
 Symmetry turned off by external request.
 Stoichiometry    C9H14N4O3
 Framework group  C1[X(C9H14N4O3)]
 Deg. of freedom    84
 Full point group                 C1      NOp   1
 Rotational constants (GHZ):      1.0600287      0.2293246      0.2040481
 Standard basis: 6-31+G(d,p) (6D, 7F)
   374 basis functions,   610 primitive gaussians,   374 cartesian basis functions
    60 alpha electrons       60 beta electrons
       nuclear repulsion energy      1097.9016211535 Hartrees.
 NAtoms=   30 NActive=   30 NUniq=   30 SFac= 1.00D+00 NAtFMM=   60 NAOKFM=F Big=F
 Integral buffers will be    131072 words long.
 Raffenetti 2 integral format.
 Two-electron integral symmetry is turned off.
 Nuclear repulsion after empirical dispersion term =     1097.8491152285 Hartrees.
 One-electron integrals computed using PRISM.
 NBasis=   374 RedAO= T EigKep=  4.11D-06  NBF=   374
 NBsUse=   374 1.00D-06 EigRej= -1.00D+00 NBFU=   374
 ExpMin= 4.38D-02 ExpMax= 5.48D+03 ExpMxC= 8.25D+02 IAcc=3 IRadAn=         5 AccDes= 0.00D+00
 Harris functional with IExCor=  402 and IRadAn=       5 diagonalized for initial guess.
 HarFok:  IExCor=  402 AccDes= 0.00D+00 IRadAn=         5 IDoV= 1 UseB2=F ITyADJ=14
 ICtDFT=  3500011 ScaDFX=  1.000000  1.000000  1.000000  1.000000
 FoFCou: FMM=F IPFlag=           0 FMFlag=      100000 FMFlg1=           0
         NFxFlg=           0 DoJE=T BraDBF=F KetDBF=T FulRan=T
         wScrn=  0.000000 ICntrl=     500 IOpCl=  0 I1Cent=   200000004 NGrid=           0
         NMat0=    1 NMatS0=      1 NMatT0=    0 NMatD0=    1 NMtDS0=    0 NMtDT0=    0
 Symmetry not used in FoFCou.
 Requested convergence on RMS density matrix=1.00D-08 within 128 cycles.
 Requested convergence on MAX density matrix=1.00D-06.
 Requested convergence on             energy=1.00D-06.
 No special actions if energy rises.
 SCF Done:  E(RB3LYP) =  -796.200889571     A.U. after   15 cycles
            NFock= 15  Conv=0.41D-08     -V/T= 2.0091
 DoSCS=F DFT=T ScalE2(SS,OS)=  1.000000  1.000000
 Range of M.O.s used for correlation:     1   374
 NBasis=   374 NAE=    60 NBE=    60 NFC=     0 NFV=     0
 NROrb=    374 NOA=    60 NOB=    60 NVA=   314 NVB=   314

 **** Warning!!: The largest alpha MO coefficient is  0.13753316D+03

 Symmetrizing basis deriv contribution to polar:
 IMax=3 JMax=2 DiffMx= 0.00D+00
 G2DrvN: will do    31 centers at a time, making    1 passes.
 Calling FoFCou, ICntrl=  3107 FMM=F I1Cent=   0 AccDes= 0.00D+00.
 End of G2Drv F.D. properties file   721 does not exist.
 End of G2Drv F.D. properties file   722 does not exist.
 End of G2Drv F.D. properties file   788 does not exist.
          IDoAtm=111111111111111111111111111111
          Differentiating once with respect to nuclear coordinates.
          There are    93 degrees of freedom in the 1st order CPHF.  IDoFFX=6 NUNeed=     0.
     87 vectors produced by pass  0 Test12= 2.03D-14 1.08D-09 XBig12= 1.70D-01 7.73D-02.
 AX will form    87 AO Fock derivatives at one time.
     87 vectors produced by pass  1 Test12= 2.03D-14 1.08D-09 XBig12= 2.86D-02 3.36D-02.
     87 vectors produced by pass  2 Test12= 2.03D-14 1.08D-09 XBig12= 3.13D-04 1.90D-03.
     87 vectors produced by pass  3 Test12= 2.03D-14 1.08D-09 XBig12= 9.86D-07 9.25D-05.
     87 vectors produced by pass  4 Test12= 2.03D-14 1.08D-09 XBig12= 1.87D-09 3.48D-06.
     77 vectors produced by pass  5 Test12= 2.03D-14 1.08D-09 XBig12= 2.31D-12 1.66D-07.
     21 vectors produced by pass  6 Test12= 2.03D-14 1.08D-09 XBig12= 2.86D-15 4.37D-09.
      7 vectors produced by pass  7 Test12= 2.03D-14 1.08D-09 XBig12= 3.10D-16 1.69D-09.
      7 vectors produced by pass  8 Test12= 2.03D-14 1.08D-09 XBig12= 1.06D-15 4.45D-09.
      7 vectors produced by pass  9 Test12= 2.03D-14 1.08D-09 XBig12= 3.38D-15 5.68D-09.
      3 vectors produced by pass 10 Test12= 2.03D-14 1.08D-09 XBig12= 2.40D-16 1.51D-09.
      3 vectors produced by pass 11 Test12= 2.03D-14 1.08D-09 XBig12= 1.45D-15 3.22D-09.
      3 vectors produced by pass 12 Test12= 2.03D-14 1.08D-09 XBig12= 1.83D-15 4.69D-09.
      3 vectors produced by pass 13 Test12= 2.03D-14 1.08D-09 XBig12= 2.35D-15 4.64D-09.
      3 vectors produced by pass 14 Test12= 2.03D-14 1.08D-09 XBig12= 1.94D-15 3.66D-09.
      3 vectors produced by pass 15 Test12= 2.03D-14 1.08D-09 XBig12= 2.11D-15 4.89D-09.
      3 vectors produced by pass 16 Test12= 2.03D-14 1.08D-09 XBig12= 1.17D-15 2.63D-09.
      2 vectors produced by pass 17 Test12= 2.03D-14 1.08D-09 XBig12= 9.58D-16 3.25D-09.
 InvSVY:  IOpt=1 It=  1 EMax= 7.22D-16
 Solved reduced A of dimension   577 with    93 vectors.
 End of Minotr F.D. properties file   721 does not exist.
 End of Minotr F.D. properties file   722 does not exist.
 End of Minotr F.D. properties file   788 does not exist.

 **********************************************************************

            Population analysis using the SCF density.

 **********************************************************************

 Alpha  occ. eigenvalues --  -19.23241 -19.17792 -19.13771 -14.40141 -14.38430
 Alpha  occ. eigenvalues --  -14.33098 -14.32357 -10.35290 -10.30657 -10.26440
 Alpha  occ. eigenvalues --  -10.24724 -10.22968 -10.21975 -10.21930 -10.20741
 Alpha  occ. eigenvalues --  -10.20421  -1.14464  -1.06143  -1.05459  -1.02515
 Alpha  occ. eigenvalues --   -0.95211  -0.89772  -0.87978  -0.82300  -0.77683
 Alpha  occ. eigenvalues --   -0.74963  -0.69915  -0.65656  -0.62439  -0.61555
 Alpha  occ. eigenvalues --   -0.60858  -0.59929  -0.55005  -0.54354  -0.52031
 Alpha  occ. eigenvalues --   -0.50685  -0.50299  -0.49572  -0.48382  -0.46922
 Alpha  occ. eigenvalues --   -0.45861  -0.45029  -0.44134  -0.43524  -0.43091
 Alpha  occ. eigenvalues --   -0.41467  -0.41137  -0.40302  -0.39920  -0.38678
 Alpha  occ. eigenvalues --   -0.38099  -0.35745  -0.35356  -0.31506  -0.29030
 Alpha  occ. eigenvalues --   -0.28357  -0.27728  -0.27527  -0.25080  -0.23518
 Alpha virt. eigenvalues --   -0.03321  -0.01296  -0.00618  -0.00069   0.00350
 Alpha virt. eigenvalues --    0.00574   0.01164   0.02159   0.02663   0.03554
 Alpha virt. eigenvalues --    0.04052   0.04546   0.04674   0.05387   0.05555
 Alpha virt. eigenvalues --    0.06277   0.06305   0.07366   0.07695   0.08112
 Alpha virt. eigenvalues --    0.08699   0.09060   0.09220   0.10020   0.10468
 Alpha virt. eigenvalues --    0.11280   0.11839   0.12544   0.12884   0.14164
 Alpha virt. eigenvalues --    0.14514   0.14830   0.15258   0.15845   0.15900
 Alpha virt. eigenvalues --    0.16629   0.16860   0.17326   0.17691   0.18244
 Alpha virt. eigenvalues --    0.18508   0.18517   0.19242   0.19590   0.20457
 Alpha virt. eigenvalues --    0.20768   0.21006   0.21098   0.21737   0.22178
 Alpha virt. eigenvalues --    0.22646   0.22943   0.23051   0.23399   0.24164
 Alpha virt. eigenvalues --    0.24521   0.24671   0.25428   0.25699   0.26151
 Alpha virt. eigenvalues --    0.26561   0.26736   0.27303   0.27351   0.28111
 Alpha virt. eigenvalues --    0.28473   0.28935   0.29398   0.30129   0.30365
 Alpha virt. eigenvalues --    0.30556   0.31544   0.31961   0.32166   0.32652
 Alpha virt. eigenvalues --    0.33210   0.33301   0.33894   0.34686   0.35156
 Alpha virt. eigenvalues --    0.35985   0.36712   0.37266   0.37933   0.38661
 Alpha virt. eigenvalues --    0.39698   0.40113   0.40544   0.41909   0.43399
 Alpha virt. eigenvalues --    0.44181   0.44683   0.46379   0.47706   0.49949
 Alpha virt. eigenvalues --    0.50920   0.51976   0.53471   0.62337   0.64968
 Alpha virt. eigenvalues --    0.66237   0.67057   0.67536   0.68592   0.70615
 Alpha virt. eigenvalues --    0.71124   0.72897   0.73455   0.75021   0.75260
 Alpha virt. eigenvalues --    0.78097   0.78248   0.78918   0.80616   0.81319
 Alpha virt. eigenvalues --    0.82730   0.83804   0.84465   0.86227   0.86706
 Alpha virt. eigenvalues --    0.87075   0.88268   0.88745   0.90484   0.91896
 Alpha virt. eigenvalues --    0.92615   0.93798   0.94452   0.95887   0.96094
 Alpha virt. eigenvalues --    0.97197   0.98063   0.99575   1.00734   1.01749
 Alpha virt. eigenvalues --    1.02471   1.04044   1.04271   1.04827   1.07149
 Alpha virt. eigenvalues --    1.07522   1.09207   1.09991   1.10691   1.11384
 Alpha virt. eigenvalues --    1.12321   1.13271   1.14380   1.17639   1.18874
 Alpha virt. eigenvalues --    1.21489   1.21751   1.24076   1.25659   1.26392
 Alpha virt. eigenvalues --    1.27465   1.28141   1.29420   1.29459   1.30274
 Alpha virt. eigenvalues --    1.31685   1.32555   1.33236   1.33848   1.35052
 Alpha virt. eigenvalues --    1.35746   1.38044   1.39487   1.40028   1.40352
 Alpha virt. eigenvalues --    1.42013   1.43396   1.43836   1.44665   1.45934
 Alpha virt. eigenvalues --    1.47618   1.49995   1.50790   1.52109   1.56440
 Alpha virt. eigenvalues --    1.58453   1.60861   1.61735   1.64731   1.65319
 Alpha virt. eigenvalues --    1.69903   1.71147   1.72069   1.72356   1.73958
 Alpha virt. eigenvalues --    1.74342   1.76273   1.77209   1.79360   1.79986
 Alpha virt. eigenvalues --    1.81103   1.82772   1.85089   1.86798   1.87797
 Alpha virt. eigenvalues --    1.88324   1.90658   1.92283   1.92828   1.94018
 Alpha virt. eigenvalues --    1.95847   1.97833   1.98495   2.00523   2.02325
 Alpha virt. eigenvalues --    2.03197   2.05419   2.07077   2.08843   2.09574
 Alpha virt. eigenvalues --    2.10448   2.11315   2.13012   2.15112   2.15479
 Alpha virt. eigenvalues --    2.17460   2.18751   2.21564   2.23172   2.24250
 Alpha virt. eigenvalues --    2.24792   2.25763   2.27271   2.28253   2.30018
 Alpha virt. eigenvalues --    2.30901   2.33319   2.34036   2.36665   2.38150
 Alpha virt. eigenvalues --    2.39075   2.41511   2.43680   2.44948   2.45313
 Alpha virt. eigenvalues --    2.47138   2.48320   2.51116   2.52980   2.53311
 Alpha virt. eigenvalues --    2.55220   2.56378   2.58147   2.58429   2.58502
 Alpha virt. eigenvalues --    2.59028   2.62253   2.63575   2.64679   2.64948
 Alpha virt. eigenvalues --    2.65808   2.67078   2.67955   2.70054   2.72752
 Alpha virt. eigenvalues --    2.73629   2.75680   2.76868   2.78019   2.82905
 Alpha virt. eigenvalues --    2.84346   2.84695   2.87692   2.88607   2.88914
 Alpha virt. eigenvalues --    2.90447   2.93127   2.94981   2.96701   2.97026
 Alpha virt. eigenvalues --    2.98728   3.00610   3.04756   3.07659   3.09490
 Alpha virt. eigenvalues --    3.14005   3.21766   3.23232   3.24609   3.31604
 Alpha virt. eigenvalues --    3.33882   3.35131   3.36219   3.36846   3.41499
 Alpha virt. eigenvalues --    3.43435   3.49160   3.52390   3.54182   3.56984
 Alpha virt. eigenvalues --    3.59236   3.60690   3.72398   4.18401   4.20320
 Alpha virt. eigenvalues --    4.30032   4.32712   4.34160   4.35027   4.38272
 Alpha virt. eigenvalues --    4.41673   4.43039   4.55399   4.59278   4.61880
 Alpha virt. eigenvalues --    4.64559   4.71968   4.76014   4.88378
          Condensed to atoms (all electrons):
               1          2          3          4          5          6
     1  O    8.255040   0.344347  -0.170841   0.116555   0.073109   0.001256
     2  C    0.344347   8.013314  -0.260146  -0.159003  -0.136607  -0.001895
     3  N   -0.170841  -0.260146   7.545859  -0.082625  -0.099042   0.023291
     4  C    0.116555  -0.159003  -0.082625   9.554555  -1.408750  -0.185189
     5  C    0.073109  -0.136607  -0.099042  -1.408750   6.632692   0.168899
     6  O    0.001256  -0.001895   0.023291  -0.185189   0.168899   8.260726
     7  O    0.000460   0.019658   0.033471  -0.260333   0.594520  -0.165761
     8  C   -0.094813   0.330020  -0.107823   0.443499  -0.874664  -0.079558
     9  C   -0.005381  -0.848297   0.263732  -1.284647   0.761229   0.034356
    10  C   -0.000176   0.020269   0.044997  -0.157419  -0.126050   0.045358
    11  N   -0.000038  -0.001790   0.001114  -0.031018   0.012729   0.001953
    12  C    0.000378  -0.035310   0.011632  -0.162668   0.016758   0.028796
    13  N   -0.000919  -0.015374   0.014044  -0.169852   0.063875   0.029811
    14  C   -0.030629  -1.516850  -0.189542  -0.049910   0.001158  -0.000852
    15  C    0.009995  -0.102741  -0.018996  -0.090217  -0.019804   0.000006
    16  N   -0.005076   0.098230  -0.003954   0.004044   0.000583   0.000003
    17  H    0.007677  -0.021463   0.289283   0.005521   0.007345   0.001193
    18  H   -0.005054   0.003346  -0.045927   0.388673  -0.007999   0.000428
    19  H   -0.000015  -0.000951  -0.003058   0.022686   0.030841   0.200467
    20  H   -0.000779   0.019401   0.014132  -0.107390   0.018487   0.001633
    21  H   -0.002079   0.015011  -0.020780  -0.014145   0.027643  -0.000774
    22  H   -0.000004   0.001207   0.000130   0.004242   0.010951   0.000184
    23  H    0.000002  -0.000041  -0.000015   0.003501  -0.001586   0.000022
    24  H    0.000023  -0.003035  -0.000811   0.003176   0.002376  -0.000058
    25  H    0.004821  -0.083030   0.009406  -0.010176  -0.006651  -0.000002
    26  H    0.001380  -0.046166   0.002024  -0.012817  -0.000981   0.000001
    27  H   -0.001601   0.045165   0.001602  -0.001969   0.000251   0.000001
    28  H    0.002183  -0.089511  -0.001504  -0.009144  -0.000801   0.000000
    29  H    0.000020   0.007348   0.000317   0.000694   0.000009   0.000000
    30  H    0.000030   0.006783  -0.000114  -0.000705  -0.000003   0.000000
               7          8          9         10         11         12
     1  O    0.000460  -0.094813  -0.005381  -0.000176  -0.000038   0.000378
     2  C    0.019658   0.330020  -0.848297   0.020269  -0.001790  -0.035310
     3  N    0.033471  -0.107823   0.263732   0.044997   0.001114   0.011632
     4  C   -0.260333   0.443499  -1.284647  -0.157419  -0.031018  -0.162668
     5  C    0.594520  -0.874664   0.761229  -0.126050   0.012729   0.016758
     6  O   -0.165761  -0.079558   0.034356   0.045358   0.001953   0.028796
     7  O    8.156242   0.002506   0.045328  -0.025647   0.000346   0.003233
     8  C    0.002506  11.516661  -4.666556  -0.272969  -0.072036  -0.271745
     9  C    0.045328  -4.666556  12.358186  -1.258617  -0.033024   0.260112
    10  C   -0.025647  -0.272969  -1.258617   7.784451   0.399372  -0.534629
    11  N    0.000346  -0.072036  -0.033024   0.399372   6.763408   0.381892
    12  C    0.003233  -0.271745   0.260112  -0.534629   0.381892   5.408370
    13  N    0.001915  -0.002639   0.139018  -0.121194  -0.039276   0.199435
    14  C   -0.011250  -0.109891   0.012246  -0.010615   0.000023   0.000862
    15  C   -0.000192   0.006950  -0.030037   0.001101  -0.000011  -0.000472
    16  N    0.000016   0.000155   0.000712   0.000035   0.000000   0.000003
    17  H    0.006186  -0.022501  -0.007078  -0.000877  -0.000005   0.000032
    18  H    0.006503  -0.049479  -0.028931   0.007161   0.000079   0.003238
    19  H    0.006439  -0.006560  -0.000056  -0.001987   0.000164  -0.000801
    20  H    0.003472   0.545467  -0.194520   0.007885  -0.000707  -0.003967
    21  H   -0.000189   0.334330   0.003285  -0.002474  -0.000601  -0.002421
    22  H   -0.000628   0.072425  -0.123494   0.359655  -0.056716   0.025587
    23  H    0.000000   0.016749   0.033525  -0.035067  -0.057930   0.444719
    24  H    0.000005  -0.057752   0.109986  -0.011926   0.009575  -0.030043
    25  H   -0.000013   0.004759  -0.002403  -0.000090   0.000000  -0.000005
    26  H    0.000018   0.004210  -0.000746  -0.000029   0.000000   0.000002
    27  H    0.000002  -0.000187  -0.000085   0.000000   0.000000   0.000000
    28  H   -0.000001   0.000692  -0.001552  -0.000010   0.000000  -0.000007
    29  H    0.000000   0.000057   0.000012   0.000000   0.000000   0.000000
    30  H    0.000000  -0.000078   0.000011   0.000000   0.000000   0.000000
              13         14         15         16         17         18
     1  O   -0.000919  -0.030629   0.009995  -0.005076   0.007677  -0.005054
     2  C   -0.015374  -1.516850  -0.102741   0.098230  -0.021463   0.003346
     3  N    0.014044  -0.189542  -0.018996  -0.003954   0.289283  -0.045927
     4  C   -0.169852  -0.049910  -0.090217   0.004044   0.005521   0.388673
     5  C    0.063875   0.001158  -0.019804   0.000583   0.007345  -0.007999
     6  O    0.029811  -0.000852   0.000006   0.000003   0.001193   0.000428
     7  O    0.001915  -0.011250  -0.000192   0.000016   0.006186   0.006503
     8  C   -0.002639  -0.109891   0.006950   0.000155  -0.022501  -0.049479
     9  C    0.139018   0.012246  -0.030037   0.000712  -0.007078  -0.028931
    10  C   -0.121194  -0.010615   0.001101   0.000035  -0.000877   0.007161
    11  N   -0.039276   0.000023  -0.000011   0.000000  -0.000005   0.000079
    12  C    0.199435   0.000862  -0.000472   0.000003   0.000032   0.003238
    13  N    7.040319   0.000567   0.000394  -0.000011   0.000210   0.014159
    14  C    0.000567   7.431452   0.209120  -0.137816   0.030784  -0.002078
    15  C    0.000394   0.209120   5.246867   0.203627   0.002110   0.000841
    16  N   -0.000011  -0.137816   0.203627   6.894599  -0.000032   0.000021
    17  H    0.000210   0.030784   0.002110  -0.000032   0.373057   0.003373
    18  H    0.014159  -0.002078   0.000841   0.000021   0.003373   0.529978
    19  H   -0.000568  -0.000112   0.000000   0.000000  -0.000022  -0.000027
    20  H    0.011966  -0.000154   0.000132   0.000000   0.000668   0.004608
    21  H   -0.009855  -0.004230  -0.000203  -0.000014  -0.000235  -0.005067
    22  H    0.008754  -0.000017   0.000004   0.000000   0.000000  -0.000005
    23  H   -0.099290   0.000001   0.000000   0.000000   0.000000   0.000002
    24  H    0.262257  -0.000459  -0.000018   0.000000   0.000000  -0.000396
    25  H    0.000007   0.417167  -0.009705   0.004515   0.000530   0.000008
    26  H    0.000009   0.381282  -0.000368  -0.012002   0.000065  -0.000021
    27  H    0.000001  -0.110615   0.454652  -0.059370  -0.000008  -0.000005
    28  H    0.000007   0.015545   0.465779  -0.092159   0.000004   0.000001
    29  H    0.000000   0.022395  -0.058179   0.353660   0.000000   0.000000
    30  H    0.000000  -0.013522  -0.024939   0.349274   0.000000   0.000000
              19         20         21         22         23         24
     1  O   -0.000015  -0.000779  -0.002079  -0.000004   0.000002   0.000023
     2  C   -0.000951   0.019401   0.015011   0.001207  -0.000041  -0.003035
     3  N   -0.003058   0.014132  -0.020780   0.000130  -0.000015  -0.000811
     4  C    0.022686  -0.107390  -0.014145   0.004242   0.003501   0.003176
     5  C    0.030841   0.018487   0.027643   0.010951  -0.001586   0.002376
     6  O    0.200467   0.001633  -0.000774   0.000184   0.000022  -0.000058
     7  O    0.006439   0.003472  -0.000189  -0.000628   0.000000   0.000005
     8  C   -0.006560   0.545467   0.334330   0.072425   0.016749  -0.057752
     9  C   -0.000056  -0.194520   0.003285  -0.123494   0.033525   0.109986
    10  C   -0.001987   0.007885  -0.002474   0.359655  -0.035067  -0.011926
    11  N    0.000164  -0.000707  -0.000601  -0.056716  -0.057930   0.009575
    12  C   -0.000801  -0.003967  -0.002421   0.025587   0.444719  -0.030043
    13  N   -0.000568   0.011966  -0.009855   0.008754  -0.099290   0.262257
    14  C   -0.000112  -0.000154  -0.004230  -0.000017   0.000001  -0.000459
    15  C    0.000000   0.000132  -0.000203   0.000004   0.000000  -0.000018
    16  N    0.000000   0.000000  -0.000014   0.000000   0.000000   0.000000
    17  H   -0.000022   0.000668  -0.000235   0.000000   0.000000   0.000000
    18  H   -0.000027   0.004608  -0.005067  -0.000005   0.000002  -0.000396
    19  H    0.386289  -0.000011   0.000009  -0.000005   0.000000   0.000001
    20  H   -0.000011   0.531325  -0.026978   0.001672   0.000004  -0.000065
    21  H    0.000009  -0.026978   0.528417  -0.000040  -0.000005   0.001301
    22  H   -0.000005   0.001672  -0.000040   0.566801  -0.000049  -0.000098
    23  H    0.000000   0.000004  -0.000005  -0.000049   0.560977   0.000142
    24  H    0.000001  -0.000065   0.001301  -0.000098   0.000142   0.412878
    25  H    0.000000   0.000000  -0.000003   0.000000   0.000000   0.000000
    26  H    0.000000  -0.000013   0.000004   0.000000   0.000000   0.000000
    27  H    0.000000   0.000000   0.000000   0.000000   0.000000   0.000000
    28  H    0.000000   0.000000  -0.000001   0.000000   0.000000   0.000000
    29  H    0.000000   0.000000   0.000000   0.000000   0.000000   0.000000
    30  H    0.000000   0.000000   0.000000   0.000000   0.000000   0.000000
              25         26         27         28         29         30
     1  O    0.004821   0.001380  -0.001601   0.002183   0.000020   0.000030
     2  C   -0.083030  -0.046166   0.045165  -0.089511   0.007348   0.006783
     3  N    0.009406   0.002024   0.001602  -0.001504   0.000317  -0.000114
     4  C   -0.010176  -0.012817  -0.001969  -0.009144   0.000694  -0.000705
     5  C   -0.006651  -0.000981   0.000251  -0.000801   0.000009  -0.000003
     6  O   -0.000002   0.000001   0.000001   0.000000   0.000000   0.000000
     7  O   -0.000013   0.000018   0.000002  -0.000001   0.000000   0.000000
     8  C    0.004759   0.004210  -0.000187   0.000692   0.000057  -0.000078
     9  C   -0.002403  -0.000746  -0.000085  -0.001552   0.000012   0.000011
    10  C   -0.000090  -0.000029   0.000000  -0.000010   0.000000   0.000000
    11  N    0.000000   0.000000   0.000000   0.000000   0.000000   0.000000
    12  C   -0.000005   0.000002   0.000000  -0.000007   0.000000   0.000000
    13  N    0.000007   0.000009   0.000001   0.000007   0.000000   0.000000
    14  C    0.417167   0.381282  -0.110615   0.015545   0.022395  -0.013522
    15  C   -0.009705  -0.000368   0.454652   0.465779  -0.058179  -0.024939
    16  N    0.004515  -0.012002  -0.059370  -0.092159   0.353660   0.349274
    17  H    0.000530   0.000065  -0.000008   0.000004   0.000000   0.000000
    18  H    0.000008  -0.000021  -0.000005   0.000001   0.000000   0.000000
    19  H    0.000000   0.000000   0.000000   0.000000   0.000000   0.000000
    20  H    0.000000  -0.000013   0.000000   0.000000   0.000000   0.000000
    21  H   -0.000003   0.000004   0.000000  -0.000001   0.000000   0.000000
    22  H    0.000000   0.000000   0.000000   0.000000   0.000000   0.000000
    23  H    0.000000   0.000000   0.000000   0.000000   0.000000   0.000000
    24  H    0.000000   0.000000   0.000000   0.000000   0.000000   0.000000
    25  H    0.535068  -0.030159  -0.006062   0.004823  -0.000089  -0.000402
    26  H   -0.030159   0.548175   0.004811  -0.006509   0.000034   0.004947
    27  H   -0.006062   0.004811   0.566433  -0.038568  -0.005008   0.005953
    28  H    0.004823  -0.006509  -0.038568   0.602366  -0.000862  -0.005386
    29  H   -0.000089   0.000034  -0.005008  -0.000862   0.431844  -0.040660
    30  H   -0.000402   0.004947   0.005953  -0.005386  -0.040660   0.446555
 Mulliken charges:
               1
     1  O   -0.499870
     2  C    0.398111
     3  N   -0.249854
     4  C   -0.349168
     5  C    0.259483
     6  O   -0.364297
     7  O   -0.416306
     8  C   -0.589230
     9  C    0.463685
    10  C   -0.110509
    11  N   -0.277503
    12  C    0.257019
    13  N   -0.327771
    14  C   -0.334058
    15  C   -0.245693
    16  N   -0.599043
    17  H    0.324181
    18  H    0.182572
    19  H    0.367279
    20  H    0.173729
    21  H    0.180093
    22  H    0.129444
    23  H    0.134341
    24  H    0.302943
    25  H    0.167685
    26  H    0.162849
    27  H    0.144607
    28  H    0.154615
    29  H    0.288407
    30  H    0.272257
 Sum of Mulliken charges =   0.00000
 Mulliken charges with hydrogens summed into heavy atoms:
               1
     1  O   -0.499870
     2  C    0.398111
     3  N    0.074327
     4  C   -0.166596
     5  C    0.259483
     6  O    0.002982
     7  O   -0.416306
     8  C   -0.235408
     9  C    0.463685
    10  C    0.018935
    11  N   -0.277503
    12  C    0.391361
    13  N   -0.024828
    14  C   -0.003524
    15  C    0.053530
    16  N   -0.038380
 APT charges:
               1
     1  O   -0.544123
     2  C    0.565706
     3  N   -0.566463
     4  C   -0.131203
     5  C   -0.400599
     6  O   -0.705822
     7  O   -0.058159
     8  C   -1.095290
     9  C   -0.256290
    10  C   -0.072445
    11  N   -0.154543
    12  C   -0.366672
    13  N   -0.462865
    14  C   -1.060707
    15  C   -0.466607
    16  N   -1.911930
    17  H    0.650176
    18  H    0.343606
    19  H    1.037415
    20  H    0.429295
    21  H    0.280170
    22  H    0.553894
    23  H    0.973113
    24  H    0.265066
    25  H    0.440084
    26  H    0.389192
    27  H    0.361500
    28  H    0.308033
    29  H    1.096693
    30  H    0.559774
 Sum of APT charges =   0.00000
 APT charges with hydrogens summed into heavy atoms:
               1
     1  O   -0.544123
     2  C    0.565706
     3  N    0.083714
     4  C    0.212403
     5  C   -0.400599
     6  O    0.331593
     7  O   -0.058159
     8  C   -0.385825
     9  C   -0.256290
    10  C    0.481449
    11  N   -0.154543
    12  C    0.606441
    13  N   -0.197799
    14  C   -0.231431
    15  C    0.202926
    16  N   -0.255463
 Electronic spatial extent (au):  <R**2>=           5360.4705
 Charge=              0.0000 electrons
 Dipole moment (field-independent basis, Debye):
    X=             -3.1397    Y=             -0.7606    Z=             -0.5350  Tot=              3.2745
 Quadrupole moment (field-independent basis, Debye-Ang):
   XX=           -110.7351   YY=            -93.0586   ZZ=            -94.0054
   XY=            -13.5033   XZ=              0.4834   YZ=             -0.1852
 Traceless Quadrupole moment (field-independent basis, Debye-Ang):
   XX=            -11.4687   YY=              6.2078   ZZ=              5.2609
   XY=            -13.5033   XZ=              0.4834   YZ=             -0.1852
 Octapole moment (field-independent basis, Debye-Ang**2):
  XXX=           -341.5649  YYY=             -4.5277  ZZZ=            -73.8320  XYY=            -55.8554
  XXY=            -27.1091  XXZ=            -35.4487  XZZ=             -5.5012  YZZ=             -4.1998
  YYZ=              7.2233  XYZ=             -9.5156
 Hexadecapole moment (field-independent basis, Debye-Ang**3):
 XXXX=          -6250.8593 YYYY=           -524.8092 ZZZZ=           -946.0348 XXXY=           -596.8176
 XXXZ=            582.9527 YYYX=           -287.8168 YYYZ=            130.7416 ZZZX=            156.1683
 ZZZY=            141.9725 XXYY=          -1025.8859 XXZZ=          -1057.1027 YYZZ=           -221.6197
 XXYZ=            115.5583 YYXZ=            152.1691 ZZXY=           -121.8778
 N-N= 1.097849115228D+03 E-N=-4.051190692264D+03  KE= 7.890506394903D+02
  Exact polarizability:   0.000   0.000   0.000   0.000   0.000   0.000
 Approx polarizability: 217.997  -2.138 162.804   1.950  19.041 224.671
 Calling FoFJK, ICntrl=    100147 FMM=F ISym2X=0 I1Cent= 0 IOpClX= 0 NMat=1 NMatS=1 NMatT=0.
 -------------------------------------------------------------------
 Center     Atomic                   Forces (Hartrees/Bohr)
 Number     Number              X              Y              Z
 -------------------------------------------------------------------
      1        8           0.000894414   -0.001233983   -0.014927295
      2        6          -0.004694042    0.003367711    0.008651749
      3        7           0.002424179   -0.004237580    0.000953965
      4        6          -0.005403733    0.001989747    0.000575378
      5        6           0.004854700   -0.005305070   -0.010899641
      6        8          -0.004642902    0.003626614   -0.004380564
      7        8          -0.001083094    0.004201927    0.013676355
      8        6           0.009192291   -0.000046263   -0.002229398
      9        6          -0.008780953    0.000829653    0.001431745
     10        6           0.008544842    0.000703898    0.004573085
     11        7           0.000445602    0.001951405    0.004404473
     12        6           0.000543903   -0.000368017   -0.000669336
     13        7          -0.003210416   -0.002436665   -0.003975347
     14        6           0.002302436   -0.000600582    0.000865559
     15        6           0.000203380    0.000007000   -0.000728647
     16        7          -0.000698683   -0.000945454   -0.000708694
     17        1          -0.000728333    0.001085388    0.002826295
     18        1           0.000355444   -0.001524678   -0.000268796
     19        1           0.005470160   -0.003566643    0.003932816
     20        1          -0.000766238    0.001718846    0.003036635
     21        1          -0.003444562    0.000997495   -0.002016786
     22        1           0.000845655    0.000295319   -0.001294687
     23        1           0.002642693   -0.000848158   -0.003113914
     24        1          -0.001389961   -0.000443589   -0.001574981
     25        1          -0.001717889   -0.000529291    0.001776627
     26        1           0.001477943    0.001884278    0.000586900
     27        1           0.000093317   -0.001602262   -0.000673428
     28        1           0.000082514   -0.000334993   -0.001126570
     29        1          -0.003017579   -0.002220236   -0.000823091
     30        1          -0.000795087    0.003584186    0.002119591
 -------------------------------------------------------------------
 Cartesian Forces:  Max     0.014927295 RMS     0.003836821
 FormGI is forming the generalized inverse of G from B-inverse, IUseBI=4.
 GSVD:  received Info=                   1 from GESDD.

 GradGradGradGradGradGradGradGradGradGradGradGradGradGradGradGradGradGrad
 Berny optimization.
 Internal  Forces:  Max     0.014953834 RMS     0.002645609
 Search for a local minimum.
 Step number   1 out of a maximum of  160
 All quantities printed in internal units (Hartrees-Bohrs-Radians)
 Mixed Optimization -- RFO/linear search
 Second derivative matrix not updated -- analytic derivatives used.
 ITU=  0
     Eigenvalues ---   -0.00074   0.00056   0.00197   0.00199   0.00253
     Eigenvalues ---    0.00261   0.00322   0.00469   0.00543   0.00899
     Eigenvalues ---    0.01827   0.01993   0.02124   0.02477   0.03350
     Eigenvalues ---    0.03403   0.03822   0.04143   0.04286   0.04369
     Eigenvalues ---    0.04516   0.04613   0.04625   0.05137   0.05154
     Eigenvalues ---    0.05335   0.05737   0.06151   0.07759   0.07886
     Eigenvalues ---    0.08320   0.10190   0.10693   0.10866   0.10982
     Eigenvalues ---    0.11720   0.11933   0.13556   0.14710   0.15114
     Eigenvalues ---    0.15217   0.15711   0.16104   0.16828   0.18522
     Eigenvalues ---    0.18775   0.19658   0.21221   0.21828   0.23428
     Eigenvalues ---    0.23513   0.24522   0.24900   0.25258   0.27276
     Eigenvalues ---    0.30362   0.32236   0.32612   0.33162   0.33525
     Eigenvalues ---    0.33878   0.34222   0.34341   0.34798   0.34938
     Eigenvalues ---    0.35125   0.35537   0.37157   0.37451   0.37981
     Eigenvalues ---    0.38505   0.41792   0.41916   0.45494   0.45681
     Eigenvalues ---    0.46201   0.46657   0.47920   0.48182   0.48629
     Eigenvalues ---    0.53215   0.59643   0.84823   0.91266
 RFO step:  Lambda=-3.81825354D-03 EMin=-7.38445783D-04
 Linear search not attempted -- first point.
 Iteration  1 RMS(Cart)=  0.13164750 RMS(Int)=  0.02490188
 Iteration  2 RMS(Cart)=  0.06225519 RMS(Int)=  0.00192543
 Iteration  3 RMS(Cart)=  0.00278164 RMS(Int)=  0.00011924
 Iteration  4 RMS(Cart)=  0.00000398 RMS(Int)=  0.00011921
 Iteration  5 RMS(Cart)=  0.00000000 RMS(Int)=  0.00011921
 Variable       Old X    -DE/DX   Delta X   Delta X   Delta X     New X
                                 (Linear)    (Quad)   (Total)
    R1        2.30961   0.01495   0.00000   0.01810   0.01810   2.32771
    R2        2.56734   0.00776   0.00000   0.01127   0.01127   2.57862
    R3        2.86976   0.00234   0.00000   0.00156   0.00156   2.87132
    R4        2.74746   0.00331   0.00000  -0.00605  -0.00605   2.74142
    R5        1.90465   0.00296   0.00000   0.00678   0.00678   1.91143
    R6        2.85639   0.00464   0.00000   0.01071   0.01071   2.86710
    R7        2.91583   0.00413   0.00000   0.02434   0.02434   2.94017
    R8        2.05852   0.00113   0.00000   0.00293   0.00293   2.06145
    R9        2.54490   0.00052   0.00000  -0.00586  -0.00586   2.53904
   R10        2.27966   0.01425   0.00000   0.01531   0.01531   2.29497
   R11        1.82716   0.00699   0.00000   0.01210   0.01210   1.83926
   R12        2.82271  -0.00024   0.00000  -0.00690  -0.00690   2.81581
   R13        2.05642   0.00347   0.00000   0.01021   0.01021   2.06663
   R14        2.05685   0.00392   0.00000   0.01202   0.01202   2.06887
   R15        2.58491   0.00892   0.00000   0.01690   0.01692   2.60183
   R16        2.60531   0.00604   0.00000   0.01229   0.01230   2.61761
   R17        2.61628  -0.00154   0.00000  -0.00801  -0.00801   2.60827
   R18        2.04550  -0.00094   0.00000  -0.00240  -0.00240   2.04310
   R19        2.48159   0.00451   0.00000   0.00668   0.00665   2.48825
   R20        2.57882   0.00506   0.00000   0.00879   0.00878   2.58760
   R21        2.03202   0.00406   0.00000   0.00995   0.00995   2.04198
   R22        1.90418   0.00213   0.00000   0.00442   0.00442   1.90860
   R23        2.87353   0.00469   0.00000   0.01764   0.01764   2.89118
   R24        2.06565   0.00181   0.00000   0.00329   0.00329   2.06894
   R25        2.07269   0.00181   0.00000   0.00543   0.00543   2.07812
   R26        2.76907   0.00421   0.00000   0.00556   0.00556   2.77463
   R27        2.06403   0.00172   0.00000   0.00682   0.00682   2.07085
   R28        2.07310   0.00080   0.00000   0.00061   0.00061   2.07371
   R29        1.91421   0.00353   0.00000   0.00583   0.00583   1.92004
   R30        1.91617   0.00386   0.00000   0.00676   0.00676   1.92292
    A1        2.11916   0.00088   0.00000   0.00063   0.00063   2.11979
    A2        2.15643  -0.00097   0.00000  -0.00779  -0.00779   2.14865
    A3        2.00738   0.00009   0.00000   0.00715   0.00715   2.01453
    A4        2.11388  -0.00010   0.00000  -0.00287  -0.00320   2.11068
    A5        2.11496  -0.00038   0.00000   0.00078   0.00045   2.11541
    A6        2.05343   0.00045   0.00000   0.00020  -0.00013   2.05331
    A7        1.85759   0.00291   0.00000   0.03153   0.03163   1.88922
    A8        1.92226   0.00208   0.00000   0.02016   0.02024   1.94250
    A9        1.89390  -0.00160   0.00000  -0.00216  -0.00194   1.89196
   A10        1.93149  -0.00300   0.00000  -0.01780  -0.01843   1.91306
   A11        1.93809  -0.00061   0.00000  -0.01772  -0.01808   1.92001
   A12        1.91929   0.00035   0.00000  -0.01198  -0.01234   1.90695
   A13        1.98654  -0.00380   0.00000  -0.01997  -0.02002   1.96652
   A14        2.14859   0.00199   0.00000   0.00860   0.00855   2.15714
   A15        2.14803   0.00181   0.00000   0.01125   0.01119   2.15922
   A16        1.84847   0.00528   0.00000   0.03229   0.03229   1.88077
   A17        1.98163  -0.00119   0.00000  -0.00385  -0.00385   1.97778
   A18        1.89266  -0.00011   0.00000  -0.00112  -0.00114   1.89153
   A19        1.87249  -0.00057   0.00000  -0.01463  -0.01464   1.85785
   A20        1.89507   0.00109   0.00000   0.01448   0.01445   1.90952
   A21        1.93287   0.00096   0.00000   0.00825   0.00818   1.94104
   A22        1.88664  -0.00019   0.00000  -0.00362  -0.00373   1.88291
   A23        2.30858   0.00070   0.00000   0.00667   0.00655   2.31513
   A24        2.14723  -0.00029   0.00000  -0.00507  -0.00518   2.14205
   A25        1.82703  -0.00041   0.00000  -0.00219  -0.00222   1.82481
   A26        1.93684  -0.00026   0.00000   0.00014   0.00013   1.93697
   A27        2.21641   0.00125   0.00000   0.00765   0.00758   2.22399
   A28        2.12979  -0.00098   0.00000  -0.00751  -0.00757   2.12222
   A29        1.83442   0.00187   0.00000   0.00522   0.00522   1.83964
   A30        1.94541   0.00030   0.00000  -0.00031  -0.00032   1.94509
   A31        2.20759  -0.00112   0.00000  -0.00740  -0.00740   2.20019
   A32        2.13019   0.00082   0.00000   0.00770   0.00770   2.13789
   A33        1.88108  -0.00149   0.00000  -0.00285  -0.00282   1.87826
   A34        2.19571   0.00082   0.00000   0.00076   0.00074   2.19645
   A35        2.20636   0.00067   0.00000   0.00205   0.00202   2.20839
   A36        1.97338  -0.00053   0.00000  -0.00984  -0.00992   1.96346
   A37        1.91351   0.00168   0.00000   0.03221   0.03230   1.94581
   A38        1.89088  -0.00132   0.00000  -0.02456  -0.02454   1.86634
   A39        1.92372  -0.00128   0.00000  -0.01003  -0.01002   1.91370
   A40        1.89997   0.00172   0.00000   0.00891   0.00869   1.90866
   A41        1.85848  -0.00027   0.00000   0.00359   0.00376   1.86224
   A42        1.90100   0.00214   0.00000   0.01073   0.01070   1.91169
   A43        1.91102  -0.00061   0.00000  -0.00856  -0.00853   1.90249
   A44        1.89848  -0.00037   0.00000   0.00047   0.00037   1.89885
   A45        1.88948  -0.00084   0.00000  -0.00892  -0.00888   1.88060
   A46        1.99300  -0.00034   0.00000   0.00669   0.00664   1.99964
   A47        1.86968  -0.00006   0.00000  -0.00142  -0.00141   1.86827
   A48        1.91856   0.00119   0.00000   0.01170   0.01151   1.93007
   A49        1.91409   0.00199   0.00000   0.01666   0.01646   1.93055
   A50        1.84850  -0.00011   0.00000   0.01601   0.01562   1.86413
    D1       -0.00115   0.00105   0.00000   0.04975   0.04975   0.04861
    D2        3.09351   0.00046   0.00000   0.00106   0.00105   3.09457
    D3       -3.12132   0.00061   0.00000   0.05040   0.05040  -3.07092
    D4       -0.02666   0.00002   0.00000   0.00170   0.00170  -0.02496
    D5        0.36053   0.00045   0.00000   0.30592   0.30602   0.66656
    D6        2.51466  -0.00032   0.00000   0.30995   0.31002   2.82468
    D7       -1.74698  -0.00047   0.00000   0.31799   0.31781  -1.42916
    D8       -2.80300   0.00094   0.00000   0.30538   0.30549  -2.49751
    D9       -0.64886   0.00016   0.00000   0.30941   0.30948  -0.33938
   D10        1.37268   0.00001   0.00000   0.31745   0.31728   1.68996
   D11       -2.75912  -0.00020   0.00000   0.01023   0.01046  -2.74867
   D12        1.42960   0.00053   0.00000   0.00174   0.00150   1.43111
   D13       -0.67214  -0.00016   0.00000   0.00558   0.00561  -0.66652
   D14        0.42781   0.00039   0.00000   0.05724   0.05745   0.48526
   D15       -1.66666   0.00112   0.00000   0.04875   0.04850  -1.61816
   D16        2.51479   0.00043   0.00000   0.05260   0.05261   2.56740
   D17        2.25632  -0.00026   0.00000   0.14859   0.14859   2.40491
   D18       -0.89237  -0.00027   0.00000   0.13003   0.13005  -0.76232
   D19       -1.93839   0.00233   0.00000   0.18197   0.18178  -1.75661
   D20        1.19611   0.00232   0.00000   0.16342   0.16323   1.35934
   D21        0.19831   0.00026   0.00000   0.14206   0.14224   0.34055
   D22       -2.95038   0.00026   0.00000   0.12351   0.12369  -2.82669
   D23       -3.12764   0.00152   0.00000   0.03983   0.03976  -3.08788
   D24        1.04769   0.00099   0.00000   0.02475   0.02472   1.07241
   D25       -0.98618   0.00156   0.00000   0.03730   0.03726  -0.94892
   D26        1.10638  -0.00151   0.00000  -0.00051  -0.00039   1.10598
   D27       -1.00148  -0.00204   0.00000  -0.01559  -0.01543  -1.01691
   D28       -3.03534  -0.00147   0.00000  -0.00304  -0.00290  -3.03824
   D29       -1.04126   0.00105   0.00000   0.04224   0.04214  -0.99913
   D30        3.13407   0.00053   0.00000   0.02717   0.02709  -3.12202
   D31        1.10021   0.00110   0.00000   0.03972   0.03963   1.13984
   D32        3.12150  -0.00085   0.00000  -0.06089  -0.06090   3.06060
   D33       -0.01300  -0.00085   0.00000  -0.04233  -0.04232  -0.05531
   D34       -1.79586  -0.00010   0.00000  -0.00474  -0.00476  -1.80062
   D35        1.31285  -0.00040   0.00000  -0.03295  -0.03297   1.27989
   D36        0.31064  -0.00024   0.00000   0.00155   0.00152   0.31216
   D37       -2.86383  -0.00055   0.00000  -0.02665  -0.02668  -2.89051
   D38        2.37951   0.00076   0.00000   0.01088   0.01093   2.39044
   D39       -0.79496   0.00046   0.00000  -0.01732  -0.01728  -0.81224
   D40        3.11083  -0.00006   0.00000  -0.01934  -0.01942   3.09141
   D41       -0.01260  -0.00053   0.00000  -0.03716  -0.03726  -0.04986
   D42       -0.00226   0.00020   0.00000   0.00517   0.00516   0.00290
   D43       -3.12570  -0.00027   0.00000  -0.01265  -0.01268  -3.13838
   D44       -3.11551   0.00009   0.00000   0.01768   0.01755  -3.09796
   D45        0.03354   0.00022   0.00000   0.02339   0.02330   0.05684
   D46        0.00093  -0.00012   0.00000  -0.00372  -0.00371  -0.00277
   D47       -3.13320   0.00000   0.00000   0.00199   0.00204  -3.13116
   D48        0.00273  -0.00021   0.00000  -0.00462  -0.00460  -0.00188
   D49        3.12721   0.00026   0.00000   0.01235   0.01221   3.13942
   D50       -0.00210   0.00012   0.00000   0.00213   0.00212   0.00003
   D51        3.13677   0.00000   0.00000  -0.00108  -0.00106   3.13571
   D52        0.00077   0.00000   0.00000   0.00100   0.00102   0.00178
   D53        3.13484  -0.00013   0.00000  -0.00476  -0.00479   3.13005
   D54       -3.13824   0.00011   0.00000   0.00407   0.00410  -3.13414
   D55       -0.00417  -0.00002   0.00000  -0.00169  -0.00171  -0.00587
   D56       -3.10276   0.00016   0.00000   0.01556   0.01557  -3.08720
   D57        1.11730   0.00027   0.00000   0.02501   0.02503   1.14233
   D58       -0.92054   0.00089   0.00000   0.03123   0.03125  -0.88930
   D59        1.03193  -0.00070   0.00000  -0.01182  -0.01183   1.02010
   D60       -1.03119  -0.00059   0.00000  -0.00238  -0.00237  -1.03355
   D61       -3.06903   0.00004   0.00000   0.00384   0.00385  -3.06518
   D62       -1.00043  -0.00065   0.00000  -0.01567  -0.01570  -1.01613
   D63       -3.06355  -0.00054   0.00000  -0.00623  -0.00624  -3.06979
   D64        1.18179   0.00009   0.00000   0.00000  -0.00002   1.18177
   D65       -3.02904   0.00114   0.00000   0.03126   0.03140  -2.99764
   D66        1.22859  -0.00057   0.00000  -0.00447  -0.00454   1.22404
   D67       -0.95240   0.00113   0.00000   0.02196   0.02206  -0.93034
   D68       -2.97796  -0.00057   0.00000  -0.01377  -0.01388  -2.99184
   D69        1.12834   0.00026   0.00000   0.01814   0.01821   1.14655
   D70       -0.89722  -0.00144   0.00000  -0.01759  -0.01773  -0.91495
         Item               Value     Threshold  Converged?
 Maximum Force            0.014954     0.000450     NO 
 RMS     Force            0.002646     0.000300     NO 
 Maximum Displacement     0.845665     0.001800     NO 
 RMS     Displacement     0.179637     0.001200     NO 
 Predicted change in Energy=-2.725731D-03
 GradGradGradGradGradGradGradGradGradGradGradGradGradGradGradGradGradGrad

                          Input orientation:                          
 ---------------------------------------------------------------------
 Center     Atomic      Atomic             Coordinates (Angstroms)
 Number     Number       Type             X           Y           Z
 ---------------------------------------------------------------------
      1          8           0       -1.509502   -0.102734   -1.157838
      2          6           0       -1.672745   -0.091445    0.063017
      3          7           0       -0.625754   -0.253725    0.922934
      4          6           0        0.731631   -0.386364    0.428536
      5          6           0        1.557250   -1.088876    1.490014
      6          8           0        2.384586   -2.013685    0.974743
      7          8           0        1.496492   -0.823298    2.673506
      8          6           0        1.357264    1.003303    0.115261
      9          6           0        2.727008    0.916238   -0.464837
     10          6           0        3.980085    1.122588    0.067029
     11          7           0        4.962626    0.854385   -0.864490
     12          6           0        4.320833    0.485806   -1.953532
     13          7           0        2.964586    0.504290   -1.765829
     14          6           0       -3.025947    0.130641    0.717399
     15          6           0       -4.163786   -0.551465   -0.044694
     16          7           0       -5.444897   -0.234376    0.598762
     17          1           0       -0.757648   -0.203654    1.924531
     18          1           0        0.709063   -0.984639   -0.483362
     19          1           0        2.928158   -2.364009    1.702140
     20          1           0        1.391286    1.582912    1.042021
     21          1           0        0.667809    1.506123   -0.570604
     22          1           0        4.223134    1.448834    1.068730
     23          1           0        4.772931    0.203955   -2.893635
     24          1           0        2.259605    0.272962   -2.451075
     25          1           0       -3.027483   -0.205335    1.759408
     26          1           0       -3.198736    1.216526    0.735266
     27          1           0       -4.025222   -1.637424    0.003994
     28          1           0       -4.101582   -0.266384   -1.102550
     29          1           0       -6.195337   -0.784762    0.191025
     30          1           0       -5.685685    0.743751    0.454771
 ---------------------------------------------------------------------
                    Distance matrix (angstroms):
                    1          2          3          4          5
     1  O    0.000000
     2  C    1.231772   0.000000
     3  N    2.265705   1.364545   0.000000
     4  C    2.760381   2.449817   1.450695   0.000000
     5  C    4.169960   3.669340   2.405112   1.517203   0.000000
     6  O    4.833586   4.581286   3.487447   2.383018   1.343600
     7  O    4.922846   4.170651   2.809421   2.411600   1.214444
     8  C    3.326025   3.222135   2.482904   1.555870   2.511404
     9  C    4.412093   4.544434   3.812575   2.544880   3.034840
    10  C    5.756499   5.781728   4.882680   3.600011   3.575694
    11  N    6.549089   6.766315   5.970995   4.594855   4.573460
    12  C    5.913740   6.350013   5.769722   4.395146   4.687753
    13  N    4.555831   5.020401   4.549129   3.254934   3.888353
    14  C    2.422928   1.519438   2.439448   3.803961   4.805189
    15  C    2.913018   2.535450   3.680031   4.921007   5.947638
    16  N    4.311647   3.812687   4.830072   6.180742   7.110173
    17  H    3.174345   2.077313   1.011484   2.118805   2.516183
    18  H    2.480868   2.601795   2.072110   1.090871   2.150465
    19  H    5.743315   5.386982   4.206037   3.218366   1.884237
    20  H    4.011901   3.626321   2.730543   2.165539   2.714165
    21  H    2.770189   2.903772   2.645944   2.140995   3.430928
    22  H    6.342561   6.176188   5.141174   3.996047   3.704644
    23  H    6.525029   7.097590   6.627327   5.264732   5.588237
    24  H    4.002472   4.681541   4.470641   3.325895   4.228485
    25  H    3.290155   2.173943   2.543685   3.991857   4.676857
    26  H    2.859686   2.119282   2.969359   4.255716   5.338906
    27  H    3.167645   2.815614   3.783577   4.936905   5.802857
    28  H    2.597830   2.699704   4.022950   5.071348   6.278556
    29  H    4.923581   4.577217   5.642513   6.942479   7.866541
    30  H    4.556045   4.117609   5.178516   6.516117   7.542569
                    6          7          8          9         10
     6  O    0.000000
     7  O    2.256441   0.000000
     8  C    3.300957   3.146502   0.000000
     9  C    3.282391   3.793329   1.490064   0.000000
    10  C    3.633975   4.092484   2.625975   1.376831   0.000000
    11  N    4.272575   5.229352   3.739081   2.271902   1.380235
    12  C    4.309444   5.576750   3.651089   2.223008   2.145756
    13  N    3.766608   4.860606   2.524084   1.385181   2.184697
    14  C    5.825652   5.018845   4.509617   5.925481   7.105732
    15  C    6.786642   6.285002   5.738021   7.057883   8.314901
    16  N    8.037916   7.268719   6.930729   8.320768   9.537000
    17  H    3.748592   2.454806   3.033654   4.371048   5.258835
    18  H    2.447934   3.257589   2.174954   2.772323   3.929748
    19  H    0.973295   2.316680   4.040381   3.936530   3.992055
    20  H    3.731848   2.909065   1.093613   2.121139   2.804352
    21  H    4.210044   4.078868   1.094800   2.144633   3.394827
    22  H    3.921496   3.895185   3.053000   2.207686   1.081163
    23  H    5.058307   6.540898   4.621600   3.254567   3.199691
    24  H    4.120753   5.295796   2.816682   2.139488   3.165875
    25  H    5.759888   4.656587   4.836324   6.270515   7.330316
    26  H    6.454850   5.473831   4.602934   6.053499   7.210467
    27  H    6.493809   6.186956   5.996413   7.234196   8.467974
    28  H    7.031258   6.775485   5.735344   6.959520   8.283146
    29  H    8.702847   8.082601   7.761746   9.106689  10.353385
    30  H    8.544184   7.678678   7.055902   8.464563   9.680959
                   11         12         13         14         15
    11  N    0.000000
    12  C    1.316724   0.000000
    13  N    2.219717   1.369299   0.000000
    14  C    8.175786   7.825292   6.495577   0.000000
    15  C    9.270377   8.758331   7.408821   1.529946   0.000000
    16  N   10.566127  10.119404   8.766774   2.449210   1.468273
    17  H    6.451327   6.426951   5.289137   2.591158   3.949759
    18  H    4.649738   4.167552   2.991491   4.078722   4.911693
    19  H    4.591810   4.839931   4.500587   6.530264   7.525451
    20  H    4.113394   4.331193   3.394514   4.661160   6.049408
    21  H    4.353916   4.037093   2.776224   4.146653   5.277742
    22  H    2.153499   3.173490   3.242041   7.376329   8.693753
    23  H    2.139269   1.080567   2.152268   8.594616   9.410209
    24  H    3.187730   2.131082   1.009986   6.164134   6.908713
    25  H    8.476419   8.262043   6.988259   1.094836   2.160041
    26  H    8.324553   8.019196   6.689492   1.099692   2.159966
    27  H    9.367219   8.831571   7.521744   2.152568   1.095845
    28  H    9.136338   8.498650   7.138951   2.151008   1.097361
    29  H   11.327006  10.807558   9.454900   3.340669   2.058443
    30  H   10.730294  10.295478   8.933957   2.742095   2.059909
                   16         17         18         19         20
    16  N    0.000000
    17  H    4.871233   0.000000
    18  H    6.293259   2.925599   0.000000
    19  H    8.709812   4.278055   3.406385   0.000000
    20  H    7.087482   2.930624   3.063420   4.286715   0.000000
    21  H    6.462346   3.343794   2.492630   5.025183   1.769145
    22  H    9.824707   5.317076   4.547469   4.076266   2.835146
    23  H   10.807079   7.346303   4.872083   5.578420   5.369026
    24  H    8.301701   5.336376   2.803147   4.964854   3.830362
    25  H    2.681760   2.275834   4.427088   6.335046   4.820580
    26  H    2.677497   3.064339   4.647696   7.161976   4.614827
    27  H    2.082731   4.052308   4.803863   7.194519   6.386440
    28  H    2.167944   4.510993   4.903223   7.853888   6.179861
[...]
 0276,-0.00012196,-0.00006017,-0.00009225,0.00017899,-0.00000143,-0.000
 01176,-0.00001996,0.00002492,0.00001890,0.00011619,-0.00079843,0.00070
 871,0.00002780,0.00002206,0.00002472,0.00002192,-0.00032421,0.00011680
 ,0.00028569,-0.00021194,-0.00060400,-0.00005783,0.00176193,-0.00003501
 ,0.00010235,-0.00120764,0.00000453,0.04480443,0.02718273,-0.00436404,-
 0.00204798,0.00225395,0.00096074,0.00107918,-0.00639412,0.00105816,-0.
 00042759,0.00150678,-0.00009158,0.00030355,-0.00065390,-0.00073726,0.0
 0071540,-0.00040476,0.00057125,-0.00032045,0.00019109,0.00027592,-0.00
 031039,0.00035814,0.00001073,-0.00008886,0.00088820,-0.02850624,-0.002
 40783,0.00833781,-0.00465440,-0.00067200,-0.00726836,0.00643760,-0.000
 16160,-0.00394224,0.01832235,0.00321763,0.01489032,-0.04183225,-0.0082
 6428,-0.08074939,-0.00035062,0.00016632,0.00067354,0.00029269,0.000208
 03,0.00039519,-0.00026370,-0.00010728,-0.00009688,0.00010179,-0.000030
 76,-0.00016155,-0.00002666,0.00060163,-0.00032260,-0.00004628,0.000019
 95,-0.00002048,0.00016467,-0.00007600,0.00026089,0.00027231,-0.0004062
 0,-0.00064856,-0.00127673,-0.00007974,0.00079104,-0.00050012,-0.000029
 91,-0.00047564,0.05459859,0.00906393,0.07043264,-0.00889293,0.00162437
 ,0.00320312,-0.00000612,-0.00779331,0.03192717,0.00045504,0.00012853,-
 0.00141173,0.00035501,-0.00010984,-0.00004987,-0.00017259,0.00001321,0
 .00016248,0.00016257,-0.00006520,-0.00000822,0.00018445,-0.00001232,-0
 .00014025,0.00003664,-0.00003584,0.00001675,0.00013403,0.00003288,0.00
 020584,-0.00008725,0.00000097,0.00002556,-0.00018615,-0.00001097,-0.00
 006326,0.00016196,-0.00001991,-0.00023482,-0.00045899,-0.00010252,0.00
 017831,-0.06211207,-0.00706131,0.05245606,0.00355407,0.00293042,-0.019
 92082,0.00154782,0.00054462,0.00059577,-0.00217616,0.00070679,-0.00050
 861,0.00018466,-0.00006551,0.00006927,-0.00001462,0.00000175,-0.000003
 07,-0.00000795,0.00002234,-0.00002330,0.00002500,0.00003351,0.00002603
 ,-0.00001736,-0.00000158,-0.00000088,-0.00000118,0.00000154,0.00000183
 ,0.00067487,0.00022746,-0.00030295,0.06710868,0.00126765,0.00231347,-0
 .00065930,0.00089740,-0.00231575,-0.00546309,-0.00015815,-0.00039125,-
 0.00027307,-0.00010395,-0.00004902,-0.00017240,0.00004058,-0.00000956,
 0.00002561,-0.00005148,0.00002967,-0.00001660,-0.00006876,-0.00005612,
 -0.00003553,-0.00003724,0.00003807,-0.00000462,-0.00000061,-0.00002102
 ,-0.00000206,0.00000293,-0.00000632,-0.00000022,0.00000035,0.00000527,
 0.00000231,0.00001144,0.00000090,0.00000832,0.00004922,-0.00000418,-0.
 00002922,-0.00881262,-0.05687373,0.04631808,0.00357111,0.00272628,-0.0
 2108431,0.00115703,0.00031944,0.00122826,0.00052294,0.00080826,0.00008
 651,0.00005039,-0.00000719,-0.00000958,0.00000734,0.00000810,0.0000070
 6,-0.00002257,-0.00000115,0.00000133,-0.00000025,-0.00000673,0.0000248
 5,-0.00000015,0.00000205,-0.00000046,0.00000089,-0.00000159,-0.0000012
 7,-0.00005562,0.00001559,0.00003646,0.01030485,0.05826686,0.00164848,-
 0.00009528,0.00169092,-0.00279145,0.00133588,-0.00654820,-0.00148521,0
 .00007079,0.00078918,0.00040693,-0.00030901,0.00047644,0.00025693,0.00
 002453,-0.00021634,-0.00009407,0.00001960,0.00004958,-0.00014012,-0.00
 002742,0.00013263,-0.00004619,0.00004216,0.00000126,-0.00006795,-0.000
 03674,-0.00008360,0.00005357,-0.00000100,-0.00000771,0.00007699,0.0000
 1075,0.00005247,-0.00009473,-0.00000047,0.00009926,0.00012742,0.000013
 60,-0.00008391,0.05602445,0.04484811,-0.29202798,0.00413936,0.00251914
 ,-0.02034119,0.00061886,0.00093225,0.00236258,0.00010112,-0.00008335,0
 .00117927,-0.00010714,0.00005504,0.00004569,0.00001881,-0.00000648,-0.
 00000059,0.00000857,-0.00001366,0.00001385,-0.00000890,-0.00001602,-0.
 00001670,0.00000950,0.00000040,0.00000134,-0.00000458,-0.00000089,0.00
 000403,-0.00024421,-0.00005018,0.00009182,-0.05751715,-0.04688698,0.31
 777538,0.00095381,-0.00374405,-0.00049900,-0.00814473,0.03510993,-0.00
 808214,-0.00411991,-0.00099192,0.00091525,-0.00054900,-0.00138499,-0.0
 0092238,-0.00000899,-0.00028098,0.00030274,-0.00014116,0.00013868,-0.0
 0011098,-0.00003756,0.00007025,-0.00016721,-0.00035630,0.00034962,-0.0
 0012025,-0.00003374,-0.00007925,-0.00005138,0.00001967,-0.00002674,0.0
 0000753,-0.00001836,0.00001198,0.00004625,-0.00002882,0.00000493,0.000
 00568,-0.00002772,-0.00001045,0.00004140,-0.05610637,0.05403759,-0.007
 84322,0.00295856,-0.02038273,0.00366003,0.00203372,-0.00007070,0.00055
 866,-0.00002741,0.00061161,0.00047200,0.00014174,-0.00001706,0.0000171
 6,-0.00000176,0.00001648,0.00000968,-0.00008137,-0.00010999,0.00003018
 ,-0.00001624,-0.00000066,-0.00000282,0.00000237,0.00000397,-0.00000183
 ,-0.00000316,0.00000250,0.00000588,0.00008019,-0.00000551,-0.00008829,
 0.00148761,-0.00708270,0.00111483,0.06361935,-0.00035832,0.00166821,-0
 .00048128,0.00100167,-0.00475798,0.00293020,0.00089267,0.00001765,-0.0
 0091740,-0.00017915,0.00000295,0.00012456,-0.00003938,0.00002117,-0.00
 003692,0.00007101,-0.00002981,0.00003237,0.00005793,0.00000512,0.00000
 726,0.00006076,-0.00005379,0.00002818,0.00002430,0.00002230,0.00004663
 ,-0.00001644,0.00000707,-0.00000579,-0.00000491,-0.00000027,-0.0000233
 1,0.00002353,0.00000098,-0.00001682,-0.00001032,0.00001502,-0.00000792
 ,0.05276427,-0.28145789,0.05315054,0.00265871,-0.02202067,0.00303174,0
 .00114762,0.00229172,0.00024630,-0.00019695,-0.00001591,-0.00021920,0.
 00001564,-0.00002108,-0.00001318,-0.00000608,-0.00000456,-0.00000470,0
 .00003070,0.00001162,-0.00001618,0.00001782,-0.00002556,0.00000026,-0.
 00000237,-0.00000355,0.00000060,0.00000235,-0.00000467,-0.00000240,0.0
 0004266,-0.00002419,0.00001170,0.00079510,-0.00397704,0.00076331,-0.05
 532297,0.30788441,0.00085480,0.00093066,-0.00034238,-0.00027918,-0.005
 91469,0.00001368,-0.00050654,-0.00003549,0.00013369,-0.00002736,-0.000
 40171,0.00005006,0.00013279,0.00000562,-0.00005943,-0.00007535,0.00002
 382,0.00000644,-0.00010650,-0.00002537,0.00002785,-0.00010106,0.000125
 16,0.00001748,-0.00003400,-0.00004911,-0.00001513,0.00001448,-0.000009
 43,0.00000066,0.00001017,0.00001195,0.00000757,-0.00001082,-0.00000070
 ,0.00002833,0.00002535,0.00000159,-0.00003499,-0.00827772,0.05388123,-
 0.05842276,0.00248628,-0.02169907,0.00321212,0.00162967,0.00080662,0.0
 0025040,0.00052754,0.00045212,0.00046602,0.00001504,0.00001384,0.00003
 577,0.00001012,0.00000281,0.00000231,-0.00001516,-0.00001101,0.0000060
 1,0.00000426,-0.00001319,0.00001484,0.00000078,0.00000046,-0.00000088,
 0.00000290,-0.00000298,-0.00000229,-0.00008405,-0.00000497,0.00005835,
 -0.00750120,0.02926724,-0.00554377,0.01315169,-0.05545247,0.06023981,-
 0.00037109,0.00052508,0.00036937,0.00182831,-0.00128598,0.00005985,-0.
 00001519,0.00037537,-0.00008890,-0.00005657,-0.00003187,-0.00004285,-0
 .00002751,0.00000039,-0.00002558,0.00000996,0.00000095,0.00000761,0.00
 001148,0.00000695,0.00002410,0.00001641,-0.00002444,0.00000151,0.00000
 200,0.00001288,0.00000302,-0.00000345,0.00000189,0.00000063,0.00000124
 ,-0.00000042,-0.00000276,-0.00000142,-0.00000019,-0.00000097,-0.000008
 27,0.00001117,0.00000502,0.00229845,-0.01959286,0.00454156,-0.05459113
 ,0.03508490,-0.00814811,-0.01327531,0.03729485,-0.00611525,0.00000509,
 -0.00012586,-0.00007148,-0.00001539,-0.00001489,0.00000847,-0.00000415
 ,-0.00000150,-0.00000452,0.00000686,0.00000536,-0.00000040,0.00000371,
 0.00000090,0.00000025,0.00000063,-0.00000184,-0.00000024,0.00000015,-0
 .00000271,0.00000011,0.00001398,-0.00002276,-0.00000368,0.00051115,0.0
 0092533,0.00031289,-0.00222446,-0.00255126,-0.00276491,0.06944552,-0.0
 0089104,0.00040201,0.00047690,0.00200334,-0.00084069,-0.00023626,-0.00
 072473,0.00066471,-0.00029234,-0.00002901,-0.00010943,-0.00014075,-0.0
 0007271,-0.00007380,0.00010778,0.00000474,0.00003427,-0.00002828,0.000
 04685,0.00007520,-0.00005328,-0.00001334,-0.00001910,-0.00000601,0.000
 01597,0.00000995,0.00001325,-0.00000745,0.00000454,0.00000133,-0.00002
 183,0.00000616,0.00000032,0.00001388,0.00000088,-0.00001960,-0.0000465
 2,0.00001965,0.00002103,0.00035881,-0.01792168,0.00379827,0.04214256,-
 0.28444554,0.05879157,0.00369828,-0.00523089,0.00039580,-0.00005318,-0
 .00023268,-0.00003142,-0.00004093,-0.00002475,0.00002418,-0.00001659,-
 0.00001154,-0.00000775,-0.00000626,-0.00000114,-0.00000098,0.00000437,
 0.00001853,0.00000489,-0.00000097,-0.00000491,-0.00000014,0.00000052,-
 0.00000813,0.00000147,0.00007222,-0.00003899,-0.00003374,0.00035537,0.
 00087075,-0.00014986,-0.00239003,-0.00080705,-0.00249649,-0.04622666,0
 .30948581,0.00033747,-0.00016435,0.00019393,0.00092751,-0.00006429,0.0
 0053368,0.00024933,0.00019829,-0.00001127,-0.00008159,-0.00001529,-0.0
 0001943,-0.00009693,0.00001577,0.00005964,0.00006863,-0.00003575,-0.00
 000747,0.00007507,0.00001090,-0.00003675,0.00001040,-0.00002896,-0.000
 01010,0.00000185,0.00000713,0.00000251,-0.00000089,0.00000300,0.000000
 19,0.00000934,-0.00000690,-0.00000700,-0.00000388,-0.00000095,-0.00000
 108,0.00001242,-0.00001031,-0.00000047,0.00210754,-0.01984258,0.003709
 42,-0.00932987,0.06256296,-0.06732995,0.00132207,-0.00778889,0.0022449
 6,-0.00011519,-0.00010210,-0.00005740,0.00004425,-0.00000360,-0.000000
 77,-0.00000706,0.00000596,0.00000113,0.00000403,0.00000051,0.00000008,
 0.00000100,-0.00000275,-0.00000154,-0.00000053,0.00000083,0.00000021,-
 0.00000129,0.00000635,-0.00000128,-0.00002777,0.00001685,0.00000318,0.
 00083148,0.00006488,0.00099318,-0.00267594,-0.00296239,-0.00154798,0.0
 1068165,-0.06168357,0.06659833,-0.00067448,-0.00004548,0.00111152,0.00
 116663,0.00046329,-0.00267546,-0.00025430,-0.00012866,0.00053458,0.000
 05141,0.00004311,0.00008293,0.00008574,-0.00002013,-0.00002142,-0.0000
 5837,0.00002476,-0.00000134,-0.00005775,0.00000683,0.00002171,-0.00000
 167,0.00000044,-0.00001083,-0.00001770,-0.00000277,-0.00003824,0.00002
 138,-0.00000146,-0.00000193,0.00001947,0.00000331,0.00002203,-0.000029
 09,0.00000102,0.00003450,0.00003805,0.00000778,-0.00001548,0.00346192,
 0.00225767,-0.01906807,-0.06012342,-0.00726685,0.05313483,-0.02238970,
 -0.00164970,0.03381575,0.00032010,-0.00013822,0.00010276,-0.00007378,0
 .00002342,-0.00001797,0.00000851,-0.00000371,0.00000349,-0.00000157,-0
 .00000600,0.00000371,-0.00000234,0.00000105,-0.00000398,0.00000337,0.0
 0000045,-0.00000055,-0.00000106,-0.00000079,0.00000223,-0.00008108,-0.
 00001977,0.00000644,-0.00265045,-0.00258780,-0.00248523,0.00074022,0.0
 0018544,0.00086569,0.00246271,0.00038194,-0.00513591,0.07585838,0.0001
 0249,-0.00058179,0.00055092,0.00074239,0.00024786,-0.00077355,-0.00017
 335,0.00036344,0.00013700,-0.00002083,0.00010069,0.00008727,-0.0000018
 7,-0.00002415,0.00003102,-0.00001258,0.00000638,-0.00001026,0.00000140
 ,0.00003111,-0.00000857,0.00001085,-0.00000336,-0.00000649,-0.00001017
 ,-0.00000168,-0.00001562,0.00000749,-0.00000049,-0.00000277,0.00001050
 ,-0.00000469,0.00000698,-0.00001159,-0.00000236,0.00001597,0.00001860,
 -0.00002176,-0.00000808,0.00130694,0.00211063,-0.02093326,-0.00734655,
 -0.06181148,0.03988652,0.00429191,0.00418977,-0.00767924,0.00015840,-0
 .00021537,0.00003435,-0.00005666,0.00000693,-0.00001344,-0.00000202,-0
 .00000331,-0.00000096,0.00000124,-0.00000446,0.00000177,0.00000256,0.0
 0000030,-0.00000859,0.00000087,0.00000180,-0.00000039,-0.00000047,0.00
 000821,-0.00000048,-0.00003945,0.00004325,0.00001095,-0.00243183,-0.00
 151954,-0.00286251,0.00104652,0.00113090,0.00015723,-0.00619358,-0.004
 26492,0.03042381,0.00928444,0.05973343,0.00090115,0.00055861,0.0032497
 8,0.00239891,0.00004323,-0.00439804,-0.00033686,-0.00007438,0.00075415
 ,0.00003221,0.00006553,0.00002054,0.00008039,0.00002737,-0.00012770,-0
 .00006890,0.00002259,0.00001930,-0.00007793,-0.00001817,0.00011472,0.0
 0000676,0.00001591,-0.00002251,-0.00004309,-0.00000583,-0.00007137,0.0
 0003155,-0.00000013,-0.00000270,0.00005773,0.00001014,0.00003989,-0.00
 008294,-0.00000239,0.00005491,0.00008591,0.00001281,-0.00001855,0.0006
 5541,0.00273923,-0.02054524,0.04950657,0.03785973,-0.27936446,0.007567
 30,-0.00149107,0.00145482,0.00017880,-0.00017974,0.00016698,-0.0000695
 3,0.00002492,-0.00000771,0.00000505,-0.00000124,-0.00000512,0.00000547
 ,-0.00000897,0.00000927,-0.00000789,-0.00000619,-0.00001162,0.00000753
 ,0.00000015,0.00000252,-0.00000820,-0.00000359,0.00000815,-0.00014151,
 -0.00003223,-0.00000016,-0.00204039,-0.00266075,-0.00100152,0.00045019
 ,-0.00000478,0.00115601,0.00079508,0.00171159,-0.00631339,-0.06083725,
 -0.03809302,0.30347017,-0.00020561,0.00020783,0.00065226,0.00037762,-0
 .00155863,-0.00214321,-0.00073598,0.00021113,0.00014102,0.00009373,0.0
 0012192,-0.00013603,-0.00000786,-0.00005848,0.00010852,-0.00005766,0.0
 0005047,-0.00004595,-0.00001515,0.00003894,-0.00004431,0.00001235,0.00
 002438,-0.00001674,0.00001007,-0.00000691,0.00000173,0.00000486,-0.000
 00045,0.00000251,-0.00001718,0.00000325,0.00002140,-0.00000085,-0.0000
 0038,-0.00001329,-0.00003612,-0.00000569,0.00000717,-0.00700919,0.0027
 3250,0.00288531,-0.01997074,-0.02574729,-0.01876351,-0.17872402,-0.140
 13376,-0.09615797,-0.00001599,-0.00008379,0.00005697,-0.00004000,0.000
 00107,-0.00000029,-0.00000601,-0.00000447,-0.00000226,-0.00000997,-0.0
 0000428,0.00000105,0.00000633,0.00001104,0.00000613,0.00000073,0.00000
 007,0.00000042,-0.00000346,-0.00000216,0.00000426,0.00006226,0.0000136
 4,-0.00005110,0.00021043,0.00027839,0.00005794,0.00030776,0.00012206,0
 .00039701,0.00114070,0.00045501,-0.00056388,0.00064103,-0.00054103,0.0
 0054115,0.19694896,0.00014164,-0.00009615,-0.00001102,-0.00002414,0.00
 096568,-0.00000547,0.00020665,-0.00025767,0.00018135,-0.00005999,-0.00
 007584,0.00001932,-0.00000302,0.00005540,-0.00010057,0.00002681,-0.000
 03361,0.00003043,-0.00000054,-0.00004428,0.00006138,-0.00000598,-0.000
 00247,0.00000523,-0.00001051,-0.00000003,-0.00001226,0.00000220,-0.000
 00187,-0.00000129,0.00002248,-0.00000185,-0.00000189,-0.00001970,-0.00
 000162,0.00001161,0.00003603,0.00000038,0.00000038,0.00224143,0.000576
 39,0.00020770,0.00756339,0.00681403,0.00286010,-0.14252044,-0.23060027
 ,-0.10661407,0.00002152,0.00006595,-0.00003309,0.00002833,0.00000081,-
 0.00000061,0.00000502,0.00000836,0.00000067,0.00000843,0.00000264,0.00
 000122,-0.00000467,-0.00001040,-0.00000331,0.00000122,0.00000148,0.000
 00103,-0.00000180,0.00000232,0.00000040,-0.00005114,-0.00000454,0.0000
 1123,0.00002788,-0.00008707,-0.00000869,0.00012087,0.00030856,-0.00007
 046,0.00039469,0.00049251,0.00031878,0.00035184,-0.00036608,0.00011404
 ,0.15467685,0.24582113,-0.00043618,0.00009824,0.00040240,0.00081674,-0
 .00089897,0.00006495,-0.00043717,0.00031206,-0.00028169,0.00014168,0.0
 0003506,-0.00006278,0.00002801,-0.00011300,0.00019289,-0.00006263,0.00
 006083,-0.00006183,-0.00001179,0.00008052,-0.00012341,-0.00000826,0.00
 000781,-0.00001154,0.00002455,-0.00000149,0.00003200,-0.00000468,-0.00
 000144,0.00000444,-0.00005697,-0.00000124,0.00000595,0.00005099,0.0000
 0081,-0.00003037,-0.00009817,-0.00001256,0.00000473,-0.00209501,-0.000
 06598,-0.00026050,0.01230631,0.00642777,-0.00166217,-0.12921893,-0.144
 27554,-0.09658329,-0.00000967,-0.00007745,0.00007761,-0.00003248,-0.00
 000192,0.00000601,-0.00000130,-0.00001334,0.00000603,-0.00001783,-0.00
 000626,-0.00000278,0.00000720,0.00002158,0.00000739,-0.00000271,-0.000
 00100,-0.00000309,0.00000384,-0.00000026,-0.00000178,0.00012123,0.0000
 2780,-0.00003300,0.00027111,-0.00000756,0.00038105,0.00023239,0.000137
 95,-0.00005011,-0.00072381,0.00018280,0.00049227,0.00088405,0.00059372
 ,0.00042207,0.10879369,0.12306970,0.09493124,0.00026672,-0.00015496,-0
 .00007615,-0.00035755,-0.00030255,0.00036146,0.00042976,-0.00012084,0.
 00008821,-0.00004428,0.00008042,0.00009107,-0.00003600,0.00006727,-0.0
 0006633,0.00005453,-0.00004145,0.00002601,0.00002570,-0.00003642,0.000
 03812,0.00000769,-0.00000423,0.00000798,-0.00001601,0.00000195,-0.0000
 1826,0.00000098,-0.00000044,-0.00000046,0.00003537,-0.00000042,-0.0000
 0912,-0.00002979,-0.00000136,0.00002010,0.00005903,-0.00000300,-0.0000
 0422,0.00092349,0.00124714,-0.00018538,-0.01022050,0.03684329,-0.01415
 025,-0.08289507,0.07629795,-0.03689715,-0.00001975,0.00003763,-0.00003
 492,0.00001100,0.00000646,-0.00001288,-0.00000410,0.00000633,-0.000002
 83,0.00001047,0.00000292,0.00000134,-0.00000161,-0.00001352,-0.0000079
 9,0.00000096,0.00000104,0.00000162,-0.00000224,0.00000276,0.00000046,-
 0.00007174,0.00001006,0.00002261,-0.00001017,-0.00010593,0.00011029,-0
 .00041794,-0.00122612,-0.00034474,-0.00716437,0.00098736,0.00135669,0.
 00153784,-0.00014463,0.00040732,0.00703899,-0.02317536,0.00953580,0.09
 088860,0.00010719,-0.00005082,-0.00024726,-0.00020154,-0.00000647,0.00
 023500,0.00001639,-0.00000813,-0.00006558,0.00000254,-0.00000061,0.000
 00399,-0.00002523,0.00001212,0.00000853,0.00002079,-0.00001041,0.00000
 096,0.00001599,-0.00000479,-0.00001028,-0.00000543,0.00000099,0.000008
 95,-0.00000344,-0.00000072,-0.00000016,-0.00000278,-0.00000193,-0.0000
 0040,0.00000396,-0.00000152,-0.00001014,0.00000151,0.00000022,0.000005
 75,0.00001062,-0.00000319,-0.00000414,0.00013012,0.00168210,0.00000849
 ,-0.00015077,-0.00558139,0.00444297,0.08055943,-0.35435734,0.10366782,
 -0.00001328,0.00001587,-0.00000294,-0.00000066,0.00000015,-0.00000145,
 -0.00000284,0.00000251,0.00000010,0.00000059,0.00000061,-0.00000062,0.
 00000255,-0.00000212,-0.00000144,-0.00000119,0.00000070,-0.00000030,0.
 00000173,0.00000171,-0.00000167,-0.00000860,0.00000552,0.00001865,-0.0
 0004145,-0.00007743,-0.00008701,0.00037582,-0.00018366,0.00050678,0.00
 143608,0.00195031,-0.00092331,-0.00116548,0.00085074,-0.00062337,0.009
 19876,-0.02353190,0.01442135,-0.09026135,0.37929888,0.00009078,0.00004
 894,-0.00056398,-0.00041175,-0.00041596,0.00063795,0.00010532,-0.00003
 965,-0.00021643,0.00001463,0.00004506,0.00003081,-0.00002425,0.0000186
 1,0.00003241,0.00002667,-0.00001790,-0.00000569,0.00001675,-0.00001980
 ,-0.00003754,-0.00000559,0.00000781,0.00001662,0.00000222,-0.00000240,
 0.00001669,-0.00000957,-0.00000318,0.00000076,-0.00000938,-0.00000462,
 -0.00002406,0.00002595,0.00000094,-0.00000026,-0.00000805,-0.00000218,
 -0.00000898,-0.00052352,0.00085900,-0.00010450,0.00835692,-0.01027075,
 -0.00103424,-0.05180670,0.15306975,-0.06648637,-0.00003298,0.00007207,
 -0.00000308,0.00000392,0.00000016,-0.00000287,0.00000021,0.00000681,0.
 00000435,-0.00000227,0.00000328,-0.00000364,0.00000818,-0.00000519,0.0
 0000262,-0.00000329,0.00000143,-0.00000183,0.00000568,0.00000180,-0.00
 000530,0.00000914,0.00000883,0.00003869,-0.00024427,0.00023609,-0.0002
 6842,-0.00045612,-0.00034686,0.00029233,0.00118234,-0.00035068,0.00051
 317,-0.00031258,-0.00152030,0.00094680,0.00426002,-0.02003181,0.002137
 30,0.03974160,-0.12134930,0.06409665\\0.00001180,0.00000304,-0.0000168
 1,-0.00000778,-0.00000292,0.00001283,-0.00000231,-0.00000526,-0.000001
 56,0.00000576,0.00000480,0.00000757,0.00000779,-0.00000170,-0.00000428
 ,-0.00000506,0.00000085,-0.00000327,-0.00000753,-0.00000037,0.00000198
 ,0.00000563,0.00000063,-0.00000297,-0.00000122,-0.00000002,-0.00000344
 ,0.00000627,0.00000029,-0.00000023,0.00000344,0.00000032,0.00000264,-0
 .00000159,0.00000018,0.00000182,0.00000737,0.00000156,0.00000002,-0.00
 000128,-0.00000639,0.00000228,0.00000030,0.00000485,-0.00000352,-0.000
 00098,-0.00000044,0.00000188,-0.00000016,0.00000200,0.00000511,-0.0000
 0084,-0.00000058,-0.00000117,0.00000188,-0.00000056,0.00000237,-0.0000
 0192,0.00000082,0.00000301,-0.00000122,0.00000056,-0.00000155,0.000000
 49,-0.00000002,-0.00000093,-0.00000005,-0.00000087,-0.00000177,-0.0000
 1804,-0.00000480,-0.00000073,0.00000080,0.00000265,-0.00000051,-0.0000
 0022,0.00000345,-0.00000052,0.00000006,-0.00000103,0.00000050,0.000000
 15,-0.00000180,0.00000169,-0.00000083,-0.00000085,-0.00000027,-0.00000
 070,0.00000163,-0.00000018\\\@


 WE DON'T KNOW ONE MILLIONTH OF ONE PERCENT ABOUT
 ANYTHING.
                                     T. A. EDISON.
 Job cpu time:       0 days  2 hours 37 minutes 35.7 seconds.
 File lengths (MBytes):  RWF=    417 Int=      0 D2E=      0 Chk=     13 Scr=      1
 Normal termination of Gaussian 09 at Sat Jul 24 03:14:11 2021.
