 Entering Gaussian System, Link 0=g09
 Input=opt_freq-conf-150.com
 Output=opt_freq-conf-150.log
 Initial command:
 /aerosol/software/g09/l1.exe "/scratch/nicole/10354/Gau-73451.inp" -scrdir="/scratch/nicole/10354/"
 Entering Link 1 = /aerosol/software/g09/l1.exe PID=     73455.
  
 Copyright (c) 1988,1990,1992,1993,1995,1998,2003,2009,2013,
            Gaussian, Inc.  All Rights Reserved.
  
 This is part of the Gaussian(R) 09 program.  It is based on
 the Gaussian(R) 03 system (copyright 2003, Gaussian, Inc.),
 the Gaussian(R) 98 system (copyright 1998, Gaussian, Inc.),
 the Gaussian(R) 94 system (copyright 1995, Gaussian, Inc.),
 the Gaussian 92(TM) system (copyright 1992, Gaussian, Inc.),
 the Gaussian 90(TM) system (copyright 1990, Gaussian, Inc.),
 the Gaussian 88(TM) system (copyright 1988, Gaussian, Inc.),
 the Gaussian 86(TM) system (copyright 1986, Carnegie Mellon
 University), and the Gaussian 82(TM) system (copyright 1983,
 Carnegie Mellon University). Gaussian is a federally registered
 trademark of Gaussian, Inc.
  
 This software contains proprietary and confidential information,
 including trade secrets, belonging to Gaussian, Inc.
  
 This software is provided under written license and may be
 used, copied, transmitted, or stored only in accord with that
 written license.
  
 The following legend is applicable only to US Government
 contracts under FAR:
  
                    RESTRICTED RIGHTS LEGEND
  
 Use, reproduction and disclosure by the US Government is
 subject to restrictions as set forth in subparagraphs (a)
 and (c) of the Commercial Computer Software - Restricted
 Rights clause in FAR 52.227-19.
  
 Gaussian, Inc.
 340 Quinnipiac St., Bldg. 40, Wallingford CT 06492
  
  
 ---------------------------------------------------------------
 Warning -- This program may not be used in any manner that
 competes with the business of Gaussian, Inc. or will provide
 assistance to any competitor of Gaussian, Inc.  The licensee
 of this program is prohibited from giving any competitor of
 Gaussian, Inc. access to this program.  By using this program,
 the user acknowledges that Gaussian, Inc. is engaged in the
 business of creating and licensing software in the field of
 computational chemistry and represents and warrants to the
 licensee that it is not a competitor of Gaussian, Inc. and that
 it will not use this program in any manner prohibited above.
 ---------------------------------------------------------------
  

 Cite this work as:
 Gaussian 09, Revision D.01,
 M. J. Frisch, G. W. Trucks, H. B. Schlegel, G. E. Scuseria, 
 M. A. Robb, J. R. Cheeseman, G. Scalmani, V. Barone, B. Mennucci, 
 G. A. Petersson, H. Nakatsuji, M. Caricato, X. Li, H. P. Hratchian, 
 A. F. Izmaylov, J. Bloino, G. Zheng, J. L. Sonnenberg, M. Hada, 
 M. Ehara, K. Toyota, R. Fukuda, J. Hasegawa, M. Ishida, T. Nakajima, 
 Y. Honda, O. Kitao, H. Nakai, T. Vreven, J. A. Montgomery, Jr., 
 J. E. Peralta, F. Ogliaro, M. Bearpark, J. J. Heyd, E. Brothers, 
 K. N. Kudin, V. N. Staroverov, T. Keith, R. Kobayashi, J. Normand, 
 K. Raghavachari, A. Rendell, J. C. Burant, S. S. Iyengar, J. Tomasi, 
 M. Cossi, N. Rega, J. M. Millam, M. Klene, J. E. Knox, J. B. Cross, 
 V. Bakken, C. Adamo, J. Jaramillo, R. Gomperts, R. E. Stratmann, 
 O. Yazyev, A. J. Austin, R. Cammi, C. Pomelli, J. W. Ochterski, 
 R. L. Martin, K. Morokuma, V. G. Zakrzewski, G. A. Voth, 
 P. Salvador, J. J. Dannenberg, S. Dapprich, A. D. Daniels, 
 O. Farkas, J. B. Foresman, J. V. Ortiz, J. Cioslowski, 
 and D. J. Fox, Gaussian, Inc., Wallingford CT, 2013.
 
 ******************************************
 Gaussian 09:  ES64L-G09RevD.01 24-Apr-2013
                24-Jul-2021 
 ******************************************
 %mem=2gb
 %nproc=4
 Will use up to    4 processors via shared memory.
 %chk=conf-150.chk
 ----------------------------------------------------------------------
 # B3LYP/6-311G(2df,2pd) EmpiricalDispersion=GD3BJ opt=calcfc freq=nora
 man nosymm integral(ultrafinegrid)
 ----------------------------------------------------------------------
 1/10=4,14=-1,18=20,19=15,26=4,38=1/1,3;
 2/9=110,12=2,15=1,17=6,18=5,40=1/2;
 3/5=4,6=6,7=404,11=2,16=1,25=1,30=1,71=2,74=-5,75=-5,124=41,140=1/1,2,3;
 4//1;
 5/5=2,38=5/2;
 8/6=4,10=90,11=11/1;
 11/6=1,8=1,9=11,15=111,16=1,31=1/1,2,10;
 10/6=1,13=1,31=1/2;
 6/7=2,8=2,9=2,10=2,28=1/1;
 7/10=1,18=20,25=1,30=1/1,2,3,16;
 1/10=4,14=-1,18=20,19=15,26=4/3(2);
 2/9=110,15=1/2;
 99//99;
 2/9=110,15=1/2;
 3/5=4,6=6,7=404,11=2,16=1,25=1,30=1,71=1,74=-5,75=-5,124=41/1,2,3;
 4/5=5,16=3,69=1/1;
 5/5=2,38=5/2;
 7/30=1/1,2,3,16;
 1/14=-1,18=20,19=15,26=4/3(-5);
 2/9=110,15=1/2;
 6/7=2,8=2,9=2,10=2,19=2,28=1/1;
 99/9=1/99;
 ------------------------------------------------------------
 Candidate Structure: Conf:150 OPT and FREQ calc in gas phase
 ------------------------------------------------------------
 Symbolic Z-matrix:
 Charge =  0 Multiplicity = 1
 O                    -1.06735  -1.81842  -0.60329 
 C                    -1.26017  -0.71113  -0.11548 
 N                    -0.37381  -0.15491   0.75102 
 C                     0.74849  -0.91195   1.26099 
 C                     1.24686  -0.18699   2.48905 
 O                     2.24552  -0.85447   3.09518 
 O                     0.81057   0.86267   2.89123 
 C                     1.87855  -1.12462   0.22713 
 C                     2.46418   0.14329  -0.29805 
 C                     3.69731   0.71644  -0.1525 
 N                     3.75634   1.9277   -0.81778 
 C                     2.56761   2.08131  -1.35632 
 N                     1.75201   1.03     -1.0682 
 C                    -2.47144   0.14825  -0.43245 
 C                    -3.42446  -0.50714  -1.41911 
 N                    -4.55073   0.39607  -1.66837 
 H                    -0.59336   0.68832   1.26101 
 H                     0.41775  -1.90971   1.56604 
 H                     2.49526  -0.33255   3.86831 
 H                     1.46214  -1.72179  -0.58553 
 H                     2.6673   -1.71113   0.6993 
 H                     4.54572   0.32738   0.3952 
 H                     2.23723   2.91305  -1.95358 
 H                     0.78257   0.92701  -1.32349 
 H                    -2.13351   1.11041  -0.83235 
 H                    -3.0062    0.37498   0.49757 
 H                    -2.89971  -0.67889  -2.36095 
 H                    -3.71838  -1.49025  -1.03227 
 H                    -5.14058   0.44323  -0.845 
 H                    -5.13542   0.02345  -2.40678 
 

 GradGradGradGradGradGradGradGradGradGradGradGradGradGradGradGradGradGrad
 Berny optimization.
 Initialization pass.
                           ----------------------------
                           !    Initial Parameters    !
                           ! (Angstroms and Degrees)  !
 --------------------------                            --------------------------
 ! Name  Definition              Value          Derivative Info.                !
 --------------------------------------------------------------------------------
 ! R1    R(1,2)                  1.2252         calculate D2E/DX2 analytically  !
 ! R2    R(2,3)                  1.3586         calculate D2E/DX2 analytically  !
 ! R3    R(2,14)                 1.5186         calculate D2E/DX2 analytically  !
 ! R4    R(3,4)                  1.4466         calculate D2E/DX2 analytically  !
 ! R5    R(3,17)                 1.0096         calculate D2E/DX2 analytically  !
 ! R6    R(4,5)                  1.5107         calculate D2E/DX2 analytically  !
 ! R7    R(4,8)                  1.5463         calculate D2E/DX2 analytically  !
 ! R8    R(4,18)                 1.0945         calculate D2E/DX2 analytically  !
 ! R9    R(5,6)                  1.3454         calculate D2E/DX2 analytically  !
 ! R10   R(5,7)                  1.2058         calculate D2E/DX2 analytically  !
 ! R11   R(6,19)                 0.9657         calculate D2E/DX2 analytically  !
 ! R12   R(8,9)                  1.4921         calculate D2E/DX2 analytically  !
 ! R13   R(8,20)                 1.0911         calculate D2E/DX2 analytically  !
 ! R14   R(8,21)                 1.0904         calculate D2E/DX2 analytically  !
 ! R15   R(9,10)                 1.3676         calculate D2E/DX2 analytically  !
 ! R16   R(9,13)                 1.3735         calculate D2E/DX2 analytically  !
 ! R17   R(10,11)                1.3832         calculate D2E/DX2 analytically  !
 ! R18   R(10,22)                1.0822         calculate D2E/DX2 analytically  !
 ! R19   R(11,12)                1.314          calculate D2E/DX2 analytically  !
 ! R20   R(12,13)                1.3614         calculate D2E/DX2 analytically  !
 ! R21   R(12,23)                1.0759         calculate D2E/DX2 analytically  !
 ! R22   R(13,24)                1.0078         calculate D2E/DX2 analytically  !
 ! R23   R(14,15)                1.5203         calculate D2E/DX2 analytically  !
 ! R24   R(14,25)                1.0954         calculate D2E/DX2 analytically  !
 ! R25   R(14,26)                1.0965         calculate D2E/DX2 analytically  !
 ! R26   R(15,16)                1.4651         calculate D2E/DX2 analytically  !
 ! R27   R(15,27)                1.0918         calculate D2E/DX2 analytically  !
 ! R28   R(15,28)                1.0966         calculate D2E/DX2 analytically  !
 ! R29   R(16,29)                1.0139         calculate D2E/DX2 analytically  !
 ! R30   R(16,30)                1.0129         calculate D2E/DX2 analytically  !
 ! A1    A(1,2,3)              121.4156         calculate D2E/DX2 analytically  !
 ! A2    A(1,2,14)             123.6309         calculate D2E/DX2 analytically  !
 ! A3    A(3,2,14)             114.9485         calculate D2E/DX2 analytically  !
 ! A4    A(2,3,4)              121.1124         calculate D2E/DX2 analytically  !
 ! A5    A(2,3,17)             121.4815         calculate D2E/DX2 analytically  !
 ! A6    A(4,3,17)             115.3222         calculate D2E/DX2 analytically  !
 ! A7    A(3,4,5)              106.9408         calculate D2E/DX2 analytically  !
 ! A8    A(3,4,8)              113.7809         calculate D2E/DX2 analytically  !
 ! A9    A(3,4,18)             109.9301         calculate D2E/DX2 analytically  !
 ! A10   A(5,4,8)              111.6184         calculate D2E/DX2 analytically  !
 ! A11   A(5,4,18)             108.0944         calculate D2E/DX2 analytically  !
 ! A12   A(8,4,18)             106.3679         calculate D2E/DX2 analytically  !
 ! A13   A(4,5,6)              111.9023         calculate D2E/DX2 analytically  !
 ! A14   A(4,5,7)              124.7182         calculate D2E/DX2 analytically  !
 ! A15   A(6,5,7)              123.3794         calculate D2E/DX2 analytically  !
 ! A16   A(5,6,19)             106.5298         calculate D2E/DX2 analytically  !
 ! A17   A(4,8,9)              113.9092         calculate D2E/DX2 analytically  !
 ! A18   A(4,8,20)             107.1182         calculate D2E/DX2 analytically  !
 ! A19   A(4,8,21)             108.2449         calculate D2E/DX2 analytically  !
 ! A20   A(9,8,20)             110.654          calculate D2E/DX2 analytically  !
 ! A21   A(9,8,21)             109.0            calculate D2E/DX2 analytically  !
 ! A22   A(20,8,21)            107.7091         calculate D2E/DX2 analytically  !
 ! A23   A(8,9,10)             132.265          calculate D2E/DX2 analytically  !
 ! A24   A(8,9,13)             122.849          calculate D2E/DX2 analytically  !
 ! A25   A(10,9,13)            104.8708         calculate D2E/DX2 analytically  !
 ! A26   A(9,10,11)            110.7501         calculate D2E/DX2 analytically  !
 ! A27   A(9,10,22)            127.5957         calculate D2E/DX2 analytically  !
 ! A28   A(11,10,22)           121.654          calculate D2E/DX2 analytically  !
 ! A29   A(10,11,12)           105.1223         calculate D2E/DX2 analytically  !
 ! A30   A(11,12,13)           111.404          calculate D2E/DX2 analytically  !
 ! A31   A(11,12,23)           126.5587         calculate D2E/DX2 analytically  !
 ! A32   A(13,12,23)           122.0373         calculate D2E/DX2 analytically  !
 ! A33   A(9,13,12)            107.8523         calculate D2E/DX2 analytically  !
 ! A34   A(9,13,24)            125.0893         calculate D2E/DX2 analytically  !
 ! A35   A(12,13,24)           126.9841         calculate D2E/DX2 analytically  !
 ! A36   A(2,14,15)            113.0481         calculate D2E/DX2 analytically  !
 ! A37   A(2,14,25)            109.0995         calculate D2E/DX2 analytically  !
 ! A38   A(2,14,26)            109.2064         calculate D2E/DX2 analytically  !
 ! A39   A(15,14,25)           109.58           calculate D2E/DX2 analytically  !
 ! A40   A(15,14,26)           109.5044         calculate D2E/DX2 analytically  !
 ! A41   A(25,14,26)           106.1692         calculate D2E/DX2 analytically  !
 ! A42   A(14,15,16)           109.06           calculate D2E/DX2 analytically  !
 ! A43   A(14,15,27)           109.0502         calculate D2E/DX2 analytically  !
 ! A44   A(14,15,28)           108.9996         calculate D2E/DX2 analytically  !
 ! A45   A(16,15,27)           108.6456         calculate D2E/DX2 analytically  !
 ! A46   A(16,15,28)           113.9951         calculate D2E/DX2 analytically  !
 ! A47   A(27,15,28)           106.9842         calculate D2E/DX2 analytically  !
 ! A48   A(15,16,29)           109.7385         calculate D2E/DX2 analytically  !
 ! A49   A(15,16,30)           109.9378         calculate D2E/DX2 analytically  !
 ! A50   A(29,16,30)           105.8604         calculate D2E/DX2 analytically  !
 ! D1    D(1,2,3,4)             -7.7326         calculate D2E/DX2 analytically  !
 ! D2    D(1,2,3,17)          -170.55           calculate D2E/DX2 analytically  !
 ! D3    D(14,2,3,4)           173.0511         calculate D2E/DX2 analytically  !
 ! D4    D(14,2,3,17)           10.2337         calculate D2E/DX2 analytically  !
 ! D5    D(1,2,14,15)            0.0395         calculate D2E/DX2 analytically  !
 ! D6    D(1,2,14,25)         -122.151          calculate D2E/DX2 analytically  !
 ! D7    D(1,2,14,26)          122.2102         calculate D2E/DX2 analytically  !
 ! D8    D(3,2,14,15)          179.2362         calculate D2E/DX2 analytically  !
 ! D9    D(3,2,14,25)           57.0457         calculate D2E/DX2 analytically  !
 ! D10   D(3,2,14,26)          -58.593          calculate D2E/DX2 analytically  !
 ! D11   D(2,3,4,5)           -162.1572         calculate D2E/DX2 analytically  !
 ! D12   D(2,3,4,8)             74.1256         calculate D2E/DX2 analytically  !
 ! D13   D(2,3,4,18)           -45.0406         calculate D2E/DX2 analytically  !
 ! D14   D(17,3,4,5)             1.6593         calculate D2E/DX2 analytically  !
 ! D15   D(17,3,4,8)          -122.0579         calculate D2E/DX2 analytically  !
 ! D16   D(17,3,4,18)          118.7759         calculate D2E/DX2 analytically  !
 ! D17   D(3,4,5,6)            176.1661         calculate D2E/DX2 analytically  !
 ! D18   D(3,4,5,7)             -3.71           calculate D2E/DX2 analytically  !
 ! D19   D(8,4,5,6)            -58.7944         calculate D2E/DX2 analytically  !
 ! D20   D(8,4,5,7)            121.3295         calculate D2E/DX2 analytically  !
 ! D21   D(18,4,5,6)            57.8457         calculate D2E/DX2 analytically  !
 ! D22   D(18,4,5,7)          -122.0304         calculate D2E/DX2 analytically  !
 ! D23   D(3,4,8,9)             59.2523         calculate D2E/DX2 analytically  !
 ! D24   D(3,4,8,20)           -63.4489         calculate D2E/DX2 analytically  !
 ! D25   D(3,4,8,21)          -179.34           calculate D2E/DX2 analytically  !
 ! D26   D(5,4,8,9)            -61.8885         calculate D2E/DX2 analytically  !
 ! D27   D(5,4,8,20)           175.4103         calculate D2E/DX2 analytically  !
 ! D28   D(5,4,8,21)            59.5192         calculate D2E/DX2 analytically  !
 ! D29   D(18,4,8,9)          -179.5724         calculate D2E/DX2 analytically  !
 ! D30   D(18,4,8,20)           57.7264         calculate D2E/DX2 analytically  !
 ! D31   D(18,4,8,21)          -58.1646         calculate D2E/DX2 analytically  !
 ! D32   D(4,5,6,19)          -179.3425         calculate D2E/DX2 analytically  !
 ! D33   D(7,5,6,19)             0.5355         calculate D2E/DX2 analytically  !
 ! D34   D(4,8,9,10)           112.3787         calculate D2E/DX2 analytically  !
 ! D35   D(4,8,9,13)           -65.9767         calculate D2E/DX2 analytically  !
 ! D36   D(20,8,9,10)         -126.8774         calculate D2E/DX2 analytically  !
 ! D37   D(20,8,9,13)           54.7673         calculate D2E/DX2 analytically  !
 ! D38   D(21,8,9,10)           -8.6089         calculate D2E/DX2 analytically  !
 ! D39   D(21,8,9,13)          173.0358         calculate D2E/DX2 analytically  !
 ! D40   D(8,9,10,11)         -178.7634         calculate D2E/DX2 analytically  !
 ! D41   D(8,9,10,22)            1.0879         calculate D2E/DX2 analytically  !
 ! D42   D(13,9,10,11)          -0.1929         calculate D2E/DX2 analytically  !
 ! D43   D(13,9,10,22)         179.6584         calculate D2E/DX2 analytically  !
 ! D44   D(8,9,13,12)          178.9476         calculate D2E/DX2 analytically  !
 ! D45   D(8,9,13,24)            1.9019         calculate D2E/DX2 analytically  !
 ! D46   D(10,9,13,12)           0.2068         calculate D2E/DX2 analytically  !
 ! D47   D(10,9,13,24)        -176.8389         calculate D2E/DX2 analytically  !
 ! D48   D(9,10,11,12)           0.1026         calculate D2E/DX2 analytically  !
 ! D49   D(22,10,11,12)       -179.759          calculate D2E/DX2 analytically  !
 ! D50   D(10,11,12,13)          0.0338         calculate D2E/DX2 analytically  !
 ! D51   D(10,11,12,23)        179.9779         calculate D2E/DX2 analytically  !
 ! D52   D(11,12,13,9)          -0.1556         calculate D2E/DX2 analytically  !
 ! D53   D(11,12,13,24)        176.8181         calculate D2E/DX2 analytically  !
 ! D54   D(23,12,13,9)         179.8974         calculate D2E/DX2 analytically  !
 ! D55   D(23,12,13,24)         -3.1289         calculate D2E/DX2 analytically  !
 ! D56   D(2,14,15,16)        -179.6173         calculate D2E/DX2 analytically  !
 ! D57   D(2,14,15,27)         -61.1172         calculate D2E/DX2 analytically  !
 ! D58   D(2,14,15,28)          55.3532         calculate D2E/DX2 analytically  !
 ! D59   D(25,14,15,16)        -57.6961         calculate D2E/DX2 analytically  !
 ! D60   D(25,14,15,27)         60.804          calculate D2E/DX2 analytically  !
 ! D61   D(25,14,15,28)        177.2744         calculate D2E/DX2 analytically  !
 ! D62   D(26,14,15,16)         58.3789         calculate D2E/DX2 analytically  !
 ! D63   D(26,14,15,27)        176.879          calculate D2E/DX2 analytically  !
 ! D64   D(26,14,15,28)        -66.6506         calculate D2E/DX2 analytically  !
 ! D65   D(14,15,16,29)        -70.7929         calculate D2E/DX2 analytically  !
 ! D66   D(14,15,16,30)        173.1656         calculate D2E/DX2 analytically  !
 ! D67   D(27,15,16,29)        170.4539         calculate D2E/DX2 analytically  !
 ! D68   D(27,15,16,30)         54.4125         calculate D2E/DX2 analytically  !
 ! D69   D(28,15,16,29)         51.2678         calculate D2E/DX2 analytically  !
 ! D70   D(28,15,16,30)        -64.7736         calculate D2E/DX2 analytically  !
 --------------------------------------------------------------------------------
 Trust Radius=3.00D-01 FncErr=1.00D-07 GrdErr=1.00D-06
 Number of steps in this run=    160 maximum allowed number of steps=    180.
 GradGradGradGradGradGradGradGradGradGradGradGradGradGradGradGradGradGrad

                          Input orientation:                          
 ---------------------------------------------------------------------
 Center     Atomic      Atomic             Coordinates (Angstroms)
 Number     Number       Type             X           Y           Z
 ---------------------------------------------------------------------
      1          8           0       -1.067352   -1.818420   -0.603290
      2          6           0       -1.260171   -0.711133   -0.115475
      3          7           0       -0.373807   -0.154908    0.751020
      4          6           0        0.748491   -0.911949    1.260987
      5          6           0        1.246864   -0.186995    2.489052
      6          8           0        2.245519   -0.854468    3.095176
      7          8           0        0.810575    0.862669    2.891227
      8          6           0        1.878554   -1.124616    0.227129
      9          6           0        2.464176    0.143289   -0.298052
     10          6           0        3.697311    0.716443   -0.152500
     11          7           0        3.756344    1.927702   -0.817782
     12          6           0        2.567610    2.081312   -1.356324
     13          7           0        1.752005    1.029997   -1.068196
     14          6           0       -2.471439    0.148251   -0.432449
     15          6           0       -3.424457   -0.507137   -1.419106
     16          7           0       -4.550733    0.396069   -1.668368
     17          1           0       -0.593358    0.688317    1.261006
     18          1           0        0.417752   -1.909712    1.566043
     19          1           0        2.495261   -0.332548    3.868311
     20          1           0        1.462143   -1.721790   -0.585530
     21          1           0        2.667299   -1.711131    0.699298
     22          1           0        4.545724    0.327378    0.395204
     23          1           0        2.237229    2.913050   -1.953578
     24          1           0        0.782573    0.927013   -1.323490
     25          1           0       -2.133510    1.110413   -0.832347
     26          1           0       -3.006197    0.374981    0.497574
     27          1           0       -2.899706   -0.678894   -2.360952
     28          1           0       -3.718382   -1.490250   -1.032268
     29          1           0       -5.140584    0.443227   -0.844998
     30          1           0       -5.135425    0.023449   -2.406784
 ---------------------------------------------------------------------
                    Distance matrix (angstroms):
                    1          2          3          4          5
     1  O    0.000000
     2  C    1.225245   0.000000
     3  N    2.254425   1.358618   0.000000
     4  C    2.755813   2.443297   1.446626   0.000000
     5  C    4.192818   3.652877   2.376627   1.510655   0.000000
     6  O    5.057961   4.755911   3.584036   2.368258   1.345444
     7  O    4.788162   3.975563   2.649285   2.410561   1.205772
     8  C    3.138364   3.184328   2.507573   1.546328   2.528727
     9  C    4.051316   3.825458   3.040332   2.547097   3.059230
    10  C    5.415788   5.159067   4.260235   3.653101   3.714659
    11  N    6.111258   5.711576   4.884316   4.629478   4.658818
    12  C    5.384043   4.897894   4.253647   4.372541   4.655803
    13  N    4.034649   3.607273   3.038523   3.194258   3.793448
    14  C    2.422486   1.518612   2.427460   3.789419   4.740604
    15  C    2.817971   2.534798   3.760316   4.975969   6.098969
    16  N    4.262898   3.803310   4.858367   6.194660   7.157949
    17  H    3.159747   2.073114   1.009612   2.088398   2.379219
    18  H    2.630566   2.660737   2.090493   1.094522   2.122999
    19  H    5.907219   5.487909   4.240354   3.191402   1.866021
    20  H    2.531403   2.941662   2.759021   2.138871   3.443109
    21  H    3.956750   4.133869   3.416552   2.153140   2.746607
    22  H    6.091639   5.920111   4.955905   4.087113   3.940972
    23  H    5.927085   5.361449   4.852291   5.213481   5.507092
    24  H    3.387966   2.883683   2.609859   3.172139   3.999007
    25  H    3.125256   2.143515   2.684147   4.096086   4.913439
    26  H    3.127623   2.145711   2.697127   4.041864   4.729728
    27  H    2.783058   2.780517   4.042165   5.146075   6.399886
    28  H    2.705490   2.736847   4.018637   5.054345   6.225097
    29  H    4.665264   4.113679   5.062333   6.399444   7.232743
    30  H    4.816045   4.561502   5.716340   6.996283   8.046559
                    6          7          8          9         10
     6  O    0.000000
     7  O    2.247047   0.000000
     8  C    2.904020   3.491031   0.000000
     9  C    3.543632   3.663796   1.492096   0.000000
    10  C    3.888812   4.197487   2.615624   1.367594   0.000000
    11  N    5.033319   4.854749   3.732904   2.263613   1.383197
    12  C    5.342134   4.755413   3.641441   2.210559   2.142028
    13  N    4.596567   4.073244   2.517188   1.373520   2.172793
    14  C    5.974886   4.725339   4.580139   4.937446   6.201184
    15  C    7.255894   6.196033   5.586886   6.029578   7.336281
    16  N    8.393107   7.053456   6.873218   7.151966   8.392302
    17  H    3.715317   2.158482   3.235116   3.475087   4.517591
    18  H    2.606246   3.097824   2.131434   3.446377   4.539338
    19  H    0.965665   2.285039   3.777023   4.193562   4.325763
    20  H    3.861803   4.380846   1.091069   2.136641   3.335937
    21  H    2.579148   3.856997   1.090441   2.115382   2.771209
    22  H    3.738657   4.524158   3.041435   2.201667   1.082199
    23  H    6.299538   5.450829   4.602920   3.234787   3.193870
    24  H    4.983824   4.215301   2.795492   2.119796   3.148215
    25  H    6.201781   4.753316   4.713226   4.728585   5.883526
    26  H    5.986618   4.531574   5.116906   5.532782   6.743605
    27  H    7.501566   6.612714   5.452394   5.805408   7.095411
    28  H    7.280668   6.437507   5.748519   6.436734   7.786912
    29  H    8.471334   7.039290   7.271581   7.630301   8.869194
    30  H    9.247737   8.008004   7.579674   7.887651   9.142170
                   11         12         13         14         15
    11  N    0.000000
    12  C    1.314044   0.000000
    13  N    2.210420   1.361430   0.000000
    14  C    6.488467   5.475608   4.361092   0.000000
    15  C    7.606177   6.527547   5.411255   1.520286   0.000000
    16  N    8.489813   7.321764   6.362907   2.431538   1.465063
    17  H    4.977684   4.333886   3.323049   2.585855   4.077650
    18  H    5.617344   5.393551   4.166693   4.071438   5.063685
    19  H    5.353365   5.755759   5.174751   6.587549   7.939163
    20  H    4.316954   4.034819   2.808793   4.358160   5.103831
    21  H    4.090067   4.314874   3.387562   5.580751   6.561001
    22  H    2.157659   3.171289   3.231111   7.068074   8.216564
    23  H    2.137441   1.075942   2.136641   5.668289   6.636115
    24  H    3.178118   2.125992   1.007760   3.462516   4.445788
    25  H    5.946305   4.828843   3.893497   1.095386   2.151116
    26  H    7.062086   6.116848   5.051848   1.096501   2.150984
    27  H    7.312914   6.206412   5.121517   2.141660   1.091760
    28  H    8.221917   7.237041   6.023128   2.144607   1.096607
    29  H    9.019963   7.896901   6.921121   2.716900   2.043987
    30  H    9.231178   8.042078   7.088135   3.318192   2.045591
                   16         17         18         19         20
    16  N    0.000000
    17  H    4.932288   0.000000
    18  H    6.361123   2.804486   0.000000
    19  H    8.990647   4.168905   3.479069   0.000000
    20  H    6.466262   3.666524   2.399028   4.778496   0.000000
    21  H    7.883281   4.087145   2.418914   3.460164   1.761618
    22  H    9.327839   5.223988   4.838966   4.086854   3.830065
    23  H    7.245203   4.826511   6.241575   6.670447   4.894289
    24  H    5.370754   2.937649   4.065650   5.610222   2.832413
    25  H    2.655596   2.632938   4.624107   6.753061   4.583777
    26  H    2.660327   2.550059   4.252631   6.490647   5.053279
    27  H    2.088327   4.506339   5.285994   8.247989   4.823430
    28  H    2.157691   4.446464   4.902528   7.997832   5.204904
    29  H    1.013946   5.017230   6.499580   9.006844   6.953462
    30  H    1.012901   5.875807   7.096354   9.885895   7.063337
                   21         22         23         24         25
    21  H    0.000000
    22  H    2.788632   0.000000
    23  H    5.348435   4.187079   0.000000
    24  H    3.821475   4.180285   2.541137   0.000000
    25  H    5.775363   6.836095   4.859014   2.962836   0.000000
    26  H    6.048232   7.552765   6.320083   4.239787   1.752465
    27  H    6.436007   8.002712   6.281410   4.149029   2.474936
    28  H    6.619972   8.581195   7.463723   5.117281   3.052088
    29  H    8.245554   9.766069   7.858823   5.962113   3.080227
    30  H    8.575489  10.083063   7.931659   6.083802   3.559753
                   26         27         28         29         30
    26  H    0.000000
    27  H    3.048469   0.000000
    28  H    2.515295   1.758957   0.000000
    29  H    2.522453   2.928960   2.407501   0.000000
    30  H    3.618353   2.343891   2.487687   1.617224   0.000000
 Symmetry turned off by external request.
 Stoichiometry    C9H14N4O3
 Framework group  C1[X(C9H14N4O3)]
 Deg. of freedom    84
 Full point group                 C1      NOp   1
 Rotational constants (GHZ):      0.7284732      0.3114858      0.2544644
 Standard basis: 6-311G(2df,2pd) (5D, 7F)
   676 basis functions,  1006 primitive gaussians,   770 cartesian basis functions
    60 alpha electrons       60 beta electrons
       nuclear repulsion energy      1129.0975961519 Hartrees.
 NAtoms=   30 NActive=   30 NUniq=   30 SFac= 1.00D+00 NAtFMM=   60 NAOKFM=F Big=F
 Integral buffers will be    131072 words long.
 Raffenetti 2 integral format.
 Two-electron integral symmetry is turned off.
 Nuclear repulsion after empirical dispersion term =     1129.0430875942 Hartrees.
 One-electron integrals computed using PRISM.
 NBasis=   676 RedAO= T EigKep=  2.01D-04  NBF=   676
 NBsUse=   676 1.00D-06 EigRej= -1.00D+00 NBFU=   676
 ExpMin= 1.03D-01 ExpMax= 8.59D+03 ExpMxC= 1.30D+03 IAcc=3 IRadAn=         5 AccDes= 0.00D+00
 Harris functional with IExCor=  402 and IRadAn=       5 diagonalized for initial guess.
 HarFok:  IExCor=  402 AccDes= 0.00D+00 IRadAn=         5 IDoV= 1 UseB2=F ITyADJ=14
 ICtDFT=  3500011 ScaDFX=  1.000000  1.000000  1.000000  1.000000
 FoFCou: FMM=F IPFlag=           0 FMFlag=      100000 FMFlg1=           0
         NFxFlg=           0 DoJE=T BraDBF=F KetDBF=T FulRan=T
         wScrn=  0.000000 ICntrl=     500 IOpCl=  0 I1Cent=   200000004 NGrid=           0
         NMat0=    1 NMatS0=      1 NMatT0=    0 NMatD0=    1 NMtDS0=    0 NMtDT0=    0
 Symmetry not used in FoFCou.
 Requested convergence on RMS density matrix=1.00D-08 within 128 cycles.
 Requested convergence on MAX density matrix=1.00D-06.
 Requested convergence on             energy=1.00D-06.
 No special actions if energy rises.
 Integral accuracy reduced to 1.0D-05 until final iterations.
 Initial convergence to 1.0D-05 achieved.  Increase integral accuracy.
 SCF Done:  E(RB3LYP) =  -796.417783018     A.U. after   13 cycles
            NFock= 13  Conv=0.74D-08     -V/T= 2.0038
 DoSCS=F DFT=T ScalE2(SS,OS)=  1.000000  1.000000
 Range of M.O.s used for correlation:     1   676
 NBasis=   676 NAE=    60 NBE=    60 NFC=     0 NFV=     0
 NROrb=    676 NOA=    60 NOB=    60 NVA=   616 NVB=   616
 Symmetrizing basis deriv contribution to polar:
 IMax=3 JMax=2 DiffMx= 0.00D+00
 G2DrvN: will do    31 centers at a time, making    1 passes.
 Calling FoFCou, ICntrl=  3107 FMM=F I1Cent=   0 AccDes= 0.00D+00.
 End of G2Drv F.D. properties file   721 does not exist.
 End of G2Drv F.D. properties file   722 does not exist.
 End of G2Drv F.D. properties file   788 does not exist.
          IDoAtm=111111111111111111111111111111
          Differentiating once with respect to nuclear coordinates.
          There are    93 degrees of freedom in the 1st order CPHF.  IDoFFX=6 NUNeed=     0.
     87 vectors produced by pass  0 Test12= 3.97D-14 1.08D-09 XBig12= 1.74D-01 7.69D-02.
 AX will form    87 AO Fock derivatives at one time.
     87 vectors produced by pass  1 Test12= 3.97D-14 1.08D-09 XBig12= 5.92D-02 7.62D-02.
     87 vectors produced by pass  2 Test12= 3.97D-14 1.08D-09 XBig12= 3.90D-04 2.92D-03.
     87 vectors produced by pass  3 Test12= 3.97D-14 1.08D-09 XBig12= 2.71D-06 1.78D-04.
     87 vectors produced by pass  4 Test12= 3.97D-14 1.08D-09 XBig12= 8.39D-09 7.84D-06.
     84 vectors produced by pass  5 Test12= 3.97D-14 1.08D-09 XBig12= 1.25D-11 3.28D-07.
     38 vectors produced by pass  6 Test12= 3.97D-14 1.08D-09 XBig12= 1.46D-14 8.50D-09.
      2 vectors produced by pass  7 Test12= 3.97D-14 1.08D-09 XBig12= 3.83D-16 1.28D-09.
 InvSVY:  IOpt=1 It=  1 EMax= 5.55D-16
 Solved reduced A of dimension   559 with    93 vectors.
 End of Minotr F.D. properties file   721 does not exist.
 End of Minotr F.D. properties file   722 does not exist.
 End of Minotr F.D. properties file   788 does not exist.

 **********************************************************************

            Population analysis using the SCF density.

 **********************************************************************

 Alpha  occ. eigenvalues --  -19.19097 -19.13590 -19.09735 -14.36268 -14.34844
 Alpha  occ. eigenvalues --  -14.29438 -14.28372 -10.32608 -10.28232 -10.24325
 Alpha  occ. eigenvalues --  -10.21693 -10.20001 -10.19876 -10.19399 -10.18889
 Alpha  occ. eigenvalues --  -10.17534  -1.13640  -1.05373  -1.04647  -1.01396
 Alpha  occ. eigenvalues --   -0.94531  -0.89171  -0.86746  -0.81687  -0.77101
 Alpha  occ. eigenvalues --   -0.74523  -0.68778  -0.65624  -0.61504  -0.61170
 Alpha  occ. eigenvalues --   -0.60123  -0.59044  -0.54081  -0.53755  -0.51534
 Alpha  occ. eigenvalues --   -0.50717  -0.50184  -0.49352  -0.47329  -0.46549
 Alpha  occ. eigenvalues --   -0.45519  -0.44527  -0.44348  -0.42760  -0.42016
 Alpha  occ. eigenvalues --   -0.40750  -0.40618  -0.40125  -0.39052  -0.38819
 Alpha  occ. eigenvalues --   -0.37460  -0.35733  -0.35078  -0.31023  -0.28495
 Alpha  occ. eigenvalues --   -0.27849  -0.27213  -0.26641  -0.24925  -0.22728
 Alpha virt. eigenvalues --   -0.02007   0.00240   0.01116   0.02009   0.02524
 Alpha virt. eigenvalues --    0.03309   0.05202   0.05570   0.07540   0.07599
 Alpha virt. eigenvalues --    0.08158   0.08879   0.09324   0.10715   0.11587
 Alpha virt. eigenvalues --    0.12117   0.13327   0.14389   0.16457   0.17220
 Alpha virt. eigenvalues --    0.18252   0.19059   0.20079   0.21125   0.21597
 Alpha virt. eigenvalues --    0.22930   0.23366   0.24651   0.25971   0.26225
 Alpha virt. eigenvalues --    0.29052   0.29901   0.30853   0.31141   0.32130
 Alpha virt. eigenvalues --    0.32975   0.33674   0.34172   0.35257   0.35885
 Alpha virt. eigenvalues --    0.36389   0.36985   0.37404   0.38573   0.38985
 Alpha virt. eigenvalues --    0.40049   0.40922   0.40984   0.41800   0.42368
 Alpha virt. eigenvalues --    0.43112   0.44144   0.44597   0.44760   0.45644
 Alpha virt. eigenvalues --    0.45949   0.46401   0.47150   0.47732   0.48188
 Alpha virt. eigenvalues --    0.48491   0.49200   0.49449   0.50016   0.51783
 Alpha virt. eigenvalues --    0.51897   0.52383   0.52966   0.53876   0.54447
 Alpha virt. eigenvalues --    0.55155   0.55527   0.56507   0.57357   0.57717
 Alpha virt. eigenvalues --    0.58421   0.59617   0.59942   0.61364   0.62436
 Alpha virt. eigenvalues --    0.62713   0.63941   0.64955   0.65450   0.66342
 Alpha virt. eigenvalues --    0.67085   0.67329   0.67689   0.68852   0.69712
 Alpha virt. eigenvalues --    0.70173   0.71466   0.72832   0.73325   0.74522
 Alpha virt. eigenvalues --    0.74950   0.75361   0.76259   0.76449   0.78953
 Alpha virt. eigenvalues --    0.79575   0.80583   0.81158   0.81547   0.82561
 Alpha virt. eigenvalues --    0.83266   0.84156   0.86108   0.87188   0.88546
 Alpha virt. eigenvalues --    0.88957   0.90144   0.91318   0.91732   0.92371
 Alpha virt. eigenvalues --    0.94099   0.94625   0.95285   0.97106   0.97395
 Alpha virt. eigenvalues --    0.98034   0.98942   0.99672   1.00975   1.01537
 Alpha virt. eigenvalues --    1.02138   1.02825   1.03735   1.05377   1.06337
 Alpha virt. eigenvalues --    1.07052   1.07194   1.08451   1.09368   1.09780
 Alpha virt. eigenvalues --    1.10029   1.11719   1.12823   1.13328   1.13811
 Alpha virt. eigenvalues --    1.14583   1.15571   1.16828   1.17332   1.18077
 Alpha virt. eigenvalues --    1.19714   1.20500   1.20780   1.21921   1.22870
 Alpha virt. eigenvalues --    1.23544   1.24457   1.24479   1.24893   1.25780
 Alpha virt. eigenvalues --    1.27137   1.27432   1.28610   1.29787   1.30208
 Alpha virt. eigenvalues --    1.30677   1.31738   1.32004   1.32649   1.32974
 Alpha virt. eigenvalues --    1.33371   1.33955   1.34755   1.35780   1.36445
 Alpha virt. eigenvalues --    1.37249   1.38042   1.39160   1.39226   1.40662
 Alpha virt. eigenvalues --    1.42060   1.43070   1.43668   1.44514   1.45857
 Alpha virt. eigenvalues --    1.46558   1.47587   1.48920   1.51025   1.51525
 Alpha virt. eigenvalues --    1.52418   1.53119   1.54474   1.54799   1.55477
 Alpha virt. eigenvalues --    1.56178   1.58815   1.59106   1.61565   1.62053
 Alpha virt. eigenvalues --    1.62859   1.64841   1.65759   1.66880   1.68043
 Alpha virt. eigenvalues --    1.69040   1.69707   1.71165   1.72747   1.73812
 Alpha virt. eigenvalues --    1.74362   1.76469   1.77410   1.78685   1.79841
 Alpha virt. eigenvalues --    1.83571   1.84557   1.86377   1.87677   1.88719
 Alpha virt. eigenvalues --    1.90267   1.92556   1.94689   2.00303   2.01382
 Alpha virt. eigenvalues --    2.02992   2.05344   2.06052   2.06496   2.10258
 Alpha virt. eigenvalues --    2.11916   2.12924   2.14663   2.15872   2.25758
 Alpha virt. eigenvalues --    2.26980   2.30598   2.39580   2.41943   2.43989
 Alpha virt. eigenvalues --    2.45850   2.49813   2.51741   2.52997   2.55384
 Alpha virt. eigenvalues --    2.55814   2.57412   2.58411   2.59437   2.61857
 Alpha virt. eigenvalues --    2.62293   2.63142   2.63998   2.64751   2.67206
 Alpha virt. eigenvalues --    2.67475   2.68511   2.70356   2.70728   2.71526
 Alpha virt. eigenvalues --    2.72047   2.72749   2.75123   2.76594   2.77290
 Alpha virt. eigenvalues --    2.78580   2.79681   2.80347   2.81063   2.82058
 Alpha virt. eigenvalues --    2.83620   2.85198   2.86483   2.87455   2.87590
 Alpha virt. eigenvalues --    2.88627   2.89857   2.90816   2.91781   2.92145
 Alpha virt. eigenvalues --    2.92801   2.93380   2.94052   2.94898   2.95730
 Alpha virt. eigenvalues --    2.97274   2.97629   2.98983   2.99678   3.00101
 Alpha virt. eigenvalues --    3.01408   3.02619   3.03390   3.04099   3.05333
 Alpha virt. eigenvalues --    3.05783   3.06064   3.07577   3.08388   3.09037
 Alpha virt. eigenvalues --    3.09670   3.10034   3.10201   3.11073   3.11685
 Alpha virt. eigenvalues --    3.12620   3.13892   3.14127   3.14412   3.14950
 Alpha virt. eigenvalues --    3.15967   3.16653   3.17265   3.18611   3.19839
 Alpha virt. eigenvalues --    3.20111   3.20739   3.21635   3.22244   3.23547
 Alpha virt. eigenvalues --    3.24226   3.24389   3.26061   3.26501   3.27061
 Alpha virt. eigenvalues --    3.27896   3.28501   3.29946   3.30643   3.31070
 Alpha virt. eigenvalues --    3.31910   3.32063   3.32830   3.33385   3.34351
 Alpha virt. eigenvalues --    3.34624   3.35277   3.36107   3.36827   3.37073
 Alpha virt. eigenvalues --    3.38114   3.39464   3.40329   3.40956   3.41257
 Alpha virt. eigenvalues --    3.42155   3.43696   3.44345   3.45541   3.46037
 Alpha virt. eigenvalues --    3.46221   3.48149   3.48530   3.50028   3.50149
 Alpha virt. eigenvalues --    3.51003   3.52202   3.52860   3.53588   3.54451
 Alpha virt. eigenvalues --    3.54717   3.55133   3.56200   3.56939   3.58590
 Alpha virt. eigenvalues --    3.59441   3.59972   3.60964   3.61710   3.62544
 Alpha virt. eigenvalues --    3.64329   3.64720   3.65146   3.66156   3.66540
 Alpha virt. eigenvalues --    3.67531   3.68588   3.69292   3.69936   3.70952
 Alpha virt. eigenvalues --    3.72723   3.73468   3.73862   3.75241   3.75789
 Alpha virt. eigenvalues --    3.76331   3.76583   3.77482   3.77880   3.79631
 Alpha virt. eigenvalues --    3.80385   3.81956   3.82321   3.83162   3.84175
 Alpha virt. eigenvalues --    3.85450   3.85966   3.86586   3.87146   3.88568
 Alpha virt. eigenvalues --    3.89498   3.90156   3.90672   3.90994   3.92727
 Alpha virt. eigenvalues --    3.93278   3.94069   3.94442   3.96261   3.96949
 Alpha virt. eigenvalues --    3.98259   3.99376   4.00422   4.00890   4.01714
 Alpha virt. eigenvalues --    4.02042   4.02751   4.04480   4.05773   4.06742
 Alpha virt. eigenvalues --    4.07449   4.08019   4.08810   4.09983   4.10994
 Alpha virt. eigenvalues --    4.11703   4.12837   4.13785   4.15607   4.16801
 Alpha virt. eigenvalues --    4.17889   4.18504   4.19834   4.21326   4.23095
 Alpha virt. eigenvalues --    4.23241   4.24546   4.26830   4.27584   4.28796
 Alpha virt. eigenvalues --    4.30431   4.31512   4.31922   4.33511   4.34657
 Alpha virt. eigenvalues --    4.35245   4.36202   4.38204   4.39591   4.41576
 Alpha virt. eigenvalues --    4.41958   4.43064   4.47122   4.48236   4.49271
 Alpha virt. eigenvalues --    4.50318   4.52044   4.52188   4.54894   4.55728
 Alpha virt. eigenvalues --    4.57122   4.59590   4.61073   4.61570   4.62175
 Alpha virt. eigenvalues --    4.64651   4.68114   4.69337   4.70489   4.73103
 Alpha virt. eigenvalues --    4.73818   4.75086   4.77343   4.78556   4.80997
 Alpha virt. eigenvalues --    4.81988   4.82712   4.83766   4.84828   4.85824
 Alpha virt. eigenvalues --    4.87977   4.89985   4.90861   4.90959   4.93495
 Alpha virt. eigenvalues --    4.94488   4.95221   4.95359   4.96474   4.97752
 Alpha virt. eigenvalues --    4.98178   4.99226   5.00145   5.01888   5.03106
 Alpha virt. eigenvalues --    5.04030   5.05107   5.05767   5.06959   5.07284
 Alpha virt. eigenvalues --    5.09061   5.09971   5.10349   5.10764   5.11707
 Alpha virt. eigenvalues --    5.12413   5.14642   5.14925   5.15587   5.15852
 Alpha virt. eigenvalues --    5.17557   5.19274   5.20181   5.20893   5.21591
 Alpha virt. eigenvalues --    5.23135   5.23237   5.24385   5.25864   5.27411
 Alpha virt. eigenvalues --    5.29775   5.30073   5.30706   5.32844   5.32951
 Alpha virt. eigenvalues --    5.33890   5.35100   5.37900   5.38869   5.40974
 Alpha virt. eigenvalues --    5.42694   5.45079   5.45990   5.47129   5.48096
 Alpha virt. eigenvalues --    5.48899   5.51135   5.54381   5.54491   5.56830
 Alpha virt. eigenvalues --    5.58883   5.61286   5.62259   5.62769   5.66325
 Alpha virt. eigenvalues --    5.67088   5.69470   5.70390   5.76113   5.76705
 Alpha virt. eigenvalues --    5.78168   5.79832   5.81773   5.82831   5.86257
 Alpha virt. eigenvalues --    5.87282   5.88167   5.92475   5.94324   5.97086
 Alpha virt. eigenvalues --    6.02533   6.04441   6.06073   6.11999   6.12461
 Alpha virt. eigenvalues --    6.16568   6.19890   6.20733   6.25942   6.30057
 Alpha virt. eigenvalues --    6.32886   6.34706   6.37309   6.37929   6.41350
 Alpha virt. eigenvalues --    6.43541   6.45101   6.49856   6.52448   6.52665
 Alpha virt. eigenvalues --    6.67389   6.72432   6.79089   6.89345   6.92304
 Alpha virt. eigenvalues --    6.94076   6.96225   6.97881   7.01007   7.06104
 Alpha virt. eigenvalues --    7.12438   7.15258   7.17569   7.17898   7.21979
 Alpha virt. eigenvalues --    7.25586   7.26678   7.28472   7.44877   7.49692
 Alpha virt. eigenvalues --    7.55217   7.57812   7.59266   7.66661   7.96294
 Alpha virt. eigenvalues --   24.45755  24.61664  24.72391  24.80860  24.95169
 Alpha virt. eigenvalues --   24.98781  25.04920  25.09329  25.09877  35.96763
 Alpha virt. eigenvalues --   36.22743  36.25994  36.44045  50.17112  50.20027
 Alpha virt. eigenvalues --   50.27417
          Condensed to atoms (all electrons):
               1          2          3          4          5          6
     1  O    7.881086   0.660696  -0.108815  -0.006415   0.000573   0.000000
     2  C    0.660696   4.484330   0.397566  -0.067187   0.003138  -0.000138
     3  N   -0.108815   0.397566   6.638741   0.267701  -0.032216   0.000707
     4  C   -0.006415  -0.067187   0.267701   5.145555   0.280747  -0.085695
     5  C    0.000573   0.003138  -0.032216   0.280747   4.200512   0.395936
     6  O    0.000000  -0.000138   0.000707  -0.085695   0.395936   7.783007
     7  O   -0.000009  -0.000935  -0.022304  -0.094889   0.698488  -0.079319
     8  C   -0.007586  -0.002976  -0.069526   0.299843  -0.066284  -0.002476
     9  C   -0.000318   0.000301   0.009565  -0.088596   0.001735  -0.002116
    10  C    0.000012   0.000037  -0.000595  -0.004944   0.002506   0.001769
    11  N    0.000000   0.000008   0.000000  -0.000666  -0.000032   0.000007
    12  C   -0.000002   0.000022   0.000007   0.000538   0.000207   0.000000
    13  N   -0.000049  -0.000166  -0.006569   0.008531   0.000325   0.000041
    14  C   -0.066053   0.197780  -0.065186   0.003053   0.000079  -0.000002
    15  C    0.001873  -0.061724   0.003007  -0.000323  -0.000004   0.000000
    16  N    0.000497   0.000314   0.000031  -0.000001   0.000000   0.000000
    17  H    0.004254  -0.021442   0.328099  -0.033533  -0.014661   0.001829
    18  H    0.017765  -0.005444  -0.039414   0.395920  -0.007576   0.002840
    19  H    0.000001   0.000048  -0.000289   0.018595  -0.047753   0.311242
    20  H    0.022623   0.000104  -0.006204  -0.049121   0.003741  -0.000008
    21  H    0.000076   0.000105   0.004957  -0.034009   0.000316   0.014428
    22  H    0.000001  -0.000001  -0.000005  -0.000197   0.000306   0.000941
    23  H   -0.000001  -0.000002   0.000011   0.000012   0.000006   0.000000
    24  H    0.000339   0.001593   0.006383  -0.002588   0.000025  -0.000006
    25  H    0.000435  -0.010532   0.000346   0.000942  -0.000021   0.000000
    26  H    0.001089  -0.028424   0.002432  -0.000375  -0.000035  -0.000001
    27  H    0.010123  -0.003079   0.000359  -0.000035  -0.000002   0.000000
    28  H    0.010982   0.020433   0.000387   0.000127   0.000001   0.000000
    29  H    0.000000  -0.000738  -0.000005   0.000000   0.000000   0.000000
    30  H    0.000021  -0.000835   0.000006  -0.000001   0.000000   0.000000
               7          8          9         10         11         12
     1  O   -0.000009  -0.007586  -0.000318   0.000012   0.000000  -0.000002
     2  C   -0.000935  -0.002976   0.000301   0.000037   0.000008   0.000022
     3  N   -0.022304  -0.069526   0.009565  -0.000595   0.000000   0.000007
     4  C   -0.094889   0.299843  -0.088596  -0.004944  -0.000666   0.000538
     5  C    0.698488  -0.066284   0.001735   0.002506  -0.000032   0.000207
     6  O   -0.079319  -0.002476  -0.002116   0.001769   0.000007   0.000000
     7  O    7.821381  -0.002614   0.003044  -0.000709  -0.000007   0.000081
     8  C   -0.002614   4.940803   0.276980  -0.036335   0.011060  -0.000423
     9  C    0.003044   0.276980   5.188391   0.505723  -0.045882  -0.123472
    10  C   -0.000709  -0.036335   0.505723   4.703408   0.465769  -0.156462
    11  N   -0.000007   0.011060  -0.045882   0.465769   6.518925   0.581312
    12  C    0.000081  -0.000423  -0.123472  -0.156462   0.581312   4.582011
    13  N   -0.000476  -0.053525   0.332476  -0.029807  -0.142006   0.479674
    14  C   -0.000469  -0.001323  -0.000111   0.000005   0.000000  -0.000018
    15  C   -0.000002   0.000034  -0.000004   0.000000   0.000000   0.000000
    16  N    0.000000   0.000000   0.000000   0.000000   0.000000   0.000000
    17  H    0.047739   0.004033   0.001585  -0.000323  -0.000030   0.000328
    18  H    0.000875  -0.067744   0.009551  -0.000190   0.000005   0.000021
    19  H    0.011721  -0.000558  -0.000051   0.000332  -0.000006  -0.000007
    20  H   -0.000343   0.398534  -0.039162   0.003729  -0.000566   0.000368
    21  H    0.000394   0.387553  -0.028786  -0.006934   0.000467  -0.000330
    22  H   -0.000070  -0.001625  -0.056042   0.433978  -0.019818   0.006336
    23  H    0.000003  -0.000266   0.006466   0.003264  -0.016287   0.423798
    24  H   -0.000049   0.003898  -0.029529   0.003448   0.006560  -0.026788
    25  H   -0.000036   0.000012  -0.000007  -0.000018   0.000002   0.000103
    26  H   -0.000042   0.000112   0.000002   0.000001   0.000000  -0.000003
    27  H    0.000000   0.000014   0.000002   0.000000   0.000000  -0.000001
    28  H    0.000000  -0.000003  -0.000001   0.000000   0.000000   0.000000
    29  H    0.000000   0.000000   0.000000   0.000000   0.000000   0.000000
    30  H    0.000000   0.000000   0.000000   0.000000   0.000000   0.000000
              13         14         15         16         17         18
     1  O   -0.000049  -0.066053   0.001873   0.000497   0.004254   0.017765
     2  C   -0.000166   0.197780  -0.061724   0.000314  -0.021442  -0.005444
     3  N   -0.006569  -0.065186   0.003007   0.000031   0.328099  -0.039414
     4  C    0.008531   0.003053  -0.000323  -0.000001  -0.033533   0.395920
     5  C    0.000325   0.000079  -0.000004   0.000000  -0.014661  -0.007576
     6  O    0.000041  -0.000002   0.000000   0.000000   0.001829   0.002840
     7  O   -0.000476  -0.000469  -0.000002   0.000000   0.047739   0.000875
     8  C   -0.053525  -0.001323   0.000034   0.000000   0.004033  -0.067744
     9  C    0.332476  -0.000111  -0.000004   0.000000   0.001585   0.009551
    10  C   -0.029807   0.000005   0.000000   0.000000  -0.000323  -0.000190
    11  N   -0.142006   0.000000   0.000000   0.000000  -0.000030   0.000005
    12  C    0.479674  -0.000018   0.000000   0.000000   0.000328   0.000021
    13  N    6.285879  -0.000429  -0.000001   0.000000   0.001548  -0.000291
    14  C   -0.000429   5.131364   0.303752  -0.033967  -0.004854   0.002270
    15  C   -0.000001   0.303752   4.579581   0.297874  -0.001103  -0.000065
    16  N    0.000000  -0.033967   0.297874   6.403944  -0.000050  -0.000001
    17  H    0.001548  -0.004854  -0.001103  -0.000050   0.575185   0.003333
    18  H   -0.000291   0.002270  -0.000065  -0.000001   0.003333   0.671353
    19  H    0.000020   0.000003   0.000000   0.000000  -0.000581  -0.000422
    20  H    0.001507   0.000867   0.000012   0.000000  -0.000623  -0.005381
    21  H    0.002829   0.000020  -0.000001   0.000000  -0.000591  -0.000083
    22  H    0.004719   0.000000   0.000000   0.000000  -0.000006  -0.000013
    23  H   -0.039292  -0.000001   0.000000   0.000000  -0.000001   0.000000
    24  H    0.378181   0.001690   0.000050  -0.000030  -0.000654   0.000056
    25  H    0.000737   0.328256  -0.024351   0.020210   0.000761   0.000034
    26  H   -0.000024   0.381037  -0.030248  -0.000529   0.001166  -0.000519
    27  H   -0.000017  -0.025572   0.385797  -0.024879  -0.000012  -0.000050
    28  H    0.000002  -0.090180   0.426586  -0.056413  -0.000133   0.000019
    29  H    0.000000   0.000016  -0.052086   0.364784   0.000020   0.000001
    30  H    0.000000   0.005659  -0.034258   0.360333   0.000000   0.000000
              19         20         21         22         23         24
     1  O    0.000001   0.022623   0.000076   0.000001  -0.000001   0.000339
     2  C    0.000048   0.000104   0.000105  -0.000001  -0.000002   0.001593
     3  N   -0.000289  -0.006204   0.004957  -0.000005   0.000011   0.006383
     4  C    0.018595  -0.049121  -0.034009  -0.000197   0.000012  -0.002588
     5  C   -0.047753   0.003741   0.000316   0.000306   0.000006   0.000025
     6  O    0.311242  -0.000008   0.014428   0.000941   0.000000  -0.000006
     7  O    0.011721  -0.000343   0.000394  -0.000070   0.000003  -0.000049
     8  C   -0.000558   0.398534   0.387553  -0.001625  -0.000266   0.003898
     9  C   -0.000051  -0.039162  -0.028786  -0.056042   0.006466  -0.029529
    10  C    0.000332   0.003729  -0.006934   0.433978   0.003264   0.003448
    11  N   -0.000006  -0.000566   0.000467  -0.019818  -0.016287   0.006560
    12  C   -0.000007   0.000368  -0.000330   0.006336   0.423798  -0.026788
    13  N    0.000020   0.001507   0.002829   0.004719  -0.039292   0.378181
    14  C    0.000003   0.000867   0.000020   0.000000  -0.000001   0.001690
    15  C    0.000000   0.000012  -0.000001   0.000000   0.000000   0.000050
    16  N    0.000000   0.000000   0.000000   0.000000   0.000000  -0.000030
    17  H   -0.000581  -0.000623  -0.000591  -0.000006  -0.000001  -0.000654
    18  H   -0.000422  -0.005381  -0.000083  -0.000013   0.000000   0.000056
    19  H    0.483566   0.000117  -0.000783   0.000085   0.000000   0.000004
    20  H    0.000117   0.661657  -0.034904   0.000105  -0.000016   0.001319
    21  H   -0.000783  -0.034904   0.674495   0.001956   0.000022  -0.000198
    22  H    0.000085   0.000105   0.001956   0.625914  -0.000429  -0.000500
    23  H    0.000000  -0.000016   0.000022  -0.000429   0.608587  -0.002117
    24  H    0.000004   0.001319  -0.000198  -0.000500  -0.002117   0.550720
    25  H    0.000000  -0.000265   0.000002   0.000000   0.000027  -0.000945
    26  H    0.000000   0.000001   0.000000   0.000000  -0.000001   0.000071
    27  H    0.000000   0.000017   0.000000   0.000000   0.000000   0.000130
    28  H    0.000000  -0.000031   0.000000   0.000000   0.000000  -0.000042
    29  H    0.000000   0.000000   0.000000   0.000000   0.000000   0.000004
    30  H    0.000000   0.000000   0.000000   0.000000   0.000000   0.000003
              25         26         27         28         29         30
     1  O    0.000435   0.001089   0.010123   0.010982   0.000000   0.000021
     2  C   -0.010532  -0.028424  -0.003079   0.020433  -0.000738  -0.000835
     3  N    0.000346   0.002432   0.000359   0.000387  -0.000005   0.000006
     4  C    0.000942  -0.000375  -0.000035   0.000127   0.000000  -0.000001
     5  C   -0.000021  -0.000035  -0.000002   0.000001   0.000000   0.000000
     6  O    0.000000  -0.000001   0.000000   0.000000   0.000000   0.000000
     7  O   -0.000036  -0.000042   0.000000   0.000000   0.000000   0.000000
     8  C    0.000012   0.000112   0.000014  -0.000003   0.000000   0.000000
     9  C   -0.000007   0.000002   0.000002  -0.000001   0.000000   0.000000
    10  C   -0.000018   0.000001   0.000000   0.000000   0.000000   0.000000
    11  N    0.000002   0.000000   0.000000   0.000000   0.000000   0.000000
    12  C    0.000103  -0.000003  -0.000001   0.000000   0.000000   0.000000
    13  N    0.000737  -0.000024  -0.000017   0.000002   0.000000   0.000000
    14  C    0.328256   0.381037  -0.025572  -0.090180   0.000016   0.005659
    15  C   -0.024351  -0.030248   0.385797   0.426586  -0.052086  -0.034258
    16  N    0.020210  -0.000529  -0.024879  -0.056413   0.364784   0.360333
    17  H    0.000761   0.001166  -0.000012  -0.000133   0.000020   0.000000
    18  H    0.000034  -0.000519  -0.000050   0.000019   0.000001   0.000000
    19  H    0.000000   0.000000   0.000000   0.000000   0.000000   0.000000
    20  H   -0.000265   0.000001   0.000017  -0.000031   0.000000   0.000000
    21  H    0.000002   0.000000   0.000000   0.000000   0.000000   0.000000
    22  H    0.000000   0.000000   0.000000   0.000000   0.000000   0.000000
    23  H    0.000027  -0.000001   0.000000   0.000000   0.000000   0.000000
    24  H   -0.000945   0.000071   0.000130  -0.000042   0.000004   0.000003
    25  H    0.723985  -0.047619  -0.013796   0.014756  -0.002606  -0.000738
    26  H   -0.047619   0.705147   0.009754  -0.010350   0.003896  -0.000048
    27  H   -0.013796   0.009754   0.707624  -0.056554   0.009109  -0.008030
    28  H    0.014756  -0.010350  -0.056554   0.758122  -0.009243  -0.003210
    29  H   -0.002606   0.003896   0.009109  -0.009243   0.640905  -0.049878
    30  H   -0.000738  -0.000048  -0.008030  -0.003210  -0.049878   0.645677
 Mulliken charges:
               1
     1  O   -0.423196
     2  C    0.437146
     3  N   -0.309175
     4  C    0.047010
     5  C    0.579942
     6  O   -0.342986
     7  O   -0.381454
     8  C   -0.009610
     9  C    0.078258
    10  C    0.112336
    11  N   -0.358817
    12  C    0.232701
    13  N   -0.223817
    14  C   -0.067685
    15  C    0.205606
    16  N   -0.332116
    17  H    0.108715
    18  H    0.023151
    19  H    0.224715
    20  H    0.041926
    21  H    0.018997
    22  H    0.004364
    23  H    0.016216
    24  H    0.108972
    25  H    0.010324
    26  H    0.013511
    27  H    0.009099
    28  H   -0.005255
    29  H    0.095822
    30  H    0.085299
 Sum of Mulliken charges =   0.00000
 Mulliken charges with hydrogens summed into heavy atoms:
               1
     1  O   -0.423196
     2  C    0.437146
     3  N   -0.200460
     4  C    0.070161
     5  C    0.579942
     6  O   -0.118270
     7  O   -0.381454
     8  C    0.051312
     9  C    0.078258
    10  C    0.116700
    11  N   -0.358817
    12  C    0.248917
    13  N   -0.114845
    14  C   -0.043850
    15  C    0.209451
    16  N   -0.150994
 APT charges:
               1
     1  O   -0.066819
     2  C   -0.016569
     3  N   -0.275036
     4  C   -0.330245
     5  C   -0.250824
     6  O   -0.572068
     7  O    0.030787
     8  C   -0.622248
     9  C   -0.139897
    10  C   -0.703856
    11  N    0.777470
    12  C   -0.645032
    13  N   -0.368870
    14  C   -0.325343
    15  C   -0.324952
    16  N   -1.386882
    17  H    0.276567
    18  H    0.297903
    19  H    0.853269
    20  H    0.199672
    21  H    0.428956
    22  H    0.620997
    23  H    0.472726
    24  H   -0.008761
    25  H    0.078495
    26  H    0.294419
    27  H    0.150562
    28  H    0.298413
    29  H    0.464352
    30  H    0.792815
 Sum of APT charges =   0.00000
 APT charges with hydrogens summed into heavy atoms:
               1
     1  O   -0.066819
     2  C   -0.016569
     3  N    0.001531
     4  C   -0.032342
     5  C   -0.250824
     6  O    0.281201
     7  O    0.030787
     8  C    0.006379
     9  C   -0.139897
    10  C   -0.082860
    11  N    0.777470
    12  C   -0.172306
    13  N   -0.377631
    14  C    0.047572
    15  C    0.124023
    16  N   -0.129714
 Electronic spatial extent (au):  <R**2>=           4491.0278
 Charge=              0.0000 electrons
 Dipole moment (field-independent basis, Debye):
    X=             -3.3433    Y=             -1.1941    Z=              1.7634  Tot=              3.9640
 Quadrupole moment (field-independent basis, Debye-Ang):
   XX=            -96.3026   YY=           -103.9970   ZZ=            -86.5550
   XY=             -8.8721   XZ=              8.3041   YZ=             -4.4691
 Traceless Quadrupole moment (field-independent basis, Debye-Ang):
   XX=             -0.6844   YY=             -8.3788   ZZ=              9.0632
   XY=             -8.8721   XZ=              8.3041   YZ=             -4.4691
 Octapole moment (field-independent basis, Debye-Ang**2):
  XXX=           -234.1392  YYY=            -12.6618  ZZZ=            -10.9048  XYY=            -46.9080
  XXY=            -67.9255  XXZ=             22.9794  XZZ=            -19.7260  YZZ=            -14.5222
  YYZ=            -14.4626  XYZ=             -5.3193
 Hexadecapole moment (field-independent basis, Debye-Ang**3):
 XXXX=          -3551.1147 YYYY=           -781.9804 ZZZZ=          -1167.9334 XXXY=           -383.6942
 XXXZ=           -119.8121 YYYX=           -307.2968 YYYZ=             92.2911 ZZZX=           -190.3541
 ZZZY=             90.1209 XXYY=           -891.4742 XXZZ=           -739.9374 YYZZ=           -369.0014
 XXYZ=            126.7245 YYXZ=           -146.0696 ZZXY=            -60.1785
 N-N= 1.129043087594D+03 E-N=-4.119715175907D+03  KE= 7.934232068953D+02
  Exact polarizability:   0.000   0.000   0.000   0.000   0.000   0.000
 Approx polarizability: 209.303   0.094 212.300  19.775  -4.127 178.210
 Calling FoFJK, ICntrl=    100147 FMM=F ISym2X=0 I1Cent= 0 IOpClX= 0 NMat=1 NMatS=1 NMatT=0.
 -------------------------------------------------------------------
 Center     Atomic                   Forces (Hartrees/Bohr)
 Number     Number              X              Y              Z
 -------------------------------------------------------------------
      1        8          -0.002985336    0.006975436    0.001360803
      2        6          -0.000805242   -0.007467597   -0.000591537
      3        7           0.001071611   -0.001046647   -0.000146250
      4        6          -0.000081662   -0.002111755    0.000245405
      5        6           0.002121909    0.002511892    0.002876321
      6        8          -0.003552773    0.001097905   -0.002182619
      7        8           0.001159419   -0.003779180   -0.000496541
      8        6           0.003224509    0.002314129   -0.003506342
      9        6          -0.001012011   -0.006273327    0.006285113
     10        6           0.003977793    0.004811427   -0.000381718
     11        7          -0.003338058   -0.003509701    0.000037780
     12        6           0.004045610   -0.000317932    0.002417591
     13        7          -0.005138461    0.001753387   -0.003943721
     14        6           0.000853436    0.000431578   -0.000681193
     15        6          -0.000523804   -0.000168673    0.000039135
     16        7          -0.000257648   -0.000325688   -0.001154472
     17        1          -0.000005764    0.000187989   -0.001157078
     18        1          -0.000988567    0.000955807    0.000134259
     19        1           0.001939431    0.001057433    0.001515782
     20        1          -0.000800851   -0.000032470    0.001823729
     21        1          -0.001229801    0.000960055   -0.000880774
     22        1          -0.002802734    0.001139651   -0.002206813
     23        1           0.000678248    0.001106652   -0.000241597
     24        1           0.003429162    0.000209784    0.000180256
     25        1          -0.001508602   -0.000801096    0.000986875
     26        1           0.002158883   -0.000043560   -0.000382268
     27        1          -0.001030735   -0.000673239    0.001229220
     28        1           0.001418768    0.000256416   -0.001141361
     29        1          -0.000193904    0.000526395    0.000007813
     30        1           0.000177172    0.000254928   -0.000045800
 -------------------------------------------------------------------
 Cartesian Forces:  Max     0.007467597 RMS     0.002305379
 FormGI is forming the generalized inverse of G from B-inverse, IUseBI=4.

 GradGradGradGradGradGradGradGradGradGradGradGradGradGradGradGradGradGrad
 Berny optimization.
 Internal  Forces:  Max     0.007315189 RMS     0.001456105
 Search for a local minimum.
 Step number   1 out of a maximum of  160
 All quantities printed in internal units (Hartrees-Bohrs-Radians)
 Mixed Optimization -- RFO/linear search
 Second derivative matrix not updated -- analytic derivatives used.
 ITU=  0
     Eigenvalues ---   -0.00245  -0.00044   0.00197   0.00236   0.00277
     Eigenvalues ---    0.00345   0.00393   0.00525   0.00792   0.00956
     Eigenvalues ---    0.01593   0.01943   0.01990   0.02462   0.03203
     Eigenvalues ---    0.03282   0.04058   0.04141   0.04183   0.04193
     Eigenvalues ---    0.04455   0.04481   0.05051   0.05105   0.05223
     Eigenvalues ---    0.05383   0.05852   0.06241   0.07578   0.07944
     Eigenvalues ---    0.08173   0.09994   0.10536   0.10611   0.10707
     Eigenvalues ---    0.11496   0.11558   0.13346   0.14903   0.15023
     Eigenvalues ---    0.15822   0.16746   0.17151   0.18593   0.18889
     Eigenvalues ---    0.20422   0.21136   0.22035   0.22659   0.22919
     Eigenvalues ---    0.23876   0.24485   0.24646   0.25433   0.27285
     Eigenvalues ---    0.29452   0.31243   0.31980   0.32195   0.32575
     Eigenvalues ---    0.33052   0.33170   0.33173   0.33808   0.34394
     Eigenvalues ---    0.34883   0.35949   0.36744   0.36869   0.37052
     Eigenvalues ---    0.38496   0.40611   0.41658   0.44215   0.44238
     Eigenvalues ---    0.44713   0.45030   0.46000   0.46930   0.47314
     Eigenvalues ---    0.52150   0.57637   0.78884   0.86352
 RFO step:  Lambda=-2.78449940D-03 EMin=-2.44904446D-03
 Linear search not attempted -- first point.
 Iteration  1 RMS(Cart)=  0.32016907 RMS(Int)=  0.03354581
 Iteration  2 RMS(Cart)=  0.10156172 RMS(Int)=  0.00290744
 Iteration  3 RMS(Cart)=  0.00523700 RMS(Int)=  0.00073363
 Iteration  4 RMS(Cart)=  0.00001493 RMS(Int)=  0.00073359
 Iteration  5 RMS(Cart)=  0.00000000 RMS(Int)=  0.00073359
 Variable       Old X    -DE/DX   Delta X   Delta X   Delta X     New X
                                 (Linear)    (Quad)   (Total)
    R1        2.31538  -0.00732   0.00000  -0.01688  -0.01688   2.29850
    R2        2.56742   0.00242   0.00000   0.02183   0.02183   2.58924
    R3        2.86976  -0.00095   0.00000  -0.00347  -0.00347   2.86629
    R4        2.73373   0.00086   0.00000   0.00766   0.00766   2.74138
    R5        1.90789  -0.00043   0.00000  -0.00005  -0.00005   1.90785
    R6        2.85472   0.00237   0.00000   0.00555   0.00555   2.86027
    R7        2.92214   0.00074   0.00000  -0.00661  -0.00661   2.91553
    R8        2.06835  -0.00054   0.00000  -0.00418  -0.00418   2.06417
    R9        2.54252  -0.00257   0.00000  -0.00997  -0.00997   2.53255
   R10        2.27858  -0.00388   0.00000  -0.00359  -0.00359   2.27499
   R11        1.82484   0.00229   0.00000   0.00418   0.00418   1.82902
   R12        2.81965  -0.00173   0.00000  -0.00811  -0.00811   2.81154
   R13        2.06182  -0.00103   0.00000   0.00040   0.00040   2.06222
   R14        2.06063  -0.00179   0.00000  -0.00442  -0.00442   2.05621
   R15        2.58438   0.00197   0.00000   0.00485   0.00480   2.58918
   R16        2.59558   0.00428   0.00000   0.01272   0.01285   2.60843
   R17        2.61386  -0.00439   0.00000  -0.01389  -0.01404   2.59982
   R18        2.04506  -0.00372   0.00000  -0.00984  -0.00984   2.03522
   R19        2.48318  -0.00400   0.00000  -0.00834  -0.00839   2.47479
   R20        2.57273   0.00164   0.00000   0.00469   0.00481   2.57754
   R21        2.03324   0.00078   0.00000   0.00224   0.00224   2.03548
   R22        1.90439  -0.00337   0.00000  -0.00582  -0.00582   1.89857
   R23        2.87292   0.00100   0.00000   0.00155   0.00155   2.87447
   R24        2.06998  -0.00153   0.00000  -0.00402  -0.00402   2.06596
   R25        2.07209  -0.00139   0.00000  -0.00395  -0.00395   2.06814
   R26        2.76857   0.00069   0.00000  -0.00199  -0.00199   2.76658
   R27        2.06313  -0.00145   0.00000  -0.00597  -0.00597   2.05715
   R28        2.07229  -0.00101   0.00000  -0.00029  -0.00029   2.07200
   R29        1.91608   0.00014   0.00000  -0.00028  -0.00028   1.91580
   R30        1.91411  -0.00016   0.00000  -0.00108  -0.00108   1.91303
    A1        2.11910   0.00282   0.00000   0.00148   0.00147   2.12058
    A2        2.15777  -0.00272   0.00000  -0.00629  -0.00630   2.15146
    A3        2.00623  -0.00011   0.00000   0.00470   0.00469   2.01092
    A4        2.11381   0.00247   0.00000  -0.02928  -0.03403   2.07978
    A5        2.12025  -0.00200   0.00000  -0.01894  -0.02368   2.09658
    A6        2.01275  -0.00040   0.00000   0.00307  -0.00221   2.01055
    A7        1.86647   0.00197   0.00000   0.01881   0.01869   1.88516
    A8        1.98585   0.00028   0.00000  -0.03081  -0.03082   1.95503
    A9        1.91864  -0.00138   0.00000  -0.02281  -0.02279   1.89586
   A10        1.94811  -0.00262   0.00000  -0.00614  -0.00613   1.94198
   A11        1.88660   0.00020   0.00000   0.01756   0.01755   1.90416
   A12        1.85647   0.00148   0.00000   0.02465   0.02430   1.88077
   A13        1.95306   0.00013   0.00000  -0.00231  -0.00233   1.95074
   A14        2.17674   0.00045   0.00000  -0.00304  -0.00306   2.17369
   A15        2.15338  -0.00058   0.00000   0.00537   0.00535   2.15873
   A16        1.85929   0.00180   0.00000   0.01274   0.01274   1.87204
   A17        1.98809   0.00099   0.00000  -0.01368  -0.01371   1.97439
   A18        1.86956  -0.00126   0.00000  -0.01547  -0.01538   1.85418
   A19        1.88923  -0.00042   0.00000   0.01353   0.01338   1.90261
   A20        1.93128   0.00168   0.00000   0.04060   0.04067   1.97195
   A21        1.90241  -0.00124   0.00000  -0.01889  -0.01885   1.88356
   A22        1.87988   0.00020   0.00000  -0.00603  -0.00589   1.87399
   A23        2.30846  -0.00110   0.00000  -0.01452  -0.01466   2.29380
   A24        2.14412   0.00374   0.00000   0.02047   0.02031   2.16443
   A25        1.83034  -0.00263   0.00000  -0.00624  -0.00604   1.82430
   A26        1.93295   0.00157   0.00000   0.00475   0.00471   1.93766
   A27        2.22697  -0.00080   0.00000  -0.00626  -0.00627   2.22070
   A28        2.12326  -0.00077   0.00000   0.00154   0.00153   2.12479
   A29        1.83473   0.00164   0.00000   0.00421   0.00414   1.83887
   A30        1.94437   0.00058   0.00000   0.00180   0.00200   1.94637
   A31        2.20887  -0.00137   0.00000  -0.00827  -0.00837   2.20050
   A32        2.12995   0.00078   0.00000   0.00647   0.00637   2.13632
   A33        1.88238  -0.00116   0.00000  -0.00448  -0.00486   1.87751
   A34        2.18322   0.00078   0.00000  -0.00690  -0.00778   2.17544
   A35        2.21629   0.00038   0.00000   0.00795   0.00693   2.22323
   A36        1.97306  -0.00091   0.00000  -0.00854  -0.00857   1.96449
   A37        1.90415   0.00099   0.00000   0.00554   0.00545   1.90959
   A38        1.90601  -0.00089   0.00000   0.00161   0.00162   1.90763
   A39        1.91253  -0.00028   0.00000  -0.01162  -0.01162   1.90091
   A40        1.91121   0.00170   0.00000   0.01839   0.01842   1.92964
   A41        1.85300  -0.00060   0.00000  -0.00521  -0.00515   1.84785
   A42        1.90346   0.00095   0.00000   0.00842   0.00838   1.91184
   A43        1.90329   0.00012   0.00000  -0.00693  -0.00694   1.89635
   A44        1.90240  -0.00054   0.00000   0.00159   0.00149   1.90389
   A45        1.89622  -0.00075   0.00000   0.00070   0.00073   1.89695
   A46        1.98959   0.00073   0.00000   0.00794   0.00789   1.99748
   A47        1.86723  -0.00056   0.00000  -0.01279  -0.01280   1.85443
   A48        1.91530   0.00081   0.00000   0.01076   0.01072   1.92602
   A49        1.91878   0.00012   0.00000   0.00274   0.00270   1.92148
   A50        1.84761  -0.00011   0.00000   0.00461   0.00454   1.85215
    D1       -0.13496   0.00005   0.00000  -0.03674  -0.03575  -0.17071
    D2       -2.97666  -0.00017   0.00000   0.14442   0.14340  -2.83326
    D3        3.02031   0.00058   0.00000  -0.02820  -0.02719   2.99313
    D4        0.17861   0.00036   0.00000   0.15295   0.15196   0.33057
    D5        0.00069  -0.00015   0.00000   0.19756   0.19754   0.19823
    D6       -2.13194   0.00011   0.00000   0.21423   0.21424  -1.91770
    D7        2.13297   0.00077   0.00000   0.21649   0.21648   2.34945
    D8        3.12826  -0.00065   0.00000   0.18888   0.18888  -2.96604
    D9        0.99564  -0.00039   0.00000   0.20555   0.20557   1.20121
   D10       -1.02264   0.00028   0.00000   0.20781   0.20782  -0.81482
   D11       -2.83018   0.00000   0.00000   0.20258   0.20261  -2.62756
   D12        1.29374   0.00171   0.00000   0.21697   0.21724   1.51098
   D13       -0.78611   0.00061   0.00000   0.22199   0.22167  -0.56444
   D14        0.02896  -0.00010   0.00000   0.02877   0.02882   0.05778
   D15       -2.13031   0.00161   0.00000   0.04316   0.04344  -2.08687
   D16        2.07303   0.00052   0.00000   0.04818   0.04787   2.12090
   D17        3.07468   0.00031   0.00000   0.04173   0.04187   3.11655
   D18       -0.06475   0.00009   0.00000   0.03121   0.03137  -0.03338
   D19       -1.02616   0.00034   0.00000   0.01214   0.01211  -1.01405
   D20        2.11760   0.00012   0.00000   0.00162   0.00161   2.11920
   D21        1.00960   0.00078   0.00000   0.04928   0.04915   1.05875
   D22       -2.12983   0.00056   0.00000   0.03876   0.03865  -2.09119
   D23        1.03415   0.00206   0.00000   0.21491   0.21513   1.24928
   D24       -1.10739   0.00019   0.00000   0.18335   0.18352  -0.92388
   D25       -3.13007   0.00082   0.00000   0.19156   0.19173  -2.93834
   D26       -1.08016   0.00124   0.00000   0.21730   0.21731  -0.86285
   D27        3.06149  -0.00063   0.00000   0.18574   0.18570  -3.03600
   D28        1.03881   0.00000   0.00000   0.19395   0.19391   1.23271
   D29       -3.13413   0.00152   0.00000   0.18465   0.18452  -2.94960
   D30        1.00752  -0.00034   0.00000   0.15309   0.15291   1.16042
   D31       -1.01516   0.00029   0.00000   0.16130   0.16112  -0.85405
   D32       -3.13012  -0.00097   0.00000  -0.05694  -0.05696   3.09611
   D33        0.00935  -0.00075   0.00000  -0.04659  -0.04657  -0.03723
   D34        1.96138  -0.00061   0.00000   0.12972   0.12986   2.09124
   D35       -1.15151  -0.00103   0.00000   0.14620   0.14631  -1.00520
   D36       -2.21443  -0.00031   0.00000   0.13004   0.13006  -2.08437
   D37        0.95587  -0.00073   0.00000   0.14652   0.14652   1.10239
   D38       -0.15025   0.00017   0.00000   0.13520   0.13507  -0.01518
   D39        3.02004  -0.00025   0.00000   0.15167   0.15153  -3.11161
   D40       -3.12001  -0.00024   0.00000   0.01465   0.01438  -3.10563
   D41        0.01899   0.00002   0.00000   0.02592   0.02575   0.04474
   D42       -0.00337   0.00020   0.00000   0.00070   0.00066  -0.00271
   D43        3.13563   0.00046   0.00000   0.01197   0.01203  -3.13552
   D44        3.12322  -0.00006   0.00000  -0.02023  -0.02029   3.10293
   D45        0.03319  -0.00007   0.00000   0.04768   0.04722   0.08041
   D46        0.00361  -0.00038   0.00000  -0.00736  -0.00729  -0.00368
   D47       -3.08642  -0.00038   0.00000   0.06054   0.06022  -3.02620
   D48        0.00179   0.00006   0.00000   0.00638   0.00642   0.00821
   D49       -3.13739  -0.00018   0.00000  -0.00410  -0.00422   3.14158
   D50        0.00059  -0.00030   0.00000  -0.01117  -0.01121  -0.01062
   D51        3.14121   0.00005   0.00000  -0.01130  -0.01147   3.12974
   D52       -0.00272   0.00043   0.00000   0.01203   0.01200   0.00928
   D53        3.08606   0.00045   0.00000  -0.05810  -0.05849   3.02757
   D54        3.13980   0.00011   0.00000   0.01217   0.01226  -3.13113
   D55       -0.05461   0.00012   0.00000  -0.05797  -0.05823  -0.11284
   D56       -3.13491   0.00037   0.00000   0.06588   0.06586  -3.06905
   D57       -1.06670   0.00008   0.00000   0.06759   0.06754  -0.99915
   D58        0.96610  -0.00081   0.00000   0.04933   0.04930   1.01539
   D59       -1.00699   0.00082   0.00000   0.05875   0.05881  -0.94817
   D60        1.06123   0.00053   0.00000   0.06047   0.06050   1.12173
   D61        3.09402  -0.00037   0.00000   0.04220   0.04225   3.13627
   D62        1.01890   0.00091   0.00000   0.05635   0.05634   1.07525
   D63        3.08712   0.00062   0.00000   0.05806   0.05803  -3.13804
   D64       -1.16327  -0.00028   0.00000   0.03980   0.03978  -1.12349
   D65       -1.23557   0.00012   0.00000  -0.00544  -0.00544  -1.24101
   D66        3.02231  -0.00027   0.00000  -0.01882  -0.01887   3.00344
   D67        2.97498  -0.00013   0.00000  -0.00234  -0.00234   2.97265
   D68        0.94968  -0.00052   0.00000  -0.01573  -0.01576   0.93392
   D69        0.89479   0.00064   0.00000   0.00831   0.00836   0.90315
   D70       -1.13051   0.00024   0.00000  -0.00507  -0.00506  -1.13557
         Item               Value     Threshold  Converged?
 Maximum Force            0.007315     0.000450     NO 
 RMS     Force            0.001456     0.000300     NO 
 Maximum Displacement     1.385381     0.001800     NO 
 RMS     Displacement     0.403786     0.001200     NO 
 Predicted change in Energy=-2.397833D-03
 GradGradGradGradGradGradGradGradGradGradGradGradGradGradGradGradGradGrad

                          Input orientation:                          
 ---------------------------------------------------------------------
 Center     Atomic      Atomic             Coordinates (Angstroms)
 Number     Number       Type             X           Y           Z
 ---------------------------------------------------------------------
      1          8           0       -1.246467   -1.931780   -0.514702
      2          6           0       -1.364305   -0.753253   -0.237932
      3          7           0       -0.390332   -0.078622    0.450263
      4          6           0        0.703256   -0.825651    1.042275
      5          6           0        1.176628   -0.071528    2.266274
      6          8           0        2.171513   -0.714976    2.892561
      7          8           0        0.726849    0.982567    2.634912
      8          6           0        1.857016   -1.051478    0.043192
      9          6           0        2.623695    0.188460   -0.253994
     10          6           0        3.945232    0.502208   -0.074071
     11          7           0        4.201354    1.798360   -0.457637
     12          6           0        3.049362    2.275808   -0.857661
     13          7           0        2.060313    1.341367   -0.762614
     14          6           0       -2.563738    0.081168   -0.645000
     15          6           0       -3.707604   -0.764901   -1.183047
     16          7           0       -4.787068    0.108825   -1.646386
     17          1           0       -0.603567    0.799951    0.899607
     18          1           0        0.330798   -1.805854    1.348247
     19          1           0        2.450022   -0.159903    3.634931
     20          1           0        1.408053   -1.498178   -0.845505
     21          1           0        2.548655   -1.781087    0.459449
     22          1           0        4.722111   -0.140857    0.303876
     23          1           0        2.867778    3.273609   -1.220465
     24          1           0        1.076866    1.476173   -0.917672
     25          1           0       -2.263024    0.799631   -1.412201
     26          1           0       -2.896207    0.677883    0.210062
     27          1           0       -3.342917   -1.346726   -2.027754
     28          1           0       -4.007854   -1.490280   -0.417615
     29          1           0       -5.251409    0.544357   -0.857407
     30          1           0       -5.494697   -0.435684   -2.123448
 ---------------------------------------------------------------------
                    Distance matrix (angstroms):
                    1          2          3          4          5
     1  O    0.000000
     2  C    1.216311   0.000000
     3  N    2.257946   1.370169   0.000000
     4  C    2.729307   2.432895   1.450677   0.000000
     5  C    4.131072   3.632098   2.398606   1.513590   0.000000
     6  O    4.977212   4.722654   3.596222   2.364653   1.340170
     7  O    4.723078   3.954646   2.673370   2.409710   1.203873
     8  C    3.273802   3.247287   2.482484   1.542831   2.522959
     9  C    4.420581   4.097709   3.106713   2.529194   2.917763
    10  C    5.750842   5.458407   4.405610   3.676935   3.670362
    11  N    6.602723   6.126627   5.042908   4.622971   4.479413
    12  C    6.022920   5.388853   4.368695   4.328166   4.333138
    13  N    4.659371   4.048547   3.081087   3.129728   3.457070
    14  C    2.409178   1.516773   2.439022   3.787145   4.742274
    15  C    2.804548   2.526743   3.760715   4.940793   6.019493
    16  N    4.240358   3.800294   4.874666   6.184319   7.134922
    17  H    3.142601   2.070063   1.009589   2.090627   2.407560
    18  H    2.444218   2.548981   2.075990   1.092310   2.136841
    19  H    5.832926   5.468109   4.268059   3.196291   1.871514
    20  H    2.709966   2.934285   2.632174   2.124323   3.431043
    21  H    3.921049   4.105367   3.396486   2.158250   2.840716
    22  H    6.285013   6.141094   5.114916   4.143111   4.052932
    23  H    6.672419   5.923809   4.964278   5.158399   5.119305
    24  H    4.144201   3.375159   2.537971   3.046206   3.541587
    25  H    3.049508   2.144307   2.783357   4.179092   5.110900
    26  H    3.171320   2.143729   2.628575   3.988649   4.623592
    27  H    2.650796   2.733236   4.057883   5.105694   6.363261
[...]
 ,0.00041564,-0.00010883,-0.00003302,0.00002007,0.00001907,0.00003655,0
 .00002664,-0.00002666,-0.00034054,-0.00088503,-0.00020684,-0.00004736,
 0.00000627,-0.00039482,0.00060415,0.00116546,0.00077737,0.00083899,-0.
 00056798,0.00001303,0.02315055,0.05212365,-0.00003310,-0.00152711,-0.0
 0128146,0.00252704,0.00235951,0.00280325,-0.00282234,-0.00265886,0.000
 90095,-0.00093462,0.00139868,-0.00095674,-0.00067485,0.00057150,-0.000
 36983,0.00049043,-0.00018750,0.00026217,0.00025877,-0.00041163,0.00028
 804,0.00103960,-0.00021177,-0.00058291,-0.00983668,-0.00898482,-0.0073
 4714,-0.00233546,0.00363092,-0.00050018,-0.00032448,0.00276777,0.00543
 263,0.00639832,-0.00488604,-0.00328601,-0.16544946,0.01489358,-0.08828
 181,-0.00010191,-0.00010229,0.00005092,0.00017462,0.00011890,0.0000185
 8,-0.00011064,0.00003175,-0.00013722,0.00089959,0.00035053,-0.00118479
 ,0.00019098,-0.00012951,-0.00004642,-0.00005896,0.00002026,-0.00003418
 ,-0.00012297,-0.00009533,0.00004116,0.00001046,-0.00019117,-0.00000838
 ,-0.00111302,0.00014634,0.00130524,0.00028511,-0.00036034,-0.00101561,
 0.17170099,-0.00662436,0.09399475,-0.00203709,-0.00052092,0.00230400,0
 .00861622,0.01367640,-0.02349540,-0.00225067,-0.00060535,0.00073727,-0
 .00053500,-0.00053978,0.00101404,0.00012151,0.00001378,0.00025847,-0.0
 0006309,0.00001638,-0.00008024,-0.00005024,-0.00006673,-0.00011580,-0.
 00022879,0.00013543,-0.00028340,-0.00001245,0.00021682,-0.00011015,0.0
 0008021,0.00002591,0.00003481,0.00011962,-0.00005568,0.00008452,-0.000
 12724,-0.00021961,0.00002555,0.00000506,0.00004171,-0.00001281,-0.0599
 3011,-0.03056912,0.05255893,-0.01070556,-0.01711712,0.02356694,0.00264
 670,0.00105547,0.00062046,0.00004587,0.00044625,-0.00037417,0.00001480
 ,0.00004631,0.00003187,0.00001490,0.00000436,0.00000348,0.00007854,0.0
 0000190,-0.00005087,-0.00011955,0.00001897,0.00006971,0.00001485,0.000
 00203,0.00000788,-0.00000579,-0.00001093,0.00000167,-0.00027734,-0.000
 01294,-0.00010482,0.06940435,0.00299646,0.00024008,-0.00231463,-0.0061
 8818,-0.01162599,0.01614319,0.00017331,0.00029165,-0.00081802,0.000434
 93,0.00007426,-0.00016977,0.00003963,0.00000143,-0.00005647,-0.0000123
 1,0.00000653,-0.00000164,-0.00002207,0.00002213,0.00002314,0.00005728,
 -0.00001907,0.00006262,0.00005182,-0.00007017,0.00006307,-0.00002328,-
 0.00001011,-0.00001177,-0.00005774,-0.00000276,-0.00002866,0.00005341,
 0.00009235,-0.00002829,0.00002618,-0.00002818,-0.00008274,-0.03426959,
 -0.11212462,0.10822022,-0.00849614,-0.01249587,0.01632358,0.00208333,0
 .00149391,-0.00056755,0.00007903,0.00008228,-0.00005315,-0.00008273,-0
 .00000800,-0.00008638,-0.00000375,-0.00000448,0.00000843,-0.00005294,-
 0.00002108,0.00006149,0.00001865,0.00000746,-0.00000988,-0.00000748,-0
 .00000046,0.00000322,-0.00000614,0.00000066,0.00000728,0.00014227,0.00
 014633,0.00014390,0.03968468,0.12335792,-0.00014639,-0.00087566,0.0001
 9502,0.00113262,0.00401092,-0.00754532,-0.00147328,0.00005924,0.000964
 24,-0.00051423,-0.00027432,0.00036885,0.00007362,0.00002462,0.00003084
 ,-0.00004445,0.00000205,-0.00002568,-0.00006691,-0.00003198,0.00001774
 ,-0.00009800,0.00013804,-0.00016553,-0.00004273,0.00020804,-0.00012168
 ,0.00006522,0.00002713,0.00003276,0.00013569,-0.00004418,0.00007722,-0
 .00015602,-0.00018778,0.00000164,0.00007544,-0.00007120,0.00002566,0.0
 5802540,0.10715982,-0.21532260,-0.00212945,-0.00308200,0.00573673,0.00
 016571,-0.00101544,0.00047414,0.00044514,0.00054920,-0.00050351,0.0000
 8388,-0.00003860,0.00002332,0.00001096,0.00001017,-0.00001193,-0.00000
 650,-0.00000766,-0.00002972,-0.00006663,-0.00001358,0.00004849,0.00001
 613,0.00000004,0.00000531,-0.00001681,-0.00001225,0.00001197,-0.000401
 53,0.00009343,0.00000063,-0.06007019,-0.11798515,0.23330642,-0.0034699
 6,0.00504913,-0.00336281,-0.00144116,0.01408713,0.02328777,-0.00019366
 ,-0.00095001,-0.00135074,0.00023561,-0.00023207,-0.00004522,-0.0000982
 8,0.00033813,0.00016448,0.00007469,-0.00011239,-0.00000383,0.00010249,
 -0.00023256,-0.00012118,0.00005892,-0.00002840,0.00005808,0.00000978,0
 .00004243,-0.00003936,0.00001082,-0.00000819,0.00000226,-0.00000255,-0
 .00003566,0.00000851,-0.00002674,-0.00001954,-0.00000461,0.00004644,-0
 .00003048,-0.00003090,-0.06160734,0.03364886,0.03624237,0.00558070,-0.
 01967496,-0.02216901,0.00218556,-0.00012455,0.00088496,-0.00155593,0.0
 0056437,-0.00094788,0.00011636,-0.00005445,0.00012601,-0.00001688,0.00
 000918,-0.00000399,0.00008533,0.00000039,-0.00005063,0.00001232,-0.000
 00367,-0.00001677,-0.00000113,0.00000227,0.00000556,-0.00000759,-0.000
 00380,0.00001067,0.00000503,0.00011120,0.00006891,-0.00209921,0.005447
 02,0.00614448,0.06594608,0.00463617,-0.00240059,0.00215765,0.00038041,
 -0.01509739,-0.01676542,-0.00148697,0.00112940,0.00046760,-0.00006918,
 -0.00021125,0.00076597,0.00020298,-0.00023275,-0.00008788,-0.00008773,
 0.00008129,-0.00002231,-0.00016923,0.00012614,0.00008501,-0.00016095,0
 .00013931,-0.00015134,0.00001069,0.00000926,0.00002091,-0.00000513,0.0
 0000458,0.00000743,-0.00000273,-0.00000339,-0.00000335,0.00000471,0.00
 001183,-0.00000251,-0.00000330,-0.00000713,0.00000633,0.03506534,-0.15
 396363,-0.11991401,0.00394047,-0.01283741,-0.01356773,0.00032910,0.001
 05768,0.00106837,0.00091996,0.00098422,0.00023225,0.00000173,0.0000510
 5,-0.00007651,0.00002441,-0.00000198,0.00000507,-0.00006434,-0.0000234
 3,0.00004059,-0.00006281,0.00000299,0.00004614,0.00000347,-0.00000158,
 -0.00000196,-0.00000175,-0.00000120,0.00000134,0.00002266,0.00000906,-
 0.00001649,-0.00359946,0.01168550,0.01169975,-0.03673849,0.16990901,-0
 .00136860,0.00272644,0.00032171,-0.00312310,0.00626027,0.00572070,-0.0
 0009693,0.00042783,-0.00011665,0.00020564,0.00002517,0.00053933,0.0001
 0898,-0.00014744,-0.00009219,-0.00002002,0.00004192,0.00003183,-0.0000
 0604,0.00011569,0.00003555,-0.00003941,0.00000842,-0.00006102,-0.00001
 219,-0.00000280,-0.00000398,-0.00000537,0.00000613,-0.00000333,0.00000
 938,0.00002834,0.00000644,0.00000197,-0.00001500,0.00001538,-0.0000282
 4,0.00003211,0.00005071,0.03836625,-0.12207934,-0.17977772,0.00148322,
 -0.00488510,-0.00544116,0.00014413,0.00062738,0.00046477,-0.00025187,0
 .00038239,0.00050203,-0.00000052,0.00003698,-0.00000890,0.00000413,-0.
 00000954,0.00000687,-0.00000090,0.00002785,0.00001285,-0.00000411,0.00
 000267,0.00002862,0.00000030,-0.00000041,-0.00000481,0.00001286,0.0000
 0240,-0.00001807,-0.00001732,-0.00010969,-0.00010680,0.00613775,-0.017
 77447,-0.01945020,-0.03835779,0.13405442,0.19521791,-0.00111808,0.0014
 5332,0.00084775,0.00061368,-0.00212400,-0.00173532,0.00052316,0.000945
 04,0.00068269,-0.00014512,0.00022238,0.00002576,0.00001315,-0.00010590
 ,-0.00011875,0.00001279,0.00002630,0.00004727,-0.00001638,0.00008231,0
 .00008626,-0.00000923,-0.00001524,-0.00002468,-0.00001827,-0.00001681,
 0.00000834,-0.00000905,0.00000571,-0.00000511,0.00001728,0.00002841,-0
 .00000152,-0.00000040,-0.00000537,0.00000193,0.00001266,0.00001287,0.0
 0001345,0.00595396,-0.02011967,-0.02070074,-0.06296374,0.04053092,0.04
 573525,-0.00984576,0.02168261,0.01533869,0.00044371,-0.00013338,0.0002
 1222,-0.00005761,-0.00001545,-0.00005777,0.00000114,-0.00000136,-0.000
 00313,-0.00004368,0.00000634,0.00002685,0.00000780,0.00000153,0.000007
 56,-0.00000063,-0.00000118,-0.00000083,0.00000340,0.00000267,-0.000004
 29,0.00000501,-0.00004885,-0.00001144,0.00144190,0.00045474,0.00036537
 ,-0.00513302,-0.00297085,-0.00165524,0.07478197,0.00148909,0.00064175,
 0.00158176,0.00095272,-0.00135537,-0.00028527,-0.00012558,-0.00006678,
 -0.00022869,0.00004392,0.00000408,0.00003854,0.00004993,-0.00003426,0.
 00000290,-0.00003550,0.00001777,-0.00001917,-0.00003670,0.00003572,-0.
 00000468,-0.00000561,0.00000412,-0.00001795,-0.00000032,0.00000917,0.0
 0000070,0.00000284,0.00000402,0.00000344,0.00000360,-0.00000324,0.0000
 0736,-0.00000659,-0.00000789,0.00000262,-0.00001161,0.00001021,0.00001
 966,0.00073206,-0.01349655,-0.01454506,0.04157724,-0.16534933,-0.11986
 228,0.00771750,-0.01651113,-0.01220405,0.00004951,0.00008605,0.0000842
 8,-0.00002447,0.00001908,-0.00000994,0.00000348,-0.00000211,0.00000310
 ,-0.00000565,0.00000406,0.00000100,-0.00000607,0.00000159,0.00000951,0
 .00000194,-0.00000063,-0.00000167,0.00000188,-0.00000258,-0.00000492,0
 .00000507,-0.00001858,-0.00005085,0.00064921,0.00035637,0.00011582,-0.
 00260869,-0.00119037,-0.00027529,-0.04941608,0.18568899,0.00123851,0.0
 0200664,0.00109788,0.00070766,-0.00360327,-0.00107977,0.00010526,0.000
 75968,0.00041668,-0.00005874,0.00004544,-0.00003432,0.00001926,-0.0000
 6493,-0.00009346,-0.00000730,0.00002211,0.00001605,-0.00002226,0.00006
 471,0.00007812,0.00000241,-0.00001595,-0.00001609,-0.00000547,-0.00002
 727,0.00002232,-0.00001057,0.00000242,-0.00000458,-0.00000418,0.000020
 20,-0.00000913,0.00001509,0.00001511,-0.00000017,0.00000097,0.00000383
 ,-0.00000086,-0.00003063,-0.00478711,-0.00613800,0.04697326,-0.1258044
 8,-0.18226429,-0.00461796,0.01263704,0.01212829,0.00012022,0.00002994,
 0.00015172,-0.00001409,-0.00000453,-0.00004411,0.00000295,-0.00000189,
 -0.00000238,-0.00003802,-0.00000200,0.00002900,0.00000442,0.00000245,0
 .00000081,-0.00000145,-0.00000080,-0.00000172,0.00000325,0.00000321,-0
 .00000224,0.00002242,-0.00002563,0.00001449,-0.00034017,0.00035055,0.0
 0096748,-0.00157867,-0.00039388,0.00117348,-0.04677417,0.13280067,0.19
 167555,0.00020992,0.00149364,-0.00028469,0.00133930,-0.00277549,0.0010
 7173,-0.00044104,0.00037436,-0.00051486,0.00009228,-0.00014664,0.00001
 468,0.00001157,0.00002323,0.00008667,-0.00004231,0.00001195,-0.0000669
 3,-0.00000858,0.00000988,-0.00006590,-0.00002552,0.00002618,-0.0000115
 0,0.00004291,-0.00006572,0.00004963,-0.00002196,-0.00001193,-0.0000093
 3,-0.00006925,-0.00000213,-0.00003307,0.00007080,0.00008411,-0.0000012
 4,-0.00004159,0.00000722,-0.00001828,-0.01161382,-0.01339324,0.0220442
 1,-0.07667093,-0.03743346,0.06435015,0.00343456,0.01956553,-0.02617752
 ,-0.00000236,-0.00001639,0.00019112,-0.00004973,0.00005187,-0.00000440
 ,-0.00000618,-0.00000716,0.00001088,0.00000657,-0.00001361,0.00000002,
 -0.00001917,0.00000583,0.00000047,-0.00000539,0.00000106,-0.00000220,0
 .00000533,0.00000445,-0.00000195,0.00013079,-0.00000062,0.00001377,-0.
 00458076,-0.00301374,-0.00161202,0.00138080,0.00048262,-0.00055255,-0.
 00165116,-0.00371977,0.00624192,0.08572162,-0.00014922,0.00069380,0.00
 021990,0.00064473,-0.00120611,0.00023303,-0.00021254,0.00029547,-0.000
 37504,0.00002247,-0.00006366,-0.00004971,-0.00005243,0.00006338,0.0000
 6225,0.00000394,-0.00001055,-0.00003337,0.00003810,-0.00001476,-0.0000
 5887,-0.00001577,0.00000184,-0.00000354,0.00002152,-0.00004557,0.00002
 620,-0.00001578,-0.00000798,-0.00000957,-0.00003655,0.00001136,-0.0000
 2509,0.00004355,0.00004377,0.00000426,-0.00002081,0.00000547,-0.000010
 98,-0.01019731,-0.00882179,0.01432701,-0.03820864,-0.10344410,0.086065
 12,0.00394527,-0.01389793,0.02037690,-0.00007363,-0.00005694,0.0001411
 6,-0.00003328,0.00003247,-0.00000372,-0.00001556,-0.00000571,0.0000046
 6,0.00000437,-0.00000390,-0.00000570,-0.00000832,0.00000328,-0.0000015
 0,-0.00000540,0.00000126,-0.00000070,0.00000519,0.00000499,-0.00000097
 ,0.00007605,-0.00001683,0.00001659,-0.00276859,-0.00132004,-0.00047331
 ,0.00098079,0.00033352,0.00036277,0.00673813,0.01140006,-0.01653653,0.
 03990168,0.11503520,-0.00013688,-0.00097180,0.00057940,0.00021738,0.00
 125634,0.00054373,0.00036773,-0.00029362,-0.00009904,0.00003438,0.0000
 8339,0.00000923,0.00002412,0.00000145,-0.00001404,0.00000155,-0.000010
 24,0.00002367,-0.00001358,-0.00001935,0.00001403,0.00000893,-0.0000177
 9,0.00001077,-0.00000818,0.00001236,0.00000036,0.00000288,0.00000269,0
 .00000443,0.00000378,-0.00001580,0.00000998,-0.00001317,-0.00000366,-0
 .00000525,0.00000127,0.00000422,0.00000525,-0.00291335,-0.00479730,0.0
 0610057,0.06671576,0.08657916,-0.20539506,-0.00567193,0.01222482,-0.00
 902575,-0.00002030,0.00002893,-0.00009924,0.00001602,-0.00002571,-0.00
 000031,0.00001174,0.00000772,-0.00000249,-0.00000375,0.00000482,-0.000
 00463,0.00001052,-0.00000126,-0.00000269,0.00000308,-0.00000102,-0.000
 00023,-0.00000254,-0.00000422,-0.00000025,0.00001301,0.00000798,-0.000
 01769,-0.00225524,-0.00114042,0.00096023,0.00052060,0.00050583,0.00098
 977,0.00914971,0.01108108,-0.01948090,-0.06468247,-0.10381761,0.223316
 92,-0.00013301,-0.00103876,-0.00036332,-0.00047333,0.00121265,-0.00042
 565,0.00005868,-0.00017787,0.00000271,-0.00005198,0.00003045,-0.000026
 68,-0.00007210,0.00006623,-0.00001616,0.00005543,-0.00003673,0.0000385
 2,0.00004904,-0.00005559,0.00000318,0.00000864,-0.00000634,0.00001603,
 -0.00000982,0.00001526,-0.00001980,0.00000305,0.00000044,0.00000007,0.
 00002476,-0.00000180,0.00000688,-0.00002473,-0.00001897,-0.00000540,0.
 00002758,-0.00000679,-0.00000191,0.00091914,0.00100433,0.00162985,-0.0
 1053232,0.01454107,0.02373495,-0.10975113,0.10140018,0.09263734,-0.000
 08674,0.00000221,-0.00005775,0.00001283,-0.00001289,0.00000514,-0.0000
 0693,0.00000627,-0.00001043,-0.00000299,0.00000486,-0.00000095,0.00001
 053,-0.00000151,-0.00000122,0.00000026,-0.00000056,0.00000325,-0.00000
 636,-0.00000176,0.00000575,-0.00002854,0.00001885,0.00001752,-0.000102
 63,0.00008871,0.00010169,-0.00049963,-0.00059549,-0.00089116,-0.003400
 35,0.00276058,-0.00285502,0.00146169,-0.00052989,-0.00107046,0.1114890
 3,0.00009087,0.00004488,0.00010416,0.00019993,-0.00029457,0.00004190,-
 0.00007828,-0.00000910,0.00002403,0.00001608,-0.00000508,-0.00001693,0
 .00000808,0.00003546,0.00000849,-0.00000383,-0.00001463,0.00000146,-0.
 00000900,-0.00003190,0.00000021,0.00000618,0.00000290,-0.00000390,0.00
 000141,0.00001293,-0.00000179,0.00000309,0.00000052,0.00000432,0.00000
 428,-0.00001885,0.00000561,-0.00001034,0.00000148,-0.00000710,0.000005
 66,-0.00000533,0.00000386,-0.00050934,0.00123859,0.00049676,0.01191095
 ,-0.01794614,-0.01710074,0.07489899,-0.14905425,-0.14653885,-0.0000022
 9,0.00006220,-0.00003258,0.00000489,-0.00000831,-0.00000358,0.00000548
 ,0.00000675,-0.00000379,-0.00000070,-0.00000175,-0.00000070,-0.0000008
 3,-0.00000095,0.00000220,0.00000233,-0.00000084,0.00000123,-0.00000549
 ,-0.00000263,0.00000446,0.00000143,0.00002498,-0.00000706,-0.00006514,
 -0.00006745,0.00030004,0.00052980,0.00038500,-0.00021652,0.00309583,-0
 .00117462,0.00304487,-0.00178431,0.00086578,-0.00099275,-0.09742671,0.
 18037456,-0.00025113,0.00001873,-0.00011354,0.00006869,0.00017418,0.00
 004145,0.00008246,-0.00004380,-0.00004004,-0.00003419,0.00003015,0.000
 00058,-0.00004130,0.00000452,-0.00001860,0.00003196,-0.00000631,0.0000
 2016,0.00003344,0.00000178,0.00000258,-0.00000207,-0.00001007,0.000010
 95,-0.00000794,-0.00000562,-0.00000602,-0.00000282,0.00000033,-0.00000
 454,0.00000791,0.00001882,-0.00000276,-0.00000144,-0.00001118,0.000005
 24,0.00000848,0.00000388,-0.00000142,0.00066027,0.00032086,0.00098544,
 -0.00873247,0.01612509,0.00913513,0.08963095,-0.19143818,-0.23728995,-
 0.00004491,-0.00003979,0.00000470,-0.00000008,0.00000059,0.00000347,-0
 .00000888,-0.00000259,-0.00000177,-0.00000148,0.00000415,-0.00000083,0
 .00000626,0.00000104,-0.00000328,-0.00000217,0.00000041,0.00000007,0.0
 0000310,0.00000181,-0.00000209,-0.00000836,-0.00002053,0.00001124,0.00
 007969,-0.00012044,-0.00029381,0.00032288,-0.00034431,-0.00012775,-0.0
 0230538,0.00202045,0.00038758,-0.00019594,0.00033200,0.00184383,-0.089
 30837,0.17829071,0.23898907,0.00010790,0.00073930,0.00026531,-0.000315
 82,-0.00268649,-0.00067592,-0.00088194,0.00062063,-0.00029455,0.000080
 18,-0.00024536,-0.00010011,0.00003860,0.00008186,0.00013336,-0.0000859
 3,0.00000253,-0.00010434,-0.00004172,-0.00002009,-0.00007772,-0.000011
 11,0.00002628,-0.00003996,0.00002360,0.00000653,0.00001926,0.00000248,
 -0.00000195,0.00000710,-0.00002928,-0.00002683,-0.00000166,0.00001533,
 0.00002217,-0.00000056,-0.00003381,0.00000095,0.00000758,-0.00437659,0
 .00577924,-0.00210438,-0.02016153,-0.01897229,-0.00513188,-0.26547667,
 -0.14521451,-0.12239082,0.00002677,0.00007440,0.00008774,-0.00001632,0
 .00002308,0.00000034,0.00000134,-0.00000046,0.00000612,0.00001767,-0.0
 0001272,-0.00000688,-0.00002816,0.00000063,0.00000918,0.00000197,0.000
 00004,-0.00000246,0.00000054,-0.00000321,-0.00000183,0.00003923,0.0000
 1873,-0.00004136,0.00052103,0.00040466,0.00000379,0.00030218,-0.000006
 27,-0.00004326,0.00058086,-0.00003797,0.00090110,0.00134161,-0.0000820
 7,-0.00031060,0.01106193,0.00911098,0.01001282,0.27729568,-0.00018584,
 -0.00001588,-0.00001477,0.00079142,0.00095116,0.00009720,0.00018492,-0
 .00025636,0.00009258,0.00001662,0.00001270,0.00009610,0.00003261,-0.00
 003865,-0.00000052,-0.00000710,0.00001056,0.00000578,-0.00001497,0.000
 01210,0.00000183,-0.00000945,0.00000713,0.00000114,0.00000286,-0.00000
 332,0.00000237,0.00000021,-0.00000004,0.00000019,-0.00000840,-0.000004
 73,0.00000074,0.00000738,0.00000665,0.00000079,-0.00000751,0.00000160,
 0.00000239,0.00220258,-0.00214163,0.00133968,0.02249433,0.01096982,0.0
 1388116,-0.15489997,-0.16578102,-0.10500350,0.00002205,-0.00000650,-0.
 00002888,0.00000818,-0.00000047,0.00000749,0.00000730,0.00000031,0.000
 00408,0.00000335,-0.00000013,-0.00000460,-0.00000071,0.00000007,-0.000
 00028,0.00000065,0.00000019,-0.00000061,0.00000195,0.00000022,-0.00000
 196,0.00001117,-0.00000173,-0.00000509,0.00011576,-0.00006056,-0.00028
 519,0.00004722,0.00005228,0.00034644,-0.00031499,0.00093042,-0.0005405
 9,0.00034062,0.00012422,0.00031175,-0.02124044,-0.01441962,-0.00530666
 ,0.15039819,0.16965123,0.00025452,0.00003230,-0.00013690,-0.00037355,-
 0.00037158,0.00056033,0.00024303,-0.00001373,0.00008063,-0.00003369,0.
 00005221,-0.00002675,-0.00006854,0.00001787,-0.00005266,0.00005964,-0.
 00001660,0.00004225,0.00004876,-0.00000985,0.00002304,0.00001198,-0.00
 001606,0.00002344,-0.00001315,-0.00000202,-0.00001524,-0.00000135,0.00
 000038,-0.00000606,0.00002434,0.00002087,-0.00000333,-0.00001297,-0.00
 001895,0.00000115,0.00002537,-0.00000407,-0.00001066,0.00014134,0.0018
 9246,-0.00002024,-0.01349480,-0.00508264,-0.00866647,-0.08443018,-0.07
 301769,-0.06664706,-0.00004838,-0.00004345,-0.00002293,-0.00000281,-0.
 00000618,-0.00000295,-0.00001257,-0.00000075,-0.00000370,-0.00001386,0
 .00000686,0.00000827,0.00001526,0.00000009,-0.00000281,-0.00000281,0.0
 0000058,0.00000301,-0.00000220,0.00000309,0.00000429,-0.00004025,-0.00
 000916,0.00003309,-0.00024379,-0.00016128,0.00022129,0.00023585,0.0001
 8303,0.00009465,0.00084929,-0.00026306,0.00101257,0.00015957,-0.000765
 63,-0.00026460,-0.02314861,-0.01740801,-0.01353510,0.11987457,0.095000
 96,0.08730945\\0.00000057,0.00000528,0.00000192,0.00000199,-0.00000289
 ,-0.00000381,0.00000071,0.00000113,-0.00000044,-0.00000051,-0.00000007
 ,0.00000082,0.00000084,0.00000028,0.00000125,-0.00000190,0.00000101,-0
 .00000162,0.00000102,-0.00000128,-0.00000076,0.00000034,-0.00000060,-0
 .00000014,-0.00000031,-0.00000312,0.00000135,0.00000206,0.00000161,0.0
 0000021,-0.00000239,-0.00000099,-0.00000071,0.00000244,-0.00000052,0.0
 0000189,-0.00000344,0.00000161,-0.00000123,-0.00000027,-0.00000071,0.0
 0000047,-0.00000134,-0.00000010,0.00000014,-0.00000086,-0.00000042,-0.
 00000092,-0.00000067,-0.00000033,0.00000130,0.00000004,0.00000037,0.00
 000023,0.00000044,0.00000059,0.00000146,-0.00000020,-0.00000019,0.0000
 0018,-0.00000076,0.00000007,-0.00000045,-0.00000107,0.00000092,-0.0000
 0079,0.00000029,0.00000005,-0.00000002,0.00000102,-0.00000101,-0.00000
 037,0.00000091,-0.00000150,0.00000064,0.00000081,-0.00000080,0.0000000
 9,0.00000023,0.00000076,-0.00000064,0.00000026,0.00000083,0.00000004,-
 0.00000008,-0.00000010,0.00000003,-0.00000018,0.00000011,-0.00000013\\
 \@


 TO DETECT ERRORS, THE PROGRAMMER MUST HAVE A CONNIVING MIND,
 ONE THAT DELIGHTS IN UNCOVERING FLAWS WHERE BEAUTY AND
 PERFECTION WERE ONCE THOUGHT TO LIE.

             -- THE PSYCHOLOGY OF COMPUTER PROGRAMMING
                GERALD M. WEINBERG
 Job cpu time:       0 days 13 hours 53 minutes  0.3 seconds.
 File lengths (MBytes):  RWF=    973 Int=      0 D2E=      0 Chk=     34 Scr=      1
 Normal termination of Gaussian 09 at Sat Jul 24 11:43:45 2021.
