 Entering Gaussian System, Link 0=g09
 Input=opt_freq-conf-591.com
 Output=opt_freq-conf-591.log
 Initial command:
 /aerosol/software/g09/l1.exe "/scratch/nicole/10353/Gau-74382.inp" -scrdir="/scratch/nicole/10353/"
 Entering Link 1 = /aerosol/software/g09/l1.exe PID=     74388.
  
 Copyright (c) 1988,1990,1992,1993,1995,1998,2003,2009,2013,
            Gaussian, Inc.  All Rights Reserved.
  
 This is part of the Gaussian(R) 09 program.  It is based on
 the Gaussian(R) 03 system (copyright 2003, Gaussian, Inc.),
 the Gaussian(R) 98 system (copyright 1998, Gaussian, Inc.),
 the Gaussian(R) 94 system (copyright 1995, Gaussian, Inc.),
 the Gaussian 92(TM) system (copyright 1992, Gaussian, Inc.),
 the Gaussian 90(TM) system (copyright 1990, Gaussian, Inc.),
 the Gaussian 88(TM) system (copyright 1988, Gaussian, Inc.),
 the Gaussian 86(TM) system (copyright 1986, Carnegie Mellon
 University), and the Gaussian 82(TM) system (copyright 1983,
 Carnegie Mellon University). Gaussian is a federally registered
 trademark of Gaussian, Inc.
  
 This software contains proprietary and confidential information,
 including trade secrets, belonging to Gaussian, Inc.
  
 This software is provided under written license and may be
 used, copied, transmitted, or stored only in accord with that
 written license.
  
 The following legend is applicable only to US Government
 contracts under FAR:
  
                    RESTRICTED RIGHTS LEGEND
  
 Use, reproduction and disclosure by the US Government is
 subject to restrictions as set forth in subparagraphs (a)
 and (c) of the Commercial Computer Software - Restricted
 Rights clause in FAR 52.227-19.
  
 Gaussian, Inc.
 340 Quinnipiac St., Bldg. 40, Wallingford CT 06492
  
  
 ---------------------------------------------------------------
 Warning -- This program may not be used in any manner that
 competes with the business of Gaussian, Inc. or will provide
 assistance to any competitor of Gaussian, Inc.  The licensee
 of this program is prohibited from giving any competitor of
 Gaussian, Inc. access to this program.  By using this program,
 the user acknowledges that Gaussian, Inc. is engaged in the
 business of creating and licensing software in the field of
 computational chemistry and represents and warrants to the
 licensee that it is not a competitor of Gaussian, Inc. and that
 it will not use this program in any manner prohibited above.
 ---------------------------------------------------------------
  

 Cite this work as:
 Gaussian 09, Revision D.01,
 M. J. Frisch, G. W. Trucks, H. B. Schlegel, G. E. Scuseria, 
 M. A. Robb, J. R. Cheeseman, G. Scalmani, V. Barone, B. Mennucci, 
 G. A. Petersson, H. Nakatsuji, M. Caricato, X. Li, H. P. Hratchian, 
 A. F. Izmaylov, J. Bloino, G. Zheng, J. L. Sonnenberg, M. Hada, 
 M. Ehara, K. Toyota, R. Fukuda, J. Hasegawa, M. Ishida, T. Nakajima, 
 Y. Honda, O. Kitao, H. Nakai, T. Vreven, J. A. Montgomery, Jr., 
 J. E. Peralta, F. Ogliaro, M. Bearpark, J. J. Heyd, E. Brothers, 
 K. N. Kudin, V. N. Staroverov, T. Keith, R. Kobayashi, J. Normand, 
 K. Raghavachari, A. Rendell, J. C. Burant, S. S. Iyengar, J. Tomasi, 
 M. Cossi, N. Rega, J. M. Millam, M. Klene, J. E. Knox, J. B. Cross, 
 V. Bakken, C. Adamo, J. Jaramillo, R. Gomperts, R. E. Stratmann, 
 O. Yazyev, A. J. Austin, R. Cammi, C. Pomelli, J. W. Ochterski, 
 R. L. Martin, K. Morokuma, V. G. Zakrzewski, G. A. Voth, 
 P. Salvador, J. J. Dannenberg, S. Dapprich, A. D. Daniels, 
 O. Farkas, J. B. Foresman, J. V. Ortiz, J. Cioslowski, 
 and D. J. Fox, Gaussian, Inc., Wallingford CT, 2013.
 
 ******************************************
 Gaussian 09:  ES64L-G09RevD.01 24-Apr-2013
                24-Jul-2021 
 ******************************************
 %mem=2gb
 %nproc=4
 Will use up to    4 processors via shared memory.
 %chk=conf-591.chk
 ----------------------------------------------------------------------
 # B3LYP/6-311G(2df,2pd) EmpiricalDispersion=GD3BJ opt=calcfc freq=nora
 man nosymm integral(ultrafinegrid)
 ----------------------------------------------------------------------
 1/10=4,14=-1,18=20,19=15,26=4,38=1/1,3;
 2/9=110,12=2,15=1,17=6,18=5,40=1/2;
 3/5=4,6=6,7=404,11=2,16=1,25=1,30=1,71=2,74=-5,75=-5,124=41,140=1/1,2,3;
 4//1;
 5/5=2,38=5/2;
 8/6=4,10=90,11=11/1;
 11/6=1,8=1,9=11,15=111,16=1,31=1/1,2,10;
 10/6=1,13=1,31=1/2;
 6/7=2,8=2,9=2,10=2,28=1/1;
 7/10=1,18=20,25=1,30=1/1,2,3,16;
 1/10=4,14=-1,18=20,19=15,26=4/3(2);
 2/9=110,15=1/2;
 99//99;
 2/9=110,15=1/2;
 3/5=4,6=6,7=404,11=2,16=1,25=1,30=1,71=1,74=-5,75=-5,124=41/1,2,3;
 4/5=5,16=3,69=1/1;
 5/5=2,38=5/2;
 7/30=1/1,2,3,16;
 1/14=-1,18=20,19=15,26=4/3(-5);
 2/9=110,15=1/2;
 6/7=2,8=2,9=2,10=2,19=2,28=1/1;
 99/9=1/99;
 ------------------------------------------------------------
 Candidate Structure: Conf:591 OPT and FREQ calc in gas phase
 ------------------------------------------------------------
 Symbolic Z-matrix:
 Charge =  0 Multiplicity = 1
 O                    -1.50958  -0.24594  -1.12071 
 C                    -1.65441  -0.21585   0.0925 
 N                    -0.5916   -0.29727   0.93485 
 C                     0.76368  -0.4252    0.42429 
 C                     1.58669  -1.02445   1.54156 
 O                     2.3125   -2.09563   1.1682 
 O                     1.5985   -0.57963   2.66283 
 C                     1.31394   0.95998   0.02517 
 C                     2.70026   0.91407  -0.52907 
 C                     3.9178    1.22596   0.01077 
 N                     4.93794   0.98003  -0.89233 
 C                     4.33935   0.52657  -1.96961 
 N                     2.98641   0.46695  -1.80145 
 C                    -3.00269  -0.05793   0.77323 
 C                    -4.17095  -0.43485  -0.12418 
 N                    -5.42234  -0.19908   0.60083 
 H                    -0.71097  -0.23088   1.93345 
 H                     0.74552  -1.08257  -0.44413 
 H                     2.80172  -2.37166   1.95519 
 H                     1.31406   1.5975    0.90708 
 H                     0.6228    1.38591  -0.69981 
 H                     4.1116    1.5998    1.00794 
 H                     4.81374   0.23118  -2.88829 
 H                     2.31183   0.15899  -2.48369 
 H                    -3.02322  -0.65284   1.69002 
 H                    -3.1142    0.9894    1.07929 
 H                    -4.11323  -1.49734  -0.37067 
 H                    -4.08587   0.12045  -1.06646 
 H                    -6.20558  -0.54364   0.05872 
 H                    -5.57369   0.79812   0.70512 
 

 GradGradGradGradGradGradGradGradGradGradGradGradGradGradGradGradGradGrad
 Berny optimization.
 Initialization pass.
                           ----------------------------
                           !    Initial Parameters    !
                           ! (Angstroms and Degrees)  !
 --------------------------                            --------------------------
 ! Name  Definition              Value          Derivative Info.                !
 --------------------------------------------------------------------------------
 ! R1    R(1,2)                  1.2222         calculate D2E/DX2 analytically  !
 ! R2    R(2,3)                  1.3586         calculate D2E/DX2 analytically  !
 ! R3    R(2,14)                 1.5186         calculate D2E/DX2 analytically  !
 ! R4    R(3,4)                  1.4539         calculate D2E/DX2 analytically  !
 ! R5    R(3,17)                 1.0079         calculate D2E/DX2 analytically  !
 ! R6    R(4,5)                  1.5115         calculate D2E/DX2 analytically  !
 ! R7    R(4,8)                  1.543          calculate D2E/DX2 analytically  !
 ! R8    R(4,18)                 1.0893         calculate D2E/DX2 analytically  !
 ! R9    R(5,6)                  1.3467         calculate D2E/DX2 analytically  !
 ! R10   R(5,7)                  1.2063         calculate D2E/DX2 analytically  !
 ! R11   R(6,19)                 0.9669         calculate D2E/DX2 analytically  !
 ! R12   R(8,9)                  1.4937         calculate D2E/DX2 analytically  !
 ! R13   R(8,20)                 1.0882         calculate D2E/DX2 analytically  !
 ! R14   R(8,21)                 1.0884         calculate D2E/DX2 analytically  !
 ! R15   R(9,10)                 1.3679         calculate D2E/DX2 analytically  !
 ! R16   R(9,13)                 1.3787         calculate D2E/DX2 analytically  !
 ! R17   R(10,11)                1.3845         calculate D2E/DX2 analytically  !
 ! R18   R(10,22)                1.0824         calculate D2E/DX2 analytically  !
 ! R19   R(11,12)                1.3132         calculate D2E/DX2 analytically  !
 ! R20   R(12,13)                1.3647         calculate D2E/DX2 analytically  !
 ! R21   R(12,23)                1.0753         calculate D2E/DX2 analytically  !
 ! R22   R(13,24)                1.0076         calculate D2E/DX2 analytically  !
 ! R23   R(14,15)                1.5206         calculate D2E/DX2 analytically  !
 ! R24   R(14,25)                1.0931         calculate D2E/DX2 analytically  !
 ! R25   R(14,26)                1.0968         calculate D2E/DX2 analytically  !
 ! R26   R(15,16)                1.4653         calculate D2E/DX2 analytically  !
 ! R27   R(15,27)                1.0922         calculate D2E/DX2 analytically  !
 ! R28   R(15,28)                1.097          calculate D2E/DX2 analytically  !
 ! R29   R(16,29)                1.013          calculate D2E/DX2 analytically  !
 ! R30   R(16,30)                1.014          calculate D2E/DX2 analytically  !
 ! A1    A(1,2,3)              121.4187         calculate D2E/DX2 analytically  !
 ! A2    A(1,2,14)             123.5544         calculate D2E/DX2 analytically  !
 ! A3    A(3,2,14)             115.0146         calculate D2E/DX2 analytically  !
 ! A4    A(2,3,4)              121.1161         calculate D2E/DX2 analytically  !
 ! A5    A(2,3,17)             121.1786         calculate D2E/DX2 analytically  !
 ! A6    A(4,3,17)             117.6531         calculate D2E/DX2 analytically  !
 ! A7    A(3,4,5)              106.432          calculate D2E/DX2 analytically  !
 ! A8    A(3,4,8)              110.1376         calculate D2E/DX2 analytically  !
 ! A9    A(3,4,18)             108.5126         calculate D2E/DX2 analytically  !
 ! A10   A(5,4,8)              110.6663         calculate D2E/DX2 analytically  !
 ! A11   A(5,4,18)             111.0446         calculate D2E/DX2 analytically  !
 ! A12   A(8,4,18)             109.9672         calculate D2E/DX2 analytically  !
 ! A13   A(4,5,6)              113.8206         calculate D2E/DX2 analytically  !
 ! A14   A(4,5,7)              123.1051         calculate D2E/DX2 analytically  !
 ! A15   A(6,5,7)              123.073          calculate D2E/DX2 analytically  !
 ! A16   A(5,6,19)             105.9096         calculate D2E/DX2 analytically  !
 ! A17   A(4,8,9)              113.5389         calculate D2E/DX2 analytically  !
 ! A18   A(4,8,20)             108.4415         calculate D2E/DX2 analytically  !
 ! A19   A(4,8,21)             107.2857         calculate D2E/DX2 analytically  !
 ! A20   A(9,8,20)             108.5794         calculate D2E/DX2 analytically  !
 ! A21   A(9,8,21)             110.7451         calculate D2E/DX2 analytically  !
 ! A22   A(20,8,21)            108.0966         calculate D2E/DX2 analytically  !
 ! A23   A(8,9,10)             132.2717         calculate D2E/DX2 analytically  !
 ! A24   A(8,9,13)             123.0274         calculate D2E/DX2 analytically  !
 ! A25   A(10,9,13)            104.681          calculate D2E/DX2 analytically  !
 ! A26   A(9,10,11)            110.9726         calculate D2E/DX2 analytically  !
 ! A27   A(9,10,22)            126.9908         calculate D2E/DX2 analytically  !
 ! A28   A(11,10,22)           122.0282         calculate D2E/DX2 analytically  !
 ! A29   A(10,11,12)           105.1044         calculate D2E/DX2 analytically  !
 ! A30   A(11,12,13)           111.4636         calculate D2E/DX2 analytically  !
 ! A31   A(11,12,23)           126.4854         calculate D2E/DX2 analytically  !
 ! A32   A(13,12,23)           122.0508         calculate D2E/DX2 analytically  !
 ! A33   A(9,13,12)            107.7781         calculate D2E/DX2 analytically  !
 ! A34   A(9,13,24)            125.8051         calculate D2E/DX2 analytically  !
 ! A35   A(12,13,24)           126.4152         calculate D2E/DX2 analytically  !
 ! A36   A(2,14,15)            113.0663         calculate D2E/DX2 analytically  !
 ! A37   A(2,14,25)            109.6361         calculate D2E/DX2 analytically  !
 ! A38   A(2,14,26)            108.3393         calculate D2E/DX2 analytically  !
 ! A39   A(15,14,25)           110.2211         calculate D2E/DX2 analytically  !
 ! A40   A(15,14,26)           108.8604         calculate D2E/DX2 analytically  !
 ! A41   A(25,14,26)           106.4831         calculate D2E/DX2 analytically  !
 ! A42   A(14,15,16)           108.9191         calculate D2E/DX2 analytically  !
 ! A43   A(14,15,27)           109.4936         calculate D2E/DX2 analytically  !
 ! A44   A(14,15,28)           108.7749         calculate D2E/DX2 analytically  !
 ! A45   A(16,15,27)           108.259          calculate D2E/DX2 analytically  !
 ! A46   A(16,15,28)           114.1907         calculate D2E/DX2 analytically  !
 ! A47   A(27,15,28)           107.125          calculate D2E/DX2 analytically  !
 ! A48   A(15,16,29)           109.9255         calculate D2E/DX2 analytically  !
 ! A49   A(15,16,30)           109.6695         calculate D2E/DX2 analytically  !
 ! A50   A(29,16,30)           105.9114         calculate D2E/DX2 analytically  !
 ! D1    D(1,2,3,4)             -0.0656         calculate D2E/DX2 analytically  !
 ! D2    D(1,2,3,17)           177.2451         calculate D2E/DX2 analytically  !
 ! D3    D(14,2,3,4)          -178.8382         calculate D2E/DX2 analytically  !
 ! D4    D(14,2,3,17)           -1.5275         calculate D2E/DX2 analytically  !
 ! D5    D(1,2,14,15)           20.6569         calculate D2E/DX2 analytically  !
 ! D6    D(1,2,14,25)          144.0797         calculate D2E/DX2 analytically  !
 ! D7    D(1,2,14,26)         -100.0943         calculate D2E/DX2 analytically  !
 ! D8    D(3,2,14,15)         -160.6            calculate D2E/DX2 analytically  !
 ! D9    D(3,2,14,25)          -37.1772         calculate D2E/DX2 analytically  !
 ! D10   D(3,2,14,26)           78.6488         calculate D2E/DX2 analytically  !
 ! D11   D(2,3,4,5)           -158.086          calculate D2E/DX2 analytically  !
 ! D12   D(2,3,4,8)             81.9102         calculate D2E/DX2 analytically  !
 ! D13   D(2,3,4,18)           -38.5106         calculate D2E/DX2 analytically  !
 ! D14   D(17,3,4,5)            24.5115         calculate D2E/DX2 analytically  !
 ! D15   D(17,3,4,8)           -95.4923         calculate D2E/DX2 analytically  !
 ! D16   D(17,3,4,18)          144.0868         calculate D2E/DX2 analytically  !
 ! D17   D(3,4,5,6)            129.2775         calculate D2E/DX2 analytically  !
 ! D18   D(3,4,5,7)            -51.1291         calculate D2E/DX2 analytically  !
 ! D19   D(8,4,5,6)           -111.0615         calculate D2E/DX2 analytically  !
 ! D20   D(8,4,5,7)             68.5318         calculate D2E/DX2 analytically  !
 ! D21   D(18,4,5,6)            11.3623         calculate D2E/DX2 analytically  !
 ! D22   D(18,4,5,7)          -169.0443         calculate D2E/DX2 analytically  !
 ! D23   D(3,4,8,9)           -179.2007         calculate D2E/DX2 analytically  !
 ! D24   D(3,4,8,20)            60.0281         calculate D2E/DX2 analytically  !
 ! D25   D(3,4,8,21)           -56.5037         calculate D2E/DX2 analytically  !
 ! D26   D(5,4,8,9)             63.3907         calculate D2E/DX2 analytically  !
 ! D27   D(5,4,8,20)           -57.3805         calculate D2E/DX2 analytically  !
 ! D28   D(5,4,8,21)          -173.9123         calculate D2E/DX2 analytically  !
 ! D29   D(18,4,8,9)           -59.6599         calculate D2E/DX2 analytically  !
 ! D30   D(18,4,8,20)          179.5689         calculate D2E/DX2 analytically  !
 ! D31   D(18,4,8,21)           63.0371         calculate D2E/DX2 analytically  !
 ! D32   D(4,5,6,19)           178.8488         calculate D2E/DX2 analytically  !
 ! D33   D(7,5,6,19)            -0.7447         calculate D2E/DX2 analytically  !
 ! D34   D(4,8,9,10)          -102.8953         calculate D2E/DX2 analytically  !
 ! D35   D(4,8,9,13)            75.2209         calculate D2E/DX2 analytically  !
 ! D36   D(20,8,9,10)           17.7983         calculate D2E/DX2 analytically  !
 ! D37   D(20,8,9,13)         -164.0855         calculate D2E/DX2 analytically  !
 ! D38   D(21,8,9,10)          136.3359         calculate D2E/DX2 analytically  !
 ! D39   D(21,8,9,13)          -45.5479         calculate D2E/DX2 analytically  !
 ! D40   D(8,9,10,11)          178.2377         calculate D2E/DX2 analytically  !
 ! D41   D(8,9,10,22)           -0.7218         calculate D2E/DX2 analytically  !
 ! D42   D(13,9,10,11)          -0.1296         calculate D2E/DX2 analytically  !
 ! D43   D(13,9,10,22)        -179.0891         calculate D2E/DX2 analytically  !
 ! D44   D(8,9,13,12)         -178.5056         calculate D2E/DX2 analytically  !
 ! D45   D(8,9,13,24)            1.9218         calculate D2E/DX2 analytically  !
 ! D46   D(10,9,13,12)           0.0535         calculate D2E/DX2 analytically  !
 ! D47   D(10,9,13,24)        -179.5191         calculate D2E/DX2 analytically  !
 ! D48   D(9,10,11,12)           0.1564         calculate D2E/DX2 analytically  !
 ! D49   D(22,10,11,12)        179.1761         calculate D2E/DX2 analytically  !
 ! D50   D(10,11,12,13)         -0.1201         calculate D2E/DX2 analytically  !
 ! D51   D(10,11,12,23)        179.7237         calculate D2E/DX2 analytically  !
 ! D52   D(11,12,13,9)           0.0439         calculate D2E/DX2 analytically  !
 ! D53   D(11,12,13,24)        179.6132         calculate D2E/DX2 analytically  !
 ! D54   D(23,12,13,9)        -179.808          calculate D2E/DX2 analytically  !
 ! D55   D(23,12,13,24)         -0.2387         calculate D2E/DX2 analytically  !
 ! D56   D(2,14,15,16)        -177.7752         calculate D2E/DX2 analytically  !
 ! D57   D(2,14,15,27)          64.0166         calculate D2E/DX2 analytically  !
 ! D58   D(2,14,15,28)         -52.7432         calculate D2E/DX2 analytically  !
 ! D59   D(25,14,15,16)         59.1254         calculate D2E/DX2 analytically  !
 ! D60   D(25,14,15,27)        -59.0828         calculate D2E/DX2 analytically  !
 ! D61   D(25,14,15,28)       -175.8427         calculate D2E/DX2 analytically  !
 ! D62   D(26,14,15,16)        -57.3205         calculate D2E/DX2 analytically  !
 ! D63   D(26,14,15,27)       -175.5287         calculate D2E/DX2 analytically  !
 ! D64   D(26,14,15,28)         67.7115         calculate D2E/DX2 analytically  !
 ! D65   D(14,15,16,29)       -173.5509         calculate D2E/DX2 analytically  !
 ! D66   D(14,15,16,30)         70.3928         calculate D2E/DX2 analytically  !
 ! D67   D(27,15,16,29)        -54.5684         calculate D2E/DX2 analytically  !
 ! D68   D(27,15,16,30)       -170.6246         calculate D2E/DX2 analytically  !
 ! D69   D(28,15,16,29)         64.6492         calculate D2E/DX2 analytically  !
 ! D70   D(28,15,16,30)        -51.4071         calculate D2E/DX2 analytically  !
 --------------------------------------------------------------------------------
 Trust Radius=3.00D-01 FncErr=1.00D-07 GrdErr=1.00D-06
 Number of steps in this run=    160 maximum allowed number of steps=    180.
 GradGradGradGradGradGradGradGradGradGradGradGradGradGradGradGradGradGrad

                          Input orientation:                          
 ---------------------------------------------------------------------
 Center     Atomic      Atomic             Coordinates (Angstroms)
 Number     Number       Type             X           Y           Z
 ---------------------------------------------------------------------
      1          8           0       -1.509581   -0.245936   -1.120711
      2          6           0       -1.654408   -0.215845    0.092497
      3          7           0       -0.591603   -0.297270    0.934847
      4          6           0        0.763675   -0.425200    0.424293
      5          6           0        1.586691   -1.024454    1.541556
      6          8           0        2.312500   -2.095628    1.168200
      7          8           0        1.598497   -0.579631    2.662833
      8          6           0        1.313942    0.959980    0.025173
      9          6           0        2.700265    0.914070   -0.529073
     10          6           0        3.917795    1.225960    0.010771
     11          7           0        4.937944    0.980033   -0.892326
     12          6           0        4.339346    0.526565   -1.969614
     13          7           0        2.986410    0.466949   -1.801446
     14          6           0       -3.002685   -0.057933    0.773225
     15          6           0       -4.170954   -0.434851   -0.124179
     16          7           0       -5.422337   -0.199076    0.600835
     17          1           0       -0.710969   -0.230878    1.933447
     18          1           0        0.745517   -1.082571   -0.444126
     19          1           0        2.801724   -2.371659    1.955187
     20          1           0        1.314056    1.597504    0.907083
     21          1           0        0.622798    1.385906   -0.699814
     22          1           0        4.111603    1.599804    1.007935
     23          1           0        4.813744    0.231179   -2.888290
     24          1           0        2.311827    0.158989   -2.483687
     25          1           0       -3.023218   -0.652842    1.690023
     26          1           0       -3.114197    0.989396    1.079293
     27          1           0       -4.113228   -1.497344   -0.370668
     28          1           0       -4.085865    0.120445   -1.066461
     29          1           0       -6.205576   -0.543642    0.058721
     30          1           0       -5.573690    0.798119    0.705120
 ---------------------------------------------------------------------
                    Distance matrix (angstroms):
                    1          2          3          4          5
     1  O    0.000000
     2  C    1.222193   0.000000
     3  N    2.251807   1.358579   0.000000
     4  C    2.754427   2.449703   1.453895   0.000000
     5  C    4.157000   3.641201   2.375259   1.511534   0.000000
     6  O    4.823772   4.519633   3.423793   2.396369   1.346702
     7  O    4.907820   4.161773   2.803962   2.394125   1.206345
     8  C    3.277128   3.193463   2.457496   1.542989   2.512327
     9  C    4.406637   4.541612   3.800894   2.540262   3.047200
    10  C    5.736126   5.756295   4.848589   3.584104   3.583534
    11  N    6.567019   6.771936   5.962042   4.597030   4.601375
    12  C    5.960482   6.381894   5.781769   4.407048   4.723462
    13  N    4.602775   5.058698   4.568753   3.269617   3.919077
    14  C    2.419029   1.518610   2.428317   3.800278   4.752564
    15  C    2.848100   2.535333   3.735267   4.965026   6.022688
    16  N    4.274995   3.802101   4.843263   6.192661   7.119879
    17  H    3.156880   2.068671   1.007899   2.118935   2.462231
    18  H    2.498637   2.607454   2.075127   1.089320   2.157286
    19  H    5.706768   5.289070   4.105954   3.207177   1.860741
    20  H    3.934863   3.572613   2.687466   2.151124   2.711374
    21  H    2.717922   2.894655   2.641962   2.136251   3.429674
    22  H    6.287734   6.114041   5.071920   3.955995   3.680579
    23  H    6.583039   7.135960   6.641793   5.273244   5.622635
    24  H    4.077355   4.744286   4.508264   3.345803   4.257809
    25  H    3.218213   2.148649   2.570890   3.999307   4.627245
    26  H    2.990126   2.134796   2.835463   4.179473   5.134941
    27  H    2.984555   2.811149   3.942891   5.056248   6.030696
    28  H    2.602772   2.714453   4.048406   5.102756   6.347475
    29  H    4.850985   4.563082   5.687265   6.979838   7.946659
    30  H    4.576100   4.094411   5.106255   6.460462   7.435889
                    6          7          8          9         10
     6  O    0.000000
     7  O    2.245433   0.000000
     8  C    3.411798   3.067348   0.000000
     9  C    3.476978   3.692330   1.493716   0.000000
    10  C    3.866466   3.958881   2.617442   1.367876   0.000000
    11  N    4.538547   5.120900   3.738395   2.267931   1.384474
    12  C    4.563976   5.495042   3.649670   2.216282   2.142144
    13  N    3.979919   4.790764   2.525226   1.378670   2.174329
    14  C    5.706084   5.001366   4.497666   5.929959   7.079743
    15  C    6.816421   6.408975   5.661444   7.014070   8.258593
    16  N    7.984141   7.327262   6.859465   8.276016   9.466624
    17  H    3.633767   2.446889   3.026536   4.360210   5.219629
    18  H    2.466032   3.260938   2.171489   2.795502   3.949632
    19  H    0.966893   2.271538   4.127744   4.120420   4.239013
    20  H    3.834617   2.811313   1.088211   2.109787   2.778647
    21  H    4.297167   4.015310   1.088439   2.137206   3.374540
    22  H    4.113231   3.715417   3.033497   2.196474   1.082432
    23  H    5.303335   6.466080   4.611727   3.240222   3.193253
    24  H    4.291803   5.247958   2.816334   2.131091   3.152757
    25  H    5.551920   4.723555   4.917711   6.335445   7.384270
    26  H    6.242941   5.213341   4.551972   6.033281   7.116643
    27  H    6.634458   6.532084   5.970704   7.229364   8.488770
    28  H    7.130481   6.834450   5.572648   6.853480   8.151145
    29  H    8.729102   8.227165   7.668452   9.043474  10.276985
    30  H    8.413097   7.561157   6.923005   8.366302   9.526461
                   11         12         13         14         15
    11  N    0.000000
    12  C    1.313203   0.000000
    13  N    2.213197   1.364650   0.000000
    14  C    8.179549   7.859404   6.540160   0.000000
    15  C    9.250079   8.761002   7.406371   1.520609   0.000000
    16  N   10.533530  10.120485   8.770494   2.429888   1.465331
    17  H    6.431292   6.427542   5.301604   2.574488   4.030747
    18  H    4.693790   4.222801   3.043835   4.071958   4.969265
    19  H    4.889336   5.115471   4.712123   6.359366   7.529491
    20  H    4.092885   4.309835   3.378026   4.625218   5.939638
    21  H    4.338465   4.020397   2.764912   4.171168   5.160093
    22  H    2.162857   3.173249   3.231415   7.308644   8.603618
    23  H    2.135435   1.075301   2.139151   8.636368   9.423837
    24  H    3.178527   2.123727   1.007648   6.236872   6.924332
    25  H    8.527304   8.306100   7.039881   1.093095   2.157810
    26  H    8.290014   8.066309   6.766758   1.096818   2.143259
    27  H    9.398577   8.837356   7.504028   2.147953   1.092237
    28  H    9.066330   8.483207   7.118802   2.142322   1.097037
    29  H   11.287343  10.791426   9.432609   3.317369   2.045721
    30  H   10.633879  10.271136   8.925685   2.710632   2.043433
                   16         17         18         19         20
    16  N    0.000000
    17  H    4.896310   0.000000
    18  H    6.317826   2.915405   0.000000
    19  H    8.613337   4.113689   3.412688   0.000000
    20  H    6.978573   2.914984   3.054800   4.366455   0.000000
    21  H    6.383377   3.365559   2.484716   5.090780   1.762025
    22  H    9.710701   5.240722   4.542483   4.287842   2.799365
    23  H   10.822960   7.347456   4.924465   5.855106   5.340367
    24  H    8.334253   5.366598   2.855627   5.133009   3.816044
    25  H    2.673575   2.363008   4.352312   6.079030   4.948636
    26  H    2.639867   2.827393   4.638021   6.860175   4.473128
    27  H    2.084007   4.299796   4.876970   7.347829   6.377001
    28  H    2.160585   4.529106   5.017649   7.923372   5.935969
    29  H    1.012954   5.814045   6.990063   9.384545   7.864419
    30  H    1.013992   5.119929   6.692543   9.041998   6.936919
                   21         22         23         24         25
    21  H    0.000000
    22  H    3.890234   0.000000
    23  H    4.866914   4.188880   0.000000
    24  H    2.745969   4.184085   2.535449   0.000000
    25  H    4.812613   7.513011   9.119233   6.822143   0.000000
    26  H    4.157832   7.251887   8.897688   6.544168   1.754484
    27  H    5.554404   8.896107   9.434885   6.963449   2.479466
    28  H    4.889512   8.584294   9.084843   6.552899   3.053751
    29  H    7.136190  10.580148  11.432875   8.916484   3.577774
    30  H    6.380893   9.723132  11.006035   8.529851   3.095194
                   26         27         28         29         30
    26  H    0.000000
    27  H    3.047020   0.000000
    28  H    2.510672   1.761284   0.000000
    29  H    3.598388   2.339197   2.490024   0.000000
    30  H    2.495135   2.925649   2.410677   1.617849   0.000000
 Symmetry turned off by external request.
 Stoichiometry    C9H14N4O3
 Framework group  C1[X(C9H14N4O3)]
 Deg. of freedom    84
 Full point group                 C1      NOp   1
 Rotational constants (GHZ):      1.0600287      0.2293246      0.2040481
 Standard basis: 6-311G(2df,2pd) (5D, 7F)
   676 basis functions,  1006 primitive gaussians,   770 cartesian basis functions
    60 alpha electrons       60 beta electrons
       nuclear repulsion energy      1097.9016211535 Hartrees.
 NAtoms=   30 NActive=   30 NUniq=   30 SFac= 1.00D+00 NAtFMM=   60 NAOKFM=F Big=F
 Integral buffers will be    131072 words long.
 Raffenetti 2 integral format.
 Two-electron integral symmetry is turned off.
 Nuclear repulsion after empirical dispersion term =     1097.8491152285 Hartrees.
 One-electron integrals computed using PRISM.
 NBasis=   676 RedAO= T EigKep=  2.13D-04  NBF=   676
 NBsUse=   676 1.00D-06 EigRej= -1.00D+00 NBFU=   676
 ExpMin= 1.03D-01 ExpMax= 8.59D+03 ExpMxC= 1.30D+03 IAcc=3 IRadAn=         5 AccDes= 0.00D+00
 Harris functional with IExCor=  402 and IRadAn=       5 diagonalized for initial guess.
 HarFok:  IExCor=  402 AccDes= 0.00D+00 IRadAn=         5 IDoV= 1 UseB2=F ITyADJ=14
 ICtDFT=  3500011 ScaDFX=  1.000000  1.000000  1.000000  1.000000
 FoFCou: FMM=F IPFlag=           0 FMFlag=      100000 FMFlg1=           0
         NFxFlg=           0 DoJE=T BraDBF=F KetDBF=T FulRan=T
         wScrn=  0.000000 ICntrl=     500 IOpCl=  0 I1Cent=   200000004 NGrid=           0
         NMat0=    1 NMatS0=      1 NMatT0=    0 NMatD0=    1 NMtDS0=    0 NMtDT0=    0
 Symmetry not used in FoFCou.
 Requested convergence on RMS density matrix=1.00D-08 within 128 cycles.
 Requested convergence on MAX density matrix=1.00D-06.
 Requested convergence on             energy=1.00D-06.
 No special actions if energy rises.
 Integral accuracy reduced to 1.0D-05 until final iterations.
 Initial convergence to 1.0D-05 achieved.  Increase integral accuracy.
 SCF Done:  E(RB3LYP) =  -796.413462343     A.U. after   13 cycles
            NFock= 13  Conv=0.75D-08     -V/T= 2.0038
 DoSCS=F DFT=T ScalE2(SS,OS)=  1.000000  1.000000
 Range of M.O.s used for correlation:     1   676
 NBasis=   676 NAE=    60 NBE=    60 NFC=     0 NFV=     0
 NROrb=    676 NOA=    60 NOB=    60 NVA=   616 NVB=   616

 **** Warning!!: The largest alpha MO coefficient is  0.12343704D+02

 Symmetrizing basis deriv contribution to polar:
 IMax=3 JMax=2 DiffMx= 0.00D+00
 G2DrvN: will do    31 centers at a time, making    1 passes.
 Calling FoFCou, ICntrl=  3107 FMM=F I1Cent=   0 AccDes= 0.00D+00.
 End of G2Drv F.D. properties file   721 does not exist.
 End of G2Drv F.D. properties file   722 does not exist.
 End of G2Drv F.D. properties file   788 does not exist.
          IDoAtm=111111111111111111111111111111
          Differentiating once with respect to nuclear coordinates.
          There are    93 degrees of freedom in the 1st order CPHF.  IDoFFX=6 NUNeed=     0.
     87 vectors produced by pass  0 Test12= 3.97D-14 1.08D-09 XBig12= 1.65D-01 8.57D-02.
 AX will form    87 AO Fock derivatives at one time.
     87 vectors produced by pass  1 Test12= 3.97D-14 1.08D-09 XBig12= 7.31D-02 8.01D-02.
     87 vectors produced by pass  2 Test12= 3.97D-14 1.08D-09 XBig12= 5.60D-04 2.49D-03.
     87 vectors produced by pass  3 Test12= 3.97D-14 1.08D-09 XBig12= 3.61D-06 1.76D-04.
     87 vectors produced by pass  4 Test12= 3.97D-14 1.08D-09 XBig12= 1.43D-08 1.32D-05.
     84 vectors produced by pass  5 Test12= 3.97D-14 1.08D-09 XBig12= 2.19D-11 5.61D-07.
     41 vectors produced by pass  6 Test12= 3.97D-14 1.08D-09 XBig12= 2.28D-14 1.12D-08.
      3 vectors produced by pass  7 Test12= 3.97D-14 1.08D-09 XBig12= 5.72D-16 1.55D-09.
      2 vectors produced by pass  8 Test12= 3.97D-14 1.08D-09 XBig12= 1.23D-15 1.96D-09.
 InvSVY:  IOpt=1 It=  1 EMax= 7.22D-16
 Solved reduced A of dimension   565 with    93 vectors.
 End of Minotr F.D. properties file   721 does not exist.
 End of Minotr F.D. properties file   722 does not exist.
 End of Minotr F.D. properties file   788 does not exist.

 **********************************************************************

            Population analysis using the SCF density.

 **********************************************************************

 Alpha  occ. eigenvalues --  -19.18700 -19.12964 -19.09158 -14.36666 -14.34746
 Alpha  occ. eigenvalues --  -14.29112 -14.28706 -10.32163 -10.27747 -10.23959
 Alpha  occ. eigenvalues --  -10.22052 -10.20361 -10.19547 -10.19543 -10.18347
 Alpha  occ. eigenvalues --  -10.17808  -1.13094  -1.04902  -1.04085  -1.01546
 Alpha  occ. eigenvalues --   -0.94191  -0.88840  -0.87059  -0.81491  -0.76926
 Alpha  occ. eigenvalues --   -0.74141  -0.69110  -0.64812  -0.61693  -0.60763
 Alpha  occ. eigenvalues --   -0.60073  -0.59244  -0.54301  -0.53671  -0.51206
 Alpha  occ. eigenvalues --   -0.49955  -0.49678  -0.48889  -0.47643  -0.46255
 Alpha  occ. eigenvalues --   -0.45250  -0.44351  -0.43511  -0.42900  -0.42352
 Alpha  occ. eigenvalues --   -0.40859  -0.40544  -0.39626  -0.39273  -0.38117
 Alpha  occ. eigenvalues --   -0.37534  -0.35222  -0.34469  -0.30597  -0.28462
 Alpha  occ. eigenvalues --   -0.27675  -0.27013  -0.26869  -0.24441  -0.22981
 Alpha virt. eigenvalues --   -0.02145   0.00949   0.01614   0.02891   0.03118
 Alpha virt. eigenvalues --    0.03296   0.04183   0.05499   0.06929   0.07361
 Alpha virt. eigenvalues --    0.07660   0.08830   0.10143   0.10760   0.11026
 Alpha virt. eigenvalues --    0.12048   0.12407   0.14530   0.16477   0.17318
 Alpha virt. eigenvalues --    0.18538   0.19259   0.20508   0.20737   0.21671
 Alpha virt. eigenvalues --    0.23063   0.24116   0.24464   0.25460   0.26440
 Alpha virt. eigenvalues --    0.28689   0.29556   0.30466   0.30763   0.32564
 Alpha virt. eigenvalues --    0.33097   0.33467   0.34175   0.35094   0.35498
 Alpha virt. eigenvalues --    0.36270   0.36851   0.37797   0.38665   0.38974
 Alpha virt. eigenvalues --    0.39693   0.41358   0.41433   0.41945   0.42681
 Alpha virt. eigenvalues --    0.43846   0.44103   0.44809   0.45641   0.46213
 Alpha virt. eigenvalues --    0.46398   0.47076   0.47267   0.47819   0.48451
 Alpha virt. eigenvalues --    0.48879   0.49714   0.50018   0.50451   0.51411
 Alpha virt. eigenvalues --    0.52048   0.52623   0.53238   0.53912   0.54058
 Alpha virt. eigenvalues --    0.55250   0.55733   0.56575   0.56741   0.57542
 Alpha virt. eigenvalues --    0.57998   0.58916   0.59585   0.60842   0.62016
 Alpha virt. eigenvalues --    0.62943   0.63392   0.64334   0.65084   0.65662
 Alpha virt. eigenvalues --    0.66657   0.67582   0.68070   0.69123   0.69864
 Alpha virt. eigenvalues --    0.70346   0.71946   0.73183   0.73401   0.74030
 Alpha virt. eigenvalues --    0.74137   0.75334   0.76035   0.76594   0.77912
 Alpha virt. eigenvalues --    0.78959   0.80162   0.81605   0.82163   0.82707
 Alpha virt. eigenvalues --    0.83552   0.84368   0.85085   0.85606   0.87933
 Alpha virt. eigenvalues --    0.88079   0.88271   0.90758   0.91505   0.92494
 Alpha virt. eigenvalues --    0.92729   0.93204   0.93891   0.96141   0.97151
 Alpha virt. eigenvalues --    0.98170   0.98910   0.99592   1.00234   1.01380
 Alpha virt. eigenvalues --    1.02067   1.02706   1.03795   1.04156   1.05359
 Alpha virt. eigenvalues --    1.06425   1.06934   1.08273   1.09197   1.10052
 Alpha virt. eigenvalues --    1.10366   1.10825   1.12317   1.13046   1.13788
 Alpha virt. eigenvalues --    1.14700   1.16660   1.16827   1.17276   1.18667
 Alpha virt. eigenvalues --    1.19035   1.19500   1.20210   1.20519   1.22289
 Alpha virt. eigenvalues --    1.22903   1.24021   1.25405   1.25883   1.26665
 Alpha virt. eigenvalues --    1.26811   1.27695   1.28129   1.29368   1.29670
 Alpha virt. eigenvalues --    1.30015   1.31051   1.31116   1.32021   1.32660
 Alpha virt. eigenvalues --    1.33412   1.33794   1.34192   1.35703   1.36435
 Alpha virt. eigenvalues --    1.36924   1.38244   1.38678   1.39585   1.40180
 Alpha virt. eigenvalues --    1.40607   1.42544   1.43049   1.43425   1.44787
 Alpha virt. eigenvalues --    1.46564   1.47289   1.47658   1.49316   1.50336
 Alpha virt. eigenvalues --    1.50720   1.53092   1.53874   1.55166   1.55859
 Alpha virt. eigenvalues --    1.57765   1.59294   1.59949   1.60733   1.61348
 Alpha virt. eigenvalues --    1.62779   1.64325   1.64994   1.66641   1.67079
 Alpha virt. eigenvalues --    1.69250   1.70322   1.71846   1.72909   1.73578
 Alpha virt. eigenvalues --    1.75160   1.75776   1.76471   1.78349   1.79421
 Alpha virt. eigenvalues --    1.82628   1.84230   1.85119   1.86213   1.87330
 Alpha virt. eigenvalues --    1.88798   1.90552   1.93754   1.95959   2.00375
 Alpha virt. eigenvalues --    2.02006   2.04562   2.06552   2.07565   2.09090
 Alpha virt. eigenvalues --    2.11066   2.14105   2.15423   2.18108   2.23476
 Alpha virt. eigenvalues --    2.27009   2.30237   2.35686   2.41991   2.43511
 Alpha virt. eigenvalues --    2.45208   2.47398   2.50157   2.52697   2.53174
 Alpha virt. eigenvalues --    2.54708   2.55560   2.57189   2.59892   2.61026
 Alpha virt. eigenvalues --    2.62097   2.62456   2.63863   2.64905   2.66255
 Alpha virt. eigenvalues --    2.67086   2.67942   2.69213   2.69448   2.70284
 Alpha virt. eigenvalues --    2.71553   2.74627   2.74810   2.75948   2.78120
 Alpha virt. eigenvalues --    2.78220   2.79192   2.80532   2.80912   2.81631
 Alpha virt. eigenvalues --    2.83476   2.84833   2.85348   2.87268   2.87914
 Alpha virt. eigenvalues --    2.88380   2.89162   2.89947   2.91089   2.92521
 Alpha virt. eigenvalues --    2.92571   2.93115   2.94336   2.95465   2.96034
 Alpha virt. eigenvalues --    2.96763   2.97384   2.98413   2.99247   3.00411
 Alpha virt. eigenvalues --    3.00760   3.02074   3.02565   3.03635   3.04383
 Alpha virt. eigenvalues --    3.04630   3.05401   3.05630   3.06999   3.07384
 Alpha virt. eigenvalues --    3.08228   3.09364   3.10132   3.10344   3.11324
 Alpha virt. eigenvalues --    3.12164   3.12539   3.13525   3.14622   3.14921
 Alpha virt. eigenvalues --    3.15631   3.17509   3.17830   3.18319   3.19882
 Alpha virt. eigenvalues --    3.20272   3.21250   3.22033   3.22667   3.22960
 Alpha virt. eigenvalues --    3.24051   3.24713   3.24916   3.25801   3.26606
 Alpha virt. eigenvalues --    3.27701   3.28448   3.28822   3.29988   3.30155
 Alpha virt. eigenvalues --    3.31662   3.32140   3.32845   3.33631   3.34252
 Alpha virt. eigenvalues --    3.34794   3.35017   3.35708   3.37146   3.37717
 Alpha virt. eigenvalues --    3.38292   3.39493   3.40643   3.40662   3.41456
 Alpha virt. eigenvalues --    3.42185   3.44238   3.44333   3.45472   3.46126
 Alpha virt. eigenvalues --    3.47033   3.47253   3.48241   3.48629   3.49882
 Alpha virt. eigenvalues --    3.50819   3.51157   3.51666   3.52271   3.53600
 Alpha virt. eigenvalues --    3.54580   3.54779   3.56649   3.56946   3.57892
 Alpha virt. eigenvalues --    3.58770   3.59471   3.60583   3.61828   3.62263
 Alpha virt. eigenvalues --    3.62951   3.63542   3.64052   3.64912   3.66529
 Alpha virt. eigenvalues --    3.66912   3.67986   3.68394   3.69856   3.70725
 Alpha virt. eigenvalues --    3.71010   3.72159   3.72605   3.74235   3.74854
 Alpha virt. eigenvalues --    3.76052   3.77550   3.77857   3.79062   3.79549
 Alpha virt. eigenvalues --    3.79807   3.80884   3.81017   3.82310   3.84289
 Alpha virt. eigenvalues --    3.84834   3.85771   3.87742   3.88232   3.88891
 Alpha virt. eigenvalues --    3.89371   3.89989   3.91098   3.91251   3.92200
 Alpha virt. eigenvalues --    3.92841   3.94298   3.95587   3.95951   3.96646
 Alpha virt. eigenvalues --    3.96853   3.97470   3.98658   3.99691   4.00743
 Alpha virt. eigenvalues --    4.02332   4.02490   4.03615   4.04471   4.05459
 Alpha virt. eigenvalues --    4.06314   4.06696   4.08518   4.09045   4.10140
 Alpha virt. eigenvalues --    4.10657   4.11722   4.12467   4.14065   4.14854
 Alpha virt. eigenvalues --    4.16446   4.17635   4.17936   4.19326   4.19617
 Alpha virt. eigenvalues --    4.22044   4.24141   4.25379   4.26542   4.27536
 Alpha virt. eigenvalues --    4.29263   4.30326   4.31738   4.32313   4.33574
 Alpha virt. eigenvalues --    4.34407   4.37110   4.37217   4.39301   4.40694
 Alpha virt. eigenvalues --    4.42139   4.44952   4.45737   4.48526   4.50267
 Alpha virt. eigenvalues --    4.50518   4.51423   4.52972   4.53321   4.55358
 Alpha virt. eigenvalues --    4.57420   4.59233   4.59874   4.60861   4.62300
 Alpha virt. eigenvalues --    4.64694   4.65636   4.67680   4.70395   4.72191
 Alpha virt. eigenvalues --    4.73433   4.74951   4.77418   4.78116   4.79961
 Alpha virt. eigenvalues --    4.80581   4.82327   4.84279   4.84757   4.86487
 Alpha virt. eigenvalues --    4.88619   4.89283   4.90479   4.91557   4.92599
 Alpha virt. eigenvalues --    4.93533   4.94722   4.95178   4.95877   4.97259
 Alpha virt. eigenvalues --    4.98370   4.99414   4.99901   5.00983   5.01827
 Alpha virt. eigenvalues --    5.03254   5.04278   5.05142   5.05982   5.07144
 Alpha virt. eigenvalues --    5.08604   5.08916   5.09267   5.10788   5.10880
 Alpha virt. eigenvalues --    5.12109   5.12822   5.14433   5.15398   5.16742
 Alpha virt. eigenvalues --    5.17346   5.17919   5.19804   5.20904   5.21558
 Alpha virt. eigenvalues --    5.22507   5.24211   5.25016   5.25274   5.26299
 Alpha virt. eigenvalues --    5.28349   5.29514   5.31432   5.31715   5.33381
 Alpha virt. eigenvalues --    5.34434   5.34924   5.37324   5.39558   5.40821
 Alpha virt. eigenvalues --    5.42963   5.43153   5.47204   5.48074   5.49147
 Alpha virt. eigenvalues --    5.49576   5.52264   5.54044   5.54639   5.55567
 Alpha virt. eigenvalues --    5.58238   5.58808   5.61938   5.66520   5.66954
 Alpha virt. eigenvalues --    5.67950   5.69646   5.71712   5.75269   5.76289
 Alpha virt. eigenvalues --    5.76824   5.78182   5.80024   5.81347   5.85224
 Alpha virt. eigenvalues --    5.85831   5.86966   5.90208   5.93480   5.97907
 Alpha virt. eigenvalues --    5.99548   6.03101   6.05739   6.09805   6.12041
 Alpha virt. eigenvalues --    6.16467   6.19137   6.19957   6.27998   6.30839
 Alpha virt. eigenvalues --    6.31688   6.34539   6.36412   6.37548   6.40149
 Alpha virt. eigenvalues --    6.41645   6.43463   6.48172   6.51120   6.53051
 Alpha virt. eigenvalues --    6.66588   6.71239   6.81743   6.88175   6.88802
 Alpha virt. eigenvalues --    6.91639   6.96151   6.98176   6.99397   7.05646
 Alpha virt. eigenvalues --    7.12399   7.14985   7.16915   7.18057   7.21323
 Alpha virt. eigenvalues --    7.25778   7.27581   7.28480   7.41449   7.49039
 Alpha virt. eigenvalues --    7.53902   7.56362   7.58008   7.64946   7.95981
 Alpha virt. eigenvalues --   24.43825  24.62298  24.71646  24.81067  24.93415
 Alpha virt. eigenvalues --   24.97951  25.04649  25.08753  25.09368  35.96365
 Alpha virt. eigenvalues --   36.21981  36.23508  36.44334  50.16730  50.21097
 Alpha virt. eigenvalues --   50.27707
          Condensed to atoms (all electrons):
               1          2          3          4          5          6
     1  O    7.893143   0.665475  -0.107937  -0.014212   0.000429   0.000002
     2  C    0.665475   4.391401   0.422682  -0.061392   0.003988  -0.000231
     3  N   -0.107937   0.422682   6.598217   0.234712  -0.003343  -0.000228
     4  C   -0.014212  -0.061392   0.234712   5.228103   0.206908  -0.070730
     5  C    0.000429   0.003988  -0.003343   0.206908   4.285806   0.395499
     6  O    0.000002  -0.000231  -0.000228  -0.070730   0.395499   7.764669
     7  O   -0.000007  -0.000665  -0.006967  -0.120904   0.696408  -0.087016
     8  C   -0.000729   0.000766  -0.045163   0.267189  -0.053072  -0.001716
     9  C   -0.001308   0.000208   0.004729  -0.063647  -0.012370   0.002291
    10  C   -0.000006   0.000002  -0.000093  -0.003472   0.004055   0.001121
    11  N    0.000000   0.000000   0.000000  -0.000561   0.000083  -0.000102
    12  C   -0.000001   0.000001   0.000003   0.000821   0.000062   0.000270
    13  N   -0.000018   0.000022   0.000083   0.002144   0.000833  -0.000525
    14  C   -0.068630   0.232625  -0.065166   0.001758  -0.000091  -0.000002
    15  C    0.000371  -0.051512   0.001554  -0.000373  -0.000010   0.000000
    16  N    0.000441  -0.000851   0.000031  -0.000001   0.000000   0.000000
    17  H    0.004780  -0.023476   0.346755  -0.041073  -0.008339   0.001095
    18  H    0.026756  -0.008944  -0.032474   0.368680  -0.014707   0.011467
    19  H    0.000002   0.000056  -0.000586   0.021302  -0.056297   0.321230
    20  H   -0.000056   0.000125   0.009579  -0.048382  -0.003522   0.000606
    21  H    0.013097   0.002795  -0.008453  -0.046891   0.005702  -0.000210
    22  H    0.000000   0.000000  -0.000014  -0.000017   0.000934  -0.000168
    23  H    0.000000   0.000000   0.000000   0.000017   0.000003   0.000010
    24  H    0.000419   0.000028  -0.000082  -0.000441  -0.000015  -0.000076
    25  H    0.002424  -0.020516   0.002987   0.000643   0.000111  -0.000002
    26  H    0.000207  -0.028080   0.001379  -0.000153  -0.000027   0.000000
    27  H    0.003487  -0.002247   0.000110  -0.000004  -0.000004   0.000000
    28  H    0.018686   0.016665   0.001130   0.000156   0.000002   0.000000
    29  H    0.000024  -0.000807   0.000005  -0.000001   0.000000   0.000000
    30  H   -0.000012  -0.000502  -0.000020  -0.000001   0.000000   0.000000
               7          8          9         10         11         12
     1  O   -0.000007  -0.000729  -0.001308  -0.000006   0.000000  -0.000001
     2  C   -0.000665   0.000766   0.000208   0.000002   0.000000   0.000001
     3  N   -0.006967  -0.045163   0.004729  -0.000093   0.000000   0.000003
     4  C   -0.120904   0.267189  -0.063647  -0.003472  -0.000561   0.000821
     5  C    0.696408  -0.053072  -0.012370   0.004055   0.000083   0.000062
     6  O   -0.087016  -0.001716   0.002291   0.001121  -0.000102   0.000270
     7  O    7.857739   0.006500  -0.002960   0.000077   0.000006  -0.000001
     8  C    0.006500   4.975484   0.196559  -0.039970   0.010561  -0.002789
     9  C   -0.002960   0.196559   5.276917   0.509258  -0.047045  -0.125268
    10  C    0.000077  -0.039970   0.509258   4.720686   0.458795  -0.147727
    11  N    0.000006   0.010561  -0.047045   0.458795   6.521017   0.577895
    12  C   -0.000001  -0.002789  -0.125268  -0.147727   0.577895   4.581200
    13  N    0.000018  -0.047531   0.339226  -0.044510  -0.135341   0.473925
    14  C   -0.000108  -0.000665  -0.000033   0.000000   0.000000   0.000000
    15  C    0.000000   0.000008   0.000002   0.000000   0.000000   0.000000
    16  N    0.000000   0.000000   0.000000   0.000000   0.000000   0.000000
    17  H    0.024924   0.002085   0.000005   0.000002   0.000000   0.000000
    18  H    0.004033  -0.055680   0.010045  -0.000733   0.000023   0.000091
    19  H    0.012226  -0.001893   0.000842   0.000527  -0.000003  -0.000023
    20  H    0.011285   0.365420  -0.018184  -0.008460   0.000546  -0.000361
    21  H   -0.000187   0.410946  -0.038853   0.003482  -0.000544   0.000140
    22  H    0.000786  -0.001514  -0.054279   0.429895  -0.018521   0.005970
    23  H    0.000000  -0.000288   0.005813   0.003861  -0.017076   0.423971
    24  H   -0.000004   0.005407  -0.029969   0.002466   0.007548  -0.025384
    25  H   -0.000088   0.000081   0.000000   0.000000   0.000000   0.000000
    26  H   -0.000004   0.000229   0.000000   0.000000   0.000000   0.000000
    27  H    0.000000   0.000003   0.000000   0.000000   0.000000   0.000000
    28  H    0.000000  -0.000018   0.000001   0.000000   0.000000   0.000000
    29  H    0.000000   0.000000   0.000000   0.000000   0.000000   0.000000
    30  H    0.000000   0.000000   0.000000   0.000000   0.000000   0.000000
              13         14         15         16         17         18
     1  O   -0.000018  -0.068630   0.000371   0.000441   0.004780   0.026756
     2  C    0.000022   0.232625  -0.051512  -0.000851  -0.023476  -0.008944
     3  N    0.000083  -0.065166   0.001554   0.000031   0.346755  -0.032474
     4  C    0.002144   0.001758  -0.000373  -0.000001  -0.041073   0.368680
     5  C    0.000833  -0.000091  -0.000010   0.000000  -0.008339  -0.014707
     6  O   -0.000525  -0.000002   0.000000   0.000000   0.001095   0.011467
     7  O    0.000018  -0.000108   0.000000   0.000000   0.024924   0.004033
     8  C   -0.047531  -0.000665   0.000008   0.000000   0.002085  -0.055680
     9  C    0.339226  -0.000033   0.000002   0.000000   0.000005   0.010045
    10  C   -0.044510   0.000000   0.000000   0.000000   0.000002  -0.000733
    11  N   -0.135341   0.000000   0.000000   0.000000   0.000000   0.000023
    12  C    0.473925   0.000000   0.000000   0.000000   0.000000   0.000091
    13  N    6.289947   0.000000   0.000000   0.000000  -0.000011   0.003599
    14  C    0.000000   5.090041   0.287166  -0.030611  -0.000088   0.001985
    15  C    0.000000   0.287166   4.596301   0.304166  -0.000712   0.000128
    16  N    0.000000  -0.030611   0.304166   6.392802  -0.000082  -0.000001
    17  H   -0.000011  -0.000088  -0.000712  -0.000082   0.573490   0.005075
    18  H    0.003599   0.001985   0.000128  -0.000001   0.005075   0.665481
    19  H    0.000002   0.000002   0.000000   0.000000  -0.000451  -0.001297
    20  H    0.003277   0.000092   0.000009   0.000000   0.003292   0.009191
    21  H   -0.000528   0.000731  -0.000041  -0.000001  -0.000997  -0.007691
    22  H    0.004767   0.000000   0.000000   0.000000  -0.000009  -0.000001
    23  H   -0.038705   0.000000   0.000000   0.000000   0.000000   0.000013
    24  H    0.379473   0.000004   0.000000   0.000000   0.000008   0.000918
    25  H    0.000000   0.350738  -0.025932   0.016158  -0.000567  -0.000586
    26  H    0.000000   0.377362  -0.032540  -0.000887   0.000612  -0.000041
    27  H    0.000000  -0.025576   0.386443  -0.025181   0.000021   0.000006
    28  H    0.000000  -0.087825   0.422019  -0.056066  -0.000186  -0.000105
    29  H    0.000000   0.005781  -0.035775   0.362224   0.000002   0.000000
    30  H    0.000000  -0.000598  -0.054714   0.368970   0.000021   0.000000
              19         20         21         22         23         24
     1  O    0.000002  -0.000056   0.013097   0.000000   0.000000   0.000419
     2  C    0.000056   0.000125   0.002795   0.000000   0.000000   0.000028
     3  N   -0.000586   0.009579  -0.008453  -0.000014   0.000000  -0.000082
     4  C    0.021302  -0.048382  -0.046891  -0.000017   0.000017  -0.000441
     5  C   -0.056297  -0.003522   0.005702   0.000934   0.000003  -0.000015
     6  O    0.321230   0.000606  -0.000210  -0.000168   0.000010  -0.000076
     7  O    0.012226   0.011285  -0.000187   0.000786   0.000000  -0.000004
     8  C   -0.001893   0.365420   0.410946  -0.001514  -0.000288   0.005407
     9  C    0.000842  -0.018184  -0.038853  -0.054279   0.005813  -0.029969
    10  C    0.000527  -0.008460   0.003482   0.429895   0.003861   0.002466
    11  N   -0.000003   0.000546  -0.000544  -0.018521  -0.017076   0.007548
    12  C   -0.000023  -0.000361   0.000140   0.005970   0.423971  -0.025384
    13  N    0.000002   0.003277  -0.000528   0.004767  -0.038705   0.379473
    14  C    0.000002   0.000092   0.000731   0.000000   0.000000   0.000004
    15  C    0.000000   0.000009  -0.000041   0.000000   0.000000   0.000000
    16  N    0.000000   0.000000  -0.000001   0.000000   0.000000   0.000000
    17  H   -0.000451   0.003292  -0.000997  -0.000009   0.000000   0.000008
    18  H   -0.001297   0.009191  -0.007691  -0.000001   0.000013   0.000918
    19  H    0.481705  -0.000145   0.000055   0.000080   0.000001   0.000005
    20  H   -0.000145   0.698053  -0.041037   0.001716   0.000019  -0.000127
    21  H    0.000055  -0.041037   0.674435   0.000141  -0.000024   0.001678
    22  H    0.000080   0.001716   0.000141   0.619293  -0.000416  -0.000477
    23  H    0.000001   0.000019  -0.000024  -0.000416   0.606455  -0.001446
    24  H    0.000005  -0.000127   0.001678  -0.000477  -0.001446   0.547761
    25  H    0.000001  -0.000087   0.000063   0.000000   0.000000   0.000000
    26  H    0.000000  -0.000009  -0.000311   0.000000   0.000000   0.000000
    27  H    0.000000   0.000000  -0.000015   0.000000   0.000000   0.000000
    28  H    0.000000  -0.000004   0.000031   0.000000   0.000000  -0.000001
    29  H    0.000000   0.000000   0.000000   0.000000   0.000000   0.000000
    30  H    0.000000   0.000000   0.000000   0.000000   0.000000   0.000000
              25         26         27         28         29         30
     1  O    0.002424   0.000207   0.003487   0.018686   0.000024  -0.000012
     2  C   -0.020516  -0.028080  -0.002247   0.016665  -0.000807  -0.000502
     3  N    0.002987   0.001379   0.000110   0.001130   0.000005  -0.000020
     4  C    0.000643  -0.000153  -0.000004   0.000156  -0.000001  -0.000001
     5  C    0.000111  -0.000027  -0.000004   0.000002   0.000000   0.000000
     6  O   -0.000002   0.000000   0.000000   0.000000   0.000000   0.000000
     7  O   -0.000088  -0.000004   0.000000   0.000000   0.000000   0.000000
     8  C    0.000081   0.000229   0.000003  -0.000018   0.000000   0.000000
     9  C    0.000000   0.000000   0.000000   0.000001   0.000000   0.000000
    10  C    0.000000   0.000000   0.000000   0.000000   0.000000   0.000000
    11  N    0.000000   0.000000   0.000000   0.000000   0.000000   0.000000
    12  C    0.000000   0.000000   0.000000   0.000000   0.000000   0.000000
    13  N    0.000000   0.000000   0.000000   0.000000   0.000000   0.000000
    14  C    0.350738   0.377362  -0.025576  -0.087825   0.005781  -0.000598
    15  C   -0.025932  -0.032540   0.386443   0.422019  -0.035775  -0.054714
    16  N    0.016158  -0.000887  -0.025181  -0.056066   0.362224   0.368970
    17  H   -0.000567   0.000612   0.000021  -0.000186   0.000002   0.000021
    18  H   -0.000586  -0.000041   0.000006  -0.000105   0.000000   0.000000
    19  H    0.000001   0.000000   0.000000   0.000000   0.000000   0.000000
    20  H   -0.000087  -0.000009   0.000000  -0.000004   0.000000   0.000000
    21  H    0.000063  -0.000311  -0.000015   0.000031   0.000000   0.000000
    22  H    0.000000   0.000000   0.000000   0.000000   0.000000   0.000000
    23  H    0.000000   0.000000   0.000000   0.000000   0.000000   0.000000
    24  H    0.000000   0.000000   0.000000  -0.000001   0.000000   0.000000
    25  H    0.714714  -0.047131  -0.012825   0.013916  -0.000627  -0.002205
    26  H   -0.047131   0.712151   0.009369  -0.009103   0.000029   0.004374
    27  H   -0.012825   0.009369   0.714358  -0.056881  -0.008175   0.009514
    28  H    0.013916  -0.009103  -0.056881   0.753075  -0.002955  -0.008971
    29  H   -0.000627   0.000029  -0.008175  -0.002955   0.647191  -0.050580
    30  H   -0.002205   0.004374   0.009514  -0.008971  -0.050580   0.638915
 Mulliken charges:
               1
     1  O   -0.436827
     2  C    0.462382
     3  N   -0.353429
     4  C    0.139823
     5  C    0.550975
     6  O   -0.337254
     7  O   -0.395092
     8  C    0.009791
     9  C    0.048022
    10  C    0.110744
    11  N   -0.357278
    12  C    0.237208
    13  N   -0.230146
    14  C   -0.068892
    15  C    0.203444
    16  N   -0.331111
    17  H    0.113823
    18  H    0.014769
    19  H    0.222660
    20  H    0.017163
    21  H    0.032485
    22  H    0.011833
    23  H    0.017792
    24  H    0.112305
    25  H    0.008730
    26  H    0.012573
    27  H    0.007597
    28  H   -0.003566
    29  H    0.083665
    30  H    0.095810
 Sum of Mulliken charges =   0.00000
 Mulliken charges with hydrogens summed into heavy atoms:
               1
     1  O   -0.436827
     2  C    0.462382
     3  N   -0.239606
     4  C    0.154592
     5  C    0.550975
     6  O   -0.114594
     7  O   -0.395092
     8  C    0.059439
     9  C    0.048022
    10  C    0.122577
    11  N   -0.357278
    12  C    0.255000
    13  N   -0.117840
    14  C   -0.047589
    15  C    0.207475
    16  N   -0.151636
 APT charges:
               1
     1  O   -0.298639
     2  C    0.298969
     3  N   -0.592204
     4  C    0.060206
     5  C   -0.444214
     6  O   -0.647118
     7  O    0.257033
     8  C   -0.410320
     9  C   -0.307104
    10  C   -0.609175
    11  N    0.884934
    12  C   -0.831209
    13  N   -0.453666
    14  C   -0.488923
    15  C   -0.224676
    16  N   -1.348510
    17  H    0.432401
    18  H    0.121808
    19  H    0.843342
    20  H    0.223494
    21  H    0.150730
    22  H    0.374107
    23  H    0.820519
    24  H    0.112599
    25  H    0.211806
    26  H    0.262840
    27  H    0.205001
    28  H    0.181331
    29  H    0.842923
    30  H    0.371712
 Sum of APT charges =   0.00000
 APT charges with hydrogens summed into heavy atoms:
               1
     1  O   -0.298639
     2  C    0.298969
     3  N   -0.159803
     4  C    0.182014
     5  C   -0.444214
     6  O    0.196224
     7  O    0.257033
     8  C   -0.036096
     9  C   -0.307104
    10  C   -0.235067
    11  N    0.884934
    12  C   -0.010690
    13  N   -0.341067
    14  C   -0.014276
    15  C    0.161656
    16  N   -0.133875
 Electronic spatial extent (au):  <R**2>=           5354.5710
 Charge=              0.0000 electrons
 Dipole moment (field-independent basis, Debye):
    X=             -2.9315    Y=             -0.9029    Z=             -0.4382  Tot=              3.0986
 Quadrupole moment (field-independent basis, Debye-Ang):
   XX=           -106.9852   YY=            -91.2295   ZZ=            -91.6494
   XY=            -12.5546   XZ=             -0.5109   YZ=             -0.5023
 Traceless Quadrupole moment (field-independent basis, Debye-Ang):
   XX=            -10.3639   YY=              5.3919   ZZ=              4.9720
   XY=            -12.5546   XZ=             -0.5109   YZ=             -0.5023
 Octapole moment (field-independent basis, Debye-Ang**2):
  XXX=           -325.8480  YYY=             -5.4591  ZZZ=            -69.8196  XYY=            -53.2912
  XXY=            -27.7259  XXZ=            -29.1063  XZZ=             -8.1813  YZZ=             -4.5265
  YYZ=              6.5557  XYZ=             -8.2062
 Hexadecapole moment (field-independent basis, Debye-Ang**3):
 XXXX=          -6024.6550 YYYY=           -504.4332 ZZZZ=           -908.1567 XXXY=           -555.0387
 XXXZ=            525.6867 YYYX=           -280.1839 YYYZ=            126.8268 ZZZX=            153.8143
 ZZZY=            136.3091 XXYY=           -997.5111 XXZZ=          -1018.2820 YYZZ=           -213.3835
 XXYZ=            101.1288 YYXZ=            145.1149 ZZXY=           -115.9697
 N-N= 1.097849115228D+03 E-N=-4.057527009514D+03  KE= 7.934090562264D+02
  Exact polarizability:   0.000   0.000   0.000   0.000   0.000   0.000
 Approx polarizability: 219.947  -1.977 159.832   1.567  19.625 220.644
 Calling FoFJK, ICntrl=    100147 FMM=F ISym2X=0 I1Cent= 0 IOpClX= 0 NMat=1 NMatS=1 NMatT=0.
 -------------------------------------------------------------------
 Center     Atomic                   Forces (Hartrees/Bohr)
 Number     Number              X              Y              Z
 -------------------------------------------------------------------
      1        8          -0.001290089   -0.000997168    0.001456650
      2        6           0.000098286    0.002955607   -0.002506799
      3        7          -0.000504918   -0.003557710    0.000134564
      4        6          -0.006235354    0.001859574    0.000775881
      5        6           0.007168766   -0.002065847    0.002867859
      6        8          -0.005042184    0.006134861   -0.000704758
      7        8          -0.001654050   -0.001999644   -0.002797536
      8        6           0.009600216    0.000162546   -0.002390770
      9        6          -0.004028847    0.000772501    0.001211917
     10        6           0.005207949   -0.001048789    0.000887550
     11        7          -0.006050084   -0.000156847    0.000424222
     12        6          -0.000370160    0.001600364    0.004746768
     13        7          -0.000737647   -0.001763227   -0.002777200
     14        6           0.001841649   -0.000772173    0.000880927
     15        6          -0.000811524    0.001178258   -0.000976843
     16        7          -0.001157454   -0.000943679   -0.000512431
     17        1           0.000300776    0.000653578   -0.001117915
     18        1           0.000398913    0.000562139    0.001785452
     19        1           0.002537083   -0.001334448    0.000777757
     20        1          -0.000877593   -0.000358295    0.000863507
     21        1          -0.001618016   -0.000290022   -0.000186410
     22        1           0.000039260   -0.000742448   -0.003855718
     23        1           0.001274378   -0.000113165   -0.000751805
     24        1           0.000975678    0.000825619    0.001261847
     25        1          -0.001470120    0.001119245   -0.000675389
     26        1           0.001760422   -0.000962871   -0.000173956
     27        1           0.000244252    0.001198992   -0.000290611
     28        1           0.000606935   -0.002005670    0.001079911
     29        1           0.000033757   -0.000031314    0.000229863
     30        1          -0.000240279    0.000120030    0.000333462
 -------------------------------------------------------------------
 Cartesian Forces:  Max     0.009600216 RMS     0.002360182
 FormGI is forming the generalized inverse of G from B-inverse, IUseBI=4.
 GSVD:  received Info=                   1 from GESDD.

 GradGradGradGradGradGradGradGradGradGradGradGradGradGradGradGradGradGrad
 Berny optimization.
 Internal  Forces:  Max     0.005656609 RMS     0.001381141
 Search for a local minimum.
 Step number   1 out of a maximum of  160
 All quantities printed in internal units (Hartrees-Bohrs-Radians)
 Mixed Optimization -- RFO/linear search
 Second derivative matrix not updated -- analytic derivatives used.
 ITU=  0
     Eigenvalues ---   -0.00064   0.00008   0.00168   0.00184   0.00224
     Eigenvalues ---    0.00233   0.00276   0.00457   0.00524   0.00872
     Eigenvalues ---    0.01817   0.01991   0.02113   0.02471   0.03195
     Eigenvalues ---    0.03337   0.03700   0.04089   0.04207   0.04313
     Eigenvalues ---    0.04402   0.04520   0.04585   0.05092   0.05177
     Eigenvalues ---    0.05232   0.05644   0.06220   0.07642   0.07779
     Eigenvalues ---    0.08125   0.09940   0.10563   0.10630   0.10770
     Eigenvalues ---    0.11484   0.11639   0.13360   0.14424   0.14862
     Eigenvalues ---    0.14884   0.15469   0.15859   0.16742   0.18201
     Eigenvalues ---    0.18452   0.19276   0.20898   0.21309   0.22434
     Eigenvalues ---    0.22870   0.24033   0.24155   0.24629   0.26363
     Eigenvalues ---    0.29339   0.31176   0.31392   0.32087   0.32556
     Eigenvalues ---    0.32784   0.33029   0.33308   0.33751   0.33803
     Eigenvalues ---    0.34501   0.34576   0.35897   0.36544   0.37137
     Eigenvalues ---    0.37176   0.40204   0.40363   0.44013   0.44202
     Eigenvalues ---    0.44523   0.44711   0.46442   0.46554   0.47116
     Eigenvalues ---    0.51694   0.57372   0.80377   0.86332
 RFO step:  Lambda=-3.23784119D-03 EMin=-6.42678796D-04
 Linear search not attempted -- first point.
 Iteration  1 RMS(Cart)=  0.15736530 RMS(Int)=  0.02482276
 Iteration  2 RMS(Cart)=  0.05619564 RMS(Int)=  0.00161681
 Iteration  3 RMS(Cart)=  0.00240407 RMS(Int)=  0.00018993
 Iteration  4 RMS(Cart)=  0.00000340 RMS(Int)=  0.00018993
 Iteration  5 RMS(Cart)=  0.00000000 RMS(Int)=  0.00018993
 Variable       Old X    -DE/DX   Delta X   Delta X   Delta X     New X
                                 (Linear)    (Quad)   (Total)
    R1        2.30961  -0.00157   0.00000  -0.00162  -0.00162   2.30799
    R2        2.56734   0.00107   0.00000   0.00170   0.00170   2.56904
    R3        2.86976  -0.00088   0.00000  -0.00277  -0.00277   2.86699
    R4        2.74746  -0.00038   0.00000  -0.01949  -0.01949   2.72797
    R5        1.90465  -0.00110   0.00000  -0.00080  -0.00080   1.90385
    R6        2.85639   0.00145   0.00000   0.00288   0.00288   2.85927
    R7        2.91583   0.00037   0.00000   0.02055   0.02055   2.93638
    R8        2.05852  -0.00177   0.00000  -0.00416  -0.00416   2.05436
    R9        2.54490  -0.00519   0.00000  -0.01554  -0.01554   2.52936
   R10        2.27966  -0.00335   0.00000  -0.00354  -0.00354   2.27612
   R11        1.82716   0.00230   0.00000   0.00382   0.00382   1.83099
   R12        2.82271  -0.00383   0.00000  -0.01797  -0.01797   2.80475
   R13        2.05642   0.00049   0.00000   0.00238   0.00238   2.05881
   R14        2.05685   0.00104   0.00000   0.00379   0.00379   2.06064
   R15        2.58491   0.00072   0.00000   0.00299   0.00302   2.58793
   R16        2.60531   0.00055   0.00000   0.00277   0.00279   2.60810
   R17        2.61628  -0.00566   0.00000  -0.01609  -0.01609   2.60019
   R18        2.04550  -0.00380   0.00000  -0.00999  -0.00999   2.03551
   R19        2.48159  -0.00358   0.00000  -0.00680  -0.00682   2.47477
   R20        2.57882  -0.00082   0.00000  -0.00136  -0.00138   2.57744
   R21        2.03202   0.00124   0.00000   0.00331   0.00331   2.03533
   R22        1.90418  -0.00176   0.00000  -0.00373  -0.00373   1.90045
   R23        2.87353   0.00122   0.00000   0.00005   0.00005   2.87358
   R24        2.06565  -0.00115   0.00000  -0.00192  -0.00192   2.06373
   R25        2.07269  -0.00115   0.00000  -0.00263  -0.00263   2.07005
   R26        2.76907   0.00105   0.00000  -0.00017  -0.00017   2.76890
   R27        2.06403  -0.00109   0.00000  -0.00422  -0.00422   2.05980
   R28        2.07310  -0.00190   0.00000  -0.00433  -0.00433   2.06877
   R29        1.91421  -0.00014   0.00000  -0.00086  -0.00086   1.91334
   R30        1.91617   0.00019   0.00000   0.00002   0.00002   1.91619
    A1        2.11916   0.00102   0.00000   0.00334   0.00328   2.12243
    A2        2.15643  -0.00130   0.00000  -0.00284  -0.00290   2.15353
    A3        2.00738   0.00029   0.00000  -0.00010  -0.00016   2.00722
    A4        2.11388  -0.00048   0.00000  -0.00212  -0.00265   2.11123
    A5        2.11496   0.00035   0.00000   0.00764   0.00708   2.12205
    A6        2.05343   0.00011   0.00000  -0.00792  -0.00843   2.04500
    A7        1.85759   0.00267   0.00000   0.03726   0.03753   1.89512
    A8        1.92226   0.00268   0.00000   0.02446   0.02480   1.94706
    A9        1.89390  -0.00161   0.00000   0.00895   0.00924   1.90314
   A10        1.93149  -0.00363   0.00000  -0.02979  -0.03069   1.90080
   A11        1.93809  -0.00007   0.00000  -0.01572  -0.01678   1.92131
   A12        1.91929   0.00010   0.00000  -0.02206  -0.02279   1.89649
   A13        1.98654  -0.00377   0.00000  -0.02299  -0.02318   1.96336
   A14        2.14859   0.00141   0.00000   0.00792   0.00774   2.15633
   A15        2.14803   0.00236   0.00000   0.01485   0.01466   2.16269
   A16        1.84847   0.00301   0.00000   0.02660   0.02660   1.87507
   A17        1.98163  -0.00202   0.00000  -0.00502  -0.00500   1.97662
   A18        1.89266  -0.00029   0.00000  -0.00455  -0.00455   1.88811
   A19        1.87249  -0.00028   0.00000  -0.01652  -0.01654   1.85595
   A20        1.89507   0.00156   0.00000   0.01834   0.01831   1.91337
   A21        1.93287   0.00118   0.00000   0.00949   0.00938   1.94225
   A22        1.88664  -0.00015   0.00000  -0.00229  -0.00249   1.88416
   A23        2.30858   0.00084   0.00000   0.00717   0.00700   2.31557
   A24        2.14723  -0.00024   0.00000  -0.00603  -0.00617   2.14106
   A25        1.82703  -0.00061   0.00000  -0.00185  -0.00190   1.82513
   A26        1.93684  -0.00008   0.00000  -0.00014  -0.00013   1.93671
   A27        2.21641   0.00085   0.00000   0.00572   0.00565   2.22206
   A28        2.12979  -0.00076   0.00000  -0.00530  -0.00537   2.12442
   A29        1.83442   0.00165   0.00000   0.00543   0.00544   1.83986
   A30        1.94541   0.00058   0.00000  -0.00001  -0.00002   1.94539
   A31        2.20759  -0.00112   0.00000  -0.00630  -0.00630   2.20129
   A32        2.13019   0.00055   0.00000   0.00631   0.00631   2.13649
   A33        1.88108  -0.00153   0.00000  -0.00342  -0.00339   1.87769
   A34        2.19571   0.00053   0.00000  -0.00197  -0.00200   2.19372
   A35        2.20636   0.00100   0.00000   0.00534   0.00532   2.21168
   A36        1.97338  -0.00116   0.00000  -0.00265  -0.00268   1.97070
   A37        1.91351   0.00170   0.00000   0.00041   0.00038   1.91389
   A38        1.89088  -0.00105   0.00000  -0.00196  -0.00201   1.88887
   A39        1.92372  -0.00082   0.00000  -0.00737  -0.00736   1.91636
   A40        1.89997   0.00176   0.00000   0.02078   0.02079   1.92076
   A41        1.85848  -0.00039   0.00000  -0.00937  -0.00934   1.84914
   A42        1.90100   0.00188   0.00000   0.01029   0.01021   1.91121
   A43        1.91102  -0.00063   0.00000  -0.00937  -0.00937   1.90165
   A44        1.89848  -0.00074   0.00000   0.00514   0.00501   1.90349
   A45        1.88948  -0.00067   0.00000   0.00132   0.00137   1.89085
   A46        1.99300   0.00032   0.00000   0.00721   0.00710   2.00010
   A47        1.86968  -0.00025   0.00000  -0.01581  -0.01580   1.85388
   A48        1.91856   0.00019   0.00000   0.00132   0.00130   1.91987
   A49        1.91409   0.00059   0.00000   0.00809   0.00807   1.92217
   A50        1.84850  -0.00015   0.00000   0.00216   0.00213   1.85063
    D1       -0.00115   0.00098   0.00000   0.04310   0.04327   0.04213
    D2        3.09351   0.00044   0.00000  -0.01899  -0.01911   3.07440
    D3       -3.12132   0.00047   0.00000   0.02316   0.02329  -3.09803
    D4       -0.02666  -0.00007   0.00000  -0.03893  -0.03910  -0.06576
    D5        0.36053   0.00018   0.00000  -0.28121  -0.28120   0.07933
    D6        2.51466  -0.00043   0.00000  -0.29233  -0.29233   2.22234
    D7       -1.74698  -0.00056   0.00000  -0.30437  -0.30434  -2.05131
    D8       -2.80300   0.00074   0.00000  -0.26071  -0.26073  -3.06373
    D9       -0.64886   0.00012   0.00000  -0.27183  -0.27185  -0.92072
   D10        1.37268  -0.00001   0.00000  -0.28386  -0.28387   1.08881
   D11       -2.75912  -0.00058   0.00000  -0.05848  -0.05812  -2.81724
   D12        1.42960   0.00071   0.00000  -0.05838  -0.05853   1.37107
   D13       -0.67214  -0.00003   0.00000  -0.05171  -0.05155  -0.72369
   D14        0.42781  -0.00006   0.00000   0.00109   0.00121   0.42901
   D15       -1.66666   0.00122   0.00000   0.00119   0.00080  -1.66586
   D16        2.51479   0.00048   0.00000   0.00786   0.00778   2.52257
   D17        2.25632  -0.00016   0.00000   0.27064   0.27072   2.52704
   D18       -0.89237  -0.00021   0.00000   0.23607   0.23619  -0.65618
   D19       -1.93839   0.00267   0.00000   0.30602   0.30567  -1.63272
   D20        1.19611   0.00262   0.00000   0.27145   0.27114   1.46724
   D21        0.19831   0.00023   0.00000   0.24632   0.24653   0.44484
   D22       -2.95038   0.00018   0.00000   0.21174   0.21200  -2.73838
   D23       -3.12764   0.00135   0.00000   0.04021   0.04012  -3.08752
   D24        1.04769   0.00088   0.00000   0.02340   0.02337   1.07106
   D25       -0.98618   0.00134   0.00000   0.03715   0.03709  -0.94908
   D26        1.10638  -0.00138   0.00000  -0.00254  -0.00223   1.10415
   D27       -1.00148  -0.00185   0.00000  -0.01935  -0.01898  -1.02046
   D28       -3.03534  -0.00138   0.00000  -0.00560  -0.00526  -3.04060
   D29       -1.04126   0.00110   0.00000   0.05272   0.05241  -0.98885
   D30        3.13407   0.00063   0.00000   0.03592   0.03566  -3.11346
   D31        1.10021   0.00109   0.00000   0.04966   0.04938   1.14958
   D32        3.12150  -0.00083   0.00000  -0.08351  -0.08357   3.03793
   D33       -0.01300  -0.00078   0.00000  -0.04892  -0.04886  -0.06186
   D34       -1.79586   0.00011   0.00000  -0.01155  -0.01157  -1.80743
   D35        1.31285  -0.00024   0.00000  -0.04537  -0.04540   1.26745
   D36        0.31064  -0.00046   0.00000  -0.00763  -0.00768   0.30296
   D37       -2.86383  -0.00081   0.00000  -0.04145  -0.04151  -2.90534
   D38        2.37951   0.00102   0.00000   0.00643   0.00651   2.38602
   D39       -0.79496   0.00067   0.00000  -0.02740  -0.02732  -0.82228
   D40        3.11083  -0.00011   0.00000  -0.02480  -0.02492   3.08591
   D41       -0.01260  -0.00053   0.00000  -0.04293  -0.04304  -0.05564
   D42       -0.00226   0.00019   0.00000   0.00461   0.00459   0.00233
   D43       -3.12570  -0.00023   0.00000  -0.01352  -0.01352  -3.13922
   D44       -3.11551   0.00012   0.00000   0.02255   0.02239  -3.09312
   D45        0.03354   0.00025   0.00000   0.02903   0.02889   0.06243
   D46        0.00093  -0.00013   0.00000  -0.00315  -0.00313  -0.00219
   D47       -3.13320   0.00001   0.00000   0.00333   0.00338  -3.12982
   D48        0.00273  -0.00018   0.00000  -0.00428  -0.00428  -0.00155
   D49        3.12721   0.00023   0.00000   0.01292   0.01279   3.14001
   D50       -0.00210   0.00010   0.00000   0.00218   0.00218   0.00008
   D51        3.13677   0.00000   0.00000  -0.00099  -0.00099   3.13578
   D52        0.00077   0.00001   0.00000   0.00060   0.00060   0.00137
   D53        3.13484  -0.00012   0.00000  -0.00597  -0.00603   3.12881
   D54       -3.13824   0.00011   0.00000   0.00363   0.00366  -3.13458
   D55       -0.00417  -0.00003   0.00000  -0.00294  -0.00297  -0.00714
   D56       -3.10276   0.00000   0.00000  -0.07246  -0.07250   3.10793
   D57        1.11730   0.00007   0.00000  -0.07466  -0.07465   1.04265
   D58       -0.92054   0.00115   0.00000  -0.05338  -0.05337  -0.97391
   D59        1.03193  -0.00077   0.00000  -0.06558  -0.06564   0.96630
   D60       -1.03119  -0.00070   0.00000  -0.06778  -0.06779  -1.09897
   D61       -3.06903   0.00038   0.00000  -0.04650  -0.04651  -3.11554
   D62       -1.00043  -0.00085   0.00000  -0.06220  -0.06220  -1.06264
   D63       -3.06355  -0.00078   0.00000  -0.06440  -0.06435  -3.12791
   D64        1.18179   0.00029   0.00000  -0.04312  -0.04308   1.13871
   D65       -3.02904   0.00037   0.00000   0.00416   0.00419  -3.02485
   D66        1.22859   0.00010   0.00000  -0.00389  -0.00387   1.22471
   D67       -0.95240   0.00029   0.00000  -0.00049  -0.00047  -0.95287
   D68       -2.97796   0.00003   0.00000  -0.00854  -0.00853  -2.98649
   D69        1.12834  -0.00029   0.00000  -0.01501  -0.01504   1.11330
   D70       -0.89722  -0.00056   0.00000  -0.02306  -0.02310  -0.92033
         Item               Value     Threshold  Converged?
 Maximum Force            0.005657     0.000450     NO 
 RMS     Force            0.001381     0.000300     NO 
 Maximum Displacement     0.783189     0.001800     NO 
 RMS     Displacement     0.204408     0.001200     NO 
 Predicted change in Energy=-2.495535D-03
 GradGradGradGradGradGradGradGradGradGradGradGradGradGradGradGradGradGrad

                          Input orientation:                          
 ---------------------------------------------------------------------
 Center     Atomic      Atomic             Coordinates (Angstroms)
 Number     Number       Type             X           Y           Z
 ---------------------------------------------------------------------
      1          8           0       -1.491168   -0.381302   -1.084513
      2          6           0       -1.651660   -0.334411    0.125321
      3          7           0       -0.601172   -0.393650    0.986222
      4          6           0        0.755772   -0.462980    0.498558
      5          6           0        1.643228   -0.972465    1.613095
      6          8           0        2.634131   -1.751633    1.163051
      7          8           0        1.498087   -0.670946    2.770147
      8          6           0        1.270365    0.930360    0.042172
      9          6           0        2.637343    0.890032   -0.534561
     10          6           0        3.863650    1.249033   -0.041867
     11          7           0        4.861453    0.954581   -0.942399
     12          6           0        4.254250    0.420381   -1.972434
     13          7           0        2.905723    0.355903   -1.778539
     14          6           0       -3.012968   -0.205650    0.782579
     15          6           0       -4.159121   -0.252098   -0.215670
     16          7           0       -5.434917   -0.168243    0.500037
     17          1           0       -0.728160   -0.297658    1.981041
     18          1           0        0.793737   -1.142574   -0.349109
     19          1           0        3.206991   -1.957214    1.916952
     20          1           0        1.256212    1.596914    0.903831
     21          1           0        0.545773    1.302626   -0.682713
     22          1           0        4.077005    1.702540    0.911578
     23          1           0        4.724967    0.070692   -2.875862
     24          1           0        2.221910   -0.001500   -2.423553
     25          1           0       -3.137991   -0.995445    1.526375
     26          1           0       -3.037100    0.737912    1.338512
     27          1           0       -4.126518   -1.202565   -0.748261
     28          1           0       -4.007875    0.526554   -0.970187
     29          1           0       -6.203280   -0.308686   -0.144202
     30          1           0       -5.558643    0.761630    0.885044
 ---------------------------------------------------------------------
                    Distance matrix (angstroms):
                    1          2          3          4          5
     1  O    0.000000
     2  C    1.221334   0.000000
     3  N    2.253927   1.359479   0.000000
     4  C    2.749822   2.439583   1.443579   0.000000
     5  C    4.177439   3.671086   2.401110   1.513058   0.000000
     6  O    4.893612   4.631782   3.513200   2.372848   1.338481
     7  O    4.886506   4.126653   2.768785   2.398833   1.204471
     8  C    3.258211   3.185090   2.479292   1.553864   2.495510
     9  C    4.354692   4.508909   3.801132   2.537378   3.011575
    10  C    5.693784   5.740549   4.867239   3.589144   3.550243
    11  N    6.493117   6.724743   5.947906   4.576292   4.538835
    12  C    5.868639   6.312691   5.743816   4.373269   4.649029
    13  N    4.511961   4.987080   4.528140   3.236979   3.855079
    14  C    2.415111   1.517143   2.427668   3.788177   4.791442
    15  C    2.808836   2.531879   3.758135   4.970993   6.126219
    16  N    4.255509   3.805398   4.863360   6.197702   7.210119
    17  H    3.160189   2.073137   1.007474   2.104077   2.492836
    18  H    2.518162   2.618812   2.071175   1.087119   2.144951
    19  H    5.793529   5.426778   4.220557   3.202038   1.872809
    20  H    3.926187   3.576565   2.723786   2.158205   2.693426
    21  H    2.673235   2.856838   2.641624   2.134681   3.413382
    22  H    6.271469   6.130659   5.126883   3.986308   3.683890
    23  H    6.484872   7.059220   6.595383   5.236987   5.544008
[...]
 0.00049707,-0.00062913,-0.00015992,0.00031950,-0.00013133,0.00009734,-
 0.00013151,0.00006897,-0.00011155,0.00004524,0.00004789,0.00024957,-0.
 00038907,0.00066271,0.00002169,0.00003374,0.00000939,0.00002984,-0.000
 26323,0.00027987,0.00030978,-0.00024386,-0.00055436,-0.00051534,0.0016
 3847,-0.00019129,0.00031476,-0.00118816,0.00014100,0.12794294,0.069589
 22,-0.00407214,-0.00170870,0.00341076,0.00075725,0.00015063,-0.0075212
 0,0.00126984,0.00023421,0.00179678,-0.00021325,0.00009887,-0.00081064,
 -0.00088381,0.00048138,-0.00052698,0.00063896,-0.00013127,0.00024750,0
 .00036731,-0.00020003,0.00040226,-0.00002384,0.00012838,0.00085649,-0.
 02734858,-0.00567679,0.00855562,-0.00397630,-0.00320671,-0.00665325,0.
 00640606,-0.00090386,-0.00347560,0.01564565,0.01084013,0.01321201,-0.0
 2245250,-0.02349066,-0.07455531,-0.00039509,0.00024028,0.00074370,0.00
 021254,-0.00023861,0.00038199,-0.00026446,0.00002741,-0.00015789,0.000
 12239,-0.00004815,-0.00014339,-0.00021159,0.00056177,-0.00057586,-0.00
 006412,0.00000153,-0.00001941,0.00015907,0.00007774,0.00021250,0.00026
 489,-0.00037069,-0.00037463,-0.00112835,-0.00050345,0.00082537,-0.0006
 3948,-0.00001342,-0.00048315,0.03621719,0.02351879,0.06443240,-0.00013
 619,0.00402363,0.00038147,-0.00914476,-0.03462527,-0.00457321,-0.00232
 598,0.00166553,0.00050342,-0.00037127,0.00141942,-0.00046925,-0.000195
 05,-0.00004357,0.00050916,-0.00015501,0.00005564,-0.00021729,0.0000200
 5,0.00009796,-0.00019144,0.00022763,0.00015038,-0.00008127,0.00001344,
 0.00000077,-0.00000764,0.00002781,0.00000124,0.00000677,-0.00002423,0.
 00001231,0.00004156,-0.00000145,-0.00000250,0.00001187,-0.00002119,-0.
 00004506,-0.00006267,-0.06261792,-0.06970901,-0.00548105,0.00419736,0.
 01862534,0.00132007,0.00151796,-0.00019178,0.00071592,-0.00025268,-0.0
 0066920,0.00000942,-0.00027815,-0.00005453,-0.00011254,-0.00003354,-0.
 00002206,-0.00001327,-0.00001507,0.00000042,0.00000109,0.00005023,0.00
 001419,0.00000334,0.00000126,0.00000036,-0.00000112,-0.00000159,-0.000
 00231,0.00000540,0.00004691,0.00011766,-0.00002668,0.06867771,0.000223
 27,0.00077140,-0.00020034,-0.00227655,-0.00131337,-0.00053559,0.000059
 19,0.00026633,0.00076945,-0.00023789,-0.00016240,0.00000808,-0.0000427
 8,-0.00001114,-0.00000456,0.00003247,0.00000437,0.00001013,0.00003071,
 0.00001897,0.00001335,0.00004639,-0.00002256,-0.00000526,-0.00000923,0
 .00000761,-0.00001362,0.00000369,0.00000409,-0.00000698,0.00002209,0.0
 0001008,-0.00000239,-0.00001836,-0.00000099,0.00002213,0.00002167,0.00
 001527,-0.00001127,-0.06402247,-0.28088788,-0.03003997,-0.00381666,-0.
 02224346,0.00034900,-0.00105561,0.00232498,-0.00160452,0.00012406,-0.0
 0020558,0.00006849,-0.00000676,-0.00002698,-0.00003376,-0.00000289,-0.
 00000486,0.00000052,0.00001580,0.00000407,0.00000280,-0.00000508,-0.00
 002108,-0.00000096,0.00000223,-0.00000181,0.00000120,0.00000091,-0.000
 00411,0.00000031,-0.00007092,-0.00003977,0.00003595,0.07097207,0.30863
 748,0.00117339,-0.00163790,-0.00080576,0.00018761,0.00642368,-0.000740
 66,-0.00091150,0.00030674,0.00011070,0.00003738,0.00039266,0.00014647,
 -0.00000557,-0.00005821,0.00011425,-0.00001350,0.00000962,-0.00003406,
 0.00001208,0.00007818,-0.00005768,0.00003346,0.00000664,-0.00001694,-0
 .00001785,-0.00001174,-0.00003890,0.00001441,0.00000442,-0.00000579,0.
 00002128,0.00000790,0.00001384,-0.00002843,0.00000102,0.00003812,0.000
 03261,0.00001331,-0.00000357,-0.00494845,-0.03045043,-0.04801314,0.004
 17114,0.02472684,0.00076651,0.00140673,-0.00143738,0.00068946,0.000143
 22,-0.00073927,0.00010355,-0.00017184,0.00000580,-0.00001374,-0.000005
 31,-0.00000915,-0.00000307,0.00000473,-0.00001088,0.00000283,0.0000024
 9,0.00000119,-0.00001815,0.00000219,0.00000017,-0.00000068,0.00000089,
 0.00000150,-0.00000091,-0.00009736,-0.00005001,0.00003787,0.00915440,0
 .02937950,0.05228534,-0.00900026,-0.00230268,0.00290827,-0.00075204,0.
 01095091,0.03283467,0.00030230,-0.00088697,-0.00143531,0.00042342,-0.0
 0014622,-0.00001323,-0.00015793,-0.00003786,0.00022532,0.00017545,-0.0
 0000867,-0.00001752,0.00015240,0.00000121,-0.00020357,-0.00000124,-0.0
 0001343,0.00001638,0.00011873,0.00009812,0.00020067,-0.00008893,-0.000
 01223,0.00003283,-0.00019562,-0.00006697,-0.00005692,0.00017229,-0.000
 02959,-0.00025808,-0.00045991,-0.00015225,0.00023776,-0.06125524,0.014
 79421,0.04627157,0.00333605,-0.00545165,-0.01880315,0.00178459,-0.0005
 1519,0.00022659,-0.00184826,0.00044119,-0.00053807,0.00016809,-0.00001
 168,0.00010161,-0.00001505,0.00000115,0.00000458,-0.00002380,-0.000002
 10,-0.00002526,0.00000170,0.00004485,0.00002128,-0.00001780,-0.0000056
 5,-0.00000177,-0.00000182,0.00000238,0.00000328,0.00067945,0.00026142,
 -0.00038109,0.00200746,-0.00183439,-0.00852216,0.06670059,-0.00075289,
 0.00184941,0.00049658,-0.00302889,-0.00215294,0.00325365,0.00044738,-0
 .00009438,0.00047764,0.00000352,-0.00011194,0.00017066,0.00010165,0.00
 006831,-0.00029705,-0.00003353,-0.00001017,0.00008167,-0.00009085,-0.0
 0008762,0.00017445,-0.00003162,0.00002739,0.00001632,-0.00002970,-0.00
 002714,-0.00002822,0.00000715,-0.00000488,-0.00000634,0.00004635,0.000
 01691,-0.00001025,-0.00003540,-0.00000230,0.00004755,0.00006558,-0.000
 00619,-0.00002616,0.01673057,-0.06638593,-0.06611201,-0.00389480,0.005
 32023,0.01914005,-0.00129721,0.00021995,-0.00063576,0.00050838,0.00067
 197,0.00011513,0.00001227,-0.00000133,0.00001943,0.00001286,0.00000662
 ,-0.00000247,0.00001098,0.00000301,0.00000432,0.00000025,-0.00003300,0
 .00000142,0.00000254,0.00000232,0.00000127,0.00000026,-0.00000208,-0.0
 0000061,-0.00012542,0.00001753,0.00006962,0.00740284,-0.00785811,-0.02
 911611,-0.01741848,0.06864649,0.00226346,-0.00013096,0.00152886,-0.001
 99186,-0.00115228,-0.00845075,-0.00175068,0.00049660,0.00078999,0.0004
 0767,0.00043070,0.00058998,0.00021806,0.00002457,-0.00017607,-0.000094
 80,0.00000229,0.00003300,-0.00012867,-0.00000215,0.00012407,0.00003166
 ,0.00000280,-0.00001723,-0.00004323,-0.00004653,-0.00009341,0.00005083
 ,0.00001016,-0.00001519,0.00008833,0.00003592,0.00005227,-0.00010297,-
 0.00000108,0.00011554,0.00014439,0.00003339,-0.00008286,0.05102354,-0.
 06548184,-0.27082047,0.00463325,-0.00595533,-0.02160394,0.00047653,-0.
 00010665,0.00184057,0.00013335,-0.00054515,0.00101594,-0.00024223,0.00
 002595,0.00001023,0.00001933,-0.00000665,-0.00000133,0.00002191,-0.000
 00098,0.00001087,0.00000431,-0.00001878,-0.00002004,0.00001075,0.00000
 360,0.00000202,-0.00000602,0.00000113,0.00000502,-0.00027623,-0.000097
 42,0.00010637,0.00068642,-0.00139884,-0.00331816,-0.05212135,0.0702426
 4,0.29840368,-0.00126145,0.00014807,0.00138213,0.00086612,-0.00065506,
 -0.00292737,0.00018234,0.00016509,0.00129864,-0.00018476,-0.00001826,0
 .00009146,-0.00000216,0.00004907,-0.00014301,0.00001440,-0.00001573,0.
 00004236,-0.00000730,-0.00002560,0.00011491,-0.00000413,0.00000024,-0.
 00001124,-0.00004488,-0.00003191,-0.00007968,0.00002335,0.00000598,-0.
 00001148,0.00008517,0.00002574,0.00000749,-0.00008488,0.00000091,0.000
 09034,0.00012120,0.00002794,-0.00003037,0.00435729,-0.00511615,-0.0177
 6636,-0.06108122,0.01599661,0.05397331,-0.01555211,0.00796001,0.035319
 81,0.00042856,0.00000163,0.00007605,-0.00004268,0.00000438,-0.00003980
 ,-0.00000088,0.00000202,-0.00000434,0.00001591,0.00000048,0.00000956,0
 .00000345,-0.00002142,-0.00001127,0.00000673,0.00000191,0.00000234,-0.
 00000304,-0.00000056,0.00000202,-0.00025581,-0.00005386,0.00006338,0.0
 0077982,-0.00022754,0.00079131,-0.00250397,0.00239527,-0.00257088,0.07
 681847,0.00021615,-0.00093054,0.00004609,0.00003813,0.00067810,-0.0003
 1898,-0.00005142,0.00014598,-0.00004607,0.00002307,-0.00000753,-0.0000
 6906,-0.00003127,-0.00000461,0.00002654,0.00000666,-0.00000070,-0.0000
 0880,0.00001667,0.00000327,-0.00001263,0.00003567,-0.00001482,-0.00000
 910,-0.00000476,0.00000136,-0.00001942,0.00000797,0.00000422,-0.000000
 44,0.00000754,-0.00000161,0.00001821,-0.00002262,-0.00000746,0.0000084
 5,-0.00000181,-0.00003430,0.00001894,-0.00393704,0.00453443,0.01933596
 ,0.01727452,-0.07389925,-0.07381374,-0.00138346,0.00257132,0.00753550,
 -0.00021986,0.00001508,-0.00003266,0.00001377,0.00000823,-0.00001515,-
 0.00000179,0.00000122,0.00000015,0.00000236,0.00000079,0.00000234,0.00
 000213,0.00000487,-0.00000814,0.00000148,0.00000232,0.00000034,-0.0000
 0564,0.00000907,0.00000222,-0.00001349,0.00007104,-0.00005991,-0.00090
 913,0.00108804,0.00001228,0.00237351,-0.00124781,0.00298538,-0.0186868
 4,0.07586730,0.00140571,-0.00036530,0.00299594,0.00215354,-0.00006224,
 -0.00344761,-0.00014965,0.00000849,0.00054144,-0.00001325,-0.00007294,
 0.00004329,0.00005717,0.00003155,-0.00010151,-0.00004218,0.00000056,0.
 00001896,-0.00005340,-0.00001576,0.00009173,-0.00001841,0.00000325,-0.
 00001952,-0.00003281,-0.00002698,-0.00004893,0.00002055,0.00000347,-0.
 00000600,0.00004400,0.00001763,0.00002110,-0.00005451,-0.00000148,0.00
 005028,0.00006543,0.00002093,-0.00002051,0.00151531,-0.00484301,-0.022
 89878,0.05851967,-0.06947038,-0.27563175,0.00249453,0.00006341,-0.0014
 5905,0.00017025,-0.00000505,0.00019833,-0.00004175,0.00001414,-0.00000
 489,0.00000546,-0.00000103,-0.00000225,0.00000612,-0.00000436,0.000008
 60,-0.00000326,-0.00000678,-0.00000998,0.00000508,0.00000182,0.0000011
 9,-0.00000292,-0.00000002,0.00000289,-0.00012645,-0.00004400,0.0000435
 0,0.00040656,-0.00003539,0.00099959,-0.00230992,0.00282772,-0.00132473
 ,-0.06459674,0.07357207,0.29960157,-0.00015170,-0.00043362,0.00038931,
 0.00181489,0.00087371,-0.00012637,-0.00019589,-0.00025210,-0.00014922,
 0.00011757,0.00005068,-0.00001898,0.00006100,-0.00000931,0.00001885,-0
 .00004854,0.00000983,-0.00001544,-0.00003952,0.00000375,-0.00001057,-0
 .00001490,0.00000531,0.00001775,0.00000438,-0.00000164,-0.00000028,0.0
 0000349,0.00000108,0.00000232,-0.00001718,0.00000052,0.00001036,0.0000
 0841,-0.00000036,-0.00000892,-0.00002244,-0.00001600,0.00000172,0.0033
 9013,0.01808880,0.00149045,-0.05782821,-0.04506922,-0.00496551,-0.0239
 8072,-0.03579885,-0.00121982,0.00003507,0.00001398,0.00004769,-0.00001
 362,0.00000785,0.00001083,0.00000782,-0.00000307,0.00000413,-0.0000031
 0,-0.00000486,0.00000057,-0.00001301,0.00000611,-0.00001430,0.00000063
 ,-0.00000078,-0.00000077,0.00000094,-0.00000064,0.00000024,0.00002998,
 0.00002373,-0.00002051,-0.00210808,0.00236142,-0.00279953,0.00044379,-
 0.00091397,0.00025002,0.00274258,0.00605822,0.00011302,0.07297605,0.00
 098569,0.00100920,-0.00103646,-0.00225228,-0.00117671,0.00145287,0.000
 97257,0.00040461,0.00017101,-0.00012633,-0.00007598,0.00006516,-0.0000
 3353,-0.00001669,0.00003824,0.00005227,0.00001163,0.00001077,0.0000596
 1,0.00004337,-0.00003370,0.00012583,-0.00014188,-0.00000070,0.00001633
 ,0.00005512,0.00000863,0.00000154,0.00001755,-0.00000618,-0.00001387,0
 .00000221,0.00001000,0.00002170,0.00000665,-0.00001517,-0.00001360,0.0
 0006446,-0.00003325,-0.00070508,-0.01912649,-0.00191954,-0.04302416,-0
 .26776990,-0.02701779,-0.00945112,0.00014626,0.00136350,-0.00006468,-0
 .00020425,-0.00009150,0.00002811,0.00000403,0.00001525,0.00000049,-0.0
 0001661,0.00000083,-0.00000042,0.00003155,-0.00000905,0.00000122,0.000
 04529,0.00002744,0.00000241,-0.00000712,0.00000081,0.00000337,-0.00001
 142,0.00000207,-0.00001718,-0.00014769,0.00004476,0.00189100,-0.000691
 87,0.00254840,-0.00040729,0.00100198,0.00035394,-0.00152871,-0.0099201
 8,-0.00191805,0.05469005,0.29428053,0.00007995,0.00032551,0.00034170,0
 .00129986,0.00035224,0.00024234,-0.00013739,-0.00044287,-0.00019442,0.
 00004879,0.00002576,-0.00004407,0.00000217,0.00000786,0.00003182,-0.00
 000483,0.00000085,-0.00001079,-0.00000158,-0.00001528,-0.00002241,-0.0
 0002440,-0.00001429,0.00001031,0.00001194,-0.00000123,0.00001464,-0.00
 000490,-0.00000028,0.00000672,-0.00001700,-0.00000171,-0.00000771,0.00
 002386,0.00000230,-0.00002370,-0.00002803,0.00001939,-0.00000548,0.001
 54338,0.02332256,0.00124763,-0.00465585,-0.02802260,-0.05792569,0.0025
 4910,0.00505567,0.00395036,-0.00003093,0.00009360,0.00002045,0.0000079
 7,0.00000401,0.00000298,0.00000052,0.00000216,0.00000240,-0.00001172,0
 .00000292,-0.00000291,-0.00000877,0.00000847,0.00002559,-0.00000122,-0
 .00000153,-0.00000019,0.00000132,-0.00000541,-0.00000024,0.00001966,-0
 .00004148,0.00000583,-0.00257066,0.00310638,-0.00203614,0.00104855,-0.
 00040591,0.00110190,-0.00618448,-0.02983725,-0.00232450,0.00772622,0.0
 2552742,0.05515581,-0.00006205,-0.00027339,0.00068274,0.00038028,0.001
 42795,-0.00243736,-0.00086566,-0.00013445,0.00017830,0.00006954,-0.000
 11267,-0.00016550,0.00001036,-0.00003719,0.00009424,-0.00005544,0.0000
 1696,-0.00004435,-0.00002591,0.00000729,-0.00004618,-0.00004319,0.0000
 3877,-0.00002742,0.00000278,-0.00001954,-0.00000722,0.00000819,-0.0000
 0208,0.00000577,-0.00000938,0.00000029,0.00002164,-0.00000999,-0.00000
 492,-0.00000762,-0.00002045,-0.00002435,0.00001746,-0.00729344,-0.0022
 7473,0.00282821,-0.02127934,0.01837794,-0.02898803,-0.15261238,0.08156
 356,-0.13326456,-0.00000977,0.00005880,0.00009440,-0.00000184,0.000003
 48,0.00000302,-0.00000142,0.00000348,0.00000140,-0.00001368,-0.0000161
 2,0.00000666,0.00000162,0.00000771,-0.00000115,-0.00000002,0.00000260,
 -0.00000028,-0.00000505,0.00000456,0.00000375,0.00004135,0.00003899,-0
 .00005891,0.00020656,-0.00017854,0.00038641,0.00020561,-0.00030060,-0.
 00001277,0.00146171,0.00067810,0.00054349,0.00084500,-0.00067555,-0.00
 047979,0.17177688,0.00024507,-0.00006853,-0.00041338,-0.00034360,0.000
 32192,0.00099286,0.00059463,0.00002639,-0.00004266,-0.00010906,-0.0000
 2761,0.00011412,-0.00009764,0.00004967,-0.00010244,0.00011396,-0.00003
 400,0.00005298,0.00007042,-0.00002487,0.00005004,-0.00001422,0.0000031
 6,0.00001654,-0.00002092,-0.00000387,-0.00001389,-0.00001024,-0.000004
 37,-0.00000585,0.00004504,-0.00000118,-0.00003489,-0.00002185,0.000002
 98,0.00003500,0.00007117,0.00001527,-0.00000851,0.00156420,-0.00005123
 ,-0.00014385,-0.01208111,-0.00254559,-0.00640562,0.11299587,-0.0889399
 1,0.14639235,-0.00004012,0.00001609,-0.00008787,0.00002041,-0.00000345
 ,-0.00000781,-0.00001246,0.00000792,-0.00000538,0.00001325,0.00000646,
 -0.00000067,0.00000937,-0.00002184,-0.00000797,-0.00000116,0.00000122,
 0.00000126,0.00000099,0.00000262,-0.00000424,-0.00008716,-0.00001050,0
 .00006270,-0.00018382,0.00060708,-0.00010599,-0.00010241,-0.00009373,0
 .00000839,0.00076372,0.00040534,-0.00011052,-0.00047699,0.00055455,-0.
 00060046,-0.09315420,0.08720503,-0.00003160,-0.00007307,-0.00000455,0.
 00024649,-0.00007246,0.00047197,0.00023855,0.00007117,-0.00001205,0.00
 000327,0.00004822,0.00003277,-0.00002481,0.00001629,-0.00002794,0.0000
 2884,-0.00001037,0.00001356,0.00001568,-0.00000863,0.00001289,0.000000
 38,-0.00000009,0.00001029,-0.00000260,0.00000280,0.00000461,-0.0000061
 9,-0.00000258,-0.00000157,0.00000526,-0.00000320,-0.00001771,0.0000050
 8,0.00000294,0.00000610,0.00000877,0.00000313,-0.00000067,0.00134038,-
 0.00038079,0.00079454,0.00562837,-0.00168398,0.00583901,-0.13859552,0.
 10726177,-0.25656319,0.00000064,-0.00001391,-0.00004541,0.00000272,-0.
 00000353,0.00000080,-0.00000195,0.00000214,0.00000001,0.00000382,0.000
 00379,-0.00000210,0.00000351,-0.00000668,-0.00000245,-0.00000146,-0.00
 000013,-0.00000052,0.00000284,-0.00000059,-0.00000282,-0.00001207,-0.0
 0000037,0.00002288,0.00000901,0.00003459,-0.00012876,0.00022033,0.0000
 2170,0.00036012,0.00020562,-0.00023277,0.00068021,0.00062801,-0.000038
 30,-0.00022679,0.15004112,-0.12311238,0.27546678,0.00008810,0.00022771
 ,-0.00100831,-0.00093904,-0.00045201,0.00068530,0.00012046,-0.00003131
 ,-0.00014693,-0.00006766,0.00001046,-0.00000678,-0.00008916,0.00001797
 ,-0.00000331,0.00007209,-0.00001446,0.00001308,0.00005652,-0.00001342,
 -0.00000850,-0.00000658,0.00000146,0.00001623,-0.00000333,0.00000088,0
 .00000664,-0.00001147,-0.00000344,-0.00000155,0.00001419,-0.00000217,-
 0.00002433,0.00000305,0.00000189,0.00000453,0.00002755,0.00001036,-0.0
 0000676,0.00131008,0.00014765,0.00150622,-0.01421953,0.01743181,0.0365
 9377,-0.09079837,0.04826223,0.08551772,-0.00007903,0.00005530,-0.00005
 973,0.00002098,-0.00000378,-0.00000258,-0.00001213,0.00000495,-0.00000
 430,0.00000378,0.00000494,-0.00000213,0.00000329,-0.00001020,0.0000030
 8,-0.00000162,-0.00000034,0.00000095,0.00000161,-0.00000059,-0.0000028
 7,-0.00001981,-0.00000579,0.00003619,-0.00009201,-0.00011027,-0.000054
 21,-0.00035002,0.00020550,-0.00112212,-0.00687783,-0.00148678,-0.00008
 063,0.00195517,-0.00053841,-0.00020172,0.00729912,-0.00975109,-0.01996
 249,0.10259161,-0.00031732,-0.00006883,0.00043021,0.00040563,0.0002208
 5,-0.00004051,-0.00000698,-0.00011373,0.00001523,0.00001741,0.00001647
 ,0.00003273,0.00003465,0.00002618,-0.00010041,-0.00001755,-0.00001158,
 0.00002318,-0.00003544,-0.00003061,0.00006982,-0.00002150,0.00003260,-
 0.00000121,-0.00000489,-0.00001484,-0.00000633,0.00000055,-0.00000568,
 0.00000137,0.00001120,-0.00000100,0.00000192,-0.00001438,-0.00000380,0
 .00000440,0.00001163,-0.00001391,0.00001326,0.00041560,-0.00002525,-0.
 00106432,-0.00967348,-0.00138212,0.00974838,0.06806415,-0.08675529,-0.
 16657798,0.00005572,0.00005484,-0.00001565,-0.00000343,-0.00000303,-0.
 00000134,0.00000411,0.00000813,-0.00000217,0.00000053,-0.00000162,0.00
 000109,-0.00000030,-0.00000838,-0.00000399,-0.00000045,0.00000388,0.00
 000031,-0.00000359,0.00000420,0.00000112,-0.00000390,0.00002907,-0.000
 02194,0.00000749,-0.00026380,-0.00029281,0.00043674,0.00026743,0.00028
 718,-0.00116740,0.00065684,0.00041826,0.00078640,0.00162783,0.00153322
 ,-0.00502215,0.00260496,0.01817526,-0.05395904,0.08315019,-0.00005976,
 0.00006511,-0.00008751,0.00012287,-0.00007542,0.00002141,0.00002290,0.
 00001929,-0.00003889,-0.00002647,-0.00001045,-0.00000547,-0.00004268,-
 0.00000295,0.00003970,0.00003265,-0.00000029,-0.00000454,0.00003291,0.
 00000522,-0.00003052,0.00000626,-0.00001482,0.00000166,0.00000035,0.00
 000592,0.00000005,-0.00000230,0.00000237,-0.00000021,0.00000263,0.0000
 0195,-0.00000493,-0.00000021,-0.00000049,-0.00000183,0.00000329,0.0000
 0933,0.00000016,-0.00001110,0.00015490,0.00177382,0.00109967,-0.003451
 09,-0.00393874,0.09001263,-0.11851343,-0.31896291,-0.00005370,-0.00000
 709,-0.00000079,0.00000566,0.00000060,0.00000104,-0.00000601,-0.000001
 56,-0.00000035,0.00000025,0.00000152,-0.00000021,0.00000050,0.00000074
 ,0.00000298,0.00000015,-0.00000156,0.00000075,0.00000013,-0.00000207,0
 .00000024,-0.00000964,-0.00001445,0.00000346,0.00004223,0.00009158,-0.
 00007241,0.00033370,-0.00052096,-0.00016624,0.00090630,0.00091963,0.00
 200139,-0.00136128,0.00047858,0.00066456,0.01063251,-0.01651182,-0.026
 68000,-0.10168446,0.13737174,0.34548433\\0.00000144,-0.00000052,0.0000
 0167,-0.00000226,-0.00000194,-0.00000381,0.00000058,0.00000052,0.00000
 183,0.00000082,0.00000683,-0.00000465,-0.00000014,0.00000052,0.0000018
 2,0.00000254,0.00000080,0.00000109,0.00000155,0.00000067,-0.00000169,-
 0.00000232,-0.00000041,0.00000569,0.00000003,-0.00000054,0.00000043,-0
 .00000082,-0.00000027,0.00000007,-0.00000133,-0.00000055,-0.00000070,0
 .00000062,-0.00000098,-0.00000331,-0.00000222,-0.00000163,0.00000169,-
 0.00000064,-0.00000188,0.00000257,0.00000225,0.00000298,0.00000185,-0.
 00000020,-0.00000213,0.00000058,-0.00000067,-0.00000066,-0.00000125,0.
 00000034,-0.00000102,-0.00000039,-0.00000020,-0.00000002,0.00000010,-0
 .00000061,-0.00000039,-0.00000091,0.00000155,0.00000002,-0.00000114,-0
 .00000015,0.00000012,-0.00000026,-0.00000032,-0.00000058,-0.00000021,0
 .00000294,0.00000212,-0.00000089,-0.00000117,0.00000031,0.00000072,-0.
 00000160,0.00000074,-0.00000006,0.00000021,-0.00000074,-0.00000075,-0.
 00000066,-0.00000139,-0.00000041,0.00000010,0.,0.00000029,0.00000034,0
 .00000001,0.00000006\\\@


 ERWIN WITH HIS PSI CAN DO
 CALCULATIONS QUITE A FEW.
 BUT ONE THING HAS NOT BEEN SEEN
 JUST WHAT DOES PSI REALLY MEAN.
 -- WALTER HUCKEL, TRANS. BY FELIX BLOCH
 Job cpu time:       0 days 13 hours 54 minutes 14.6 seconds.
 File lengths (MBytes):  RWF=    973 Int=      0 D2E=      0 Chk=     34 Scr=      1
 Normal termination of Gaussian 09 at Sat Jul 24 13:05:15 2021.
