 Entering Gaussian System, Link 0=g09
 Input=opt_freq-conf-295.com
 Output=opt_freq-conf-295.log
 Initial command:
 /aerosol/software/g09/l1.exe "/scratch/nicole/10365/Gau-77857.inp" -scrdir="/scratch/nicole/10365/"
 Entering Link 1 = /aerosol/software/g09/l1.exe PID=     77861.
  
 Copyright (c) 1988,1990,1992,1993,1995,1998,2003,2009,2013,
            Gaussian, Inc.  All Rights Reserved.
  
 This is part of the Gaussian(R) 09 program.  It is based on
 the Gaussian(R) 03 system (copyright 2003, Gaussian, Inc.),
 the Gaussian(R) 98 system (copyright 1998, Gaussian, Inc.),
 the Gaussian(R) 94 system (copyright 1995, Gaussian, Inc.),
 the Gaussian 92(TM) system (copyright 1992, Gaussian, Inc.),
 the Gaussian 90(TM) system (copyright 1990, Gaussian, Inc.),
 the Gaussian 88(TM) system (copyright 1988, Gaussian, Inc.),
 the Gaussian 86(TM) system (copyright 1986, Carnegie Mellon
 University), and the Gaussian 82(TM) system (copyright 1983,
 Carnegie Mellon University). Gaussian is a federally registered
 trademark of Gaussian, Inc.
  
 This software contains proprietary and confidential information,
 including trade secrets, belonging to Gaussian, Inc.
  
 This software is provided under written license and may be
 used, copied, transmitted, or stored only in accord with that
 written license.
  
 The following legend is applicable only to US Government
 contracts under FAR:
  
                    RESTRICTED RIGHTS LEGEND
  
 Use, reproduction and disclosure by the US Government is
 subject to restrictions as set forth in subparagraphs (a)
 and (c) of the Commercial Computer Software - Restricted
 Rights clause in FAR 52.227-19.
  
 Gaussian, Inc.
 340 Quinnipiac St., Bldg. 40, Wallingford CT 06492
  
  
 ---------------------------------------------------------------
 Warning -- This program may not be used in any manner that
 competes with the business of Gaussian, Inc. or will provide
 assistance to any competitor of Gaussian, Inc.  The licensee
 of this program is prohibited from giving any competitor of
 Gaussian, Inc. access to this program.  By using this program,
 the user acknowledges that Gaussian, Inc. is engaged in the
 business of creating and licensing software in the field of
 computational chemistry and represents and warrants to the
 licensee that it is not a competitor of Gaussian, Inc. and that
 it will not use this program in any manner prohibited above.
 ---------------------------------------------------------------
  

 Cite this work as:
 Gaussian 09, Revision D.01,
 M. J. Frisch, G. W. Trucks, H. B. Schlegel, G. E. Scuseria, 
 M. A. Robb, J. R. Cheeseman, G. Scalmani, V. Barone, B. Mennucci, 
 G. A. Petersson, H. Nakatsuji, M. Caricato, X. Li, H. P. Hratchian, 
 A. F. Izmaylov, J. Bloino, G. Zheng, J. L. Sonnenberg, M. Hada, 
 M. Ehara, K. Toyota, R. Fukuda, J. Hasegawa, M. Ishida, T. Nakajima, 
 Y. Honda, O. Kitao, H. Nakai, T. Vreven, J. A. Montgomery, Jr., 
 J. E. Peralta, F. Ogliaro, M. Bearpark, J. J. Heyd, E. Brothers, 
 K. N. Kudin, V. N. Staroverov, T. Keith, R. Kobayashi, J. Normand, 
 K. Raghavachari, A. Rendell, J. C. Burant, S. S. Iyengar, J. Tomasi, 
 M. Cossi, N. Rega, J. M. Millam, M. Klene, J. E. Knox, J. B. Cross, 
 V. Bakken, C. Adamo, J. Jaramillo, R. Gomperts, R. E. Stratmann, 
 O. Yazyev, A. J. Austin, R. Cammi, C. Pomelli, J. W. Ochterski, 
 R. L. Martin, K. Morokuma, V. G. Zakrzewski, G. A. Voth, 
 P. Salvador, J. J. Dannenberg, S. Dapprich, A. D. Daniels, 
 O. Farkas, J. B. Foresman, J. V. Ortiz, J. Cioslowski, 
 and D. J. Fox, Gaussian, Inc., Wallingford CT, 2013.
 
 ******************************************
 Gaussian 09:  ES64L-G09RevD.01 24-Apr-2013
                24-Jul-2021 
 ******************************************
 %mem=2gb
 %nproc=4
 Will use up to    4 processors via shared memory.
 %chk=conf-295.chk
 ----------------------------------------------------------------------
 # B3LYP/6-311G(2df,2pd) EmpiricalDispersion=GD3BJ opt=calcfc freq=nora
 man nosymm integral(ultrafinegrid)
 ----------------------------------------------------------------------
 1/10=4,14=-1,18=20,19=15,26=4,38=1/1,3;
 2/9=110,12=2,15=1,17=6,18=5,40=1/2;
 3/5=4,6=6,7=404,11=2,16=1,25=1,30=1,71=2,74=-5,75=-5,124=41,140=1/1,2,3;
 4//1;
 5/5=2,38=5/2;
 8/6=4,10=90,11=11/1;
 11/6=1,8=1,9=11,15=111,16=1,31=1/1,2,10;
 10/6=1,13=1,31=1/2;
 6/7=2,8=2,9=2,10=2,28=1/1;
 7/10=1,18=20,25=1,30=1/1,2,3,16;
 1/10=4,14=-1,18=20,19=15,26=4/3(2);
 2/9=110,15=1/2;
 99//99;
 2/9=110,15=1/2;
 3/5=4,6=6,7=404,11=2,16=1,25=1,30=1,71=1,74=-5,75=-5,124=41/1,2,3;
 4/5=5,16=3,69=1/1;
 5/5=2,38=5/2;
 7/30=1/1,2,3,16;
 1/14=-1,18=20,19=15,26=4/3(-5);
 2/9=110,15=1/2;
 6/7=2,8=2,9=2,10=2,19=2,28=1/1;
 99/9=1/99;
 ------------------------------------------------------------
 Candidate Structure: Conf:295 OPT and FREQ calc in gas phase
 ------------------------------------------------------------
 Symbolic Z-matrix:
 Charge =  0 Multiplicity = 1
 O                     0.99868   0.25393  -1.30825 
 C                     1.54103  -0.4116   -0.43426 
 N                     0.88521  -0.77622   0.69038 
 C                    -0.45719  -0.27355   0.92541 
 C                    -0.73566  -0.43996   2.40348 
 O                    -1.96335   0.00395   2.75481 
 O                     0.03439  -0.91686   3.19448 
 C                    -1.48971  -0.99987   0.0266 
 C                    -2.56601  -0.09592  -0.47179 
 C                    -2.94691   0.23608  -1.74047 
 N                    -3.99656   1.13826  -1.71326 
 C                    -4.2317    1.3495   -0.44114 
 N                    -3.38666   0.6337    0.34865 
 C                     2.98549  -0.87192  -0.53834 
 C                     3.94273   0.31628  -0.57455 
 N                     3.84995   0.99938  -1.86386 
 H                     1.37442  -1.15506   1.48561 
 H                    -0.45034   0.79627   0.6873 
 H                    -2.03655  -0.13336   3.7117 
 H                    -0.96322  -1.38181  -0.84588 
 H                    -1.90081  -1.86282   0.55072 
 H                    -2.5303   -0.1175   -2.67275 
 H                    -4.98513   1.99431  -0.02581 
 H                    -3.32973   0.6303    1.35462 
 H                     3.21975  -1.53327   0.29868 
 H                     3.09015  -1.43985  -1.46574 
 H                     4.96531  -0.05625  -0.46242 
 H                     3.74311   0.97263   0.2886 
 H                     2.89883   1.32085  -2.00384 
 H                     4.44081   1.82038  -1.85746 
 

 GradGradGradGradGradGradGradGradGradGradGradGradGradGradGradGradGradGrad
 Berny optimization.
 Initialization pass.
                           ----------------------------
                           !    Initial Parameters    !
                           ! (Angstroms and Degrees)  !
 --------------------------                            --------------------------
 ! Name  Definition              Value          Derivative Info.                !
 --------------------------------------------------------------------------------
 ! R1    R(1,2)                  1.2251         calculate D2E/DX2 analytically  !
 ! R2    R(2,3)                  1.352          calculate D2E/DX2 analytically  !
 ! R3    R(2,14)                 1.5196         calculate D2E/DX2 analytically  !
 ! R4    R(3,4)                  1.4526         calculate D2E/DX2 analytically  !
 ! R5    R(3,17)                 1.0076         calculate D2E/DX2 analytically  !
 ! R6    R(4,5)                  1.5133         calculate D2E/DX2 analytically  !
 ! R7    R(4,8)                  1.5497         calculate D2E/DX2 analytically  !
 ! R8    R(4,18)                 1.096          calculate D2E/DX2 analytically  !
 ! R9    R(5,6)                  1.3519         calculate D2E/DX2 analytically  !
 ! R10   R(5,7)                  1.2025         calculate D2E/DX2 analytically  !
 ! R11   R(6,19)                 0.9695         calculate D2E/DX2 analytically  !
 ! R12   R(8,9)                  1.4913         calculate D2E/DX2 analytically  !
 ! R13   R(8,20)                 1.0882         calculate D2E/DX2 analytically  !
 ! R14   R(8,21)                 1.0901         calculate D2E/DX2 analytically  !
 ! R15   R(9,10)                 1.3656         calculate D2E/DX2 analytically  !
 ! R16   R(9,13)                 1.3707         calculate D2E/DX2 analytically  !
 ! R17   R(10,11)                1.3844         calculate D2E/DX2 analytically  !
 ! R18   R(10,22)                1.0806         calculate D2E/DX2 analytically  !
 ! R19   R(11,12)                1.3108         calculate D2E/DX2 analytically  !
 ! R20   R(12,13)                1.3602         calculate D2E/DX2 analytically  !
 ! R21   R(12,23)                1.0751         calculate D2E/DX2 analytically  !
 ! R22   R(13,24)                1.0076         calculate D2E/DX2 analytically  !
 ! R23   R(14,15)                1.5263         calculate D2E/DX2 analytically  !
 ! R24   R(14,25)                1.0922         calculate D2E/DX2 analytically  !
 ! R25   R(14,26)                1.0925         calculate D2E/DX2 analytically  !
 ! R26   R(15,16)                1.462          calculate D2E/DX2 analytically  !
 ! R27   R(15,27)                1.0941         calculate D2E/DX2 analytically  !
 ! R28   R(15,28)                1.1026         calculate D2E/DX2 analytically  !
 ! R29   R(16,29)                1.0137         calculate D2E/DX2 analytically  !
 ! R30   R(16,30)                1.0115         calculate D2E/DX2 analytically  !
 ! A1    A(1,2,3)              121.6817         calculate D2E/DX2 analytically  !
 ! A2    A(1,2,14)             122.4452         calculate D2E/DX2 analytically  !
 ! A3    A(3,2,14)             115.8724         calculate D2E/DX2 analytically  !
 ! A4    A(2,3,4)              119.311          calculate D2E/DX2 analytically  !
 ! A5    A(2,3,17)             121.4939         calculate D2E/DX2 analytically  !
 ! A6    A(4,3,17)             116.8152         calculate D2E/DX2 analytically  !
 ! A7    A(3,4,5)              106.8608         calculate D2E/DX2 analytically  !
 ! A8    A(3,4,8)              111.0823         calculate D2E/DX2 analytically  !
 ! A9    A(3,4,18)             107.2694         calculate D2E/DX2 analytically  !
 ! A10   A(5,4,8)              113.1012         calculate D2E/DX2 analytically  !
 ! A11   A(5,4,18)             108.7047         calculate D2E/DX2 analytically  !
 ! A12   A(8,4,18)             109.6119         calculate D2E/DX2 analytically  !
 ! A13   A(4,5,6)              112.6336         calculate D2E/DX2 analytically  !
 ! A14   A(4,5,7)              124.6287         calculate D2E/DX2 analytically  !
 ! A15   A(6,5,7)              122.7372         calculate D2E/DX2 analytically  !
 ! A16   A(5,6,19)             106.1745         calculate D2E/DX2 analytically  !
 ! A17   A(4,8,9)              112.992          calculate D2E/DX2 analytically  !
 ! A18   A(4,8,20)             107.8876         calculate D2E/DX2 analytically  !
 ! A19   A(4,8,21)             110.0859         calculate D2E/DX2 analytically  !
 ! A20   A(9,8,20)             107.0955         calculate D2E/DX2 analytically  !
 ! A21   A(9,8,21)             111.6136         calculate D2E/DX2 analytically  !
 ! A22   A(20,8,21)            106.8626         calculate D2E/DX2 analytically  !
 ! A23   A(8,9,10)             131.2355         calculate D2E/DX2 analytically  !
 ! A24   A(8,9,13)             123.6905         calculate D2E/DX2 analytically  !
 ! A25   A(10,9,13)            105.0498         calculate D2E/DX2 analytically  !
 ! A26   A(9,10,11)            110.5892         calculate D2E/DX2 analytically  !
 ! A27   A(9,10,22)            127.9094         calculate D2E/DX2 analytically  !
 ! A28   A(11,10,22)           121.5013         calculate D2E/DX2 analytically  !
 ! A29   A(10,11,12)           105.077          calculate D2E/DX2 analytically  !
 ! A30   A(11,12,13)           111.5461         calculate D2E/DX2 analytically  !
 ! A31   A(11,12,23)           126.6744         calculate D2E/DX2 analytically  !
 ! A32   A(13,12,23)           121.7793         calculate D2E/DX2 analytically  !
 ! A33   A(9,13,12)            107.7286         calculate D2E/DX2 analytically  !
 ! A34   A(9,13,24)            124.1906         calculate D2E/DX2 analytically  !
 ! A35   A(12,13,24)           128.0671         calculate D2E/DX2 analytically  !
 ! A36   A(2,14,15)            111.2212         calculate D2E/DX2 analytically  !
 ! A37   A(2,14,25)            109.5615         calculate D2E/DX2 analytically  !
 ! A38   A(2,14,26)            107.8592         calculate D2E/DX2 analytically  !
 ! A39   A(15,14,25)           110.7974         calculate D2E/DX2 analytically  !
 ! A40   A(15,14,26)           108.9339         calculate D2E/DX2 analytically  !
 ! A41   A(25,14,26)           108.3746         calculate D2E/DX2 analytically  !
 ! A42   A(14,15,16)           110.1732         calculate D2E/DX2 analytically  !
 ! A43   A(14,15,27)           108.5833         calculate D2E/DX2 analytically  !
 ! A44   A(14,15,28)           109.3486         calculate D2E/DX2 analytically  !
 ! A45   A(16,15,27)           107.9854         calculate D2E/DX2 analytically  !
 ! A46   A(16,15,28)           113.6246         calculate D2E/DX2 analytically  !
 ! A47   A(27,15,28)           106.9585         calculate D2E/DX2 analytically  !
 ! A48   A(15,16,29)           109.2373         calculate D2E/DX2 analytically  !
 ! A49   A(15,16,30)           109.6686         calculate D2E/DX2 analytically  !
 ! A50   A(29,16,30)           106.9504         calculate D2E/DX2 analytically  !
 ! D1    D(1,2,3,4)             -5.3613         calculate D2E/DX2 analytically  !
 ! D2    D(1,2,3,17)          -167.2917         calculate D2E/DX2 analytically  !
 ! D3    D(14,2,3,4)           174.3349         calculate D2E/DX2 analytically  !
 ! D4    D(14,2,3,17)           12.4045         calculate D2E/DX2 analytically  !
 ! D5    D(1,2,14,15)           63.0622         calculate D2E/DX2 analytically  !
 ! D6    D(1,2,14,25)         -174.1045         calculate D2E/DX2 analytically  !
 ! D7    D(1,2,14,26)          -56.332          calculate D2E/DX2 analytically  !
 ! D8    D(3,2,14,15)         -116.6315         calculate D2E/DX2 analytically  !
 ! D9    D(3,2,14,25)            6.2019         calculate D2E/DX2 analytically  !
 ! D10   D(3,2,14,26)          123.9744         calculate D2E/DX2 analytically  !
 ! D11   D(2,3,4,5)           -161.0865         calculate D2E/DX2 analytically  !
 ! D12   D(2,3,4,8)             75.118          calculate D2E/DX2 analytically  !
 ! D13   D(2,3,4,18)           -44.6545         calculate D2E/DX2 analytically  !
 ! D14   D(17,3,4,5)             1.675          calculate D2E/DX2 analytically  !
 ! D15   D(17,3,4,8)          -122.1205         calculate D2E/DX2 analytically  !
 ! D16   D(17,3,4,18)          118.107          calculate D2E/DX2 analytically  !
 ! D17   D(3,4,5,6)            179.5803         calculate D2E/DX2 analytically  !
 ! D18   D(3,4,5,7)             -0.6976         calculate D2E/DX2 analytically  !
 ! D19   D(8,4,5,6)            -57.878          calculate D2E/DX2 analytically  !
 ! D20   D(8,4,5,7)            121.8441         calculate D2E/DX2 analytically  !
 ! D21   D(18,4,5,6)            64.1058         calculate D2E/DX2 analytically  !
 ! D22   D(18,4,5,7)          -116.1721         calculate D2E/DX2 analytically  !
 ! D23   D(3,4,8,9)           -142.58           calculate D2E/DX2 analytically  !
 ! D24   D(3,4,8,20)           -24.3832         calculate D2E/DX2 analytically  !
 ! D25   D(3,4,8,21)            91.8849         calculate D2E/DX2 analytically  !
 ! D26   D(5,4,8,9)             97.2611         calculate D2E/DX2 analytically  !
 ! D27   D(5,4,8,20)          -144.5421         calculate D2E/DX2 analytically  !
 ! D28   D(5,4,8,21)           -28.274          calculate D2E/DX2 analytically  !
 ! D29   D(18,4,8,9)           -24.2128         calculate D2E/DX2 analytically  !
 ! D30   D(18,4,8,20)           93.984          calculate D2E/DX2 analytically  !
 ! D31   D(18,4,8,21)         -149.7479         calculate D2E/DX2 analytically  !
 ! D32   D(4,5,6,19)          -179.1609         calculate D2E/DX2 analytically  !
 ! D33   D(7,5,6,19)             1.1109         calculate D2E/DX2 analytically  !
 ! D34   D(4,8,9,10)           120.6832         calculate D2E/DX2 analytically  !
 ! D35   D(4,8,9,13)           -57.2465         calculate D2E/DX2 analytically  !
 ! D36   D(20,8,9,10)            2.0253         calculate D2E/DX2 analytically  !
 ! D37   D(20,8,9,13)         -175.9044         calculate D2E/DX2 analytically  !
 ! D38   D(21,8,9,10)         -114.6089         calculate D2E/DX2 analytically  !
 ! D39   D(21,8,9,13)           67.4613         calculate D2E/DX2 analytically  !
 ! D40   D(8,9,10,11)         -179.108          calculate D2E/DX2 analytically  !
 ! D41   D(8,9,10,22)            0.8329         calculate D2E/DX2 analytically  !
 ! D42   D(13,9,10,11)          -0.8916         calculate D2E/DX2 analytically  !
 ! D43   D(13,9,10,22)         179.0493         calculate D2E/DX2 analytically  !
 ! D44   D(8,9,13,12)          179.3457         calculate D2E/DX2 analytically  !
 ! D45   D(8,9,13,24)            0.5989         calculate D2E/DX2 analytically  !
 ! D46   D(10,9,13,12)           0.9577         calculate D2E/DX2 analytically  !
 ! D47   D(10,9,13,24)        -177.7891         calculate D2E/DX2 analytically  !
 ! D48   D(9,10,11,12)           0.471          calculate D2E/DX2 analytically  !
 ! D49   D(22,10,11,12)       -179.4743         calculate D2E/DX2 analytically  !
 ! D50   D(10,11,12,13)          0.1596         calculate D2E/DX2 analytically  !
 ! D51   D(10,11,12,23)       -179.7166         calculate D2E/DX2 analytically  !
 ! D52   D(11,12,13,9)          -0.7218         calculate D2E/DX2 analytically  !
 ! D53   D(11,12,13,24)        177.9615         calculate D2E/DX2 analytically  !
 ! D54   D(23,12,13,9)         179.1613         calculate D2E/DX2 analytically  !
 ! D55   D(23,12,13,24)         -2.1554         calculate D2E/DX2 analytically  !
 ! D56   D(2,14,15,16)         -72.2829         calculate D2E/DX2 analytically  !
 ! D57   D(2,14,15,27)         169.6456         calculate D2E/DX2 analytically  !
 ! D58   D(2,14,15,28)          53.2732         calculate D2E/DX2 analytically  !
 ! D59   D(25,14,15,16)        165.5973         calculate D2E/DX2 analytically  !
 ! D60   D(25,14,15,27)         47.5258         calculate D2E/DX2 analytically  !
 ! D61   D(25,14,15,28)        -68.8466         calculate D2E/DX2 analytically  !
 ! D62   D(26,14,15,16)         46.4684         calculate D2E/DX2 analytically  !
 ! D63   D(26,14,15,27)        -71.6032         calculate D2E/DX2 analytically  !
 ! D64   D(26,14,15,28)        172.0245         calculate D2E/DX2 analytically  !
 ! D65   D(14,15,16,29)         59.3398         calculate D2E/DX2 analytically  !
 ! D66   D(14,15,16,30)        176.2537         calculate D2E/DX2 analytically  !
 ! D67   D(27,15,16,29)        177.7789         calculate D2E/DX2 analytically  !
 ! D68   D(27,15,16,30)        -65.3072         calculate D2E/DX2 analytically  !
 ! D69   D(28,15,16,29)        -63.7502         calculate D2E/DX2 analytically  !
 ! D70   D(28,15,16,30)         53.1638         calculate D2E/DX2 analytically  !
 --------------------------------------------------------------------------------
 Trust Radius=3.00D-01 FncErr=1.00D-07 GrdErr=1.00D-06
 Number of steps in this run=    160 maximum allowed number of steps=    180.
 GradGradGradGradGradGradGradGradGradGradGradGradGradGradGradGradGradGrad

                          Input orientation:                          
 ---------------------------------------------------------------------
 Center     Atomic      Atomic             Coordinates (Angstroms)
 Number     Number       Type             X           Y           Z
 ---------------------------------------------------------------------
      1          8           0        0.998683    0.253927   -1.308250
      2          6           0        1.541026   -0.411601   -0.434263
      3          7           0        0.885208   -0.776224    0.690382
      4          6           0       -0.457190   -0.273549    0.925408
      5          6           0       -0.735662   -0.439963    2.403476
      6          8           0       -1.963350    0.003948    2.754810
      7          8           0        0.034390   -0.916863    3.194478
      8          6           0       -1.489712   -0.999874    0.026602
      9          6           0       -2.566006   -0.095922   -0.471785
     10          6           0       -2.946906    0.236082   -1.740470
     11          7           0       -3.996562    1.138259   -1.713258
     12          6           0       -4.231700    1.349504   -0.441144
     13          7           0       -3.386661    0.633703    0.348655
     14          6           0        2.985486   -0.871919   -0.538343
     15          6           0        3.942728    0.316283   -0.574547
     16          7           0        3.849954    0.999382   -1.863858
     17          1           0        1.374419   -1.155058    1.485610
     18          1           0       -0.450345    0.796273    0.687298
     19          1           0       -2.036547   -0.133365    3.711704
     20          1           0       -0.963225   -1.381810   -0.845878
     21          1           0       -1.900811   -1.862824    0.550719
     22          1           0       -2.530295   -0.117504   -2.672748
     23          1           0       -4.985133    1.994313   -0.025806
     24          1           0       -3.329726    0.630302    1.354620
     25          1           0        3.219749   -1.533269    0.298684
     26          1           0        3.090155   -1.439846   -1.465738
     27          1           0        4.965309   -0.056250   -0.462419
     28          1           0        3.743108    0.972631    0.288604
     29          1           0        2.898827    1.320853   -2.003836
     30          1           0        4.440808    1.820382   -1.857464
 ---------------------------------------------------------------------
                    Distance matrix (angstroms):
                    1          2          3          4          5
     1  O    0.000000
     2  C    1.225119   0.000000
     3  N    2.251359   1.351989   0.000000
     4  C    2.717908   2.420874   1.452567   0.000000
     5  C    4.155280   3.638252   2.382223   1.513250   0.000000
     6  O    5.034341   4.756419   3.603445   2.385840   1.351928
     7  O    4.751333   3.961440   2.648427   2.409187   1.202538
     8  C    3.089653   3.121512   2.476059   1.549679   2.555704
     9  C    3.678189   4.119317   3.704635   2.535904   3.425734
    10  C    3.969232   4.718814   4.649613   3.683113   4.745412
    11  N    5.089062   5.890906   5.768397   4.634967   5.483772
    12  C    5.413785   6.035387   5.655247   4.329976   4.849364
    13  N    4.703276   5.097815   4.511490   3.120506   3.521768
    14  C    2.409912   1.519602   2.435178   3.788487   4.763174
    15  C    3.034734   2.513497   3.484544   4.685834   5.597130
    16  N    2.999025   3.060353   4.297282   5.286950   6.427265
    17  H    3.151519   2.065526   1.007586   2.108476   2.409623
    18  H    2.525081   2.585037   2.063118   1.096022   2.134234
    19  H    5.878993   5.483200   4.251859   3.205849   1.870231
    20  H    2.595863   2.716985   2.478615   2.149830   3.390747
    21  H    4.042705   3.862962   2.993678   2.179502   2.610520
    22  H    3.801776   4.655423   4.838410   4.155580   5.393769
    23  H    6.362363   6.967497   6.530674   5.152696   5.466728
    24  H    5.095847   5.292437   4.492794   3.041814   2.995786
    25  H    3.272528   2.147897   2.485282   3.936947   4.612022
    26  H    2.695909   2.126271   3.154527   4.434127   5.532401
    27  H    4.067648   3.442787   4.300527   5.601497   6.392313
    28  H    3.255511   2.699593   3.374539   4.427300   5.150484
    29  H    2.287514   2.703438   3.963736   4.731325   5.977825
    30  H    3.821471   3.926319   5.086862   6.009934   7.075353
                    6          7          8          9         10
     6  O    0.000000
     7  O    2.243249   0.000000
     8  C    2.945354   3.516421   0.000000
     9  C    3.283913   4.569190   1.491284   0.000000
    10  C    4.607474   5.879721   2.602604   1.365603   0.000000
    11  N    5.038279   6.675176   3.725993   2.260741   1.384356
    12  C    4.143676   6.045965   3.640997   2.205613   2.139778
    13  N    2.865657   4.712384   2.524026   1.370748   2.171619
    14  C    6.008575   4.758669   4.512531   5.605860   6.153540
    15  C    6.787041   5.567881   5.621838   6.522584   6.988052
    16  N    7.491160   6.619462   6.006904   6.655982   6.840699
    17  H    3.754312   2.184638   3.218079   4.525496   5.569265
    18  H    2.681710   3.075021   2.177832   2.572064   3.527137
    19  H    0.969463   2.273801   3.824898   4.217027   5.539986
    20  H    3.985665   4.187587   1.088249   2.088627   2.711616
    21  H    2.889077   3.410177   1.090129   2.147078   3.278608
    22  H    5.458439   6.452978   3.024546   2.201358   1.080615
    23  H    4.563393   6.636323   4.602811   3.228027   3.191523
    24  H    2.054224   4.134740   2.794057   2.108655   3.143492
    25  H    5.938021   4.348803   4.747374   6.011202   6.731745
    26  H    6.740584   5.597216   4.836924   5.897985   6.271389
    27  H    7.639404   6.198992   6.541931   7.531425   8.020101
    28  H    6.291596   5.076305   5.598377   6.443983   7.029647
    29  H    6.929626   6.343093   5.363556   5.849687   5.951360
    30  H    8.098502   7.240935   6.831883   7.395118   7.556587
                   11         12         13         14         15
    11  N    0.000000
    12  C    1.310797   0.000000
    13  N    2.208629   1.360236   0.000000
    14  C    7.360044   7.551950   6.607414   0.000000
    15  C    8.062545   8.240547   7.394120   1.526252   0.000000
    16  N    7.849190   8.213393   7.576116   2.450727   1.462037
    17  H    6.658791   6.435353   5.211546   2.602324   3.606287
    18  H    4.295961   3.984732   2.960247   4.011233   4.595839
    19  H    5.906683   4.925824   3.704228   6.620360   7.370608
    20  H    4.037850   4.278646   3.370793   3.993355   5.198607
    21  H    4.303982   4.090952   2.912255   5.103317   6.337324
    22  H    2.155806   3.166536   3.229017   5.962271   6.818405
    23  H    2.134853   1.075150   2.132274   8.485797   9.100748
    24  H    3.180341   2.134379   1.007581   6.761795   7.530530
    25  H    7.953623   8.023828   6.952907   1.092189   2.169349
    26  H    7.545161   7.901887   7.038521   1.092502   2.145948
    27  H    9.127244   9.303847   8.419577   2.142610   1.094086
    28  H    7.996085   8.016990   7.138073   2.158749   1.102575
    29  H    6.903924   7.299811   6.746388   2.638830   2.035130
    30  H    8.466127   8.800004   8.218542   3.332645   2.038694
                   16         17         18         19         20
    16  N    0.000000
    17  H    4.689224   0.000000
    18  H    5.004220   2.788325   0.000000
    19  H    8.186629   4.199290   3.539392   0.000000
    20  H    5.465625   3.309355   2.712512   4.845843   0.000000
    21  H    6.862485   3.478804   3.032046   3.605729   1.749550
    22  H    6.527581   5.797865   4.055994   6.403535   2.718755
    23  H    9.078936   7.255812   4.744273   5.214418   5.314741
    24  H    7.876714   5.033254   2.960355   2.794878   3.806719
    25  H    3.389405   2.226450   4.364330   6.421610   4.339381
    26  H    2.585659   3.425684   4.708602   7.402423   4.100912
    27  H    2.079040   4.230448   5.601602   8.152008   6.087008
    28  H    2.155278   3.401554   4.216053   6.807734   5.383309
    29  H    1.013696   4.542046   4.328318   7.690258   4.853937
    30  H    1.011529   5.425138   5.607850   8.762926   6.362461
                   21         22         23         24         25
    21  H    0.000000
    22  H    3.719291   0.000000
    23  H    4.972216   4.182380   0.000000
    24  H    2.983912   4.173487   2.550779   0.000000
    25  H    5.137339   6.625466   8.936958   6.977941   0.000000
    26  H    5.399513   5.898722   8.892532   7.311279   1.771640
    27  H    7.171733   7.814946  10.168910   8.519424   2.409947
    28  H    6.321576   7.022363   8.793457   7.160905   2.559989
    29  H    6.300641   5.656119   8.156163   7.109920   3.681114
    30  H    7.718904   7.281234   9.603832   8.492053   4.169764
                   26         27         28         29         30
    26  H    0.000000
    27  H    2.537162   0.000000
    28  H    3.053541   1.765335   0.000000
    29  H    2.819151   2.922794   2.467660   0.000000
    30  H    3.550606   2.396456   2.410617   1.627470   0.000000
 Symmetry turned off by external request.
 Stoichiometry    C9H14N4O3
 Framework group  C1[X(C9H14N4O3)]
 Deg. of freedom    84
 Full point group                 C1      NOp   1
 Rotational constants (GHZ):      0.7362152      0.3081977      0.2331108
 Standard basis: 6-311G(2df,2pd) (5D, 7F)
   676 basis functions,  1006 primitive gaussians,   770 cartesian basis functions
    60 alpha electrons       60 beta electrons
       nuclear repulsion energy      1121.3042026874 Hartrees.
 NAtoms=   30 NActive=   30 NUniq=   30 SFac= 1.00D+00 NAtFMM=   60 NAOKFM=F Big=F
 Integral buffers will be    131072 words long.
 Raffenetti 2 integral format.
 Two-electron integral symmetry is turned off.
 Nuclear repulsion after empirical dispersion term =     1121.2501489104 Hartrees.
 One-electron integrals computed using PRISM.
 NBasis=   676 RedAO= T EigKep=  1.94D-04  NBF=   676
 NBsUse=   676 1.00D-06 EigRej= -1.00D+00 NBFU=   676
 ExpMin= 1.03D-01 ExpMax= 8.59D+03 ExpMxC= 1.30D+03 IAcc=3 IRadAn=         5 AccDes= 0.00D+00
 Harris functional with IExCor=  402 and IRadAn=       5 diagonalized for initial guess.
 HarFok:  IExCor=  402 AccDes= 0.00D+00 IRadAn=         5 IDoV= 1 UseB2=F ITyADJ=14
 ICtDFT=  3500011 ScaDFX=  1.000000  1.000000  1.000000  1.000000
 FoFCou: FMM=F IPFlag=           0 FMFlag=      100000 FMFlg1=           0
         NFxFlg=           0 DoJE=T BraDBF=F KetDBF=T FulRan=T
         wScrn=  0.000000 ICntrl=     500 IOpCl=  0 I1Cent=   200000004 NGrid=           0
         NMat0=    1 NMatS0=      1 NMatT0=    0 NMatD0=    1 NMtDS0=    0 NMtDT0=    0
 Symmetry not used in FoFCou.
 Requested convergence on RMS density matrix=1.00D-08 within 128 cycles.
 Requested convergence on MAX density matrix=1.00D-06.
 Requested convergence on             energy=1.00D-06.
 No special actions if energy rises.
 Integral accuracy reduced to 1.0D-05 until final iterations.
 Initial convergence to 1.0D-05 achieved.  Increase integral accuracy.
 SCF Done:  E(RB3LYP) =  -796.413406010     A.U. after   13 cycles
            NFock= 13  Conv=0.80D-08     -V/T= 2.0037
 DoSCS=F DFT=T ScalE2(SS,OS)=  1.000000  1.000000
 Range of M.O.s used for correlation:     1   676
 NBasis=   676 NAE=    60 NBE=    60 NFC=     0 NFV=     0
 NROrb=    676 NOA=    60 NOB=    60 NVA=   616 NVB=   616
 Symmetrizing basis deriv contribution to polar:
 IMax=3 JMax=2 DiffMx= 0.00D+00
 G2DrvN: will do    31 centers at a time, making    1 passes.
 Calling FoFCou, ICntrl=  3107 FMM=F I1Cent=   0 AccDes= 0.00D+00.
 End of G2Drv F.D. properties file   721 does not exist.
 End of G2Drv F.D. properties file   722 does not exist.
 End of G2Drv F.D. properties file   788 does not exist.
          IDoAtm=111111111111111111111111111111
          Differentiating once with respect to nuclear coordinates.
          There are    93 degrees of freedom in the 1st order CPHF.  IDoFFX=6 NUNeed=     0.
     87 vectors produced by pass  0 Test12= 3.97D-14 1.08D-09 XBig12= 1.74D-01 1.08D-01.
 AX will form    87 AO Fock derivatives at one time.
     87 vectors produced by pass  1 Test12= 3.97D-14 1.08D-09 XBig12= 7.18D-02 1.00D-01.
     87 vectors produced by pass  2 Test12= 3.97D-14 1.08D-09 XBig12= 5.74D-04 4.29D-03.
     87 vectors produced by pass  3 Test12= 3.97D-14 1.08D-09 XBig12= 2.65D-06 2.17D-04.
     87 vectors produced by pass  4 Test12= 3.97D-14 1.08D-09 XBig12= 8.39D-09 1.07D-05.
     86 vectors produced by pass  5 Test12= 3.97D-14 1.08D-09 XBig12= 1.48D-11 4.11D-07.
     42 vectors produced by pass  6 Test12= 3.97D-14 1.08D-09 XBig12= 2.04D-14 1.82D-08.
 InvSVY:  IOpt=1 It=  1 EMax= 8.33D-16
 Solved reduced A of dimension   563 with    93 vectors.
 End of Minotr F.D. properties file   721 does not exist.
 End of Minotr F.D. properties file   722 does not exist.
 End of Minotr F.D. properties file   788 does not exist.

 **********************************************************************

            Population analysis using the SCF density.

 **********************************************************************

 Alpha  occ. eigenvalues --  -19.21354 -19.15193 -19.09045 -14.35494 -14.34815
 Alpha  occ. eigenvalues --  -14.27827 -14.27589 -10.34209 -10.27515 -10.24842
 Alpha  occ. eigenvalues --  -10.21146 -10.19884 -10.19846 -10.19492 -10.18076
 Alpha  occ. eigenvalues --  -10.16874  -1.15537  -1.06659  -1.04793  -1.00974
 Alpha  occ. eigenvalues --   -0.94475  -0.87897  -0.86382  -0.81668  -0.76533
 Alpha  occ. eigenvalues --   -0.74369  -0.69089  -0.65770  -0.61829  -0.61007
 Alpha  occ. eigenvalues --   -0.60397  -0.58573  -0.55039  -0.53432  -0.52878
 Alpha  occ. eigenvalues --   -0.50818  -0.49998  -0.49175  -0.47450  -0.46717
 Alpha  occ. eigenvalues --   -0.46117  -0.44879  -0.43320  -0.42423  -0.41384
 Alpha  occ. eigenvalues --   -0.40755  -0.40011  -0.39708  -0.39438  -0.38349
 Alpha  occ. eigenvalues --   -0.37355  -0.37040  -0.35628  -0.32389  -0.28040
 Alpha  occ. eigenvalues --   -0.27609  -0.26285  -0.26112  -0.23543  -0.22270
 Alpha virt. eigenvalues --   -0.03335   0.00130   0.00828   0.02591   0.03387
 Alpha virt. eigenvalues --    0.05688   0.06115   0.06358   0.06639   0.07508
 Alpha virt. eigenvalues --    0.07692   0.09234   0.09522   0.10494   0.11362
 Alpha virt. eigenvalues --    0.11911   0.13592   0.14440   0.15601   0.17234
 Alpha virt. eigenvalues --    0.18780   0.19350   0.20794   0.21484   0.22011
 Alpha virt. eigenvalues --    0.22223   0.22899   0.23875   0.25772   0.27539
 Alpha virt. eigenvalues --    0.28814   0.30947   0.31433   0.32340   0.33307
 Alpha virt. eigenvalues --    0.34005   0.34262   0.34878   0.35228   0.35573
 Alpha virt. eigenvalues --    0.36253   0.37321   0.37585   0.38153   0.39043
 Alpha virt. eigenvalues --    0.39523   0.40230   0.41221   0.42074   0.42163
 Alpha virt. eigenvalues --    0.44083   0.44564   0.44601   0.44943   0.45261
 Alpha virt. eigenvalues --    0.45919   0.46450   0.47267   0.47808   0.48201
 Alpha virt. eigenvalues --    0.48757   0.49354   0.50526   0.50822   0.51500
 Alpha virt. eigenvalues --    0.51910   0.52349   0.52863   0.53955   0.54874
 Alpha virt. eigenvalues --    0.55462   0.56099   0.56862   0.57303   0.57419
 Alpha virt. eigenvalues --    0.57968   0.59146   0.59397   0.60647   0.62009
 Alpha virt. eigenvalues --    0.62407   0.64079   0.64411   0.65390   0.66400
 Alpha virt. eigenvalues --    0.66864   0.67268   0.68386   0.68806   0.69706
 Alpha virt. eigenvalues --    0.70257   0.71388   0.72683   0.73357   0.74174
 Alpha virt. eigenvalues --    0.75181   0.75555   0.77385   0.77502   0.78259
 Alpha virt. eigenvalues --    0.79998   0.80645   0.81793   0.83321   0.84403
 Alpha virt. eigenvalues --    0.85202   0.86154   0.86904   0.88306   0.88772
 Alpha virt. eigenvalues --    0.89352   0.90380   0.91081   0.92627   0.93162
 Alpha virt. eigenvalues --    0.93927   0.94896   0.96128   0.96848   0.97082
 Alpha virt. eigenvalues --    0.98269   0.98652   1.00804   1.01216   1.01503
 Alpha virt. eigenvalues --    1.02605   1.03562   1.03964   1.05292   1.05871
 Alpha virt. eigenvalues --    1.06475   1.07584   1.07802   1.08272   1.09248
 Alpha virt. eigenvalues --    1.09936   1.11478   1.13070   1.13526   1.15196
 Alpha virt. eigenvalues --    1.15545   1.16534   1.17651   1.18961   1.19235
 Alpha virt. eigenvalues --    1.19871   1.20229   1.20714   1.21653   1.22547
 Alpha virt. eigenvalues --    1.23716   1.24721   1.24930   1.25782   1.26279
 Alpha virt. eigenvalues --    1.26977   1.27728   1.28779   1.29284   1.30431
 Alpha virt. eigenvalues --    1.30517   1.31495   1.32148   1.32962   1.33908
 Alpha virt. eigenvalues --    1.34003   1.34703   1.35680   1.36148   1.37083
 Alpha virt. eigenvalues --    1.37186   1.37605   1.38143   1.39779   1.41580
 Alpha virt. eigenvalues --    1.42555   1.42908   1.43567   1.44218   1.44963
 Alpha virt. eigenvalues --    1.45720   1.47409   1.47850   1.49453   1.51150
 Alpha virt. eigenvalues --    1.51760   1.53178   1.55330   1.55861   1.57219
 Alpha virt. eigenvalues --    1.57333   1.59497   1.60590   1.62315   1.63761
 Alpha virt. eigenvalues --    1.64988   1.66606   1.66681   1.67529   1.67621
 Alpha virt. eigenvalues --    1.69512   1.70560   1.71577   1.73583   1.74888
 Alpha virt. eigenvalues --    1.75477   1.76991   1.78528   1.79497   1.81373
 Alpha virt. eigenvalues --    1.82007   1.84624   1.86006   1.87508   1.90859
 Alpha virt. eigenvalues --    1.92384   1.94066   1.95403   1.98533   2.01717
 Alpha virt. eigenvalues --    2.03376   2.06448   2.07212   2.07710   2.10544
 Alpha virt. eigenvalues --    2.12332   2.16446   2.17968   2.20654   2.26327
 Alpha virt. eigenvalues --    2.30278   2.32616   2.39473   2.42156   2.43497
 Alpha virt. eigenvalues --    2.45919   2.47049   2.49304   2.51728   2.52215
 Alpha virt. eigenvalues --    2.54478   2.55478   2.57605   2.59175   2.59521
 Alpha virt. eigenvalues --    2.62826   2.63378   2.63843   2.64696   2.65734
 Alpha virt. eigenvalues --    2.65887   2.68926   2.69915   2.70754   2.72126
 Alpha virt. eigenvalues --    2.72641   2.74150   2.74257   2.76349   2.78293
 Alpha virt. eigenvalues --    2.79213   2.80171   2.80672   2.81417   2.82378
 Alpha virt. eigenvalues --    2.85178   2.86024   2.87052   2.87327   2.88698
 Alpha virt. eigenvalues --    2.89212   2.89691   2.91006   2.91918   2.92711
 Alpha virt. eigenvalues --    2.92872   2.94089   2.94528   2.96012   2.96475
 Alpha virt. eigenvalues --    2.97702   2.98531   2.98940   2.99456   3.01316
 Alpha virt. eigenvalues --    3.02143   3.02511   3.03270   3.03939   3.05613
 Alpha virt. eigenvalues --    3.06031   3.06495   3.06894   3.08085   3.08214
 Alpha virt. eigenvalues --    3.09878   3.10927   3.11153   3.12370   3.12852
 Alpha virt. eigenvalues --    3.13614   3.14539   3.15084   3.15582   3.15978
 Alpha virt. eigenvalues --    3.17382   3.18294   3.18849   3.19475   3.19799
 Alpha virt. eigenvalues --    3.20914   3.21873   3.22356   3.22904   3.23630
 Alpha virt. eigenvalues --    3.23907   3.24917   3.25103   3.25265   3.26597
 Alpha virt. eigenvalues --    3.26797   3.28692   3.29457   3.30574   3.31616
 Alpha virt. eigenvalues --    3.32423   3.32584   3.33387   3.33825   3.35051
 Alpha virt. eigenvalues --    3.35124   3.35727   3.37538   3.38241   3.39094
 Alpha virt. eigenvalues --    3.39462   3.39963   3.41141   3.41596   3.42748
 Alpha virt. eigenvalues --    3.42905   3.44075   3.44441   3.45783   3.46401
 Alpha virt. eigenvalues --    3.46867   3.47379   3.47643   3.48799   3.50039
 Alpha virt. eigenvalues --    3.50463   3.51729   3.52205   3.53334   3.53883
 Alpha virt. eigenvalues --    3.54617   3.55284   3.56312   3.57254   3.58619
 Alpha virt. eigenvalues --    3.59811   3.60668   3.60938   3.61737   3.62759
 Alpha virt. eigenvalues --    3.63841   3.65093   3.65392   3.66224   3.66886
 Alpha virt. eigenvalues --    3.67614   3.68566   3.69329   3.70231   3.70982
 Alpha virt. eigenvalues --    3.71909   3.72805   3.74799   3.74944   3.75457
 Alpha virt. eigenvalues --    3.76225   3.76720   3.77176   3.78399   3.80204
 Alpha virt. eigenvalues --    3.80527   3.82383   3.82806   3.83572   3.83808
 Alpha virt. eigenvalues --    3.84653   3.86314   3.87508   3.87877   3.88989
 Alpha virt. eigenvalues --    3.89741   3.91174   3.91552   3.91942   3.92939
 Alpha virt. eigenvalues --    3.94076   3.94957   3.95762   3.96137   3.96979
 Alpha virt. eigenvalues --    3.98552   3.98777   4.00453   4.01001   4.02022
 Alpha virt. eigenvalues --    4.02573   4.03931   4.04355   4.05183   4.05957
 Alpha virt. eigenvalues --    4.07110   4.07802   4.09295   4.10411   4.11758
 Alpha virt. eigenvalues --    4.13050   4.14233   4.16208   4.16675   4.17801
 Alpha virt. eigenvalues --    4.19099   4.19174   4.20431   4.21327   4.23014
 Alpha virt. eigenvalues --    4.24010   4.26138   4.26331   4.26621   4.29293
 Alpha virt. eigenvalues --    4.30630   4.31700   4.32573   4.33335   4.34102
 Alpha virt. eigenvalues --    4.37078   4.38398   4.39460   4.39588   4.42377
 Alpha virt. eigenvalues --    4.43711   4.45306   4.46795   4.47688   4.50085
 Alpha virt. eigenvalues --    4.51326   4.52067   4.52283   4.55233   4.56127
 Alpha virt. eigenvalues --    4.57271   4.58627   4.61184   4.61926   4.63445
 Alpha virt. eigenvalues --    4.65550   4.66829   4.68091   4.70074   4.71863
 Alpha virt. eigenvalues --    4.73890   4.75376   4.78041   4.79764   4.81018
 Alpha virt. eigenvalues --    4.82701   4.84491   4.85089   4.85900   4.86570
 Alpha virt. eigenvalues --    4.86957   4.89286   4.90883   4.91158   4.92586
 Alpha virt. eigenvalues --    4.94219   4.95021   4.96809   4.97802   4.98316
 Alpha virt. eigenvalues --    4.99500   5.00369   5.00967   5.03476   5.04266
 Alpha virt. eigenvalues --    5.04576   5.06163   5.06539   5.06658   5.07809
 Alpha virt. eigenvalues --    5.08858   5.09222   5.10719   5.11749   5.12853
 Alpha virt. eigenvalues --    5.13986   5.14828   5.15417   5.16211   5.16669
 Alpha virt. eigenvalues --    5.19261   5.20186   5.20944   5.22664   5.23479
 Alpha virt. eigenvalues --    5.24247   5.25885   5.26244   5.27089   5.28304
 Alpha virt. eigenvalues --    5.29194   5.29790   5.30481   5.31582   5.32624
 Alpha virt. eigenvalues --    5.34302   5.35781   5.36800   5.39030   5.42737
 Alpha virt. eigenvalues --    5.43880   5.45095   5.45408   5.45848   5.47524
 Alpha virt. eigenvalues --    5.48659   5.51025   5.51760   5.54013   5.55476
 Alpha virt. eigenvalues --    5.59802   5.60838   5.61756   5.64109   5.66554
 Alpha virt. eigenvalues --    5.68914   5.72048   5.72478   5.74029   5.76367
 Alpha virt. eigenvalues --    5.77552   5.79687   5.82754   5.86050   5.86583
 Alpha virt. eigenvalues --    5.88712   5.89039   5.90113   5.93223   5.93940
 Alpha virt. eigenvalues --    6.02179   6.03730   6.06196   6.08341   6.14671
 Alpha virt. eigenvalues --    6.15303   6.20240   6.21340   6.28475   6.29937
 Alpha virt. eigenvalues --    6.32704   6.34409   6.37734   6.39118   6.39530
 Alpha virt. eigenvalues --    6.43162   6.45510   6.46964   6.54130   6.55618
 Alpha virt. eigenvalues --    6.65219   6.73318   6.77500   6.89888   6.93000
 Alpha virt. eigenvalues --    6.94386   6.95897   6.97403   6.99226   7.07089
 Alpha virt. eigenvalues --    7.08656   7.12977   7.17444   7.20387   7.24153
 Alpha virt. eigenvalues --    7.24405   7.27122   7.30504   7.45389   7.49040
 Alpha virt. eigenvalues --    7.56881   7.59413   7.59976   7.64716   7.93815
 Alpha virt. eigenvalues --   24.46748  24.59591  24.73729  24.78237  24.95323
 Alpha virt. eigenvalues --   24.97112  25.03789  25.07951  25.09973  35.97599
 Alpha virt. eigenvalues --   36.23046  36.26828  36.46759  50.17715  50.22261
 Alpha virt. eigenvalues --   50.24742
          Condensed to atoms (all electrons):
               1          2          3          4          5          6
     1  O    7.921636   0.637200  -0.108196  -0.010768   0.000754   0.000000
     2  C    0.637200   4.461784   0.365291  -0.069883   0.002373  -0.000165
     3  N   -0.108196   0.365291   6.610451   0.268426  -0.023032   0.000929
     4  C   -0.010768  -0.069883   0.268426   5.098390   0.297782  -0.091409
     5  C    0.000754   0.002373  -0.023032   0.297782   4.234020   0.363473
     6  O    0.000000  -0.000165   0.000929  -0.091409   0.363473   7.837573
     7  O   -0.000008  -0.001494  -0.026444  -0.080498   0.704326  -0.077284
     8  C   -0.000833  -0.012334  -0.039720   0.302728  -0.065974   0.004745
     9  C   -0.003019   0.003557   0.006502  -0.088644   0.008714  -0.002198
    10  C    0.001837   0.000034  -0.000359  -0.001138   0.000165   0.000248
    11  N    0.000003   0.000001   0.000000  -0.000304   0.000010  -0.000012
    12  C    0.000001   0.000001  -0.000002   0.000646  -0.000016  -0.000657
    13  N   -0.000014  -0.000050   0.000168   0.001879  -0.001698  -0.013500
    14  C   -0.066574   0.337266  -0.046711   0.003585   0.000441   0.000000
    15  C    0.004029  -0.055237  -0.004661  -0.000511  -0.000013   0.000000
    16  N   -0.011210   0.002234   0.000077   0.000003   0.000000   0.000000
    17  H    0.003989  -0.020979   0.340142  -0.037391  -0.013658   0.001636
    18  H    0.025189   0.001970  -0.048893   0.367466  -0.017861   0.002695
    19  H    0.000001   0.000066  -0.000126   0.018310  -0.042905   0.305421
    20  H    0.007429   0.003206  -0.005350  -0.019522   0.001747   0.000040
    21  H    0.000299   0.000387   0.006272  -0.067392   0.004896   0.003479
    22  H    0.000706  -0.000015  -0.000030   0.000152   0.000010   0.000003
    23  H    0.000000   0.000000   0.000000   0.000007   0.000006  -0.000050
    24  H   -0.000016   0.000009  -0.000043  -0.001454  -0.000821   0.034436
    25  H    0.004688  -0.039099  -0.001265   0.000760  -0.000218  -0.000003
    26  H    0.006143  -0.036827   0.002379   0.000013  -0.000013   0.000000
    27  H   -0.000151   0.006224  -0.000326   0.000006   0.000001   0.000000
    28  H   -0.000405  -0.016460   0.003855   0.000252  -0.000002   0.000000
    29  H    0.030971  -0.002831   0.000754  -0.000015   0.000001   0.000000
    30  H   -0.000002   0.000958  -0.000002  -0.000003   0.000000   0.000000
               7          8          9         10         11         12
     1  O   -0.000008  -0.000833  -0.003019   0.001837   0.000003   0.000001
     2  C   -0.001494  -0.012334   0.003557   0.000034   0.000001   0.000001
     3  N   -0.026444  -0.039720   0.006502  -0.000359   0.000000  -0.000002
     4  C   -0.080498   0.302728  -0.088644  -0.001138  -0.000304   0.000646
     5  C    0.704326  -0.065974   0.008714   0.000165   0.000010  -0.000016
     6  O   -0.077284   0.004745  -0.002198   0.000248  -0.000012  -0.000657
     7  O    7.784349  -0.000567   0.000358   0.000001   0.000000   0.000000
     8  C   -0.000567   5.078325   0.131710  -0.031725   0.010359  -0.003481
     9  C    0.000358   0.131710   5.245058   0.512336  -0.036024  -0.129222
    10  C    0.000001  -0.031725   0.512336   4.692573   0.458314  -0.153383
    11  N    0.000000   0.010359  -0.036024   0.458314   6.525719   0.583699
    12  C    0.000000  -0.003481  -0.129222  -0.153383   0.583699   4.583172
    13  N   -0.000022  -0.052033   0.349492  -0.036668  -0.150572   0.484486
    14  C   -0.000196  -0.000557   0.000033   0.000008   0.000000   0.000000
    15  C    0.000004  -0.000061   0.000010   0.000000   0.000000   0.000000
    16  N    0.000000   0.000002   0.000000   0.000000   0.000000   0.000000
    17  H    0.044946   0.004986  -0.000580   0.000005   0.000000   0.000001
    18  H    0.000855  -0.093054   0.025724   0.002365  -0.000463   0.000533
    19  H    0.013426  -0.000658  -0.000087  -0.000024   0.000005   0.000016
    20  H   -0.000254   0.398250  -0.030970  -0.007560   0.000460  -0.000383
    21  H    0.000673   0.367590  -0.017629   0.000581  -0.000543   0.000806
    22  H    0.000000  -0.002527  -0.049285   0.431726  -0.021438   0.006285
    23  H    0.000000  -0.000299   0.006089   0.003506  -0.016566   0.423020
    24  H    0.000378   0.001791  -0.027318   0.004082   0.005402  -0.023461
    25  H   -0.000354  -0.000095   0.000018  -0.000001   0.000000   0.000000
    26  H   -0.000003   0.000177  -0.000035   0.000001   0.000000   0.000000
    27  H    0.000000   0.000000   0.000000   0.000000   0.000000   0.000000
    28  H   -0.000008   0.000036  -0.000006   0.000000   0.000000   0.000000
    29  H    0.000000  -0.000027   0.000010   0.000000   0.000000   0.000000
    30  H    0.000000   0.000000   0.000000   0.000000   0.000000   0.000000
              13         14         15         16         17         18
     1  O   -0.000014  -0.066574   0.004029  -0.011210   0.003989   0.025189
     2  C   -0.000050   0.337266  -0.055237   0.002234  -0.020979   0.001970
     3  N    0.000168  -0.046711  -0.004661   0.000077   0.340142  -0.048893
     4  C    0.001879   0.003585  -0.000511   0.000003  -0.037391   0.367466
     5  C   -0.001698   0.000441  -0.000013   0.000000  -0.013658  -0.017861
     6  O   -0.013500   0.000000   0.000000   0.000000   0.001636   0.002695
     7  O   -0.000022  -0.000196   0.000004   0.000000   0.044946   0.000855
     8  C   -0.052033  -0.000557  -0.000061   0.000002   0.004986  -0.093054
     9  C    0.349492   0.000033   0.000010   0.000000  -0.000580   0.025724
    10  C   -0.036668   0.000008   0.000000   0.000000   0.000005   0.002365
    11  N   -0.150572   0.000000   0.000000   0.000000   0.000000  -0.000463
    12  C    0.484486   0.000000   0.000000   0.000000   0.000001   0.000533
    13  N    6.307442   0.000000   0.000000   0.000000   0.000011   0.005308
    14  C    0.000000   4.851857   0.326505  -0.051699  -0.006371   0.001285
    15  C    0.000000   0.326505   4.600677   0.327078   0.000543   0.000571
    16  N    0.000000  -0.051699   0.327078   6.391832  -0.000003  -0.000076
    17  H    0.000011  -0.006371   0.000543  -0.000003   0.575974   0.003827
    18  H    0.005308   0.001285   0.000571  -0.000076   0.003827   0.690018
    19  H    0.000221   0.000001   0.000000   0.000000  -0.000511  -0.000543
    20  H    0.003357  -0.000007  -0.000003   0.000002  -0.000080  -0.002588
    21  H    0.000958   0.000096   0.000005   0.000000   0.000138   0.010174
    22  H    0.004553   0.000004   0.000000   0.000000  -0.000001   0.000095
    23  H   -0.040058   0.000000   0.000000   0.000000   0.000000   0.000019
    24  H    0.372355   0.000000   0.000000   0.000000  -0.000048   0.000400
    25  H    0.000000   0.390631  -0.033061   0.003954  -0.000250  -0.000227
    26  H    0.000000   0.355971  -0.037353   0.015912   0.000258  -0.000211
    27  H    0.000000  -0.019352   0.397780  -0.030743  -0.000142   0.000016
    28  H    0.000000  -0.046197   0.387271  -0.055746   0.000723  -0.000336
    29  H    0.000000  -0.007964  -0.048712   0.365231  -0.000197   0.000131
    30  H    0.000000   0.006300  -0.036856   0.357035  -0.000004   0.000000
              19         20         21         22         23         24
     1  O    0.000001   0.007429   0.000299   0.000706   0.000000  -0.000016
     2  C    0.000066   0.003206   0.000387  -0.000015   0.000000   0.000009
     3  N   -0.000126  -0.005350   0.006272  -0.000030   0.000000  -0.000043
     4  C    0.018310  -0.019522  -0.067392   0.000152   0.000007  -0.001454
     5  C   -0.042905   0.001747   0.004896   0.000010   0.000006  -0.000821
     6  O    0.305421   0.000040   0.003479   0.000003  -0.000050   0.034436
     7  O    0.013426  -0.000254   0.000673   0.000000   0.000000   0.000378
     8  C   -0.000658   0.398250   0.367590  -0.002527  -0.000299   0.001791
     9  C   -0.000087  -0.030970  -0.017629  -0.049285   0.006089  -0.027318
    10  C   -0.000024  -0.007560   0.000581   0.431726   0.003506   0.004082
    11  N    0.000005   0.000460  -0.000543  -0.021438  -0.016566   0.005402
    12  C    0.000016  -0.000383   0.000806   0.006285   0.423020  -0.023461
    13  N    0.000221   0.003357   0.000958   0.004553  -0.040058   0.372355
    14  C    0.000001  -0.000007   0.000096   0.000004   0.000000   0.000000
    15  C    0.000000  -0.000003   0.000005   0.000000   0.000000   0.000000
    16  N    0.000000   0.000002   0.000000   0.000000   0.000000   0.000000
    17  H   -0.000511  -0.000080   0.000138  -0.000001   0.000000  -0.000048
    18  H   -0.000543  -0.002588   0.010174   0.000095   0.000019   0.000400
    19  H    0.477408   0.000069  -0.000349   0.000000   0.000005  -0.002461
    20  H    0.000069   0.667034  -0.040624   0.002215   0.000023  -0.000175
    21  H   -0.000349  -0.040624   0.717159   0.000026  -0.000003   0.000488
    22  H    0.000000   0.002215   0.000026   0.623299  -0.000432  -0.000481
    23  H    0.000005   0.000023  -0.000003  -0.000432   0.615299  -0.001784
    24  H   -0.002461  -0.000175   0.000488  -0.000481  -0.001784   0.533636
    25  H    0.000001  -0.000092  -0.000012  -0.000001   0.000000   0.000000
    26  H    0.000000   0.000062  -0.000034   0.000001   0.000000   0.000000
    27  H    0.000000  -0.000002   0.000000   0.000000   0.000000   0.000000
    28  H    0.000000   0.000004  -0.000003   0.000000   0.000000   0.000000
    29  H    0.000000   0.000001   0.000000   0.000002   0.000000   0.000000
    30  H    0.000000   0.000000   0.000000   0.000000   0.000000   0.000000
              25         26         27         28         29         30
     1  O    0.004688   0.006143  -0.000151  -0.000405   0.030971  -0.000002
     2  C   -0.039099  -0.036827   0.006224  -0.016460  -0.002831   0.000958
     3  N   -0.001265   0.002379  -0.000326   0.003855   0.000754  -0.000002
     4  C    0.000760   0.000013   0.000006   0.000252  -0.000015  -0.000003
     5  C   -0.000218  -0.000013   0.000001  -0.000002   0.000001   0.000000
     6  O   -0.000003   0.000000   0.000000   0.000000   0.000000   0.000000
     7  O   -0.000354  -0.000003   0.000000  -0.000008   0.000000   0.000000
     8  C   -0.000095   0.000177   0.000000   0.000036  -0.000027   0.000000
     9  C    0.000018  -0.000035   0.000000  -0.000006   0.000010   0.000000
    10  C   -0.000001   0.000001   0.000000   0.000000   0.000000   0.000000
    11  N    0.000000   0.000000   0.000000   0.000000   0.000000   0.000000
    12  C    0.000000   0.000000   0.000000   0.000000   0.000000   0.000000
    13  N    0.000000   0.000000   0.000000   0.000000   0.000000   0.000000
    14  C    0.390631   0.355971  -0.019352  -0.046197  -0.007964   0.006300
    15  C   -0.033061  -0.037353   0.397780   0.387271  -0.048712  -0.036856
    16  N    0.003954   0.015912  -0.030743  -0.055746   0.365231   0.357035
    17  H   -0.000250   0.000258  -0.000142   0.000723  -0.000197  -0.000004
    18  H   -0.000227  -0.000211   0.000016  -0.000336   0.000131   0.000000
    19  H    0.000001   0.000000   0.000000   0.000000   0.000000   0.000000
    20  H   -0.000092   0.000062  -0.000002   0.000004   0.000001   0.000000
    21  H   -0.000012  -0.000034   0.000000  -0.000003   0.000000   0.000000
    22  H   -0.000001   0.000001   0.000000   0.000000   0.000002   0.000000
    23  H    0.000000   0.000000   0.000000   0.000000   0.000000   0.000000
    24  H    0.000000   0.000000   0.000000   0.000000   0.000000   0.000000
    25  H    0.726019  -0.037586  -0.008666   0.001800   0.000334  -0.000678
    26  H   -0.037586   0.706936  -0.010580   0.015846  -0.000583  -0.000758
    27  H   -0.008666  -0.010580   0.733806  -0.068915   0.008604  -0.005297
    28  H    0.001800   0.015846  -0.068915   0.812929  -0.004202  -0.007929
    29  H    0.000334  -0.000583   0.008604  -0.004202   0.591359  -0.047140
    30  H   -0.000678  -0.000758  -0.005297  -0.007929  -0.047140   0.655859
 Mulliken charges:
               1
     1  O   -0.443679
     2  C    0.432813
     3  N   -0.300085
     4  C    0.108526
     5  C    0.547490
     6  O   -0.369400
     7  O   -0.362184
     8  C    0.003245
     9  C    0.095405
    10  C    0.123076
    11  N   -0.358049
    12  C    0.227939
    13  N   -0.235616
    14  C   -0.028358
    15  C    0.171997
    16  N   -0.313884
    17  H    0.103035
    18  H    0.025610
    19  H    0.232713
    20  H    0.023707
    21  H    0.012561
    22  H    0.005134
    23  H    0.011216
    24  H    0.105084
    25  H   -0.006598
    26  H    0.020284
    27  H   -0.002263
    28  H   -0.022507
    29  H    0.114274
    30  H    0.078515
 Sum of Mulliken charges =   0.00000
 Mulliken charges with hydrogens summed into heavy atoms:
               1
     1  O   -0.443679
     2  C    0.432813
     3  N   -0.197050
     4  C    0.134136
     5  C    0.547490
     6  O   -0.136687
     7  O   -0.362184
     8  C    0.039513
     9  C    0.095405
    10  C    0.128210
    11  N   -0.358049
    12  C    0.239156
    13  N   -0.130532
    14  C   -0.014672
    15  C    0.147226
    16  N   -0.121096
 APT charges:
               1
     1  O   -0.406620
     2  C    0.333819
     3  N   -0.494426
     4  C    0.028826
     5  C   -0.428040
     6  O   -0.769786
     7  O    0.334981
     8  C   -0.533763
     9  C   -0.193468
    10  C   -0.501891
    11  N    0.539766
    12  C   -0.716034
    13  N   -0.452443
    14  C   -0.589467
    15  C   -0.628425
    16  N   -0.676991
    17  H    0.448410
    18  H    0.087838
    19  H    0.874731
    20  H    0.164571
    21  H    0.324866
    22  H    0.234343
    23  H    0.829484
    24  H    0.284161
    25  H    0.270680
    26  H    0.329716
    27  H    0.599913
    28  H    0.104809
    29  H   -0.071822
    30  H    0.672261
 Sum of APT charges =   0.00000
 APT charges with hydrogens summed into heavy atoms:
               1
     1  O   -0.406620
     2  C    0.333819
     3  N   -0.046016
     4  C    0.116664
     5  C   -0.428040
     6  O    0.104946
     7  O    0.334981
     8  C   -0.044326
     9  C   -0.193468
    10  C   -0.267548
    11  N    0.539766
    12  C    0.113450
    13  N   -0.168282
    14  C    0.010929
    15  C    0.076297
    16  N   -0.076552
 Electronic spatial extent (au):  <R**2>=           4649.2964
 Charge=              0.0000 electrons
 Dipole moment (field-independent basis, Debye):
    X=              0.8237    Y=             -0.9924    Z=              6.5496  Tot=              6.6754
 Quadrupole moment (field-independent basis, Debye-Ang):
   XX=            -96.5880   YY=            -91.4599   ZZ=            -98.1215
   XY=              3.9155   XZ=            -14.9856   YZ=              6.4964
 Traceless Quadrupole moment (field-independent basis, Debye-Ang):
   XX=             -1.1982   YY=              3.9299   ZZ=             -2.7317
   XY=              3.9155   XZ=            -14.9856   YZ=              6.4964
 Octapole moment (field-independent basis, Debye-Ang**2):
  XXX=            154.0925  YYY=              0.1532  ZZZ=             29.8542  XYY=             48.1310
  XXY=              3.5883  XXZ=             86.4600  XZZ=              3.1355  YZZ=             -1.6554
  YYZ=             -4.8554  XYZ=            -21.3027
 Hexadecapole moment (field-independent basis, Debye-Ang**3):
 XXXX=          -4273.9023 YYYY=           -444.1362 ZZZZ=          -1356.8069 XXXY=            197.1287
 XXXZ=            -96.0623 YYYX=            182.2639 YYYZ=            157.4253 ZZZX=              0.0417
 ZZZY=            213.9622 XXYY=           -716.1324 XXZZ=          -1031.3425 YYZZ=           -323.7202
 XXYZ=            101.6431 YYXZ=             -7.5764 ZZXY=            100.8658
 N-N= 1.121250148910D+03 E-N=-4.104193058459D+03  KE= 7.934872650031D+02
  Exact polarizability:   0.000   0.000   0.000   0.000   0.000   0.000
 Approx polarizability: 202.372 -31.152 173.562   4.139 -17.030 223.785
 Calling FoFJK, ICntrl=    100147 FMM=F ISym2X=0 I1Cent= 0 IOpClX= 0 NMat=1 NMatS=1 NMatT=0.
 -------------------------------------------------------------------
 Center     Atomic                   Forces (Hartrees/Bohr)
 Number     Number              X              Y              Z
 -------------------------------------------------------------------
      1        8           0.000523605   -0.000853920    0.002955040
      2        6           0.006757442    0.001214576   -0.008082020
      3        7          -0.004939671    0.000512869    0.005498533
      4        6           0.011267776   -0.002633204   -0.000233207
      5        6           0.003101242   -0.000269437   -0.003795910
      6        8           0.002962186   -0.001337711    0.005116053
      7        8          -0.003440850    0.001451085    0.001291611
      8        6          -0.005498420    0.005880908   -0.004377013
      9        6           0.005843074   -0.005094627   -0.001690066
     10        6          -0.005298980    0.003407191   -0.005264315
     11        7           0.003028053   -0.003560949    0.000606874
     12        6           0.000646806    0.000834059   -0.001750365
     13        7          -0.003865234   -0.000011106    0.006800153
     14        6          -0.004973060   -0.002798425    0.003182401
     15        6           0.003141755    0.002768851   -0.002734368
     16        7           0.000377649    0.000654555    0.001352586
     17        1          -0.000046545   -0.001089063   -0.000957418
     18        1          -0.004949180   -0.002075410   -0.000679157
     19        1          -0.001638165    0.000105825   -0.000661872
     20        1           0.000514894    0.001626944    0.002104020
     21        1          -0.000356469   -0.001271186    0.002093319
     22        1          -0.000598643    0.000916646    0.002851536
     23        1          -0.001164130    0.001680766   -0.000661491
     24        1          -0.001633378    0.000559443   -0.002424023
     25        1           0.001686293    0.000592695   -0.000859063
     26        1           0.000221108    0.001341897    0.000874689
     27        1          -0.001634009    0.000307686    0.000676563
     28        1          -0.000031535   -0.002011057    0.000239431
     29        1          -0.001007621   -0.001553892   -0.000847864
     30        1           0.001004005    0.000703992   -0.000624654
 -------------------------------------------------------------------
 Cartesian Forces:  Max     0.011267776 RMS     0.003073522
 FormGI is forming the generalized inverse of G from B-inverse, IUseBI=4.

 GradGradGradGradGradGradGradGradGradGradGradGradGradGradGradGradGradGrad
 Berny optimization.
 Internal  Forces:  Max     0.010978912 RMS     0.002076947
 Search for a local minimum.
 Step number   1 out of a maximum of  160
 All quantities printed in internal units (Hartrees-Bohrs-Radians)
 Mixed Optimization -- RFO/linear search
 Second derivative matrix not updated -- analytic derivatives used.
 ITU=  0
     Eigenvalues ---   -0.00055   0.00069   0.00130   0.00304   0.00340
     Eigenvalues ---    0.00502   0.00544   0.00581   0.00742   0.00955
     Eigenvalues ---    0.01910   0.01945   0.01988   0.02492   0.03301
     Eigenvalues ---    0.03803   0.03985   0.04110   0.04332   0.04396
     Eigenvalues ---    0.04550   0.04591   0.05011   0.05328   0.05633
     Eigenvalues ---    0.05671   0.06189   0.06278   0.07406   0.07818
     Eigenvalues ---    0.08155   0.10369   0.10493   0.10793   0.11395
     Eigenvalues ---    0.11576   0.11959   0.12479   0.14919   0.15267
     Eigenvalues ---    0.16186   0.17956   0.18278   0.18614   0.20099
     Eigenvalues ---    0.20993   0.21220   0.22056   0.22637   0.22789
     Eigenvalues ---    0.24207   0.24446   0.24679   0.26463   0.29892
     Eigenvalues ---    0.30146   0.30395   0.31931   0.32096   0.33097
     Eigenvalues ---    0.33161   0.33474   0.33581   0.34398   0.34793
     Eigenvalues ---    0.36035   0.36336   0.37127   0.37212   0.37912
     Eigenvalues ---    0.39561   0.40979   0.44378   0.44549   0.45038
     Eigenvalues ---    0.46090   0.46203   0.46724   0.47428   0.50552
     Eigenvalues ---    0.57320   0.59073   0.79391   0.88076
 RFO step:  Lambda=-3.68404225D-03 EMin=-5.49052511D-04
 Linear search not attempted -- first point.
 Iteration  1 RMS(Cart)=  0.20250852 RMS(Int)=  0.04303587
 Iteration  2 RMS(Cart)=  0.13216589 RMS(Int)=  0.00560630
 Iteration  3 RMS(Cart)=  0.01162528 RMS(Int)=  0.00023558
 Iteration  4 RMS(Cart)=  0.00007544 RMS(Int)=  0.00023383
 Iteration  5 RMS(Cart)=  0.00000001 RMS(Int)=  0.00023383
 Variable       Old X    -DE/DX   Delta X   Delta X   Delta X     New X
                                 (Linear)    (Quad)   (Total)
    R1        2.31514  -0.00280   0.00000  -0.00173  -0.00173   2.31341
    R2        2.55489   0.00625   0.00000   0.01018   0.01018   2.56507
    R3        2.87163  -0.00124   0.00000  -0.00806  -0.00806   2.86357
    R4        2.74495   0.00096   0.00000  -0.01306  -0.01306   2.73189
    R5        1.90406  -0.00037   0.00000  -0.00164  -0.00164   1.90243
    R6        2.85963   0.00173   0.00000   0.00090   0.00090   2.86053
    R7        2.92847   0.00425   0.00000   0.01832   0.01832   2.94679
    R8        2.07118  -0.00191   0.00000  -0.00489  -0.00489   2.06630
    R9        2.55477  -0.00045   0.00000  -0.00027  -0.00027   2.55450
   R10        2.27247  -0.00193   0.00000  -0.00071  -0.00071   2.27175
   R11        1.83202  -0.00054   0.00000  -0.00211  -0.00211   1.82991
   R12        2.81812   0.00194   0.00000  -0.00842  -0.00842   2.80970
   R13        2.05649  -0.00201   0.00000  -0.00489  -0.00489   2.05160
   R14        2.06005   0.00215   0.00000   0.00597   0.00597   2.06602
   R15        2.58062   0.00343   0.00000   0.00847   0.00848   2.58910
   R16        2.59034   0.00707   0.00000   0.01664   0.01671   2.60704
   R17        2.61605  -0.00480   0.00000  -0.01816  -0.01822   2.59784
   R18        2.04207  -0.00299   0.00000  -0.00741  -0.00741   2.03466
   R19        2.47705  -0.00091   0.00000  -0.00023  -0.00028   2.47677
   R20        2.57047   0.00268   0.00000   0.00394   0.00397   2.57444
   R21        2.03174   0.00157   0.00000   0.00397   0.00397   2.03571
   R22        1.90405  -0.00251   0.00000  -0.00549  -0.00549   1.89856
   R23        2.88420   0.00188   0.00000   0.00778   0.00778   2.89198
   R24        2.06394  -0.00066   0.00000  -0.00303  -0.00303   2.06091
   R25        2.06453  -0.00142   0.00000   0.00153   0.00153   2.06606
   R26        2.76285  -0.00001   0.00000  -0.00451  -0.00451   2.75834
   R27        2.06752  -0.00156   0.00000  -0.00453  -0.00453   2.06299
   R28        2.08357  -0.00100   0.00000  -0.00357  -0.00357   2.07999
   R29        1.91561   0.00057   0.00000   0.00118   0.00118   1.91678
   R30        1.91151   0.00115   0.00000   0.00165   0.00165   1.91316
    A1        2.12375  -0.00153   0.00000  -0.00996  -0.01013   2.11362
    A2        2.13707   0.00107   0.00000   0.00550   0.00533   2.14240
    A3        2.02236   0.00045   0.00000   0.00462   0.00445   2.02681
    A4        2.08237   0.00433   0.00000   0.02994   0.02873   2.11109
    A5        2.12047  -0.00257   0.00000  -0.00490  -0.00616   2.11431
    A6        2.03881  -0.00154   0.00000  -0.00088  -0.00208   2.03673
    A7        1.86507  -0.00365   0.00000  -0.00419  -0.00415   1.86092
    A8        1.93875   0.00264   0.00000   0.01823   0.01832   1.95707
    A9        1.87220   0.00222   0.00000   0.03761   0.03787   1.91008
   A10        1.97399   0.00157   0.00000  -0.00506  -0.00527   1.96872
   A11        1.89725   0.00078   0.00000  -0.00441  -0.00494   1.89232
   A12        1.91309  -0.00350   0.00000  -0.03906  -0.03942   1.87367
   A13        1.96583   0.00363   0.00000   0.00786   0.00786   1.97369
   A14        2.17518   0.00209   0.00000   0.00773   0.00773   2.18291
   A15        2.14217  -0.00572   0.00000  -0.01562  -0.01562   2.12655
   A16        1.85309   0.00287   0.00000   0.00685   0.00685   1.85994
   A17        1.97208   0.01098   0.00000   0.03784   0.03788   2.00996
   A18        1.88299  -0.00479   0.00000  -0.03341  -0.03342   1.84958
   A19        1.92136  -0.00340   0.00000  -0.01113  -0.01151   1.90985
   A20        1.86917  -0.00266   0.00000  -0.00402  -0.00359   1.86558
   A21        1.94802  -0.00278   0.00000   0.00111   0.00103   1.94906
   A22        1.86510   0.00212   0.00000   0.00679   0.00647   1.87158
   A23        2.29049  -0.00285   0.00000  -0.00943  -0.00965   2.28084
   A24        2.15881   0.00556   0.00000   0.01767   0.01746   2.17627
   A25        1.83346  -0.00269   0.00000  -0.00737  -0.00739   1.82607
   A26        1.93015   0.00199   0.00000   0.00621   0.00621   1.93636
   A27        2.23244  -0.00154   0.00000  -0.01313  -0.01314   2.21930
   A28        2.12060  -0.00045   0.00000   0.00691   0.00690   2.12750
   A29        1.83394   0.00193   0.00000   0.00479   0.00473   1.83867
   A30        1.94685   0.00029   0.00000   0.00025   0.00029   1.94714
   A31        2.21089  -0.00154   0.00000  -0.01084  -0.01086   2.20003
   A32        2.12545   0.00125   0.00000   0.01059   0.01057   2.13602
   A33        1.88022  -0.00150   0.00000  -0.00357  -0.00370   1.87652
   A34        2.16753   0.00216   0.00000   0.00834   0.00797   2.17550
   A35        2.23519  -0.00067   0.00000  -0.00566  -0.00598   2.22921
   A36        1.94118  -0.00079   0.00000   0.01767   0.01748   1.95866
   A37        1.91221   0.00144   0.00000   0.02057   0.02031   1.93252
   A38        1.88250   0.00047   0.00000  -0.00471  -0.00454   1.87796
   A39        1.93378  -0.00040   0.00000   0.00218   0.00169   1.93547
   A40        1.90125  -0.00079   0.00000  -0.02651  -0.02651   1.87474
   A41        1.89149   0.00009   0.00000  -0.01048  -0.01057   1.88092
   A42        1.92289  -0.00030   0.00000  -0.00264  -0.00262   1.92027
   A43        1.89514   0.00033   0.00000  -0.00624  -0.00625   1.88889
   A44        1.90849  -0.00158   0.00000  -0.01078  -0.01078   1.89771
   A45        1.88470   0.00013   0.00000   0.00927   0.00924   1.89394
   A46        1.98312   0.00164   0.00000   0.01293   0.01290   1.99602
   A47        1.86678  -0.00024   0.00000  -0.00302  -0.00316   1.86361
   A48        1.90655   0.00003   0.00000  -0.01681  -0.01678   1.88977
   A49        1.91408   0.00110   0.00000   0.01036   0.01039   1.92447
   A50        1.86664   0.00050   0.00000   0.01401   0.01406   1.88070
    D1       -0.09357   0.00003   0.00000   0.03153   0.03159  -0.06198
    D2       -2.91979  -0.00054   0.00000  -0.05765  -0.05751  -2.97730
    D3        3.04272  -0.00027   0.00000   0.06513   0.06499   3.10771
    D4        0.21650  -0.00083   0.00000  -0.02406  -0.02411   0.19239
    D5        1.10064  -0.00104   0.00000  -0.39881  -0.39889   0.70175
    D6       -3.03870  -0.00108   0.00000  -0.36993  -0.36969   2.87480
    D7       -0.98318   0.00010   0.00000  -0.37381  -0.37377  -1.35695
    D8       -2.03560  -0.00074   0.00000  -0.43263  -0.43285  -2.46845
    D9        0.10824  -0.00078   0.00000  -0.40375  -0.40364  -0.29540
   D10        2.16376   0.00040   0.00000  -0.40764  -0.40773   1.75603
   D11       -2.81149   0.00049   0.00000  -0.05183  -0.05193  -2.86342
   D12        1.31106  -0.00067   0.00000  -0.05411  -0.05405   1.25700
   D13       -0.77937   0.00067   0.00000  -0.04048  -0.04078  -0.82014
   D14        0.02924   0.00078   0.00000   0.03219   0.03232   0.06155
   D15       -2.13141  -0.00038   0.00000   0.02991   0.03019  -2.10121
   D16        2.06136   0.00096   0.00000   0.04355   0.04347   2.10483
   D17        3.13427  -0.00021   0.00000   0.00456   0.00460   3.13887
   D18       -0.01218  -0.00026   0.00000  -0.00031  -0.00028  -0.01246
   D19       -1.01016   0.00156   0.00000   0.02135   0.02138  -0.98878
   D20        2.12658   0.00151   0.00000   0.01648   0.01650   2.14308
   D21        1.11886  -0.00130   0.00000  -0.03496  -0.03502   1.08384
   D22       -2.02759  -0.00134   0.00000  -0.03983  -0.03990  -2.06749
   D23       -2.48849  -0.00039   0.00000  -0.03672  -0.03648  -2.52497
   D24       -0.42557  -0.00030   0.00000  -0.04110  -0.04119  -0.46676
   D25        1.60369  -0.00232   0.00000  -0.05795  -0.05769   1.54600
   D26        1.69753   0.00132   0.00000  -0.04088  -0.04061   1.65692
   D27       -2.52274   0.00141   0.00000  -0.04525  -0.04531  -2.56805
   D28       -0.49347  -0.00061   0.00000  -0.06211  -0.06182  -0.55529
   D29       -0.42259   0.00177   0.00000  -0.00374  -0.00394  -0.42653
   D30        1.64033   0.00186   0.00000  -0.00811  -0.00864   1.63169
   D31       -2.61359  -0.00016   0.00000  -0.02496  -0.02515  -2.63874
   D32       -3.12695  -0.00056   0.00000  -0.02117  -0.02114   3.13510
   D33        0.01939  -0.00054   0.00000  -0.01648  -0.01651   0.00288
   D34        2.10632  -0.00129   0.00000  -0.11251  -0.11254   1.99378
   D35       -0.99914  -0.00197   0.00000  -0.14962  -0.14971  -1.14885
   D36        0.03535  -0.00005   0.00000  -0.09075  -0.09078  -0.05543
   D37       -3.07011  -0.00073   0.00000  -0.12786  -0.12795   3.08513
   D38       -2.00030   0.00049   0.00000  -0.09713  -0.09699  -2.09729
   D39        1.17742  -0.00019   0.00000  -0.13425  -0.13416   1.04326
   D40       -3.12602  -0.00009   0.00000  -0.02009  -0.01967   3.13749
   D41        0.01454  -0.00049   0.00000  -0.02712  -0.02684  -0.01230
   D42       -0.01556   0.00063   0.00000   0.01231   0.01234  -0.00323
   D43        3.12500   0.00024   0.00000   0.00528   0.00517   3.13017
   D44        3.13017  -0.00046   0.00000   0.01173   0.01200  -3.14101
   D45        0.01045   0.00007   0.00000   0.05254   0.05293   0.06338
   D46        0.01671  -0.00094   0.00000  -0.01699  -0.01694  -0.00023
   D47       -3.10301  -0.00041   0.00000   0.02382   0.02398  -3.07903
   D48        0.00822  -0.00008   0.00000  -0.00269  -0.00273   0.00549
   D49       -3.13242   0.00028   0.00000   0.00383   0.00401  -3.12841
   D50        0.00278  -0.00049   0.00000  -0.00836  -0.00841  -0.00563
   D51       -3.13665  -0.00018   0.00000  -0.01144  -0.01132   3.13522
   D52       -0.01260   0.00091   0.00000   0.01638   0.01640   0.00380
   D53        3.10601   0.00040   0.00000  -0.02627  -0.02594   3.08007
   D54        3.12695   0.00062   0.00000   0.01925   0.01915  -3.13708
   D55       -0.03762   0.00011   0.00000  -0.02340  -0.02318  -0.06080
   D56       -1.26158   0.00004   0.00000  -0.03906  -0.03901  -1.30059
   D57        2.96087  -0.00015   0.00000  -0.04505  -0.04497   2.91590
   D58        0.92979   0.00081   0.00000  -0.03203  -0.03200   0.89780
   D59        2.89022  -0.00098   0.00000  -0.07907  -0.07904   2.81117
   D60        0.82948  -0.00117   0.00000  -0.08505  -0.08500   0.74448
   D61       -1.20160  -0.00021   0.00000  -0.07204  -0.07203  -1.27363
   D62        0.81103  -0.00036   0.00000  -0.05092  -0.05100   0.76002
   D63       -1.24971  -0.00055   0.00000  -0.05690  -0.05696  -1.30667
   D64        3.00239   0.00041   0.00000  -0.04389  -0.04399   2.95841
   D65        1.03568  -0.00151   0.00000   0.00443   0.00445   1.04012
   D66        3.07621  -0.00025   0.00000   0.01755   0.01753   3.09374
   D67        3.10283  -0.00120   0.00000   0.00090   0.00088   3.10370
   D68       -1.13983   0.00006   0.00000   0.01402   0.01396  -1.12586
   D69       -1.11265  -0.00041   0.00000   0.01121   0.01127  -1.10138
   D70        0.92788   0.00085   0.00000   0.02433   0.02435   0.95223
         Item               Value     Threshold  Converged?
 Maximum Force            0.010979     0.000450     NO 
 RMS     Force            0.002077     0.000300     NO 
 Maximum Displacement     1.228046     0.001800     NO 
 RMS     Displacement     0.320661     0.001200     NO 
 Predicted change in Energy=-3.211757D-03
 GradGradGradGradGradGradGradGradGradGradGradGradGradGradGradGradGradGrad

                          Input orientation:                          
 ---------------------------------------------------------------------
 Center     Atomic      Atomic             Coordinates (Angstroms)
 Number     Number       Type             X           Y           Z
 ---------------------------------------------------------------------
      1          8           0        1.144705    0.501055   -1.064774
      2          6           0        1.632670   -0.231813   -0.214204
      3          7           0        0.895412   -0.675576    0.835555
      4          6           0       -0.468777   -0.236146    1.024771
      5          6           0       -0.842269   -0.584582    2.449716
      6          8           0       -2.104968   -0.223612    2.770046
      7          8           0       -0.120354   -1.134235    3.238329
      8          6           0       -1.438319   -0.861647   -0.024220
      9          6           0       -2.544515    0.025818   -0.470753
     10          6           0       -2.806515    0.578741   -1.696633
     11          7           0       -3.951917    1.337986   -1.658620
     12          6           0       -4.381489    1.256197   -0.423070
     13          7           0       -3.568757    0.471892    0.338697
     14          6           0        3.063281   -0.726849   -0.281594
     15          6           0        4.029746    0.359404   -0.759120
     16          7           0        3.875882    0.569011   -2.195422
     17          1           0        1.325689   -1.159594    1.606317
     18          1           0       -0.520506    0.849992    0.909736
     19          1           0       -2.244320   -0.493129    3.689633
     20          1           0       -0.833176   -1.076284   -0.899660
     21          1           0       -1.813932   -1.816960    0.352044
     22          1           0       -2.224344    0.471944   -2.596047
     23          1           0       -5.260402    1.734814   -0.024444
     24          1           0       -3.641862    0.284391    1.323008
     25          1           0        3.377550   -1.131135    0.681301
     26          1           0        3.097774   -1.539638   -1.012015
     27          1           0        5.048751    0.018828   -0.565684
     28          1           0        3.875507    1.262666   -0.149335
     29          1           0        2.918075    0.850433   -2.374998
     30          1           0        4.481400    1.318030   -2.507318
 ---------------------------------------------------------------------
                    Distance matrix (angstroms):
                    1          2          3          4          5
     1  O    0.000000
     2  C    1.224203   0.000000
     3  N    2.248968   1.357376   0.000000
     4  C    2.740984   2.439500   1.445654   0.000000
     5  C    4.180707   3.653250   2.373464   1.513727   0.000000
     6  O    5.078520   4.782861   3.598446   2.392334   1.351785
     7  O    4.774017   3.975858   2.648674   2.414083   1.202160
     8  C    3.100278   3.140662   2.494020   1.559374   2.559765
     9  C    3.766836   4.192978   3.745863   2.571751   3.435020
    10  C    4.002177   4.749838   4.657204   3.679008   4.733265
    11  N    5.198910   5.978145   5.811363   4.670197   5.499510
    12  C    5.614343   6.199024   5.758608   4.430874   4.916040
    13  N    4.918059   5.277854   4.635985   3.252982   3.606422
    14  C    2.408745   1.515338   2.439325   3.797738   4.767977
    15  C    2.904643   2.528328   3.665817   4.875824   5.909675
    16  N    2.956740   3.098151   4.429336   5.467539   6.720791
    17  H    3.150435   2.066232   1.006721   2.100253   2.396247
    18  H    2.606411   2.658893   2.082711   1.093436   2.129101
    19  H    5.922692   5.508111   4.246995   3.212488   1.873902
    20  H    2.535207   2.695066   2.481845   2.131210   3.385287
    21  H    4.016727   3.835674   2.979444   2.181966   2.619754
    22  H    3.700829   4.587483   4.777611   4.085796   5.337237
    23  H    6.605290   7.170640   6.666606   5.286322   5.569647
    24  H    5.353473   5.518167   4.663261   3.229298   3.140431
    25  H    3.270843   2.157618   2.528306   3.963989   4.607914
    26  H    2.825188   2.119773   3.001752   4.309046   5.331008
    27  H    3.965249   3.443249   4.438005   5.747841   6.645363
    28  H    2.979154   2.695922   3.688869   4.743182   5.694278
[...]
 37,-0.09584278,0.16411141,0.00000217,-0.00000445,0.00001853,-0.0000018
 5,0.00001453,-0.00000475,-0.00000214,-0.00002032,0.00000279,0.00007121
 ,0.00003957,-0.00007464,-0.00024248,-0.00010801,-0.00001590,0.00040363
 ,0.00021319,0.00058602,-0.00010012,-0.00027225,0.00002211,0.00041748,-
 0.00074007,0.00003512,0.00046142,0.00152432,0.00054708,-0.00015095,-0.
 00080708,-0.00100063,0.01227735,0.10239623,-0.00013832,0.00016087,-0.0
 0029758,-0.00002888,-0.00032455,0.00037913,-0.00002196,0.00023081,-0.0
 0072931,0.00007388,0.00020997,0.00016599,-0.00567577,0.00076833,0.0031
 1872,0.00264314,0.00074687,-0.00534286,0.00239233,-0.00101265,-0.00003
 049,0.00018518,-0.00057362,0.00042603,-0.00346867,0.00266888,-0.008125
 19,0.00145698,0.00038258,-0.00005207,-0.00005489,0.00198334,0.00270389
 ,0.00117256,-0.00194020,-0.00603847,0.07182719,0.16801536,-0.37187715,
 0.00002100,0.00005836,-0.00001270,0.00000851,-0.00000697,0.00005437,-0
 .00001103,-0.00001807,-0.00004900,-0.00019723,-0.00006223,0.00022546,0
 .00005169,-0.00010936,0.00002837,-0.00031725,0.00027554,-0.00079143,-0
 .00030494,0.00001477,-0.00018527,0.00029210,-0.00023604,0.00005985,0.0
 0013902,0.00076331,0.00052521,-0.00027328,-0.00038268,-0.00007702,-0.0
 6977160,-0.17163177,0.38592411,-0.00372675,0.00382930,0.00248476,-0.01
 008150,-0.00824592,-0.03284970,0.00004654,0.00079124,0.00252540,0.0001
 0747,0.00055811,0.00073909,-0.00016010,0.00030581,-0.00034306,-0.00001
 267,-0.00008176,0.00011236,0.00012621,-0.00008824,0.00024295,0.0001989
 7,-0.00002704,0.00007190,0.00001709,-0.00000466,0.00000438,0.00000679,
 -0.00001515,0.00000606,-0.00002475,0.00000531,-0.00000162,-0.00002334,
 0.00001351,0.00000549,-0.00000174,0.00000236,-0.00000974,-0.08398965,-
 0.02271642,-0.08829252,0.00785281,0.00588262,0.01566727,-0.00212158,-0
 .00178381,0.00342877,-0.00092697,-0.00066646,-0.00008375,-0.00012085,-
 0.00009752,0.00001956,-0.00002801,-0.00001528,-0.00001017,0.00006910,0
 .00002681,0.00003838,-0.00001960,-0.00001055,-0.00000605,0.00000834,0.
 00000426,0.00002154,-0.00000313,0.00000142,0.00000113,0.00000489,0.000
 00273,-0.00001132,0.09107377,0.00206387,-0.00227109,-0.00090974,0.0051
 2590,0.00136836,0.01107548,-0.00124162,0.00025421,0.00014848,0.0000708
 6,-0.00029677,-0.00010696,-0.00010051,0.00014173,-0.00013612,0.0000711
 8,-0.00004324,0.00002300,0.00009431,-0.00008992,0.00008715,-0.00009062
 ,-0.00001452,0.00000874,0.00000964,-0.00000968,0.00000282,-0.00000115,
 -0.00000093,0.00000261,-0.00001110,0.00000327,0.00000558,-0.00000504,0
 .00000655,-0.00000599,-0.00000195,0.00000336,0.00000256,-0.02080128,-0
 .05467817,-0.04576998,0.00710747,0.00331440,0.01341408,-0.00191775,-0.
 00068101,0.00113937,-0.00054025,0.00000479,-0.00006819,0.00001623,0.00
 003058,0.00002546,-0.00001011,0.00000807,0.00000186,0.00000238,-0.0000
 1453,0.00002246,-0.00000204,-0.00000893,-0.00001787,-0.00000154,-0.000
 00295,-0.00000194,-0.00000085,0.00000081,-0.00000028,-0.00000198,0.000
 00370,-0.00000808,0.02204225,0.05696098,-0.00099075,-0.00061832,0.0007
 9747,-0.00054226,0.00184863,-0.00158007,0.00112491,0.00040529,0.000210
 58,-0.00053386,0.00024918,0.00041579,-0.00013926,0.00000949,-0.0000537
 9,0.00007555,-0.00000416,-0.00000059,0.00007522,-0.00002881,0.00003324
 ,0.00016067,-0.00007346,-0.00005823,0.00003691,0.00004486,0.00002290,0
 .00002173,0.00001359,-0.00003037,0.00001547,-0.00002127,0.00001027,0.0
 0000243,-0.00000789,0.00000804,-0.00001930,-0.00000747,0.00003508,-0.0
 8506053,-0.04583121,-0.25242330,-0.01034748,-0.00790899,-0.01788256,0.
 00460688,0.00226676,-0.00379098,-0.00005261,-0.00055338,-0.00006172,0.
 00002252,-0.00003800,-0.00004804,-0.00001054,-0.00000186,0.00000271,0.
 00000670,0.00000113,-0.00002355,0.00000684,0.00000916,0.00000848,0.000
 00478,-0.00000192,0.00000792,-0.00000136,-0.00000258,0.00000074,-0.000
 01222,0.00000236,-0.00000986,0.09359136,0.05072802,0.27779536,-0.00613
 300,-0.00053890,-0.00288208,0.00177732,0.03497316,0.00552195,-0.000883
 38,-0.00256921,-0.00043345,0.00030155,-0.00045015,-0.00060143,0.000081
 96,-0.00001486,-0.00012792,0.00001103,0.00000940,0.00001149,-0.0000078
 2,-0.00007194,0.00007625,-0.00017343,-0.00000590,0.00007615,0.00001265
 ,-0.00003976,-0.00004583,0.00000495,-0.00000643,-0.00001386,-0.0000176
 1,-0.00000168,-0.00000418,-0.00001012,0.00000877,0.00000722,-0.0000067
 3,-0.00000233,0.00000006,-0.04703202,0.01387618,0.00449144,-0.00007874
 ,-0.02139697,-0.00193150,0.00039126,0.00149081,-0.00131656,-0.00040222
 ,0.00030180,0.00063905,0.00007990,0.00010054,-0.00012091,0.00001018,0.
 00000885,-0.00000575,0.00000576,0.00016041,0.00007501,-0.00006198,-0.0
 0005118,0.00002956,0.00001371,0.00000792,0.00003185,-0.00000085,0.0000
 0200,0.00000293,0.00000350,0.00000545,-0.00000432,0.00038694,-0.012881
 04,-0.00131566,0.05332702,0.00224059,0.00066675,-0.00047550,-0.0003125
 0,-0.01136619,0.00066068,-0.00105554,0.00142232,0.00073799,0.00065503,
 0.00061108,0.00020395,0.00015285,-0.00005634,0.00001265,-0.00010681,0.
 00001875,0.00002248,-0.00009622,0.00006889,-0.00001612,0.00004677,-0.0
 0002310,0.00002111,-0.00000338,-0.00000928,0.00001518,-0.00001173,-0.0
 0000339,0.00002803,-0.00001167,0.00002792,-0.00000814,0.00000078,-0.00
 000283,-0.00000323,0.00001968,0.00001384,-0.00002764,0.01224058,-0.297
 39590,-0.03610624,-0.00085363,-0.01748174,-0.00185312,0.00135100,0.002
 22017,-0.00110525,0.00022222,-0.00033039,-0.00082281,-0.00029911,0.000
 04025,0.00008336,0.00001048,-0.00001004,-0.00001124,0.00002041,-0.0000
 7070,-0.00004417,0.00002581,0.00001679,-0.00003211,-0.00000729,-0.0000
 0865,-0.00001645,-0.00000115,-0.00000079,-0.00000237,0.00001338,-0.000
 00751,0.00000845,0.00004190,-0.00497624,-0.00123851,-0.01178497,0.3258
 6225,-0.00142476,0.00038096,-0.00062961,-0.00172569,0.00222946,-0.0006
 7319,0.00139498,0.00058847,0.00004885,-0.00019854,-0.00002391,-0.00016
 214,0.00012843,-0.00018390,0.00017208,-0.00007908,0.00004956,-0.000031
 87,-0.00009311,0.00013514,-0.00009811,0.00001262,-0.00000328,0.0000342
 5,-0.00000707,0.00000595,-0.00001043,-0.00000633,-0.00000064,0.0000050
 3,0.00000591,0.00000004,-0.00000782,0.00000830,-0.00000425,0.00000007,
 0.00000832,-0.00000264,-0.00000785,0.00336739,-0.03730750,-0.04909308,
 -0.00048372,0.02464795,0.00259894,-0.00072005,-0.00030234,0.00237239,0
 .00065921,-0.00028287,-0.00033441,0.00003796,0.00000531,-0.00004614,0.
 00001370,-0.00000657,-0.00000079,-0.00002339,0.00001804,-0.00002875,0.
 00000201,0.00001168,0.00000674,-0.00000028,0.00000557,-0.00000020,0.00
 000161,-0.00000031,0.00000006,0.00000405,-0.00000510,0.00001043,0.0019
 4064,-0.02913055,-0.00350737,-0.00455313,0.03794004,0.05177456,0.00024
 680,-0.00031903,0.00029977,0.00064972,-0.00188407,0.00222337,-0.001565
 12,0.00017558,0.00014693,0.00017221,-0.00031099,0.00016610,0.00005869,
 0.00011515,-0.00028723,-0.00014408,-0.00002511,0.00014082,-0.00005738,
 -0.00006540,0.00016032,-0.00001111,0.00003720,0.00002339,0.00000774,-0
 .00004179,-0.00002161,0.00001041,-0.00001873,0.00000088,-0.00004893,0.
 00002704,-0.00000243,-0.00001697,0.00001215,0.00000227,-0.00000101,0.0
 0000660,-0.00001737,-0.01728816,0.00530760,-0.00046157,-0.27989916,0.0
 6871530,-0.02380674,-0.01028586,0.00160479,-0.00441957,-0.00002978,0.0
 0014859,-0.00010604,-0.00000234,0.00002172,-0.00001366,0.00000466,0.00
 000353,-0.00001345,0.00003090,0.00002608,0.00002621,-0.00002037,-0.000
 01099,-0.00000031,0.00000986,-0.00000187,0.00001598,-0.00000467,0.0000
 0201,0.00000213,0.00002338,0.00000273,-0.00000055,0.00068611,0.0003458
 7,0.00032935,0.00038559,-0.00029435,-0.00057296,0.30642647,0.00084847,
 0.00138601,-0.00102485,-0.00015143,-0.00304684,0.00390392,-0.00114815,
 0.00047126,-0.00023141,-0.00014883,-0.00020307,0.00018625,-0.00007901,
 0.00006401,-0.00004527,-0.00001319,-0.00001739,0.00003626,0.00001469,-
 0.00001457,0.00000646,-0.00000735,0.00001794,0.00000563,-0.00000755,-0
 .00000654,0.00000275,-0.00000268,0.00000211,0.00000502,0.00000161,0.00
 000653,0.00000117,0.00000011,-0.00000005,-0.00000255,0.00000513,0.0000
 0236,-0.00000544,-0.01759967,0.00387866,-0.00030957,0.07348187,-0.0729
 4052,0.00616070,-0.01162221,0.00355084,-0.00176821,-0.00001583,0.00006
 194,-0.00003635,0.00000231,0.00000446,0.00000310,-0.00001249,0.0000006
 0,0.00000764,-0.00001193,-0.00001727,-0.00000704,0.00000217,-0.0000010
 1,-0.00000522,-0.00000261,-0.00000448,-0.00000716,0.00000014,-0.000000
 20,-0.00000102,0.00000068,-0.00000173,0.00000223,0.00071575,0.00049719
 ,-0.00063386,0.00007177,0.00070227,-0.00072410,-0.07455378,0.07361784,
 -0.00005263,-0.00027529,0.00061690,0.00125027,0.00389843,-0.00363664,0
 .00185646,-0.00061506,0.00011630,-0.00002014,0.00033369,-0.00033077,0.
 00001515,-0.00010345,0.00021326,0.00013324,0.00002624,-0.00012778,0.00
 004598,0.00003443,-0.00010093,0.00000088,-0.00002451,-0.00006313,0.000
 00622,0.00003989,0.00001555,0.00002123,0.00002086,-0.00003275,0.000025
 58,-0.00002704,0.00001738,0.00000443,-0.00000739,0.00000270,-0.0000213
 2,-0.00001100,0.00003827,0.02377424,-0.00741851,0.00149084,-0.01883853
 ,0.00565476,-0.04971128,-0.03595221,0.00750858,-0.00941979,0.00002288,
 -0.00009899,0.00007696,0.00000475,-0.00001369,0.00000333,0.00000766,-0
 .00000175,-0.00000028,-0.00001325,-0.00001606,-0.00002527,0.00001406,0
 .00000580,0.00000829,0.00000134,-0.00000474,-0.00000450,0.00000087,-0.
 00000203,0.00000098,-0.00002089,0.00000206,-0.00000947,-0.00024605,-0.
 00070314,0.00074637,-0.00069276,-0.00008935,0.00074004,0.02800531,-0.0
 0652697,0.06318231,-0.00044555,0.00137914,-0.00051541,0.00080876,-0.00
 241145,0.00049187,0.00025280,0.00074051,-0.00052424,-0.00014573,0.0001
 5652,0.00001466,-0.00002799,-0.00004679,0.00013531,0.00004235,0.000012
 93,-0.00005073,0.00001376,0.00004893,-0.00009164,0.00000234,-0.0000106
 4,-0.00001123,-0.00000587,0.00001874,0.00001917,-0.00000327,0.00001379
 ,0.00000393,0.00002123,-0.00000345,0.00000410,0.00000741,-0.00000698,-
 0.00000316,0.00000358,0.00000146,0.00000344,0.00079422,-0.01978242,0.0
 0026081,-0.05389152,0.01963225,0.00300781,0.00238018,-0.01266397,-0.00
 626386,0.00023330,-0.00011178,-0.00017003,-0.00004947,-0.00001092,0.00
 003671,-0.00000390,-0.00000390,0.00000608,-0.00001913,-0.00005222,-0.0
 0002503,0.00002268,0.00001172,-0.00001176,-0.00000987,-0.00000705,-0.0
 0001835,0.00000167,-0.00000143,-0.00000201,-0.00000926,-0.00000441,0.0
 0000168,0.00051222,0.00041949,-0.00023480,-0.00181001,-0.00212420,0.00
 234384,-0.00137529,0.03077795,0.00279263,0.05214612,0.00050325,0.00225
 375,-0.00087235,0.00219759,-0.00186619,0.00108307,-0.00029442,0.000360
 97,-0.00014264,0.00003816,-0.00003493,0.00002137,0.00005942,-0.0000226
 9,-0.00001823,-0.00006078,0.00001741,0.00003433,-0.00003899,0.00004217
 ,0.00001229,-0.00000637,0.00001370,-0.00001473,0.00000650,-0.00000923,
 0.00001527,0.00001418,0.00000717,0.00000076,-0.00001448,0.00002450,0.0
 0000574,-0.00000975,-0.00000082,0.00000407,-0.00000185,0.00001434,-0.0
 0000667,-0.00027606,-0.01706311,0.00101462,0.01580962,-0.28230441,-0.0
 2234137,-0.00333195,-0.00552741,-0.01128190,0.00007753,-0.00004607,-0.
 00026147,-0.00004737,0.00002482,-0.00000645,0.00000122,-0.00001277,-0.
 00000839,0.00000185,-0.00003445,-0.00000105,0.00001232,0.00000873,-0.0
 0001115,-0.00000022,-0.00001660,-0.00000494,-0.00000381,-0.00000218,-0
 .00000130,0.00000347,-0.00000903,-0.00000403,-0.00007512,-0.00005275,0
 .00072443,-0.00137294,-0.00018294,0.00230348,0.00189719,-0.00866956,-0
 .00002316,-0.01536131,0.31113944,0.00051011,-0.00046251,0.00062700,-0.
 00127265,0.00072678,0.00004570,0.00024613,-0.00015129,-0.00014607,-0.0
 0016119,-0.00008560,-0.00002916,-0.00010316,0.00003802,0.00001903,0.00
 008603,-0.00000855,-0.00002658,0.00007348,-0.00003269,-0.00000937,0.00
 001198,-0.00000637,-0.00002593,0.00000908,0.00001705,0.00001033,0.0000
 1760,0.00001491,-0.00001613,0.00001222,-0.00000659,0.00001359,-0.00000
 233,-0.00000360,0.00000230,-0.00001259,-0.00000279,0.00002095,0.000028
 20,0.02495958,0.00204083,0.00217038,-0.02381024,-0.05071101,-0.0042835
 9,-0.03647684,-0.01781862,-0.00014597,0.00007380,0.00018730,0.00006052
 ,-0.00001891,0.00000384,-0.00000787,0.00000086,0.00000382,0.00000771,-
 0.00001000,-0.00002141,0.00000227,0.00000239,0.00000196,-0.00000094,-0
 .00001276,-0.00000471,-0.00000076,-0.00000195,-0.00000012,-0.00001261,
 0.00000020,-0.00000927,-0.00084308,-0.00047536,0.00075337,0.00341340,0
 .00238081,-0.00328875,0.00055288,0.00226723,0.00114318,-0.00213087,0.0
 3089599,0.06489369,-0.00299911,0.00110819,-0.00031819,0.00122821,-0.00
 195352,0.00244929,0.00020137,0.00079802,-0.00069572,-0.00025209,0.0000
 6813,0.00002171,-0.00013203,-0.00007734,0.00023366,0.00010920,0.000008
 35,-0.00010254,0.00005080,0.00006537,-0.00015911,-0.00004024,-0.000022
 26,0.00006919,-0.00004080,0.00003583,0.00000481,-0.00004966,0.00000245
 ,0.00005148,0.00006828,-0.00003140,-0.00001183,0.00003683,-0.00000612,
 -0.00002490,0.00003597,-0.00001678,-0.00000178,0.00038601,0.00004353,-
 0.00026213,-0.01220741,0.00665881,-0.00612296,-0.32728043,0.13420683,-
 0.05281836,0.00013918,0.00002426,0.00005645,0.00001240,-0.00003451,0.0
 0002265,-0.00001528,0.00000190,0.00002207,-0.00010237,-0.00007991,0.00
 001843,0.00002916,0.00001067,-0.00002651,-0.00004009,0.00002838,-0.000
 03810,0.00000918,-0.00000020,-0.00000524,-0.00001742,-0.00000375,0.000
 01289,-0.00022322,0.00000242,0.00005477,-0.00008479,-0.00009203,-0.000
 10135,0.00138497,-0.00093160,-0.00207888,0.00076160,0.00040706,0.00212
 215,0.36128435,0.00023241,-0.00212757,-0.00043821,-0.00071487,0.001542
 67,0.00036428,-0.00010495,-0.00058526,0.00045395,0.00015879,0.00006493
 ,0.00001384,0.00000545,-0.00004848,0.00003794,-0.00000951,-0.00000582,
 -0.00001868,-0.00003244,0.00001540,-0.00002037,-0.00007343,0.00000081,
 0.00015046,-0.00004189,0.00001166,-0.00007784,-0.00002837,-0.00002352,
 -0.00000578,0.00001721,-0.00004219,-0.00001024,0.00002581,0.00000666,-
 0.00001437,0.00001862,-0.00003731,0.00001526,0.00142694,0.00030581,0.0
 0081847,-0.01524539,0.00064101,-0.00839328,0.18664245,-0.10177183,0.04
 134133,-0.00003265,-0.00001899,0.00007031,0.00001032,-0.00000073,-0.00
 002566,-0.00000050,0.00000925,0.00001073,-0.00010034,0.00005984,0.0000
 4487,-0.00001283,-0.00001993,0.00000917,0.00001738,0.00005944,0.000011
 54,0.00000671,0.00000302,0.00000311,0.00000058,0.00001026,0.00001593,-
 0.00024981,-0.00004941,0.00002628,0.00017572,-0.00023195,0.00004618,-0
 .00111584,0.00009458,-0.00234658,-0.00119588,0.00154889,0.00065513,-0.
 15373767,0.09871180,0.00009406,-0.00165594,0.00399029,-0.00051833,0.00
 496206,-0.00560373,-0.00079584,-0.00175587,0.00135135,0.00068393,-0.00
 016458,-0.00002920,0.00033977,-0.00000054,-0.00036175,-0.00028519,-0.0
 0000254,0.00016828,-0.00018928,-0.00003961,0.00023991,-0.00000061,0.00
 003960,0.00004094,0.00001573,-0.00010924,-0.00001821,-0.00005148,-0.00
 006159,0.00007383,-0.00007839,0.00006265,-0.00005951,-0.00002554,0.000
 01972,0.00001089,0.00003711,0.00004221,-0.00010537,-0.00025226,0.00044
 235,0.00061653,-0.03615825,0.01661710,-0.00910440,-0.05175663,0.029373
 36,-0.07139522,-0.00021065,0.00000290,-0.00003488,0.00002967,0.0000745
 6,-0.00008970,0.00002863,0.00000449,-0.00002428,0.00010949,0.00009907,
 0.00010331,-0.00005172,-0.00001674,0.00000900,0.00001127,0.00001608,0.
 00005071,-0.00000326,0.00000698,-0.00000042,0.00005253,-0.00000164,0.0
 0001756,0.00044064,-0.00024071,0.00001816,0.00001421,-0.00009390,-0.00
 008820,-0.00202617,-0.00206103,-0.00642106,0.00032004,-0.00051399,0.00
 137584,0.06315505,-0.03133991,0.07977513,-0.00019534,0.00000260,0.0016
 8911,-0.00063484,0.00117853,-0.00126935,0.00002520,-0.00035352,0.00021
 110,0.00009214,-0.00001674,-0.00001139,0.00004032,-0.00000301,-0.00004
 267,-0.00002603,0.00000110,0.00001509,-0.00001338,-0.00000292,0.000032
 85,0.00001610,0.00000176,-0.00001918,0.00001186,-0.00001845,0.00001496
 ,-0.00000850,-0.00000669,0.00001481,-0.00001101,0.00001611,-0.00001427
 ,-0.00000907,0.00000025,0.00000792,0.00000561,0.00001695,-0.00002623,0
 .00011377,-0.00056487,-0.00292550,0.00934988,0.00329514,-0.01262562,-0
 .21255303,-0.06828130,0.16199815,-0.00006447,-0.00005098,0.00001813,0.
 00001496,0.00001142,-0.00001637,0.00000282,-0.00000131,-0.00000295,0.0
 0003217,0.00000408,0.00001203,-0.00000789,0.00000126,0.00000344,0.0000
 0268,-0.00000702,0.00001079,-0.00000070,0.00000072,-0.00000102,0.00000
 640,-0.00000274,0.00000188,0.00036663,0.00023695,-0.00087545,-0.000090
 63,0.00001307,0.00006052,0.00065273,0.00038564,-0.00004651,-0.00020737
 ,-0.00013393,-0.00034654,-0.02225258,-0.01604201,0.02707146,0.22534158
 ,0.00019731,-0.00005127,-0.00066521,0.00088190,-0.00049720,-0.00022719
 ,-0.00026602,0.00000596,0.00005480,0.00014539,-0.00003448,0.00001926,0
 .00010644,0.00002809,-0.00010759,-0.00010283,-0.00000615,0.00005896,-0
 .00006791,-0.00002185,0.00005724,0.00001386,0.00001866,-0.00001882,-0.
 00000073,-0.00002897,-0.00000533,0.00000289,-0.00002110,-0.00000143,-0
 .00003397,0.00000741,-0.00000940,-0.00000731,0.00000778,0.00000164,-0.
 00000389,0.00000322,-0.00001394,-0.00017515,-0.00025410,0.00091409,0.0
 0663195,-0.00264062,-0.01474321,-0.10187279,-0.05853746,0.11573479,0.0
 0002397,0.00006134,-0.00007060,-0.00001981,0.00000990,0.00000327,0.000
 01340,0.00000597,-0.00000849,0.00005421,0.00000983,0.00002102,-0.00001
 335,-0.00000801,0.00000377,0.00001024,0.00001094,0.00001621,-0.0000016
 5,0.00000340,0.00000246,0.00001900,0.00000585,0.00000468,-0.00014564,0
 .00059214,0.00064249,-0.00000451,0.00048669,-0.00038991,0.00019282,0.0
 0056463,0.00078399,0.00058536,0.00039925,-0.00046668,0.01351690,0.0018
 7695,-0.01370530,0.08031993,0.05800318,0.00020226,-0.00037464,0.000800
 51,-0.00115064,0.00058665,-0.00042376,0.00019432,-0.00008277,0.0001354
 2,-0.00002708,0.00003801,0.00003187,-0.00003430,0.00001607,-0.00000989
 ,0.00002732,-0.00000701,-0.00000755,0.00002739,-0.00001259,0.00001164,
 0.00002617,-0.00000669,-0.00002769,0.00000626,0.00000546,0.00000670,0.
 00000441,-0.00000133,-0.00001071,-0.00000045,-0.00000777,-0.00000063,-
 0.00000174,-0.00000054,0.00000337,-0.00000692,-0.00000060,0.00000551,-
 0.00373804,-0.00327078,-0.00592595,0.02397722,0.01465650,-0.02470672,0
 .15773265,0.07689493,-0.22665481,-0.00008833,-0.00007438,0.00002480,0.
 00001209,-0.00000248,-0.00000640,-0.00000199,0.00000139,0.00000127,0.0
 0002459,0.00000244,-0.00000240,-0.00000153,-0.00000083,0.00000596,0.00
 000545,0.00000242,0.00000787,0.00000011,0.00000047,0.00000084,-0.00000
 224,0.00000272,-0.00000197,0.00135539,0.00088721,-0.00139605,-0.000341
 21,-0.00016855,0.00024528,-0.00034605,0.00080171,0.00147101,0.00061104
 ,-0.00060159,0.00096437,-0.00552699,-0.00139785,0.00549421,-0.17293918
 ,-0.08788559,0.24996392\\-0.00000237,0.00000222,-0.00000276,0.00000186
 ,-0.00000354,-0.00000064,0.00000035,-0.00000398,-0.00000160,0.00000658
 ,0.00000050,-0.00000212,0.00000126,-0.00000125,-0.00000058,0.00000180,
 0.00000016,0.00000192,-0.00000167,-0.00000004,0.00000024,-0.00000008,0
 .00000203,-0.00000040,0.00000055,-0.00000080,0.00000037,-0.00000070,0.
 00000169,-0.00000116,0.00000090,0.00000019,0.00000024,-0.00000040,0.00
 000110,0.00000014,-0.00000106,-0.00000091,-0.00000058,-0.00000234,0.00
 000358,0.00000955,-0.00000382,0.00000247,-0.00000196,-0.00000046,-0.00
 000029,-0.00000273,-0.00000176,0.00000242,-0.00000070,-0.00000044,-0.0
 0000034,-0.00000070,-0.00000044,-0.00000010,-0.00000048,0.00000027,0.0
 0000002,0.00000058,-0.00000036,-0.00000026,-0.00000005,-0.00000036,0.0
 0000013,0.00000077,-0.00000047,0.00000103,0.00000029,-0.00000090,0.000
 00086,-0.00000009,0.00000630,-0.00000548,-0.00000071,-0.00000159,-0.00
 000068,0.00000034,-0.00000022,0.00000018,0.00000131,-0.00000020,-0.000
 00080,-0.00000114,-0.00000013,0.00000191,0.00000287,-0.00000011,-0.000
 00203,-0.00000024\\\@


 WHEN ALL ELSE FAILS, LOOK AT THE SCHRODINGER EQUATION.
     -- RUSSELL T. PACK, APRIL 1978
 Job cpu time:       0 days 13 hours 54 minutes 46.1 seconds.
 File lengths (MBytes):  RWF=    973 Int=      0 D2E=      0 Chk=     34 Scr=      1
 Normal termination of Gaussian 09 at Sat Jul 24 10:47:44 2021.
