 Entering Gaussian System, Link 0=g09
 Input=opt_freq-conf-273.com
 Output=opt_freq-conf-273.log
 Initial command:
 /aerosol/software/g09/l1.exe "/scratch/nicole/10357/Gau-73452.inp" -scrdir="/scratch/nicole/10357/"
 Entering Link 1 = /aerosol/software/g09/l1.exe PID=     73456.
  
 Copyright (c) 1988,1990,1992,1993,1995,1998,2003,2009,2013,
            Gaussian, Inc.  All Rights Reserved.
  
 This is part of the Gaussian(R) 09 program.  It is based on
 the Gaussian(R) 03 system (copyright 2003, Gaussian, Inc.),
 the Gaussian(R) 98 system (copyright 1998, Gaussian, Inc.),
 the Gaussian(R) 94 system (copyright 1995, Gaussian, Inc.),
 the Gaussian 92(TM) system (copyright 1992, Gaussian, Inc.),
 the Gaussian 90(TM) system (copyright 1990, Gaussian, Inc.),
 the Gaussian 88(TM) system (copyright 1988, Gaussian, Inc.),
 the Gaussian 86(TM) system (copyright 1986, Carnegie Mellon
 University), and the Gaussian 82(TM) system (copyright 1983,
 Carnegie Mellon University). Gaussian is a federally registered
 trademark of Gaussian, Inc.
  
 This software contains proprietary and confidential information,
 including trade secrets, belonging to Gaussian, Inc.
  
 This software is provided under written license and may be
 used, copied, transmitted, or stored only in accord with that
 written license.
  
 The following legend is applicable only to US Government
 contracts under FAR:
  
                    RESTRICTED RIGHTS LEGEND
  
 Use, reproduction and disclosure by the US Government is
 subject to restrictions as set forth in subparagraphs (a)
 and (c) of the Commercial Computer Software - Restricted
 Rights clause in FAR 52.227-19.
  
 Gaussian, Inc.
 340 Quinnipiac St., Bldg. 40, Wallingford CT 06492
  
  
 ---------------------------------------------------------------
 Warning -- This program may not be used in any manner that
 competes with the business of Gaussian, Inc. or will provide
 assistance to any competitor of Gaussian, Inc.  The licensee
 of this program is prohibited from giving any competitor of
 Gaussian, Inc. access to this program.  By using this program,
 the user acknowledges that Gaussian, Inc. is engaged in the
 business of creating and licensing software in the field of
 computational chemistry and represents and warrants to the
 licensee that it is not a competitor of Gaussian, Inc. and that
 it will not use this program in any manner prohibited above.
 ---------------------------------------------------------------
  

 Cite this work as:
 Gaussian 09, Revision D.01,
 M. J. Frisch, G. W. Trucks, H. B. Schlegel, G. E. Scuseria, 
 M. A. Robb, J. R. Cheeseman, G. Scalmani, V. Barone, B. Mennucci, 
 G. A. Petersson, H. Nakatsuji, M. Caricato, X. Li, H. P. Hratchian, 
 A. F. Izmaylov, J. Bloino, G. Zheng, J. L. Sonnenberg, M. Hada, 
 M. Ehara, K. Toyota, R. Fukuda, J. Hasegawa, M. Ishida, T. Nakajima, 
 Y. Honda, O. Kitao, H. Nakai, T. Vreven, J. A. Montgomery, Jr., 
 J. E. Peralta, F. Ogliaro, M. Bearpark, J. J. Heyd, E. Brothers, 
 K. N. Kudin, V. N. Staroverov, T. Keith, R. Kobayashi, J. Normand, 
 K. Raghavachari, A. Rendell, J. C. Burant, S. S. Iyengar, J. Tomasi, 
 M. Cossi, N. Rega, J. M. Millam, M. Klene, J. E. Knox, J. B. Cross, 
 V. Bakken, C. Adamo, J. Jaramillo, R. Gomperts, R. E. Stratmann, 
 O. Yazyev, A. J. Austin, R. Cammi, C. Pomelli, J. W. Ochterski, 
 R. L. Martin, K. Morokuma, V. G. Zakrzewski, G. A. Voth, 
 P. Salvador, J. J. Dannenberg, S. Dapprich, A. D. Daniels, 
 O. Farkas, J. B. Foresman, J. V. Ortiz, J. Cioslowski, 
 and D. J. Fox, Gaussian, Inc., Wallingford CT, 2013.
 
 ******************************************
 Gaussian 09:  ES64L-G09RevD.01 24-Apr-2013
                24-Jul-2021 
 ******************************************
 %mem=2gb
 %nproc=4
 Will use up to    4 processors via shared memory.
 %chk=conf-273.chk
 ----------------------------------------------------------------------
 # B3LYP/6-311G(2df,2pd) EmpiricalDispersion=GD3BJ opt=calcfc freq=nora
 man nosymm integral(ultrafinegrid)
 ----------------------------------------------------------------------
 1/10=4,14=-1,18=20,19=15,26=4,38=1/1,3;
 2/9=110,12=2,15=1,17=6,18=5,40=1/2;
 3/5=4,6=6,7=404,11=2,16=1,25=1,30=1,71=2,74=-5,75=-5,124=41,140=1/1,2,3;
 4//1;
 5/5=2,38=5/2;
 8/6=4,10=90,11=11/1;
 11/6=1,8=1,9=11,15=111,16=1,31=1/1,2,10;
 10/6=1,13=1,31=1/2;
 6/7=2,8=2,9=2,10=2,28=1/1;
 7/10=1,18=20,25=1,30=1/1,2,3,16;
 1/10=4,14=-1,18=20,19=15,26=4/3(2);
 2/9=110,15=1/2;
 99//99;
 2/9=110,15=1/2;
 3/5=4,6=6,7=404,11=2,16=1,25=1,30=1,71=1,74=-5,75=-5,124=41/1,2,3;
 4/5=5,16=3,69=1/1;
 5/5=2,38=5/2;
 7/30=1/1,2,3,16;
 1/14=-1,18=20,19=15,26=4/3(-5);
 2/9=110,15=1/2;
 6/7=2,8=2,9=2,10=2,19=2,28=1/1;
 99/9=1/99;
 ------------------------------------------------------------
 Candidate Structure: Conf:273 OPT and FREQ calc in gas phase
 ------------------------------------------------------------
 Symbolic Z-matrix:
 Charge =  0 Multiplicity = 1
 O                     0.4812   -1.43972   1.72308 
 C                     0.87057  -0.53629   0.98255 
 N                     0.37138  -0.40017  -0.26514 
 C                    -0.75721  -1.20762  -0.73001 
 C                    -0.28914  -2.59703  -1.19228 
 O                     0.31533  -3.3194   -0.24345 
 O                    -0.45011  -3.01646  -2.30615 
 C                    -1.5072   -0.49074  -1.84649 
 C                    -2.27544   0.70244  -1.37059 
 C                    -2.84205   1.05063  -0.17757 
 N                    -3.45652   2.28666  -0.27192 
 C                    -3.26679   2.67362  -1.51053 
 N                    -2.55969   1.75405  -2.21919 
 C                     1.89393   0.48386   1.40872 
 C                     2.97956  -0.12216   2.28608 
 N                     3.8968    0.93726   2.718 
 H                     0.69071   0.34962  -0.85265 
 H                    -1.42108  -1.35943   0.12342 
 H                     0.33923  -2.81473   0.59778 
 H                    -2.17872  -1.20279  -2.32839 
 H                    -0.79593  -0.19651  -2.61834 
 H                    -2.8511    0.49833   0.75013 
 H                    -3.61409   3.59393  -1.94694 
 H                    -2.28316   1.82072  -3.18404 
 H                     2.33103   0.96023   0.52862 
 H                     1.38125   1.26432   1.97735 
 H                     2.50784  -0.56404   3.1651 
 H                     3.4804   -0.9333    1.74249 
 H                     4.56161   0.56728   3.38681 
 H                     4.44738   1.25773   1.92958 
 

 GradGradGradGradGradGradGradGradGradGradGradGradGradGradGradGradGradGrad
 Berny optimization.
 Initialization pass.
                           ----------------------------
                           !    Initial Parameters    !
                           ! (Angstroms and Degrees)  !
 --------------------------                            --------------------------
 ! Name  Definition              Value          Derivative Info.                !
 --------------------------------------------------------------------------------
 ! R1    R(1,2)                  1.2313         calculate D2E/DX2 analytically  !
 ! R2    R(2,3)                  1.3507         calculate D2E/DX2 analytically  !
 ! R3    R(2,14)                 1.5065         calculate D2E/DX2 analytically  !
 ! R4    R(3,4)                  1.4635         calculate D2E/DX2 analytically  !
 ! R5    R(3,17)                 1.0047         calculate D2E/DX2 analytically  !
 ! R6    R(4,5)                  1.5373         calculate D2E/DX2 analytically  !
 ! R7    R(4,8)                  1.5241         calculate D2E/DX2 analytically  !
 ! R8    R(4,18)                 1.0918         calculate D2E/DX2 analytically  !
 ! R9    R(5,6)                  1.337          calculate D2E/DX2 analytically  !
 ! R10   R(5,7)                  1.2011         calculate D2E/DX2 analytically  !
 ! R11   R(6,19)                 0.9813         calculate D2E/DX2 analytically  !
 ! R12   R(8,9)                  1.4968         calculate D2E/DX2 analytically  !
 ! R13   R(8,20)                 1.091          calculate D2E/DX2 analytically  !
 ! R14   R(8,21)                 1.0901         calculate D2E/DX2 analytically  !
 ! R15   R(9,10)                 1.3659         calculate D2E/DX2 analytically  !
 ! R16   R(9,13)                 1.3809         calculate D2E/DX2 analytically  !
 ! R17   R(10,11)                1.3836         calculate D2E/DX2 analytically  !
 ! R18   R(10,22)                1.0797         calculate D2E/DX2 analytically  !
 ! R19   R(11,12)                1.3114         calculate D2E/DX2 analytically  !
 ! R20   R(12,13)                1.3593         calculate D2E/DX2 analytically  !
 ! R21   R(12,23)                1.0761         calculate D2E/DX2 analytically  !
 ! R22   R(13,24)                1.0059         calculate D2E/DX2 analytically  !
 ! R23   R(14,15)                1.5217         calculate D2E/DX2 analytically  !
 ! R24   R(14,25)                1.092          calculate D2E/DX2 analytically  !
 ! R25   R(14,26)                1.0933         calculate D2E/DX2 analytically  !
 ! R26   R(15,16)                1.4664         calculate D2E/DX2 analytically  !
 ! R27   R(15,27)                1.0911         calculate D2E/DX2 analytically  !
 ! R28   R(15,28)                1.0974         calculate D2E/DX2 analytically  !
 ! R29   R(16,29)                1.013          calculate D2E/DX2 analytically  !
 ! R30   R(16,30)                1.0136         calculate D2E/DX2 analytically  !
 ! A1    A(1,2,3)              120.8376         calculate D2E/DX2 analytically  !
 ! A2    A(1,2,14)             122.7858         calculate D2E/DX2 analytically  !
 ! A3    A(3,2,14)             116.3669         calculate D2E/DX2 analytically  !
 ! A4    A(2,3,4)              121.5214         calculate D2E/DX2 analytically  !
 ! A5    A(2,3,17)             119.8628         calculate D2E/DX2 analytically  !
 ! A6    A(4,3,17)             118.1074         calculate D2E/DX2 analytically  !
 ! A7    A(3,4,5)              111.0619         calculate D2E/DX2 analytically  !
 ! A8    A(3,4,8)              110.6495         calculate D2E/DX2 analytically  !
 ! A9    A(3,4,18)             107.2961         calculate D2E/DX2 analytically  !
 ! A10   A(5,4,8)              110.7731         calculate D2E/DX2 analytically  !
 ! A11   A(5,4,18)             107.1284         calculate D2E/DX2 analytically  !
 ! A12   A(8,4,18)             109.8029         calculate D2E/DX2 analytically  !
 ! A13   A(4,5,6)              114.3675         calculate D2E/DX2 analytically  !
 ! A14   A(4,5,7)              123.6204         calculate D2E/DX2 analytically  !
 ! A15   A(6,5,7)              122.0113         calculate D2E/DX2 analytically  !
 ! A16   A(5,6,19)             109.9703         calculate D2E/DX2 analytically  !
 ! A17   A(4,8,9)              113.2417         calculate D2E/DX2 analytically  !
 ! A18   A(4,8,20)             108.631          calculate D2E/DX2 analytically  !
 ! A19   A(4,8,21)             108.9394         calculate D2E/DX2 analytically  !
 ! A20   A(9,8,20)             110.1707         calculate D2E/DX2 analytically  !
 ! A21   A(9,8,21)             110.1741         calculate D2E/DX2 analytically  !
 ! A22   A(20,8,21)            105.3689         calculate D2E/DX2 analytically  !
 ! A23   A(8,9,10)             133.9358         calculate D2E/DX2 analytically  !
 ! A24   A(8,9,13)             121.1542         calculate D2E/DX2 analytically  !
 ! A25   A(10,9,13)            104.9065         calculate D2E/DX2 analytically  !
 ! A26   A(9,10,11)            110.6353         calculate D2E/DX2 analytically  !
 ! A27   A(9,10,22)            128.5771         calculate D2E/DX2 analytically  !
 ! A28   A(11,10,22)           120.7875         calculate D2E/DX2 analytically  !
 ! A29   A(10,11,12)           105.2927         calculate D2E/DX2 analytically  !
 ! A30   A(11,12,13)           111.594          calculate D2E/DX2 analytically  !
 ! A31   A(11,12,23)           126.0626         calculate D2E/DX2 analytically  !
 ! A32   A(13,12,23)           122.3432         calculate D2E/DX2 analytically  !
 ! A33   A(9,13,12)            107.5703         calculate D2E/DX2 analytically  !
 ! A34   A(9,13,24)            125.686          calculate D2E/DX2 analytically  !
 ! A35   A(12,13,24)           126.7424         calculate D2E/DX2 analytically  !
 ! A36   A(2,14,15)            112.2127         calculate D2E/DX2 analytically  !
 ! A37   A(2,14,25)            109.8338         calculate D2E/DX2 analytically  !
 ! A38   A(2,14,26)            108.1789         calculate D2E/DX2 analytically  !
 ! A39   A(15,14,25)           110.6605         calculate D2E/DX2 analytically  !
 ! A40   A(15,14,26)           108.6005         calculate D2E/DX2 analytically  !
 ! A41   A(25,14,26)           107.1854         calculate D2E/DX2 analytically  !
 ! A42   A(14,15,16)           109.169          calculate D2E/DX2 analytically  !
 ! A43   A(14,15,27)           108.5023         calculate D2E/DX2 analytically  !
 ! A44   A(14,15,28)           109.5343         calculate D2E/DX2 analytically  !
 ! A45   A(16,15,27)           109.0103         calculate D2E/DX2 analytically  !
 ! A46   A(16,15,28)           113.2315         calculate D2E/DX2 analytically  !
 ! A47   A(27,15,28)           107.2794         calculate D2E/DX2 analytically  !
 ! A48   A(15,16,29)           109.9443         calculate D2E/DX2 analytically  !
 ! A49   A(15,16,30)           109.8204         calculate D2E/DX2 analytically  !
 ! A50   A(29,16,30)           105.8152         calculate D2E/DX2 analytically  !
 ! D1    D(1,2,3,4)              7.5256         calculate D2E/DX2 analytically  !
 ! D2    D(1,2,3,17)           179.1912         calculate D2E/DX2 analytically  !
 ! D3    D(14,2,3,4)          -171.3709         calculate D2E/DX2 analytically  !
 ! D4    D(14,2,3,17)            0.2946         calculate D2E/DX2 analytically  !
 ! D5    D(1,2,14,15)           37.429          calculate D2E/DX2 analytically  !
 ! D6    D(1,2,14,25)          160.9631         calculate D2E/DX2 analytically  !
 ! D7    D(1,2,14,26)          -82.3549         calculate D2E/DX2 analytically  !
 ! D8    D(3,2,14,15)         -143.698          calculate D2E/DX2 analytically  !
 ! D9    D(3,2,14,25)          -20.1639         calculate D2E/DX2 analytically  !
 ! D10   D(3,2,14,26)           96.5181         calculate D2E/DX2 analytically  !
 ! D11   D(2,3,4,5)            -81.7802         calculate D2E/DX2 analytically  !
 ! D12   D(2,3,4,8)            154.7647         calculate D2E/DX2 analytically  !
 ! D13   D(2,3,4,18)            34.9931         calculate D2E/DX2 analytically  !
 ! D14   D(17,3,4,5)           106.413          calculate D2E/DX2 analytically  !
 ! D15   D(17,3,4,8)           -17.0421         calculate D2E/DX2 analytically  !
 ! D16   D(17,3,4,18)         -136.8136         calculate D2E/DX2 analytically  !
 ! D17   D(3,4,5,6)             60.0601         calculate D2E/DX2 analytically  !
 ! D18   D(3,4,5,7)           -120.2636         calculate D2E/DX2 analytically  !
 ! D19   D(8,4,5,6)           -176.5556         calculate D2E/DX2 analytically  !
 ! D20   D(8,4,5,7)              3.1206         calculate D2E/DX2 analytically  !
 ! D21   D(18,4,5,6)           -56.816          calculate D2E/DX2 analytically  !
 ! D22   D(18,4,5,7)           122.8603         calculate D2E/DX2 analytically  !
 ! D23   D(3,4,8,9)            -70.7009         calculate D2E/DX2 analytically  !
 ! D24   D(3,4,8,20)           166.5599         calculate D2E/DX2 analytically  !
 ! D25   D(3,4,8,21)            52.268          calculate D2E/DX2 analytically  !
 ! D26   D(5,4,8,9)            165.6775         calculate D2E/DX2 analytically  !
 ! D27   D(5,4,8,20)            42.9384         calculate D2E/DX2 analytically  !
 ! D28   D(5,4,8,21)           -71.3536         calculate D2E/DX2 analytically  !
 ! D29   D(18,4,8,9)            47.5538         calculate D2E/DX2 analytically  !
 ! D30   D(18,4,8,20)          -75.1853         calculate D2E/DX2 analytically  !
 ! D31   D(18,4,8,21)          170.5227         calculate D2E/DX2 analytically  !
 ! D32   D(4,5,6,19)             0.5789         calculate D2E/DX2 analytically  !
 ! D33   D(7,5,6,19)          -179.1032         calculate D2E/DX2 analytically  !
 ! D34   D(4,8,9,10)           -26.9919         calculate D2E/DX2 analytically  !
 ! D35   D(4,8,9,13)           153.7973         calculate D2E/DX2 analytically  !
 ! D36   D(20,8,9,10)           94.8898         calculate D2E/DX2 analytically  !
 ! D37   D(20,8,9,13)          -84.3209         calculate D2E/DX2 analytically  !
 ! D38   D(21,8,9,10)         -149.2757         calculate D2E/DX2 analytically  !
 ! D39   D(21,8,9,13)           31.5136         calculate D2E/DX2 analytically  !
 ! D40   D(8,9,10,11)         -179.6436         calculate D2E/DX2 analytically  !
 ! D41   D(8,9,10,22)            0.4783         calculate D2E/DX2 analytically  !
 ! D42   D(13,9,10,11)          -0.3425         calculate D2E/DX2 analytically  !
 ! D43   D(13,9,10,22)         179.7794         calculate D2E/DX2 analytically  !
 ! D44   D(8,9,13,12)          179.6556         calculate D2E/DX2 analytically  !
 ! D45   D(8,9,13,24)           -0.7376         calculate D2E/DX2 analytically  !
 ! D46   D(10,9,13,12)           0.2438         calculate D2E/DX2 analytically  !
 ! D47   D(10,9,13,24)         179.8506         calculate D2E/DX2 analytically  !
 ! D48   D(9,10,11,12)           0.3093         calculate D2E/DX2 analytically  !
 ! D49   D(22,10,11,12)       -179.8017         calculate D2E/DX2 analytically  !
 ! D50   D(10,11,12,13)         -0.1475         calculate D2E/DX2 analytically  !
 ! D51   D(10,11,12,23)        179.6907         calculate D2E/DX2 analytically  !
 ! D52   D(11,12,13,9)          -0.0609         calculate D2E/DX2 analytically  !
 ! D53   D(11,12,13,24)       -179.6624         calculate D2E/DX2 analytically  !
 ! D54   D(23,12,13,9)        -179.9061         calculate D2E/DX2 analytically  !
 ! D55   D(23,12,13,24)          0.4924         calculate D2E/DX2 analytically  !
 ! D56   D(2,14,15,16)        -177.0867         calculate D2E/DX2 analytically  !
 ! D57   D(2,14,15,27)         -58.4021         calculate D2E/DX2 analytically  !
 ! D58   D(2,14,15,28)          58.4108         calculate D2E/DX2 analytically  !
 ! D59   D(25,14,15,16)         59.8434         calculate D2E/DX2 analytically  !
 ! D60   D(25,14,15,27)        178.5279         calculate D2E/DX2 analytically  !
 ! D61   D(25,14,15,28)        -64.6592         calculate D2E/DX2 analytically  !
 ! D62   D(26,14,15,16)        -57.549          calculate D2E/DX2 analytically  !
 ! D63   D(26,14,15,27)         61.1356         calculate D2E/DX2 analytically  !
 ! D64   D(26,14,15,28)        177.9485         calculate D2E/DX2 analytically  !
 ! D65   D(14,15,16,29)        173.5694         calculate D2E/DX2 analytically  !
 ! D66   D(14,15,16,30)        -70.3925         calculate D2E/DX2 analytically  !
 ! D67   D(27,15,16,29)         55.2023         calculate D2E/DX2 analytically  !
 ! D68   D(27,15,16,30)        171.2403         calculate D2E/DX2 analytically  !
 ! D69   D(28,15,16,29)        -64.1236         calculate D2E/DX2 analytically  !
 ! D70   D(28,15,16,30)         51.9144         calculate D2E/DX2 analytically  !
 --------------------------------------------------------------------------------
 Trust Radius=3.00D-01 FncErr=1.00D-07 GrdErr=1.00D-06
 Number of steps in this run=    160 maximum allowed number of steps=    180.
 GradGradGradGradGradGradGradGradGradGradGradGradGradGradGradGradGradGrad

                          Input orientation:                          
 ---------------------------------------------------------------------
 Center     Atomic      Atomic             Coordinates (Angstroms)
 Number     Number       Type             X           Y           Z
 ---------------------------------------------------------------------
      1          8           0        0.481202   -1.439721    1.723084
      2          6           0        0.870569   -0.536285    0.982547
      3          7           0        0.371376   -0.400166   -0.265140
      4          6           0       -0.757209   -1.207622   -0.730012
      5          6           0       -0.289136   -2.597034   -1.192279
      6          8           0        0.315334   -3.319401   -0.243452
      7          8           0       -0.450114   -3.016463   -2.306155
      8          6           0       -1.507203   -0.490736   -1.846491
      9          6           0       -2.275445    0.702441   -1.370589
     10          6           0       -2.842052    1.050633   -0.177570
     11          7           0       -3.456524    2.286661   -0.271915
     12          6           0       -3.266792    2.673623   -1.510526
     13          7           0       -2.559690    1.754054   -2.219192
     14          6           0        1.893930    0.483862    1.408723
     15          6           0        2.979560   -0.122160    2.286081
     16          7           0        3.896800    0.937264    2.718000
     17          1           0        0.690707    0.349622   -0.852654
     18          1           0       -1.421075   -1.359428    0.123420
     19          1           0        0.339230   -2.814735    0.597781
     20          1           0       -2.178716   -1.202789   -2.328392
     21          1           0       -0.795931   -0.196509   -2.618341
     22          1           0       -2.851101    0.498330    0.750134
     23          1           0       -3.614090    3.593930   -1.946937
     24          1           0       -2.283164    1.820720   -3.184039
     25          1           0        2.331031    0.960230    0.528621
     26          1           0        1.381250    1.264319    1.977355
     27          1           0        2.507837   -0.564041    3.165097
     28          1           0        3.480396   -0.933305    1.742493
     29          1           0        4.561608    0.567281    3.386808
     30          1           0        4.447377    1.257728    1.929579
 ---------------------------------------------------------------------
                    Distance matrix (angstroms):
                    1          2          3          4          5
     1  O    0.000000
     2  C    1.231340   0.000000
     3  N    2.246280   1.350721   0.000000
     4  C    2.757755   2.456260   1.463488   0.000000
     5  C    3.229882   3.212705   2.474287   1.537286   0.000000
     6  O    2.725431   3.091455   2.919854   2.417995   1.336963
     7  O    4.425860   4.325627   3.418421   2.418768   1.201064
     8  C    4.194782   3.695854   2.457221   1.524120   2.519559
     9  C    4.664631   4.119357   3.073015   2.522642   3.855354
    10  C    4.567096   4.200921   3.526840   3.122736   4.566453
    11  N    5.776819   5.316619   4.676741   4.439163   5.893208
    12  C    6.436093   5.799714   4.922949   4.687352   6.061975
    13  N    5.915131   5.221443   4.129180   3.773344   5.014174
    14  C    2.407239   1.506518   2.429299   3.803137   4.585075
    15  C    2.880056   2.513671   3.659049   4.923260   5.376650
    16  N    4.278577   3.786980   4.807958   6.176497   6.730795
    17  H    3.143258   2.045763   1.004653   2.129909   3.123815
    18  H    2.486772   2.582111   2.069793   1.091838   2.131671
    19  H    1.782449   2.371012   2.564334   2.355424   1.909595
    20  H    4.852398   4.550240   3.377008   2.139047   2.608675
    21  H    4.693040   3.982345   2.634699   2.142344   2.837784
    22  H    3.975792   3.869790   3.496060   3.079852   4.462949
    23  H    7.455074   6.764076   5.887714   5.718180   7.067735
    24  H    6.507846   5.732535   4.527570   4.185887   5.240211
    25  H    3.257049   2.139756   2.514156   3.977558   4.741403
    26  H    2.861218   2.119578   2.969703   4.244212   5.267525
    27  H    2.636942   2.728541   4.044483   5.123143   5.562629
    28  H    3.041710   2.747060   3.739096   4.913841   5.058681
    29  H    4.842080   4.541156   5.641872   6.956170   7.383132
    30  H    4.800980   4.112044   4.917234   6.343429   6.858553
                    6          7          8          9         10
     6  O    0.000000
     7  O    2.220906   0.000000
     8  C    3.727294   2.776333   0.000000
     9  C    4.915057   4.247042   1.496780   0.000000
    10  C    5.391718   5.176245   2.634945   1.365861   0.000000
    11  N    6.756897   6.426489   3.740732   2.260926   1.383561
    12  C    7.096015   6.398732   3.636233   2.210861   2.142725
    13  N    6.157049   5.216868   2.507133   1.380874   2.177785
    14  C    4.436943   5.616685   4.807699   5.015580   5.026637
    15  C    4.870215   6.420926   6.111059   6.454942   6.429322
    16  N    6.302087   7.731090   7.216440   7.407314   7.335482
    17  H    3.738150   3.839879   2.554354   3.031633   3.664361
    18  H    2.644089   3.096993   2.154668   2.685762   2.813923
    19  H    0.981292   3.016058   3.845094   4.804324   5.065845
    20  H    3.879085   2.505588   1.090953   2.134630   3.184959
    21  H    4.077678   2.858180   1.090059   2.134000   3.420429
    22  H    5.058517   5.240173   3.086547   2.206923   1.079701
    23  H    8.132428   7.337376   4.597125   3.238033   3.192971
    24  H    6.466846   5.246818   2.781003   2.130542   3.153450
    25  H    4.793159   5.620037   4.741150   4.989296   5.221845
    26  H    5.203715   6.326725   5.103447   4.989574   4.746118
    27  H    4.900744   6.685690   6.421988   6.712392   6.511674
    28  H    4.433402   6.014983   6.160586   6.745121   6.898986
    29  H    6.805581   8.388707   8.083148   8.330449   8.231196
    30  H    6.538039   7.758581   7.264493   7.509713   7.590701
                   11         12         13         14         15
    11  N    0.000000
    12  C    1.311447   0.000000
    13  N    2.209042   1.359341   0.000000
    14  C    5.890839   6.320611   5.883017   0.000000
    15  C    7.332730   7.826080   7.382476   1.521713   0.000000
    16  N    8.051822   8.497789   8.168798   2.435419   1.466377
    17  H    4.613990   4.636332   3.795384   2.565072   3.913194
    18  H    4.194438   4.726727   4.059316   4.004871   5.057027
    19  H    6.417815   6.897131   6.100238   3.735701   4.131786
    20  H    4.247135   4.108453   2.983285   5.779037   7.004922
    21  H    4.330197   3.945892   2.659861   4.890349   6.189767
    22  H    2.146916   3.164693   3.237076   4.790540   6.061415
    23  H    2.130605   1.076121   2.137996   7.160395   8.672023
    24  H    3.174010   2.120286   1.005903   6.350494   7.835385
    25  H    5.991333   6.199150   5.665667   1.092045   2.163521
    26  H    5.432168   5.979610   5.777703   1.093296   2.138277
    27  H    7.450715   8.104952   7.748804   2.135376   1.091078
    28  H    7.908659   8.313640   7.707106   2.153286   1.097397
    29  H    8.979586   9.471241   9.140490   3.322090   2.046901
    30  H    8.269034   8.564314   8.158286   2.718501   2.045892
                   16         17         18         19         20
    16  N    0.000000
    17  H    4.834659   0.000000
    18  H    6.347160   2.886728   0.000000
    19  H    5.588302   3.498636   2.332726   0.000000
    20  H    8.182774   3.580694   2.570980   4.183409   0.000000
    21  H    7.196090   2.371920   3.043097   4.299667   1.734578
    22  H    7.042679   3.890431   2.426728   4.601936   3.580954
    23  H    9.232171   5.500388   5.799263   7.948290   5.021387
    24  H    8.591072   4.055046   4.668600   6.531964   3.143986
    25  H    2.691754   2.229669   4.429820   4.268772   5.760121
    26  H    2.642634   3.053272   4.263115   4.430317   6.107326
    27  H    2.093569   4.503228   5.031977   4.044699   7.249151
    28  H    2.150356   4.020330   5.179518   3.836284   6.976409
    29  H    1.012996   5.744936   7.081978   6.086475   9.012692
    30  H    1.013627   4.762147   6.674612   5.935951   8.251640
                   21         22         23         24         25
    21  H    0.000000
    22  H    4.006638   0.000000
    23  H    4.770769   4.176013   0.000000
    24  H    2.569259   4.189151   2.538909   0.000000
    25  H    4.584682   5.207390   6.957674   5.984571   0.000000
    26  H    5.290989   4.472763   6.766134   6.354329   1.758802
    27  H    6.670691   5.973181   8.994420   8.303752   3.050519
    28  H    6.151969   6.566751   9.189096   8.066846   2.525866
    29  H    8.083837   7.867977  10.220150   9.570687   3.646795
    30  H    7.091591   7.432063   9.245132   8.471495   2.555408
                   26         27         28         29         30
    26  H    0.000000
    27  H    2.454145   0.000000
    28  H    3.048135   1.762393   0.000000
    29  H    3.547830   2.355211   2.474782   0.000000
    30  H    3.066506   2.933797   2.402223   1.616565   0.000000
 Symmetry turned off by external request.
 Stoichiometry    C9H14N4O3
 Framework group  C1[X(C9H14N4O3)]
 Deg. of freedom    84
 Full point group                 C1      NOp   1
 Rotational constants (GHZ):      0.6081288      0.3132744      0.2274180
 Standard basis: 6-311G(2df,2pd) (5D, 7F)
   676 basis functions,  1006 primitive gaussians,   770 cartesian basis functions
    60 alpha electrons       60 beta electrons
       nuclear repulsion energy      1109.6886056220 Hartrees.
 NAtoms=   30 NActive=   30 NUniq=   30 SFac= 1.00D+00 NAtFMM=   60 NAOKFM=F Big=F
 Integral buffers will be    131072 words long.
 Raffenetti 2 integral format.
 Two-electron integral symmetry is turned off.
 Nuclear repulsion after empirical dispersion term =     1109.6350884491 Hartrees.
 One-electron integrals computed using PRISM.
 NBasis=   676 RedAO= T EigKep=  1.57D-04  NBF=   676
 NBsUse=   676 1.00D-06 EigRej= -1.00D+00 NBFU=   676
 ExpMin= 1.03D-01 ExpMax= 8.59D+03 ExpMxC= 1.30D+03 IAcc=3 IRadAn=         5 AccDes= 0.00D+00
 Harris functional with IExCor=  402 and IRadAn=       5 diagonalized for initial guess.
 HarFok:  IExCor=  402 AccDes= 0.00D+00 IRadAn=         5 IDoV= 1 UseB2=F ITyADJ=14
 ICtDFT=  3500011 ScaDFX=  1.000000  1.000000  1.000000  1.000000
 FoFCou: FMM=F IPFlag=           0 FMFlag=      100000 FMFlg1=           0
         NFxFlg=           0 DoJE=T BraDBF=F KetDBF=T FulRan=T
         wScrn=  0.000000 ICntrl=     500 IOpCl=  0 I1Cent=   200000004 NGrid=           0
         NMat0=    1 NMatS0=      1 NMatT0=    0 NMatD0=    1 NMtDS0=    0 NMtDT0=    0
 Symmetry not used in FoFCou.
 Requested convergence on RMS density matrix=1.00D-08 within 128 cycles.
 Requested convergence on MAX density matrix=1.00D-06.
 Requested convergence on             energy=1.00D-06.
 No special actions if energy rises.
 Integral accuracy reduced to 1.0D-05 until final iterations.
 Initial convergence to 1.0D-05 achieved.  Increase integral accuracy.
 SCF Done:  E(RB3LYP) =  -796.414269021     A.U. after   13 cycles
            NFock= 13  Conv=0.62D-08     -V/T= 2.0037
 DoSCS=F DFT=T ScalE2(SS,OS)=  1.000000  1.000000
 Range of M.O.s used for correlation:     1   676
 NBasis=   676 NAE=    60 NBE=    60 NFC=     0 NFV=     0
 NROrb=    676 NOA=    60 NOB=    60 NVA=   616 NVB=   616

 **** Warning!!: The largest alpha MO coefficient is  0.12543241D+02

 Symmetrizing basis deriv contribution to polar:
 IMax=3 JMax=2 DiffMx= 0.00D+00
 G2DrvN: will do    31 centers at a time, making    1 passes.
 Calling FoFCou, ICntrl=  3107 FMM=F I1Cent=   0 AccDes= 0.00D+00.
 End of G2Drv F.D. properties file   721 does not exist.
 End of G2Drv F.D. properties file   722 does not exist.
 End of G2Drv F.D. properties file   788 does not exist.
          IDoAtm=111111111111111111111111111111
          Differentiating once with respect to nuclear coordinates.
          There are    93 degrees of freedom in the 1st order CPHF.  IDoFFX=6 NUNeed=     0.
     87 vectors produced by pass  0 Test12= 3.97D-14 1.08D-09 XBig12= 2.05D-01 9.45D-02.
 AX will form    87 AO Fock derivatives at one time.
     87 vectors produced by pass  1 Test12= 3.97D-14 1.08D-09 XBig12= 1.11D-02 2.12D-02.
     87 vectors produced by pass  2 Test12= 3.97D-14 1.08D-09 XBig12= 1.56D-04 2.04D-03.
     87 vectors produced by pass  3 Test12= 3.97D-14 1.08D-09 XBig12= 8.60D-07 1.17D-04.
     87 vectors produced by pass  4 Test12= 3.97D-14 1.08D-09 XBig12= 2.16D-09 5.22D-06.
     86 vectors produced by pass  5 Test12= 3.97D-14 1.08D-09 XBig12= 3.94D-12 2.45D-07.
     41 vectors produced by pass  6 Test12= 3.97D-14 1.08D-09 XBig12= 5.06D-15 7.27D-09.
      1 vectors produced by pass  7 Test12= 3.97D-14 1.08D-09 XBig12= 3.38D-16 1.19D-09.
 InvSVY:  IOpt=1 It=  1 EMax= 6.11D-16
 Solved reduced A of dimension   563 with    93 vectors.
 End of Minotr F.D. properties file   721 does not exist.
 End of Minotr F.D. properties file   722 does not exist.
 End of Minotr F.D. properties file   788 does not exist.

 **********************************************************************

            Population analysis using the SCF density.

 **********************************************************************

 Alpha  occ. eigenvalues --  -19.15149 -19.11610 -19.10551 -14.37579 -14.36962
 Alpha  occ. eigenvalues --  -14.29929 -14.29405 -10.30016 -10.29780 -10.24576
 Alpha  occ. eigenvalues --  -10.22739 -10.21381 -10.20616 -10.20592 -10.19578
 Alpha  occ. eigenvalues --  -10.18601  -1.10216  -1.06958  -1.02563  -1.02008
 Alpha  occ. eigenvalues --   -0.95959  -0.89684  -0.87957  -0.82457  -0.78085
 Alpha  occ. eigenvalues --   -0.74647  -0.68683  -0.65053  -0.62590  -0.61481
 Alpha  occ. eigenvalues --   -0.61054  -0.59775  -0.56740  -0.53925  -0.53216
 Alpha  occ. eigenvalues --   -0.51843  -0.50450  -0.47695  -0.46573  -0.46304
 Alpha  occ. eigenvalues --   -0.45114  -0.44523  -0.43912  -0.43362  -0.42892
 Alpha  occ. eigenvalues --   -0.42012  -0.41732  -0.40492  -0.39650  -0.37892
 Alpha  occ. eigenvalues --   -0.37633  -0.36702  -0.31973  -0.31146  -0.29297
 Alpha  occ. eigenvalues --   -0.29084  -0.27698  -0.27037  -0.25589  -0.23831
 Alpha virt. eigenvalues --   -0.01631   0.00105   0.01002   0.01255   0.02168
 Alpha virt. eigenvalues --    0.02938   0.04473   0.05074   0.05897   0.07368
 Alpha virt. eigenvalues --    0.07826   0.08029   0.09421   0.10284   0.11814
 Alpha virt. eigenvalues --    0.12687   0.13223   0.14183   0.17298   0.17495
 Alpha virt. eigenvalues --    0.18345   0.18950   0.19227   0.20341   0.21071
 Alpha virt. eigenvalues --    0.21229   0.23004   0.23999   0.25599   0.27874
 Alpha virt. eigenvalues --    0.28654   0.29750   0.30984   0.31452   0.31987
 Alpha virt. eigenvalues --    0.33061   0.33900   0.34138   0.34769   0.35100
 Alpha virt. eigenvalues --    0.35396   0.36641   0.37335   0.37535   0.38571
 Alpha virt. eigenvalues --    0.38812   0.39152   0.40437   0.41108   0.41859
 Alpha virt. eigenvalues --    0.42027   0.43858   0.44461   0.44867   0.45121
 Alpha virt. eigenvalues --    0.45946   0.46154   0.46603   0.47467   0.48183
 Alpha virt. eigenvalues --    0.48419   0.48585   0.49536   0.50117   0.50474
 Alpha virt. eigenvalues --    0.50669   0.51373   0.52641   0.53290   0.53703
 Alpha virt. eigenvalues --    0.54044   0.55719   0.55821   0.57065   0.57805
 Alpha virt. eigenvalues --    0.58407   0.58687   0.59202   0.59825   0.60439
 Alpha virt. eigenvalues --    0.61761   0.62470   0.63158   0.63705   0.65681
 Alpha virt. eigenvalues --    0.67098   0.67531   0.68606   0.68955   0.69436
 Alpha virt. eigenvalues --    0.70530   0.71053   0.72085   0.73073   0.73550
 Alpha virt. eigenvalues --    0.74475   0.74825   0.75988   0.77927   0.78241
 Alpha virt. eigenvalues --    0.79673   0.80671   0.82243   0.82273   0.83029
 Alpha virt. eigenvalues --    0.83886   0.85817   0.86999   0.87470   0.88667
 Alpha virt. eigenvalues --    0.89850   0.90605   0.92089   0.92408   0.93312
 Alpha virt. eigenvalues --    0.93684   0.94566   0.95126   0.95233   0.96563
 Alpha virt. eigenvalues --    0.97088   0.97234   0.98145   0.99802   1.00245
 Alpha virt. eigenvalues --    1.01472   1.02737   1.03187   1.03968   1.04709
 Alpha virt. eigenvalues --    1.05879   1.06687   1.07548   1.08253   1.09498
 Alpha virt. eigenvalues --    1.10092   1.11105   1.11495   1.12731   1.13050
 Alpha virt. eigenvalues --    1.14543   1.15088   1.16142   1.17213   1.17784
 Alpha virt. eigenvalues --    1.17962   1.19632   1.19935   1.20747   1.21427
 Alpha virt. eigenvalues --    1.22957   1.23029   1.23977   1.25122   1.25920
 Alpha virt. eigenvalues --    1.26452   1.26583   1.27399   1.29043   1.29580
 Alpha virt. eigenvalues --    1.30328   1.30477   1.31309   1.32129   1.32728
 Alpha virt. eigenvalues --    1.33006   1.33673   1.35058   1.35792   1.35878
 Alpha virt. eigenvalues --    1.36881   1.38028   1.38912   1.39388   1.40164
 Alpha virt. eigenvalues --    1.40763   1.41403   1.41652   1.42929   1.43511
 Alpha virt. eigenvalues --    1.44361   1.46131   1.47438   1.47620   1.49513
 Alpha virt. eigenvalues --    1.51473   1.53163   1.53527   1.54129   1.55198
 Alpha virt. eigenvalues --    1.57693   1.58358   1.60030   1.62109   1.62481
 Alpha virt. eigenvalues --    1.64154   1.64839   1.65017   1.66542   1.68399
 Alpha virt. eigenvalues --    1.69060   1.69918   1.70738   1.71680   1.73989
 Alpha virt. eigenvalues --    1.74353   1.77141   1.78528   1.79169   1.81674
 Alpha virt. eigenvalues --    1.83029   1.84250   1.85680   1.86457   1.87993
 Alpha virt. eigenvalues --    1.90011   1.92563   1.96866   1.98009   2.00953
 Alpha virt. eigenvalues --    2.01647   2.05070   2.07423   2.09768   2.13448
 Alpha virt. eigenvalues --    2.15125   2.18691   2.20838   2.22762   2.24371
 Alpha virt. eigenvalues --    2.30579   2.35782   2.37213   2.40409   2.43098
 Alpha virt. eigenvalues --    2.44772   2.49206   2.49757   2.50968   2.52789
 Alpha virt. eigenvalues --    2.55195   2.57679   2.58879   2.59191   2.61082
 Alpha virt. eigenvalues --    2.61928   2.62829   2.64320   2.65047   2.65834
 Alpha virt. eigenvalues --    2.66363   2.67403   2.69665   2.70814   2.71408
 Alpha virt. eigenvalues --    2.71565   2.72166   2.73150   2.74240   2.75001
 Alpha virt. eigenvalues --    2.76469   2.78524   2.79946   2.81581   2.81997
 Alpha virt. eigenvalues --    2.82825   2.83681   2.85865   2.86452   2.87252
 Alpha virt. eigenvalues --    2.88389   2.88767   2.89544   2.90929   2.91698
 Alpha virt. eigenvalues --    2.92040   2.93143   2.94571   2.95294   2.95951
 Alpha virt. eigenvalues --    2.97026   2.97200   2.98708   2.98929   3.00610
 Alpha virt. eigenvalues --    3.01125   3.01959   3.02270   3.03562   3.04628
 Alpha virt. eigenvalues --    3.04895   3.05489   3.05925   3.06726   3.06937
 Alpha virt. eigenvalues --    3.08399   3.09116   3.09714   3.09813   3.10880
 Alpha virt. eigenvalues --    3.11541   3.12203   3.13435   3.13445   3.15171
 Alpha virt. eigenvalues --    3.16029   3.16792   3.17527   3.17941   3.18989
 Alpha virt. eigenvalues --    3.20069   3.20780   3.22044   3.22284   3.22473
 Alpha virt. eigenvalues --    3.23058   3.24561   3.25106   3.25234   3.27466
 Alpha virt. eigenvalues --    3.27896   3.28390   3.29409   3.29678   3.30257
 Alpha virt. eigenvalues --    3.30713   3.31638   3.32646   3.33182   3.34001
 Alpha virt. eigenvalues --    3.34349   3.35039   3.35232   3.36264   3.37705
 Alpha virt. eigenvalues --    3.38249   3.38520   3.39072   3.40195   3.40828
 Alpha virt. eigenvalues --    3.41334   3.42162   3.43569   3.44143   3.44800
 Alpha virt. eigenvalues --    3.45836   3.46184   3.47164   3.47769   3.47999
 Alpha virt. eigenvalues --    3.49250   3.49919   3.50628   3.51816   3.52158
 Alpha virt. eigenvalues --    3.53050   3.53459   3.55091   3.56562   3.56814
 Alpha virt. eigenvalues --    3.57571   3.59010   3.59488   3.60056   3.61333
 Alpha virt. eigenvalues --    3.62284   3.63090   3.64354   3.64816   3.65749
 Alpha virt. eigenvalues --    3.66901   3.67129   3.67402   3.68226   3.69557
 Alpha virt. eigenvalues --    3.70546   3.71813   3.73270   3.74100   3.75274
 Alpha virt. eigenvalues --    3.76168   3.77266   3.78354   3.78642   3.79648
 Alpha virt. eigenvalues --    3.80999   3.81740   3.83052   3.83988   3.84736
 Alpha virt. eigenvalues --    3.85845   3.86158   3.87869   3.87928   3.89336
 Alpha virt. eigenvalues --    3.89546   3.90569   3.92007   3.92613   3.92997
 Alpha virt. eigenvalues --    3.93629   3.94209   3.94601   3.95786   3.97300
 Alpha virt. eigenvalues --    3.97632   3.98638   3.99301   3.99391   4.00849
 Alpha virt. eigenvalues --    4.01856   4.02407   4.03150   4.05151   4.05623
 Alpha virt. eigenvalues --    4.07193   4.07355   4.08819   4.09237   4.09572
 Alpha virt. eigenvalues --    4.09986   4.11761   4.12653   4.13516   4.14970
 Alpha virt. eigenvalues --    4.16070   4.19335   4.20085   4.21462   4.23423
 Alpha virt. eigenvalues --    4.23829   4.24749   4.25033   4.27655   4.28764
 Alpha virt. eigenvalues --    4.29758   4.32442   4.32737   4.33123   4.34075
 Alpha virt. eigenvalues --    4.35698   4.36320   4.37503   4.40033   4.41186
 Alpha virt. eigenvalues --    4.41645   4.44621   4.45743   4.47741   4.48476
 Alpha virt. eigenvalues --    4.49562   4.50432   4.51778   4.52889   4.54446
 Alpha virt. eigenvalues --    4.55764   4.59129   4.60037   4.60923   4.62412
 Alpha virt. eigenvalues --    4.64254   4.67194   4.68314   4.69547   4.71261
 Alpha virt. eigenvalues --    4.73301   4.75228   4.76919   4.77472   4.79655
 Alpha virt. eigenvalues --    4.81097   4.82856   4.83864   4.84527   4.86269
 Alpha virt. eigenvalues --    4.87899   4.87973   4.90598   4.90843   4.91408
 Alpha virt. eigenvalues --    4.92641   4.94758   4.95746   4.96068   4.96328
 Alpha virt. eigenvalues --    4.96886   4.99124   5.00633   5.01979   5.02697
 Alpha virt. eigenvalues --    5.03984   5.05909   5.06206   5.07466   5.07579
 Alpha virt. eigenvalues --    5.08292   5.08946   5.09313   5.10597   5.11368
 Alpha virt. eigenvalues --    5.13101   5.13586   5.14906   5.16217   5.17568
 Alpha virt. eigenvalues --    5.18525   5.19818   5.20244   5.20811   5.22345
 Alpha virt. eigenvalues --    5.23292   5.23774   5.24999   5.26216   5.26401
 Alpha virt. eigenvalues --    5.28132   5.30224   5.31005   5.32379   5.32946
 Alpha virt. eigenvalues --    5.33666   5.34810   5.35565   5.37548   5.38326
 Alpha virt. eigenvalues --    5.41689   5.42280   5.46384   5.47852   5.49768
 Alpha virt. eigenvalues --    5.53259   5.53575   5.55565   5.57191   5.58080
 Alpha virt. eigenvalues --    5.58410   5.60401   5.63386   5.65190   5.66955
 Alpha virt. eigenvalues --    5.69184   5.69406   5.70486   5.75664   5.77070
 Alpha virt. eigenvalues --    5.78324   5.79072   5.82544   5.83043   5.83252
 Alpha virt. eigenvalues --    5.85106   5.86552   5.88708   5.90533   5.97921
 Alpha virt. eigenvalues --    6.01185   6.02982   6.05010   6.11058   6.12870
 Alpha virt. eigenvalues --    6.14033   6.19257   6.20240   6.23336   6.26326
 Alpha virt. eigenvalues --    6.29752   6.35448   6.36678   6.37792   6.41647
 Alpha virt. eigenvalues --    6.42343   6.44694   6.50786   6.52044   6.53457
 Alpha virt. eigenvalues --    6.67872   6.71222   6.84938   6.85567   6.95373
 Alpha virt. eigenvalues --    6.95716   6.99263   7.00981   7.06158   7.11520
 Alpha virt. eigenvalues --    7.13816   7.17394   7.21674   7.24220   7.25028
 Alpha virt. eigenvalues --    7.26790   7.28553   7.37139   7.42234   7.49234
 Alpha virt. eigenvalues --    7.55299   7.57217   7.62436   7.78373   8.06699
 Alpha virt. eigenvalues --   24.42211  24.62437  24.72377  24.79831  24.93447
 Alpha virt. eigenvalues --   24.96640  25.05456  25.08110  25.08508  35.96340
 Alpha virt. eigenvalues --   36.21560  36.23686  36.43919  50.19038  50.21284
 Alpha virt. eigenvalues --   50.29011
          Condensed to atoms (all electrons):
               1          2          3          4          5          6
     1  O    7.976827   0.549701  -0.109488   0.008440  -0.006581  -0.019953
     2  C    0.549701   4.614167   0.360606  -0.081109   0.007767   0.010951
     3  N   -0.109488   0.360606   6.641846   0.173011  -0.008107   0.004154
     4  C    0.008440  -0.081109   0.173011   5.611696   0.128576  -0.136614
     5  C   -0.006581   0.007767  -0.008107   0.128576   4.207854   0.445700
     6  O   -0.019953   0.010951   0.004154  -0.136614   0.445700   7.771714
     7  O   -0.000001  -0.000383   0.001256  -0.141704   0.769241  -0.073256
     8  C    0.001133   0.001964  -0.034158   0.268430  -0.038020   0.005253
     9  C   -0.000091   0.001367  -0.003666  -0.066862   0.005613  -0.000005
    10  C   -0.000348   0.001876   0.008323  -0.003526  -0.000614  -0.000023
    11  N    0.000000   0.000006   0.000027  -0.000537  -0.000004   0.000000
    12  C    0.000000  -0.000020   0.000043  -0.000242   0.000004   0.000000
    13  N    0.000000  -0.000050  -0.000696   0.000510   0.000061   0.000000
    14  C   -0.055051   0.181668  -0.031164   0.003550  -0.000256  -0.000179
    15  C    0.000894  -0.047775  -0.000455  -0.000153  -0.000036  -0.000035
    16  N    0.000318  -0.000848   0.000023  -0.000002   0.000000   0.000000
    17  H    0.005539  -0.016538   0.344554  -0.028287   0.001565  -0.000565
    18  H    0.024174  -0.019343  -0.047727   0.343495  -0.019204   0.006105
    19  H    0.073122  -0.012270  -0.006434   0.012040  -0.036564   0.298616
    20  H    0.000003   0.000355   0.005368  -0.039706   0.007025   0.000467
    21  H   -0.000023  -0.001590  -0.007238  -0.036180   0.000934   0.000273
    22  H    0.000223   0.000660  -0.000583   0.000474   0.000085  -0.000020
    23  H    0.000000   0.000000   0.000001   0.000010   0.000000   0.000000
    24  H    0.000000   0.000002   0.000021   0.000064  -0.000028   0.000000
    25  H    0.002922  -0.045090  -0.001385  -0.000083   0.000092   0.000073
    26  H    0.000280   0.004258  -0.001491  -0.000085   0.000033  -0.000007
    27  H    0.017907  -0.011364   0.001230  -0.000053   0.000000   0.000036
    28  H    0.000636   0.028370  -0.000230  -0.000026   0.000037   0.000150
    29  H    0.000011  -0.000906   0.000009  -0.000001   0.000000   0.000000
    30  H   -0.000002  -0.000840   0.000016   0.000001   0.000000   0.000000
               7          8          9         10         11         12
     1  O   -0.000001   0.001133  -0.000091  -0.000348   0.000000   0.000000
     2  C   -0.000383   0.001964   0.001367   0.001876   0.000006  -0.000020
     3  N    0.001256  -0.034158  -0.003666   0.008323   0.000027   0.000043
     4  C   -0.141704   0.268430  -0.066862  -0.003526  -0.000537  -0.000242
     5  C    0.769241  -0.038020   0.005613  -0.000614  -0.000004   0.000004
     6  O   -0.073256   0.005253  -0.000005  -0.000023   0.000000   0.000000
     7  O    7.762336   0.003615   0.002975  -0.000033   0.000000   0.000000
     8  C    0.003615   4.961130   0.182234  -0.045266   0.012757  -0.002471
     9  C    0.002975   0.182234   5.234748   0.508377  -0.048115  -0.129728
    10  C   -0.000033  -0.045266   0.508377   4.720517   0.463799  -0.150436
    11  N    0.000000   0.012757  -0.048115   0.463799   6.513011   0.584300
    12  C    0.000000  -0.002471  -0.129728  -0.150436   0.584300   4.585922
    13  N    0.000005  -0.045565   0.368065  -0.038569  -0.138564   0.474041
    14  C    0.000001   0.000023  -0.000145   0.000065   0.000000   0.000001
    15  C    0.000000  -0.000009   0.000003   0.000008   0.000000   0.000000
    16  N    0.000000   0.000000   0.000000   0.000000   0.000000   0.000000
    17  H   -0.000360  -0.003176   0.001269   0.001245  -0.000106  -0.000086
    18  H    0.002922  -0.020494   0.001282  -0.009069  -0.000113  -0.000074
    19  H    0.003365  -0.001214  -0.000125   0.000086   0.000000   0.000000
    20  H    0.016855   0.385742  -0.029982  -0.000402  -0.000152   0.000368
    21  H    0.009663   0.385493  -0.053795   0.002271  -0.000477   0.000345
    22  H    0.000007  -0.002863  -0.050418   0.430855  -0.019826   0.006070
    23  H    0.000000  -0.000226   0.006061   0.003284  -0.016168   0.423941
    24  H   -0.000015   0.008534  -0.030809   0.002155   0.007918  -0.026022
    25  H    0.000001   0.000013  -0.000050  -0.000020   0.000001   0.000000
    26  H    0.000000  -0.000051   0.000162   0.000206   0.000004  -0.000008
    27  H    0.000000  -0.000002   0.000000  -0.000001   0.000000   0.000000
    28  H   -0.000001  -0.000001   0.000000   0.000000   0.000000   0.000000
    29  H    0.000000   0.000000   0.000000   0.000000   0.000000   0.000000
    30  H    0.000000   0.000000   0.000000   0.000000   0.000000   0.000000
              13         14         15         16         17         18
     1  O    0.000000  -0.055051   0.000894   0.000318   0.005539   0.024174
     2  C   -0.000050   0.181668  -0.047775  -0.000848  -0.016538  -0.019343
     3  N   -0.000696  -0.031164  -0.000455   0.000023   0.344554  -0.047727
     4  C    0.000510   0.003550  -0.000153  -0.000002  -0.028287   0.343495
     5  C    0.000061  -0.000256  -0.000036   0.000000   0.001565  -0.019204
     6  O    0.000000  -0.000179  -0.000035   0.000000  -0.000565   0.006105
     7  O    0.000005   0.000001   0.000000   0.000000  -0.000360   0.002922
     8  C   -0.045565   0.000023  -0.000009   0.000000  -0.003176  -0.020494
     9  C    0.368065  -0.000145   0.000003   0.000000   0.001269   0.001282
    10  C   -0.038569   0.000065   0.000008   0.000000   0.001245  -0.009069
    11  N   -0.138564   0.000000   0.000000   0.000000  -0.000106  -0.000113
    12  C    0.474041   0.000001   0.000000   0.000000  -0.000086  -0.000074
    13  N    6.258008  -0.000005   0.000000   0.000000   0.000370   0.000672
    14  C   -0.000005   5.071383   0.287090  -0.030326  -0.002211   0.001312
    15  C    0.000000   0.287090   4.595994   0.308503  -0.000032  -0.000359
    16  N    0.000000  -0.030326   0.308503   6.394190  -0.000064  -0.000001
    17  H    0.000370  -0.002211  -0.000032  -0.000064   0.579885   0.004631
    18  H    0.000672   0.001312  -0.000359  -0.000001   0.004631   0.682660
    19  H   -0.000003   0.000659   0.000500   0.000003   0.000176   0.000861
    20  H    0.000347   0.000018   0.000000   0.000000  -0.000143  -0.006324
    21  H    0.000237  -0.000079  -0.000007   0.000000   0.003632   0.009500
    22  H    0.004625  -0.000008   0.000000   0.000000  -0.000049   0.002513
    23  H   -0.038650   0.000000   0.000000   0.000000  -0.000003  -0.000002
    24  H    0.382427   0.000001   0.000000   0.000000   0.000019   0.000009
    25  H   -0.000001   0.396698  -0.036681  -0.000574   0.000748  -0.000062
    26  H   -0.000002   0.327933  -0.024824   0.016634   0.000283   0.000064
    27  H    0.000000  -0.018593   0.379745  -0.022557  -0.000160  -0.000049
    28  H    0.000000  -0.097549   0.419835  -0.057968   0.000049  -0.000009
    29  H    0.000000   0.005871  -0.032869   0.358042   0.000002   0.000000
    30  H    0.000000  -0.000954  -0.050101   0.362990   0.000013   0.000000
              19         20         21         22         23         24
     1  O    0.073122   0.000003  -0.000023   0.000223   0.000000   0.000000
     2  C   -0.012270   0.000355  -0.001590   0.000660   0.000000   0.000002
     3  N   -0.006434   0.005368  -0.007238  -0.000583   0.000001   0.000021
     4  C    0.012040  -0.039706  -0.036180   0.000474   0.000010   0.000064
     5  C   -0.036564   0.007025   0.000934   0.000085   0.000000  -0.000028
     6  O    0.298616   0.000467   0.000273  -0.000020   0.000000   0.000000
     7  O    0.003365   0.016855   0.009663   0.000007   0.000000  -0.000015
     8  C   -0.001214   0.385742   0.385493  -0.002863  -0.000226   0.008534
     9  C   -0.000125  -0.029982  -0.053795  -0.050418   0.006061  -0.030809
    10  C    0.000086  -0.000402   0.002271   0.430855   0.003284   0.002155
    11  N    0.000000  -0.000152  -0.000477  -0.019826  -0.016168   0.007918
    12  C    0.000000   0.000368   0.000345   0.006070   0.423941  -0.026022
    13  N   -0.000003   0.000347   0.000237   0.004625  -0.038650   0.382427
    14  C    0.000659   0.000018  -0.000079  -0.000008   0.000000   0.000001
    15  C    0.000500   0.000000  -0.000007   0.000000   0.000000   0.000000
    16  N    0.000003   0.000000   0.000000   0.000000   0.000000   0.000000
    17  H    0.000176  -0.000143   0.003632  -0.000049  -0.000003   0.000019
    18  H    0.000861  -0.006324   0.009500   0.002513  -0.000002   0.000009
    19  H    0.459442  -0.000244  -0.000194  -0.000065   0.000000   0.000000
    20  H   -0.000244   0.671914  -0.043550   0.000256   0.000015   0.000109
    21  H   -0.000194  -0.043550   0.712956  -0.000036  -0.000026   0.001747
    22  H   -0.000065   0.000256  -0.000036   0.612481  -0.000391  -0.000485
    23  H    0.000000   0.000015  -0.000026  -0.000391   0.604055  -0.001300
    24  H    0.000000   0.000109   0.001747  -0.000485  -0.001300   0.552674
    25  H   -0.000521   0.000000   0.000006   0.000006   0.000000   0.000000
    26  H    0.000046  -0.000001   0.000007   0.000006   0.000000   0.000000
    27  H   -0.000195   0.000000   0.000000   0.000001   0.000000   0.000000
    28  H    0.000132   0.000000   0.000001   0.000000   0.000000   0.000000
    29  H   -0.000002   0.000000   0.000000   0.000000   0.000000   0.000000
    30  H    0.000000   0.000000   0.000000   0.000000   0.000000   0.000000
              25         26         27         28         29         30
     1  O    0.002922   0.000280   0.017907   0.000636   0.000011  -0.000002
     2  C   -0.045090   0.004258  -0.011364   0.028370  -0.000906  -0.000840
     3  N   -0.001385  -0.001491   0.001230  -0.000230   0.000009   0.000016
     4  C   -0.000083  -0.000085  -0.000053  -0.000026  -0.000001   0.000001
     5  C    0.000092   0.000033   0.000000   0.000037   0.000000   0.000000
     6  O    0.000073  -0.000007   0.000036   0.000150   0.000000   0.000000
     7  O    0.000001   0.000000   0.000000  -0.000001   0.000000   0.000000
     8  C    0.000013  -0.000051  -0.000002  -0.000001   0.000000   0.000000
     9  C   -0.000050   0.000162   0.000000   0.000000   0.000000   0.000000
    10  C   -0.000020   0.000206  -0.000001   0.000000   0.000000   0.000000
    11  N    0.000001   0.000004   0.000000   0.000000   0.000000   0.000000
    12  C    0.000000  -0.000008   0.000000   0.000000   0.000000   0.000000
    13  N   -0.000001  -0.000002   0.000000   0.000000   0.000000   0.000000
    14  C    0.396698   0.327933  -0.018593  -0.097549   0.005871  -0.000954
    15  C   -0.036681  -0.024824   0.379745   0.419835  -0.032869  -0.050101
    16  N   -0.000574   0.016634  -0.022557  -0.057968   0.358042   0.362990
    17  H    0.000748   0.000283  -0.000160   0.000049   0.000002   0.000013
    18  H   -0.000062   0.000064  -0.000049  -0.000009   0.000000   0.000000
    19  H   -0.000521   0.000046  -0.000195   0.000132  -0.000002   0.000000
    20  H    0.000000  -0.000001   0.000000   0.000000   0.000000   0.000000
    21  H    0.000006   0.000007   0.000000   0.000001   0.000000   0.000000
    22  H    0.000006   0.000006   0.000001   0.000000   0.000000   0.000000
    23  H    0.000000   0.000000   0.000000   0.000000   0.000000   0.000000
    24  H    0.000000   0.000000   0.000000   0.000000   0.000000   0.000000
    25  H    0.729560  -0.043765   0.009502  -0.008431  -0.000129   0.003642
    26  H   -0.043765   0.687363  -0.009999   0.013104  -0.000569  -0.002502
    27  H    0.009502  -0.009999   0.685131  -0.055289  -0.007156   0.008399
    28  H   -0.008431   0.013104  -0.055289   0.780443  -0.003941  -0.010109
    29  H   -0.000129  -0.000569  -0.007156  -0.003941   0.643277  -0.049055
    30  H    0.003642  -0.002502   0.008399  -0.010109  -0.049055   0.644766
 Mulliken charges:
               1
     1  O   -0.470592
     2  C    0.474409
     3  N   -0.287665
     4  C   -0.015132
     5  C    0.534831
     6  O   -0.312835
     7  O   -0.356490
     8  C   -0.022806
     9  C    0.101635
    10  C    0.105240
    11  N   -0.357763
    12  C    0.234052
    13  N   -0.227263
    14  C   -0.039754
    15  C    0.200763
    16  N   -0.328362
    17  H    0.107802
    18  H    0.042631
    19  H    0.208784
    20  H    0.031660
    21  H    0.016133
    22  H    0.016479
    23  H    0.019398
    24  H    0.102979
    25  H   -0.006473
    26  H    0.032920
    27  H    0.023467
    28  H   -0.009203
    29  H    0.087415
    30  H    0.093738
 Sum of Mulliken charges =   0.00000
 Mulliken charges with hydrogens summed into heavy atoms:
               1
     1  O   -0.470592
     2  C    0.474409
     3  N   -0.179863
     4  C    0.027500
     5  C    0.534831
     6  O   -0.104051
     7  O   -0.356490
     8  C    0.024987
     9  C    0.101635
    10  C    0.121720
    11  N   -0.357763
    12  C    0.253449
    13  N   -0.124284
    14  C   -0.013307
    15  C    0.215026
    16  N   -0.147208
 APT charges:
               1
     1  O   -0.154660
     2  C    0.082599
     3  N   -0.272705
     4  C   -0.176887
     5  C   -0.947255
     6  O    0.037138
     7  O    0.697365
     8  C   -0.774998
     9  C    0.071270
    10  C   -0.398775
    11  N    0.140359
    12  C   -0.598030
    13  N   -0.606224
    14  C   -0.289611
    15  C   -0.383063
    16  N   -1.274563
    17  H    0.273449
    18  H    0.202703
    19  H    0.166401
    20  H    0.450063
    21  H    0.206746
    22  H    0.070005
    23  H    0.901568
    24  H    0.573115
    25  H    0.128626
    26  H    0.192420
    27  H    0.286322
    28  H    0.226476
    29  H    0.838028
    30  H    0.332121
 Sum of APT charges =   0.00000
 APT charges with hydrogens summed into heavy atoms:
               1
     1  O   -0.154660
     2  C    0.082599
     3  N    0.000744
     4  C    0.025816
     5  C   -0.947255
     6  O    0.203538
     7  O    0.697365
     8  C   -0.118189
     9  C    0.071270
    10  C   -0.328771
    11  N    0.140359
    12  C    0.303537
    13  N   -0.033109
    14  C    0.031435
    15  C    0.129735
    16  N   -0.104414
 Electronic spatial extent (au):  <R**2>=           4809.6644
 Charge=              0.0000 electrons
 Dipole moment (field-independent basis, Debye):
    X=              2.9910    Y=              3.7565    Z=             -2.4789  Tot=              5.4039
 Quadrupole moment (field-independent basis, Debye-Ang):
   XX=            -90.0144   YY=           -112.9398   ZZ=            -90.9940
   XY=              4.1846   XZ=              9.8377   YZ=            -18.5507
 Traceless Quadrupole moment (field-independent basis, Debye-Ang):
   XX=              7.9683   YY=            -14.9571   ZZ=              6.9887
   XY=              4.1846   XZ=              9.8377   YZ=            -18.5507
 Octapole moment (field-independent basis, Debye-Ang**2):
  XXX=            192.1456  YYY=            107.2206  ZZZ=             16.2610  XYY=             25.2836
  XXY=             -7.8488  XXZ=             13.0572  XZZ=             14.6243  YZZ=             56.9662
  YYZ=             13.1961  XYZ=             16.1908
 Hexadecapole moment (field-independent basis, Debye-Ang**3):
 XXXX=          -2769.4733 YYYY=          -2001.9947 ZZZZ=          -1467.2654 XXXY=            441.5871
 XXXZ=           -581.1469 YYYX=            316.9902 YYYZ=           -228.5182 ZZZX=           -668.1984
 ZZZY=           -199.0040 XXYY=           -808.0694 XXZZ=           -604.5086 YYZZ=           -612.2409
 XXYZ=           -111.1269 YYXZ=           -217.0023 ZZXY=              7.7495
 N-N= 1.109635088449D+03 E-N=-4.080549447072D+03  KE= 7.934558867986D+02
  Exact polarizability:   0.000   0.000   0.000   0.000   0.000   0.000
 Approx polarizability: 168.186 -12.201 200.391   1.989  -7.192 230.308
 Calling FoFJK, ICntrl=    100147 FMM=F ISym2X=0 I1Cent= 0 IOpClX= 0 NMat=1 NMatS=1 NMatT=0.
 -------------------------------------------------------------------
 Center     Atomic                   Forces (Hartrees/Bohr)
 Number     Number              X              Y              Z
 -------------------------------------------------------------------
      1        8           0.002925576   -0.001279573   -0.000329837
      2        6          -0.003055081    0.001836491   -0.000793762
      3        7          -0.003823195   -0.003614941    0.000997946
      4        6          -0.002493863    0.002600698   -0.004804707
      5        6           0.002919533   -0.005139191    0.000709664
      6        8          -0.001114895    0.000905671   -0.002045069
      7        8          -0.000221034    0.002056871    0.001231473
      8        6          -0.005166650    0.001808019    0.002562686
      9        6           0.006126439   -0.002857737   -0.004389006
     10        6          -0.002141402    0.004737397    0.003484614
     11        7           0.001343049   -0.002439655   -0.003100611
     12        6          -0.003405038    0.002261127    0.004739561
     13        7           0.002219360   -0.002178830    0.000416065
     14        6          -0.000846242   -0.000297461    0.000774433
     15        6           0.003263512    0.001675045    0.001716928
     16        7          -0.000780331   -0.001599754    0.000603583
     17        1          -0.000019876    0.000612384   -0.000046440
     18        1           0.000758073   -0.000281592    0.000484258
     19        1           0.000005860    0.000766352    0.002551893
     20        1           0.002049413   -0.001588890    0.000767125
     21        1           0.001558589   -0.000329861   -0.001993861
     22        1           0.000877632    0.000825165   -0.002165718
     23        1          -0.000301270    0.000801247    0.000013225
     24        1          -0.000615430   -0.000045280    0.000568988
     25        1           0.000456128    0.000846281    0.000222929
     26        1           0.000219480   -0.000004069   -0.000800533
     27        1           0.001149570    0.000337846   -0.001549208
     28        1          -0.001535592   -0.001221861   -0.000068033
     29        1          -0.000537523    0.000281314    0.000352091
     30        1           0.000185205    0.000526787   -0.000110676
 -------------------------------------------------------------------
 Cartesian Forces:  Max     0.006126439 RMS     0.002119233
 FormGI is forming the generalized inverse of G from B-inverse, IUseBI=4.
 GSVD:  received Info=                   1 from GESDD.

 GradGradGradGradGradGradGradGradGradGradGradGradGradGradGradGradGradGrad
 Berny optimization.
 Internal  Forces:  Max     0.004440007 RMS     0.001309410
 Search for a local minimum.
 Step number   1 out of a maximum of  160
 All quantities printed in internal units (Hartrees-Bohrs-Radians)
 Mixed Optimization -- RFO/linear search
 Second derivative matrix not updated -- analytic derivatives used.
 ITU=  0
     Eigenvalues ---   -0.00052  -0.00005   0.00136   0.00210   0.00246
     Eigenvalues ---    0.00256   0.00476   0.00502   0.00878   0.01003
     Eigenvalues ---    0.01911   0.01991   0.02475   0.03177   0.03312
     Eigenvalues ---    0.03565   0.03805   0.03965   0.04212   0.04254
     Eigenvalues ---    0.04516   0.04823   0.05091   0.05180   0.05233
     Eigenvalues ---    0.06218   0.06392   0.07115   0.07518   0.08110
     Eigenvalues ---    0.08168   0.10102   0.10617   0.10803   0.11615
     Eigenvalues ---    0.11733   0.11869   0.13375   0.14879   0.15530
     Eigenvalues ---    0.16521   0.17287   0.18285   0.18750   0.19503
     Eigenvalues ---    0.20501   0.20886   0.21933   0.22706   0.22766
     Eigenvalues ---    0.23677   0.24292   0.26198   0.28393   0.29466
     Eigenvalues ---    0.30457   0.31012   0.31741   0.32737   0.32936
     Eigenvalues ---    0.33092   0.33209   0.33491   0.33666   0.33729
     Eigenvalues ---    0.34358   0.35848   0.36425   0.37028   0.37461
     Eigenvalues ---    0.39954   0.40578   0.44314   0.44664   0.44711
     Eigenvalues ---    0.44880   0.47051   0.47501   0.47619   0.49683
     Eigenvalues ---    0.57769   0.60051   0.78453   0.88423
 RFO step:  Lambda=-3.87127302D-03 EMin=-5.16151405D-04
 Linear search not attempted -- first point.
 Iteration  1 RMS(Cart)=  0.20733131 RMS(Int)=  0.04624273
 Iteration  2 RMS(Cart)=  0.12227817 RMS(Int)=  0.00864585
 Iteration  3 RMS(Cart)=  0.01401520 RMS(Int)=  0.00026369
 Iteration  4 RMS(Cart)=  0.00015406 RMS(Int)=  0.00025329
 Iteration  5 RMS(Cart)=  0.00000002 RMS(Int)=  0.00025329
 Variable       Old X    -DE/DX   Delta X   Delta X   Delta X     New X
                                 (Linear)    (Quad)   (Total)
    R1        2.32689  -0.00018   0.00000   0.00397   0.00397   2.33087
    R2        2.55249   0.00044   0.00000  -0.00446  -0.00446   2.54803
    R3        2.84691   0.00176   0.00000   0.00390   0.00390   2.85080
    R4        2.76559  -0.00259   0.00000  -0.00181  -0.00181   2.76378
    R5        1.89852   0.00048   0.00000   0.00219   0.00219   1.90071
    R6        2.90505   0.00102   0.00000   0.00972   0.00972   2.91477
    R7        2.88017  -0.00145   0.00000  -0.01042  -0.01042   2.86975
    R8        2.06327  -0.00004   0.00000   0.00421   0.00421   2.06748
    R9        2.52649  -0.00105   0.00000  -0.01436  -0.01436   2.51214
   R10        2.26968  -0.00183   0.00000   0.00026   0.00026   2.26994
   R11        1.85437   0.00258   0.00000   0.01427   0.01427   1.86865
   R12        2.82850  -0.00136   0.00000  -0.01133  -0.01133   2.81717
   R13        2.06160  -0.00056   0.00000   0.00020   0.00020   2.06180
   R14        2.05991   0.00234   0.00000   0.00855   0.00855   2.06847
   R15        2.58110   0.00252   0.00000   0.00908   0.00907   2.59018
   R16        2.60947  -0.00025   0.00000  -0.00192  -0.00190   2.60757
   R17        2.61455  -0.00271   0.00000  -0.01102  -0.01104   2.60351
   R18        2.04034  -0.00229   0.00000  -0.00573  -0.00573   2.03461
   R19        2.47828  -0.00351   0.00000  -0.00653  -0.00653   2.47174
   R20        2.56878   0.00444   0.00000   0.01135   0.01136   2.58014
   R21        2.03357   0.00078   0.00000   0.00185   0.00185   2.03543
   R22        1.90088  -0.00072   0.00000  -0.00092  -0.00092   1.89997
   R23        2.87562   0.00179   0.00000   0.00595   0.00595   2.88157
   R24        2.06367   0.00037   0.00000   0.00115   0.00115   2.06482
   R25        2.06603  -0.00052   0.00000  -0.00067  -0.00067   2.06536
   R26        2.77105  -0.00103   0.00000  -0.00938  -0.00938   2.76167
   R27        2.06184  -0.00188   0.00000  -0.00497  -0.00497   2.05686
   R28        2.07378   0.00024   0.00000   0.00174   0.00174   2.07552
   R29        1.91429  -0.00022   0.00000  -0.00150  -0.00150   1.91279
   R30        1.91548   0.00035   0.00000  -0.00009  -0.00009   1.91539
    A1        2.10901   0.00027   0.00000   0.00369   0.00369   2.11270
    A2        2.14302  -0.00240   0.00000  -0.01384  -0.01384   2.12918
    A3        2.03098   0.00215   0.00000   0.01017   0.01017   2.04115
    A4        2.12095   0.00199   0.00000   0.01402   0.01230   2.13325
    A5        2.09200  -0.00084   0.00000  -0.01407  -0.01582   2.07618
    A6        2.06136  -0.00114   0.00000  -0.01371  -0.01546   2.04590
    A7        1.93840  -0.00046   0.00000   0.00986   0.00986   1.94826
    A8        1.93120  -0.00156   0.00000  -0.00311  -0.00313   1.92807
    A9        1.87267  -0.00026   0.00000  -0.00564  -0.00562   1.86705
   A10        1.93336   0.00287   0.00000   0.00130   0.00129   1.93464
   A11        1.86974  -0.00109   0.00000  -0.00688  -0.00686   1.86288
   A12        1.91642   0.00043   0.00000   0.00416   0.00416   1.92058
   A13        1.99609  -0.00105   0.00000   0.00490   0.00489   2.00098
   A14        2.15758  -0.00122   0.00000  -0.01849  -0.01850   2.13909
   A15        2.12950   0.00227   0.00000   0.01356   0.01355   2.14305
   A16        1.91934   0.00102   0.00000   0.00489   0.00489   1.92423
   A17        1.97644  -0.00305   0.00000  -0.01108  -0.01102   1.96542
   A18        1.89597  -0.00181   0.00000  -0.02274  -0.02266   1.87331
   A19        1.90135   0.00149   0.00000  -0.00045  -0.00043   1.90093
   A20        1.92284   0.00392   0.00000   0.02730   0.02715   1.94999
   A21        1.92290   0.00015   0.00000   0.01063   0.01054   1.93345
   A22        1.83903  -0.00055   0.00000  -0.00375  -0.00404   1.83499
   A23        2.33762  -0.00126   0.00000  -0.00781  -0.00782   2.32980
   A24        2.11454   0.00393   0.00000   0.01473   0.01472   2.12926
   A25        1.83096  -0.00267   0.00000  -0.00689  -0.00687   1.82410
   A26        1.93095   0.00192   0.00000   0.00500   0.00497   1.93592
   A27        2.24409  -0.00176   0.00000  -0.01215  -0.01216   2.23194
   A28        2.10814  -0.00015   0.00000   0.00713   0.00713   2.11526
   A29        1.83770   0.00101   0.00000   0.00323   0.00321   1.84091
   A30        1.94768  -0.00089   0.00000  -0.00305  -0.00303   1.94465
   A31        2.20021   0.00009   0.00000   0.00210   0.00209   2.20230
   A32        2.13529   0.00079   0.00000   0.00095   0.00094   2.13623
   A33        1.87746   0.00063   0.00000   0.00177   0.00170   1.87916
   A34        2.19363  -0.00013   0.00000   0.00268   0.00254   2.19617
   A35        2.21207  -0.00050   0.00000  -0.00427  -0.00440   2.20767
   A36        1.95848  -0.00050   0.00000   0.00173   0.00170   1.96018
   A37        1.91696   0.00091   0.00000   0.00898   0.00895   1.92592
   A38        1.88808  -0.00021   0.00000  -0.00707  -0.00706   1.88101
   A39        1.93139  -0.00023   0.00000   0.00253   0.00249   1.93388
   A40        1.89544   0.00046   0.00000   0.00221   0.00221   1.89765
   A41        1.87074  -0.00043   0.00000  -0.00925  -0.00923   1.86150
   A42        1.90536   0.00105   0.00000   0.00805   0.00800   1.91336
   A43        1.89372  -0.00008   0.00000  -0.00462  -0.00464   1.88908
   A44        1.91173  -0.00111   0.00000  -0.00722  -0.00738   1.90435
   A45        1.90259  -0.00086   0.00000  -0.00557  -0.00552   1.89707
   A46        1.97626   0.00126   0.00000   0.01909   0.01909   1.99536
   A47        1.87238  -0.00033   0.00000  -0.01094  -0.01098   1.86140
   A48        1.91889   0.00011   0.00000   0.00514   0.00507   1.92396
   A49        1.91673   0.00072   0.00000   0.01274   0.01268   1.92940
   A50        1.84682   0.00004   0.00000   0.00770   0.00756   1.85439
    D1        0.13135   0.00205   0.00000   0.08492   0.08483   0.21617
    D2        3.12748   0.00204   0.00000  -0.02830  -0.02820   3.09927
    D3       -2.99099   0.00095   0.00000   0.08415   0.08405  -2.90693
    D4        0.00514   0.00094   0.00000  -0.02907  -0.02897  -0.02383
    D5        0.65326  -0.00059   0.00000  -0.03558  -0.03559   0.61767
    D6        2.80934  -0.00058   0.00000  -0.02455  -0.02453   2.78481
    D7       -1.43736  -0.00071   0.00000  -0.03472  -0.03472  -1.47209
    D8       -2.50800   0.00056   0.00000  -0.03457  -0.03459  -2.54259
    D9       -0.35193   0.00057   0.00000  -0.02355  -0.02353  -0.37546
   D10        1.68456   0.00044   0.00000  -0.03372  -0.03373   1.65083
   D11       -1.42733   0.00251   0.00000   0.03902   0.03909  -1.38825
   D12        2.70115   0.00025   0.00000   0.03260   0.03267   2.73382
   D13        0.61075   0.00079   0.00000   0.03279   0.03284   0.64359
   D14        1.85726   0.00250   0.00000   0.15040   0.15034   2.00760
   D15       -0.29744   0.00025   0.00000   0.14398   0.14392  -0.15352
   D16       -2.38785   0.00078   0.00000   0.14417   0.14410  -2.24375
   D17        1.04825   0.00009   0.00000  -0.01216  -0.01220   1.03605
   D18       -2.09900  -0.00002   0.00000  -0.01867  -0.01867  -2.11767
   D19       -3.08148  -0.00020   0.00000  -0.00825  -0.00826  -3.08973
   D20        0.05447  -0.00031   0.00000  -0.01476  -0.01473   0.03973
   D21       -0.99163   0.00129   0.00000  -0.00668  -0.00669  -0.99832
   D22        2.14432   0.00118   0.00000  -0.01319  -0.01317   2.13115
   D23       -1.23396   0.00218   0.00000   0.16971   0.16975  -1.06422
   D24        2.90702   0.00053   0.00000   0.15875   0.15873   3.06575
   D25        0.91225   0.00136   0.00000   0.17544   0.17542   1.08767
   D26        2.89162   0.00185   0.00000   0.15836   0.15841   3.05002
   D27        0.74942   0.00020   0.00000   0.14741   0.14739   0.89681
   D28       -1.24535   0.00103   0.00000   0.16410   0.16408  -1.08127
   D29        0.82997   0.00117   0.00000   0.16345   0.16349   0.99346
   D30       -1.31223  -0.00047   0.00000   0.15250   0.15247  -1.15976
   D31        2.97618   0.00035   0.00000   0.16919   0.16917  -3.13784
   D32        0.01010   0.00025   0.00000  -0.02915  -0.02920  -0.01910
   D33       -3.12594   0.00037   0.00000  -0.02264  -0.02259   3.13465
   D34       -0.47110   0.00113   0.00000   0.40569   0.40573  -0.06536
   D35        2.68427   0.00107   0.00000   0.40099   0.40106   3.08533
   D36        1.65614  -0.00046   0.00000   0.38856   0.38839   2.04453
   D37       -1.47168  -0.00053   0.00000   0.38387   0.38371  -1.08797
   D38       -2.60535   0.00125   0.00000   0.40623   0.40633  -2.19902
   D39        0.55002   0.00119   0.00000   0.40154   0.40165   0.95167
   D40       -3.13537   0.00050   0.00000   0.00654   0.00661  -3.12876
   D41        0.00835   0.00028   0.00000   0.01640   0.01640   0.02475
   D42       -0.00598   0.00060   0.00000   0.01082   0.01084   0.00486
   D43        3.13774   0.00037   0.00000   0.02069   0.02063  -3.12482
   D44        3.13558  -0.00052   0.00000  -0.00820  -0.00817   3.12741
   D45       -0.01287   0.00004   0.00000   0.01823   0.01833   0.00545
   D46        0.00425  -0.00057   0.00000  -0.01164  -0.01162  -0.00736
   D47        3.13898   0.00000   0.00000   0.01479   0.01488  -3.12932
   D48        0.00540  -0.00039   0.00000  -0.00574  -0.00575  -0.00036
   D49       -3.13813  -0.00019   0.00000  -0.01475  -0.01481   3.13024
   D50       -0.00257   0.00003   0.00000  -0.00195  -0.00195  -0.00453
   D51        3.13619   0.00012   0.00000   0.00273   0.00278   3.13898
   D52       -0.00106   0.00034   0.00000   0.00874   0.00878   0.00772
   D53       -3.13570  -0.00024   0.00000  -0.01809  -0.01798   3.12951
   D54       -3.13995   0.00026   0.00000   0.00426   0.00425  -3.13570
   D55        0.00859  -0.00032   0.00000  -0.02257  -0.02251  -0.01391
   D56       -3.09075   0.00111   0.00000   0.04130   0.04129  -3.04945
   D57       -1.01931   0.00062   0.00000   0.03653   0.03651  -0.98280
   D58        1.01946  -0.00043   0.00000   0.01681   0.01685   1.03631
   D59        1.04446   0.00046   0.00000   0.02658   0.02656   1.07102
   D60        3.11590  -0.00002   0.00000   0.02180   0.02178   3.13768
   D61       -1.12852  -0.00108   0.00000   0.00208   0.00212  -1.12639
   D62       -1.00442   0.00084   0.00000   0.03503   0.03501  -0.96941
   D63        1.06702   0.00035   0.00000   0.03025   0.03023   1.09724
   D64        3.10579  -0.00070   0.00000   0.01053   0.01057   3.11636
   D65        3.02936  -0.00045   0.00000  -0.03159  -0.03170   2.99766
   D66       -1.22858   0.00008   0.00000  -0.01191  -0.01194  -1.24052
   D67        0.96346  -0.00046   0.00000  -0.02745  -0.02750   0.93597
   D68        2.98871   0.00007   0.00000  -0.00776  -0.00774   2.98097
   D69       -1.11917  -0.00025   0.00000  -0.02198  -0.02193  -1.14110
   D70        0.90608   0.00028   0.00000  -0.00229  -0.00218   0.90390
         Item               Value     Threshold  Converged?
 Maximum Force            0.004440     0.000450     NO 
 RMS     Force            0.001309     0.000300     NO 
 Maximum Displacement     2.065711     0.001800     NO 
 RMS     Displacement     0.301391     0.001200     NO 
 Predicted change in Energy=-3.932681D-03
 GradGradGradGradGradGradGradGradGradGradGradGradGradGradGradGradGradGrad

                          Input orientation:                          
 ---------------------------------------------------------------------
 Center     Atomic      Atomic             Coordinates (Angstroms)
 Number     Number       Type             X           Y           Z
 ---------------------------------------------------------------------
      1          8           0        0.596145   -1.631615    1.609174
      2          6           0        0.867589   -0.634019    0.936496
      3          7           0        0.332947   -0.454542   -0.288259
      4          6           0       -0.780249   -1.265809   -0.779825
      5          6           0       -0.301447   -2.643353   -1.282027
      6          8           0        0.316880   -3.382908   -0.366633
      7          8           0       -0.485393   -3.020864   -2.407429
      8          6           0       -1.535879   -0.525996   -1.869718
      9          6           0       -2.124283    0.756850   -1.389593
     10          6           0       -2.179337    1.369318   -0.164617
     11          7           0       -2.864332    2.562214   -0.241386
     12          6           0       -3.222863    2.678841   -1.493859
     13          7           0       -2.795366    1.615508   -2.235991
     14          6           0        1.785794    0.448608    1.447014
     15          6           0        2.917675   -0.108623    2.303485
     16          7           0        3.694226    0.993174    2.868053
     17          1           0        0.546849    0.387988   -0.794272
     18          1           0       -1.439832   -1.453131    0.072722
     19          1           0        0.372758   -2.891525    0.489658
     20          1           0       -2.301132   -1.203328   -2.251835
     21          1           0       -0.861054   -0.351828   -2.713753
     22          1           0       -1.757974    1.027034    0.765174
     23          1           0       -3.781635    3.494055   -1.922055
     24          1           0       -2.953760    1.469512   -3.218061
     25          1           0        2.181718    1.034881    0.614296
     26          1           0        1.189055    1.132522    2.055854
     27          1           0        2.478161   -0.679598    3.119284
     28          1           0        3.506287   -0.816898    1.705003
     29          1           0        4.361200    0.641437    3.543319
     30          1           0        4.237216    1.452398    2.145818
 ---------------------------------------------------------------------
                    Distance matrix (angstroms):
                    1          2          3          4          5
     1  O    0.000000
     2  C    1.233441   0.000000
     3  N    2.248339   1.348362   0.000000
     4  C    2.781293   2.461765   1.462531   0.000000
     5  C    3.191916   3.213396   2.486146   1.542429   0.000000
     6  O    2.654963   3.091572   2.929458   2.420026   1.329366
     7  O    4.385526   4.325440   3.427327   2.411691   1.201200
     8  C    4.227365   3.696372   2.449210   1.518607   2.520398
     9  C    4.700861   4.036892   2.952691   2.503875   3.859492
    10  C    4.455922   3.809143   3.106981   3.046280   4.569093
    11  N    5.743490   5.052775   4.396090   4.391705   5.894849
    12  C    6.541687   5.797712   4.890332   4.694302   6.074973
    13  N    6.068892   5.342498   4.226714   3.805667   5.026687
    14  C    2.401851   1.508579   2.436723   3.805604   4.622171
    15  C    2.862005   2.519435   3.676631   4.951820   5.444584
    16  N    4.251165   3.790586   4.832844   6.199270   6.812701
    17  H    3.139710   2.035419   1.005813   2.120482   3.185364
    18  H    2.556901   2.596390   2.066455   1.094065   2.132579
    19  H    1.700173   2.353902   2.558442   2.363042   1.911808
    20  H    4.846136   4.531044   3.369671   2.117499   2.648196
    21  H    4.738036   4.048723   2.705404   2.140553   2.759364
    22  H    3.650017   3.111595   2.770693   2.932592   4.447948
    23  H    7.609666   6.843068   5.932157   5.741890   7.084428
    24  H    6.746927   6.023944   4.805015   4.260414   5.262952
    25  H    3.257918   2.148482   2.539871   4.001250   4.826133
[...]
 00000145,-0.00004386,0.00001361,-0.00001218,0.00001079,-0.00001086,-0.
 00001879,-0.00001696,-0.00006084,0.00008456,0.00003770,-0.00005977,0.0
 0008629,-0.00010147,0.00004199,0.00006549,0.00011567,-0.00010787,-0.00
 080328,0.00008334,0.00049182,0.00001159,-0.00010645,0.00045846,0.00123
 132,0.00067330,-0.00020763,-0.00053667,0.00082242,-0.01272654,0.055648
 29,0.00004025,-0.00010114,0.00012668,-0.00011453,0.00008630,-0.0002967
 9,0.00019969,-0.00009949,0.00020363,-0.00001876,-0.00010208,-0.0002799
 7,-0.00005038,0.00027864,0.00021439,0.00008467,-0.00017317,0.00000078,
 0.00005651,-0.00015217,-0.00013384,0.00011826,0.00001981,0.00076132,0.
 00284137,-0.00616179,-0.00873974,-0.00107122,0.00093723,-0.00117074,-0
 .00002343,-0.00218709,0.00002638,-0.00209779,0.00416524,-0.00719864,-0
 .05090498,-0.05498998,-0.44418183,0.00001252,-0.00000031,0.00004060,-0
 .00004597,0.00000889,-0.00002543,0.00003022,0.00001340,0.00002788,-0.0
 0010669,0.00003485,-0.00000188,0.00001280,0.00000407,0.00000520,-0.000
 02628,0.00004250,-0.00002105,-0.00011359,0.00028771,0.00016380,0.00001
 391,0.00025966,0.00009010,-0.00014607,-0.00044236,-0.00002312,0.000301
 74,-0.00001297,0.00017172,0.05099894,0.05829437,0.46025325,-0.00111605
 ,-0.00536575,-0.00277340,-0.00566617,-0.00597657,0.01978155,0.00048730
 ,0.00012101,-0.00155052,0.00010828,0.00022079,0.00016580,0.00044924,-0
 .00040149,0.00056146,-0.00036355,-0.00010000,-0.00094194,-0.00015264,0
 .00007251,-0.00032742,0.00004820,0.00001210,0.00000813,0.00003269,-0.0
 0001370,-0.00008589,0.00010862,0.00000808,0.00008998,0.00001680,0.0000
 7733,-0.00002874,-0.00003468,0.00002514,-0.00001212,0.00000945,0.00001
 299,0.00001319,-0.07986211,-0.04930891,0.06324892,0.00923173,0.0152072
 1,-0.02195624,0.00180975,0.00063520,0.00129394,-0.00111314,-0.00062255
 ,-0.00108599,0.00005836,0.00002251,0.00005295,0.00019059,0.00075750,0.
 00099925,0.00001587,-0.00000110,0.00001164,-0.00001984,-0.00001056,-0.
 00002615,-0.00000588,-0.00005114,0.00003483,-0.00000763,-0.00000047,0.
 00000017,-0.00001380,-0.00001390,-0.00000535,0.08505542,-0.00400475,-0
 .00488129,-0.00304824,-0.00588783,-0.01416328,0.02277563,0.00204653,0.
 00094446,-0.00057264,0.00008631,-0.00003117,-0.00041741,0.00034334,-0.
 00046848,0.00048242,-0.00021070,-0.00006722,-0.00087395,-0.00011018,0.
 00010272,-0.00025320,0.00002042,0.00005434,0.00000385,-0.00000162,0.00
 002824,0.00000351,-0.00000360,0.00001986,0.00001008,-0.00000008,-0.000
 02260,-0.00001304,0.00000062,-0.00000689,0.00002244,0.00000235,0.00000
 003,-0.00002388,-0.04936595,-0.12176393,0.10433968,-0.00420439,-0.0072
 0108,0.00947885,0.00017327,0.00074831,-0.00109213,-0.00131500,0.000631
 13,-0.00047062,0.00020655,0.00011038,0.00010995,-0.00001683,0.00064137
 ,0.00094646,0.00002763,-0.00002523,0.00001729,-0.00001182,-0.00001349,
 -0.00002551,-0.00001662,-0.00000335,0.00000071,0.00000053,-0.00000057,
 0.00000128,-0.00000873,0.00000122,-0.00000202,0.05396206,0.13369753,-0
 .00108465,-0.00355007,0.00033654,-0.00490728,-0.00596107,0.00796472,-0
 .00068602,-0.00080792,-0.00038859,0.00024535,0.00010293,0.00075118,-0.
 00000090,0.00003638,-0.00007974,0.00004494,-0.00005532,-0.00007596,0.0
 0000741,-0.00000567,0.00004962,0.00005736,0.00009199,0.00001102,-0.000
 00709,0.00000731,0.00003921,-0.00007937,0.00000741,-0.00004743,-0.0000
 1644,-0.00004953,0.00001976,0.00001233,-0.00000771,0.00000567,-0.00001
 158,-0.00000071,-0.00000557,0.06623030,0.10784594,-0.19519959,0.006168
 39,0.01043359,-0.01481782,0.00062272,-0.00054684,0.00131151,-0.0000786
 9,-0.00046446,0.00024019,-0.00012066,-0.00012481,-0.00000376,-0.000047
 87,0.00006660,0.00014784,0.00001345,-0.00002277,0.00002288,0.00001173,
 0.00000171,0.00001637,0.00001145,0.00001865,-0.00003144,0.00000682,0.0
 0000125,0.00000031,0.00000995,0.00000787,0.00000259,-0.06841660,-0.117
 85812,0.21394779,-0.00202042,0.00015320,0.00139250,0.01394023,-0.01208
 152,-0.01301731,-0.00167870,-0.00023484,-0.00046145,-0.00071773,0.0007
 1301,0.00038792,0.00003679,0.00036066,0.00025208,0.00002915,-0.0000818
 6,0.00003928,-0.00000655,-0.00009762,-0.00015039,-0.00016621,-0.000213
 57,0.00001985,0.00006547,-0.00013950,-0.00011346,0.00003306,0.00010718
 ,-0.00010071,0.00000759,0.00005169,0.00005010,-0.00002172,0.00003742,0
 .00003135,0.00002604,-0.00004423,0.00014205,-0.11914778,0.07947004,0.0
 8229756,-0.01769799,0.01809573,0.01449797,0.00256300,-0.00090309,0.001
 36533,-0.00002659,-0.00021886,-0.00035290,-0.00014713,-0.00009170,-0.0
 0012194,-0.00004736,0.00011143,-0.00000101,-0.00004293,0.00008037,-0.0
 0008242,0.00001523,0.00002836,0.00000034,-0.00009389,-0.00008007,-0.00
 001531,-0.00000132,0.00000145,0.00001177,0.00000572,-0.00002100,0.0000
 0274,-0.00638435,0.00657965,0.00700044,0.13291452,-0.00339365,0.000911
 50,0.00166475,0.01411435,-0.01664063,-0.01537153,-0.00105251,-0.000024
 53,0.00092498,-0.00056050,0.00020961,-0.00013320,0.00005871,0.00017100
 ,0.00008707,0.00003111,0.00005371,0.00012866,-0.00001982,-0.00001752,-
 0.00001355,-0.00011646,-0.00011148,0.00001904,0.00001191,-0.00006876,-
 0.00002534,-0.00006287,0.00010839,-0.00016200,0.00000136,-0.00003833,0
 .00005247,0.00000598,-0.00001020,0.00002423,0.00001665,0.00000266,0.00
 007300,0.08409492,-0.13679501,-0.09169259,0.01011625,-0.00953599,-0.00
 657041,-0.00176395,0.00119536,-0.00009674,-0.00006962,-0.00006899,-0.0
 0017182,-0.00000278,-0.00001573,-0.00013166,-0.00009836,-0.00008832,-0
 .00008189,-0.00002197,0.00004108,-0.00003903,-0.00000068,0.00000939,-0
 .00000530,-0.00008474,0.00000277,-0.00001984,0.00000327,0.00000126,0.0
 0000990,0.00000633,-0.00000850,-0.00000105,-0.00977608,0.01155042,0.01
 094653,-0.09249001,0.14936315,0.00007289,0.00126011,0.00016709,0.00512
 233,-0.00714208,-0.00870428,-0.00191121,-0.00075530,0.00026076,-0.0006
 1206,0.00032710,0.00035632,0.00001753,0.00030594,0.00001718,0.00006084
 ,-0.00000680,0.00015777,-0.00001616,-0.00004660,-0.00001597,-0.0000656
 2,-0.00016467,-0.00000001,0.00005788,-0.00011749,-0.00021010,0.0000880
 3,0.00015535,-0.00009989,0.00003278,0.00011092,0.00004981,-0.00002930,
 0.00002927,0.00002231,0.00004123,-0.00005649,0.00020486,0.08634422,-0.
 09111259,-0.13348789,-0.01190308,0.01159961,0.01049058,0.00118528,0.00
 052344,0.00065448,0.00066157,-0.00046830,-0.00056276,-0.00018580,-0.00
 012599,-0.00016674,-0.00009878,-0.00012807,-0.00017005,-0.00003838,0.0
 0006816,-0.00003500,-0.00000595,0.00002857,0.00001501,-0.00018593,-0.0
 0012764,0.00005907,-0.00000199,-0.00000117,0.00001563,0.00000196,-0.00
 002581,-0.00001105,0.01295923,-0.01433603,-0.01467750,-0.08905608,0.09
 925253,0.14581501,-0.00132295,-0.00073462,0.00040672,0.00096249,0.0007
 7520,-0.00130214,0.00009462,-0.00040948,0.00072054,-0.00005296,-0.0001
 1799,0.00002244,-0.00009837,0.00004340,-0.00015565,0.00006512,0.000086
 25,0.00022383,0.00002980,0.00000682,0.00008961,0.00000766,0.00001996,0
 .00000302,-0.00000880,0.00000707,0.00001521,-0.00001852,0.00000081,-0.
 00002237,0.00000041,-0.00002139,0.00001176,0.00000899,-0.00000869,0.00
 000274,0.00000091,-0.00000605,0.00000395,0.00902211,0.01582829,-0.0211
 2970,-0.08494472,-0.05173864,0.07491592,-0.00884424,-0.01442598,0.0114
 7833,0.00037441,0.00017334,0.00023494,-0.00003008,-0.00001866,-0.00001
 982,-0.00001443,-0.00026981,-0.00022196,0.00000274,-0.00000410,0.00000
 409,0.00000336,-0.00000005,0.00000851,0.00000358,0.00001234,-0.0000060
 6,0.00000209,-0.00000066,0.00000082,0.00000301,0.00000426,-0.00000154,
 -0.00418692,0.00170751,-0.00371726,0.00152194,-0.00012300,0.00055764,0
 .09510095,-0.00090524,-0.00039635,-0.00143580,-0.00043353,-0.00046851,
 -0.00018592,0.00007116,-0.00013017,0.00046739,-0.00007680,-0.00001135,
 -0.00002886,0.00000642,0.00000177,-0.00007802,0.00002097,-0.00001524,0
 .00006456,0.00000245,0.00001604,0.00005969,0.00000052,0.00000508,-0.00
 000609,-0.00000023,0.00001499,0.00000133,0.00000776,-0.00000271,0.0000
 1793,0.00000780,-0.00000049,-0.00001394,0.00000096,-0.00000428,0.00000
 688,0.00000132,-0.00000205,-0.00001943,-0.00193130,-0.00708117,0.01131
 358,-0.05073630,-0.12666709,0.10402330,-0.01227596,-0.01919504,0.01801
 590,-0.00000250,0.00009177,-0.00002801,0.00000419,0.00001866,-0.000022
 77,-0.00003724,-0.00000823,-0.00008335,0.00000588,-0.00000321,0.000003
 56,0.00000176,-0.00000399,-0.00000462,-0.00000500,0.00000390,0.0000143
 3,-0.00000168,-0.00000080,-0.00000037,-0.00000397,0.00000061,-0.000001
 99,0.00144235,-0.00028214,0.00079414,-0.00052071,0.00016271,-0.0000286
 7,0.06109896,0.14478113,0.00077736,-0.00163136,0.00233344,0.00117886,0
 .00367794,-0.00215038,-0.00010025,-0.00055654,0.00080317,0.00001318,-0
 .00010429,-0.00006175,-0.00016112,0.00013843,-0.00029952,0.00011231,0.
 00002438,0.00035618,0.00004765,-0.00001667,0.00015695,-0.00002315,0.00
 000052,0.00000513,-0.00000928,0.00001597,0.00002314,-0.00002371,-0.000
 00739,-0.00000701,-0.00000421,-0.00002334,0.00000156,0.00001072,-0.000
 01077,0.00000619,-0.00000293,-0.00000752,-0.00001329,0.00448690,0.0097
 8695,-0.01566946,0.07550102,0.11028612,-0.19962171,-0.00722544,-0.0114
 7816,0.01349531,0.00021248,-0.00001535,0.00024636,-0.00005019,-0.00000
 823,-0.00002417,-0.00003462,-0.00029207,-0.00034660,-0.00000320,-0.000
 00166,-0.00000106,0.00001298,-0.00000466,0.00001631,0.00001082,0.00002
 111,-0.00000247,0.00000301,-0.00000018,-0.00000056,0.00000566,0.000006
 86,-0.00000159,-0.00345364,0.00085944,-0.00060859,-0.00002610,-0.00032
 455,0.00116905,-0.07644117,-0.11638383,0.21269193,0.00042546,-0.001719
 46,0.00006248,0.00066013,0.00332724,0.00077394,-0.00021875,-0.00059488
 ,-0.00064735,0.00002941,0.00005510,0.00002673,-0.00025359,0.00030348,-
 0.00012696,0.00026822,-0.00018809,0.00005857,0.00008645,-0.00009792,0.
 00001134,-0.00004199,-0.00002844,0.00000835,-0.00000366,0.00002057,0.0
 0006092,-0.00000246,-0.00005745,0.00005717,-0.00001993,-0.00002065,-0.
 00003399,0.00000433,0.00000380,0.00000106,-0.00001521,0.00001064,-0.00
 007754,-0.01777466,0.01413142,0.01359220,-0.13215639,0.07725489,0.0790
 7901,0.01206153,-0.01687655,-0.01499519,-0.00004915,0.00005586,0.00018
 937,-0.00003369,-0.00000610,-0.00000030,-0.00020438,0.00012109,0.00009
 776,-0.00001300,0.00000390,-0.00001455,0.00001161,0.00000514,-0.000002
 95,0.00004955,0.00003459,-0.00001211,-0.00000023,0.00000159,-0.0000062
 1,0.00000010,0.00000662,0.00000914,0.00138942,-0.00025831,-0.00031039,
 -0.00341287,0.00160411,-0.00342133,-0.00657695,0.00686621,0.00711813,0
 .14289276,0.00018305,0.00059457,-0.00020857,-0.00030479,-0.00099698,0.
 00001005,0.00005168,0.00035780,0.00037696,0.00002267,0.00001037,0.0000
 4373,0.00014798,-0.00012872,0.00003877,-0.00010786,0.00006326,-0.00002
 180,-0.00005731,0.00004409,0.00000544,0.00002484,0.00000926,-0.0000082
 6,-0.00000050,-0.00001703,-0.00003028,0.00000867,0.00001711,-0.0000222
 8,0.00000716,0.00002584,0.00002320,-0.00000368,-0.00000093,-0.00001524
 ,0.00000233,0.00000038,0.00004715,0.01049891,-0.00616140,-0.00563850,0
 .07835667,-0.12484531,-0.07212230,0.00436183,-0.02367822,-0.02076693,0
 .00010498,-0.00005509,-0.00010383,0.00000592,-0.00000634,0.00001436,0.
 00007120,-0.00000448,-0.00002276,0.00000303,0.00000052,0.00000640,-0.0
 0000415,-0.00000005,0.00000813,-0.00002362,-0.00002076,-0.00000006,-0.
 00000043,-0.00000083,0.00000130,0.00000405,-0.00000487,-0.00000327,-0.
 00053492,-0.00001880,-0.00044925,0.00141424,-0.00022069,0.00094913,-0.
 00931021,0.01109215,0.00900271,-0.08531692,0.14242650,-0.00020961,0.00
 045031,0.00033428,0.00047076,0.00019687,0.00116289,0.00028972,0.000047
 07,-0.00028297,0.00003938,0.00006657,0.00002453,0.00011460,-0.00010716
 ,0.00013970,-0.00012480,0.00009905,-0.00006227,-0.00004043,0.00002044,
 -0.00006329,0.00000056,0.00000805,0.00000980,-0.00000221,-0.00000440,0
 .00000987,-0.00000259,-0.00002849,0.00001974,-0.00000781,0.00001230,0.
 00000065,-0.00000253,0.00000409,-0.00001782,-0.00000599,0.00001604,-0.
 00000969,-0.01280898,0.01117832,0.00946699,0.08123908,-0.07256878,-0.1
 2879294,0.00073425,-0.01551943,-0.00775554,-0.00003024,-0.00001375,0.0
 0000111,0.00000137,0.00000040,0.00002037,0.00011734,-0.00006066,-0.000
 00338,0.00000261,-0.00000164,-0.00000085,0.00000044,-0.00000327,0.,0.0
 0002340,0.00000931,-0.00001409,-0.00000184,0.00000032,-0.00000300,0.00
 000050,-0.00000218,0.00000288,0.00082871,-0.00033106,0.00117447,-0.003
 93379,0.00149708,-0.00123275,0.01591926,-0.01427170,-0.01399923,-0.081
 48641,0.08836567,0.13894543,-0.00002157,-0.00060010,0.00037020,-0.0002
 8497,0.00198117,-0.00137185,-0.00062465,-0.00072353,-0.00036796,0.0001
 3740,0.00007176,-0.00011279,-0.00007393,0.00014398,0.00011763,-0.00000
 619,-0.00009301,-0.00006945,0.00000952,-0.00008431,-0.00012134,-0.0000
 3612,-0.00007077,0.00000451,0.00000485,-0.00002817,0.00000833,-0.00001
 136,-0.00002346,0.00000621,-0.00002226,0.00002068,0.00000629,-0.000006
 27,0.00001562,-0.00001900,-0.00000986,0.00001463,0.00000764,-0.0028374
 2,-0.00550478,-0.00175453,-0.01374293,0.01296307,-0.00850291,-0.207483
 56,0.06933736,-0.19425168,0.00000384,-0.00004723,0.00010331,-0.0000150
 9,-0.00001060,0.00000736,0.00002224,0.00013683,0.00008071,-0.00002507,
 0.00002046,-0.00002510,0.00000302,0.00000933,0.00000524,0.00003257,0.0
 0000220,-0.00002371,0.00000004,0.00000244,-0.00000299,0.00000671,-0.00
 000429,0.00000846,0.00023316,0.00005863,0.00005470,0.00057624,-0.00033
 247,0.00015217,0.00019704,0.00005019,0.00057610,0.00121103,0.00004404,
 0.00020806,0.21064395,0.00019550,-0.00008873,0.00012148,-0.00089040,0.
 00118161,-0.00060219,-0.00015053,-0.00032080,-0.00012643,0.00004246,-0
 .00005720,-0.00010182,-0.00008376,0.00006866,-0.00005074,0.00005355,-0
 .00004239,0.00003876,0.00002799,-0.00002324,0.00000649,-0.00000897,-0.
 00001606,-0.00000057,0.00000355,0.00000050,-0.00000370,0.00000486,0.00
 000599,-0.00000094,0.00000695,-0.00000030,-0.00000267,-0.00000284,0.00
 000369,0.00000209,0.00000342,-0.00000289,0.00000063,-0.00190210,-0.003
 87129,-0.00147347,-0.02256650,0.00653073,-0.02572037,0.07897905,-0.092
 55111,0.12150330,-0.00005952,-0.00001837,0.00004781,0.00000304,0.00000
 976,0.00000049,-0.00002350,0.00001724,-0.00001273,-0.00000448,0.000003
 24,-0.00000441,-0.00000006,-0.00000050,-0.00000182,-0.00001005,-0.0000
 0445,0.00000224,-0.00000078,-0.00000009,0.00000103,-0.00000407,-0.0000
 0027,-0.00000127,0.00013388,-0.00004073,-0.00030362,-0.00012914,-0.000
 04019,0.00028322,0.00016739,0.00121714,0.00068237,-0.00006097,0.000082
 39,-0.00049999,-0.07003227,0.09592297,0.00021137,-0.00013708,0.0000389
 5,-0.00040912,0.00066917,0.00010982,0.00004703,-0.00001377,0.00009275,
 -0.00000579,-0.00000985,-0.00001982,-0.00003494,0.00000476,-0.00006260
 ,0.00005153,-0.00000488,0.00002663,0.00002007,0.00000843,0.00003559,-0
 .00000286,0.00000365,-0.00000262,0.00000193,0.00001057,-0.00000161,0.0
 0000705,0.00001203,-0.00000277,0.00001164,-0.00000943,-0.00000761,0.00
 000076,-0.00000234,0.00001144,0.00000567,-0.00000729,-0.00000729,0.000
 05486,-0.00269940,0.00030730,-0.01074969,0.00382715,-0.01090732,-0.155
 21854,0.09112664,-0.19866578,-0.00003276,0.00001655,-0.00001265,0.0000
 0662,0.00000603,-0.00000195,-0.00003775,-0.00001756,-0.00000296,0.0000
 0406,-0.00000306,0.00000334,0.00000032,-0.00000263,-0.00000336,-0.0000
 1836,-0.00000253,0.00000957,-0.00000080,-0.00000085,0.00000174,-0.0000
 0590,0.00000105,-0.00000240,0.00025843,-0.00011916,0.00025223,-0.00011
 353,0.00008957,0.00010627,0.00054838,0.00039659,0.00128616,0.00050682,
 0.00068388,-0.00028145,0.18537342,-0.10476475,0.22854924,0.00000608,0.
 00085172,-0.00048377,-0.00016813,-0.00106458,-0.00029308,-0.00000269,0
 .00012195,-0.00002810,-0.00004235,0.00000035,-0.00002528,0.00006964,-0
 .00009699,0.00003269,-0.00005139,0.00006586,-0.00002453,-0.00002249,0.
 00004080,0.00000014,0.00000679,-0.00000276,0.00000047,0.00000609,-0.00
 000535,-0.00002431,0.00002033,0.00000488,0.00000531,0.00002067,0.00002
 462,0.00000933,-0.00000792,0.00000291,-0.00001575,0.00000696,0.0000055
 8,0.00002128,0.00023646,-0.00071924,0.00168145,-0.01107791,-0.00445870
 ,0.01729884,-0.15149542,-0.12507931,0.13680632,-0.00007614,-0.00003272
 ,-0.00005659,0.00001524,0.00001302,0.00000138,0.00002147,-0.00003575,-
 0.00000757,0.00000516,0.00000245,0.00000176,-0.00000436,-0.00000304,-0
 .00000560,-0.00001259,-0.00001296,0.00000723,-0.00000463,-0.00000193,0
 .00000088,-0.00000873,-0.00000611,-0.00000466,-0.00031811,0.00020101,-
 0.00101253,-0.00012143,-0.00009549,0.00017606,-0.00130229,-0.00265846,
 -0.00250816,0.00168690,0.00035115,-0.00133279,0.01211966,0.01630830,-0
 .02047991,0.15049510,-0.00009262,0.00011142,-0.00023914,-0.00022229,-0
 .00047870,0.00002272,0.00009977,0.00002687,-0.00002515,-0.00003457,-0.
 00000942,-0.00000939,-0.00006362,0.00005240,-0.00006228,0.00007824,-0.
 00003597,0.00003576,0.00003204,-0.00000893,0.00003719,-0.00000531,0.00
 001219,-0.00000440,-0.00000152,0.00001414,0.00001115,-0.00000808,0.000
 01090,-0.00000630,-0.00000604,-0.00003131,-0.00001103,0.00000645,-0.00
 000570,0.00002370,0.00000090,-0.00001191,-0.00001908,0.00064562,0.0009
 8963,-0.00018211,-0.01867842,-0.01982334,0.02170455,-0.08892831,-0.104
 06767,0.10933275,-0.00002869,0.00006577,0.00000580,0.00000621,0.000003
 94,0.00000027,-0.00004988,0.00000587,0.00000778,0.00000271,-0.00000569
 ,0.00000250,0.00000081,-0.00000013,-0.00000346,-0.00000773,0.00000491,
 0.00000539,0.00000438,0.00000083,0.00000141,0.00000153,0.00000725,-0.0
 0000054,-0.00053349,0.00046023,-0.00015444,0.00014328,-0.00009812,-0.0
 0024966,-0.00274229,-0.00313312,-0.00363624,0.00141951,0.00143623,0.00
 144064,-0.00731739,-0.00796534,0.01093849,0.11627878,0.13247277,-0.000
 18389,0.00016849,-0.00026951,0.00005853,-0.00036099,0.00006055,0.00006
 631,0.00006926,-0.00005060,-0.00004201,-0.00001491,-0.00001694,0.00000
 210,-0.00003109,-0.00002120,0.00001428,0.00000916,0.00000068,0.0000060
 8,0.00002104,0.00002315,-0.00000090,0.00000948,0.00000007,0.00000275,0
 .00000673,-0.00000434,0.00000288,0.00001146,-0.00000155,0.00000648,-0.
 00001073,-0.00000303,-0.00000015,-0.00000168,0.00000906,0.00000570,-0.
 00000411,-0.00000420,0.00037026,-0.00045439,0.00169009,-0.00993436,-0.
 01333766,0.01146315,0.12217645,0.14419530,-0.24135244,-0.00007005,0.00
 000892,-0.00002341,0.00001122,0.00000866,0.00000161,-0.00001848,-0.000
 00636,0.00000066,0.00000615,-0.00000350,0.00000247,-0.00000151,-0.0000
 0347,-0.00000563,-0.00000822,-0.00000160,0.00000604,-0.00000002,-0.000
 00049,0.00000164,-0.00000528,0.00000105,-0.00000315,0.00035582,0.00038
 539,-0.00035787,0.00005513,0.00007068,-0.00018724,-0.00215003,-0.00258
 580,0.00021648,-0.00051769,-0.00016353,0.00120653,0.01953297,0.0109815
 8,-0.02084885,-0.12974051,-0.13896689,0.24846778\\0.00000234,-0.000001
 88,0.00000009,-0.00000146,0.00000133,-0.00000055,-0.00000115,-0.000001
 99,-0.00000033,-0.00000235,0.00000217,-0.00000586,-0.00000488,-0.00000
 070,0.00000207,0.00000141,0.00000276,0.00000106,-0.00000060,0.00000377
 ,0.00000020,-0.00000103,-0.00000169,0.00000195,0.00000105,-0.00000204,
 0.00000145,-0.00000094,0.00000127,0.00000111,0.00000032,-0.00000066,0.
 00000012,0.,-0.00000031,0.00000151,0.00000030,-0.00000059,-0.00000051,
 0.00000024,-0.00000021,-0.00000096,0.00000060,0.00000010,0.00000060,0.
 00000151,-0.00000111,-0.00000017,0.00000061,0.00000001,-0.00000059,0.0
 0000024,0.00000122,0.00000073,0.00000006,-0.00000200,0.00000082,0.0000
 0173,-0.00000179,0.00000007,-0.00000008,0.00000155,-0.00000037,0.00000
 116,0.00000035,-0.00000024,-0.00000051,0.00000013,0.00000069,-0.000000
 03,0.00000042,0.00000065,-0.00000013,0.00000003,-0.00000038,-0.0000003
 7,-0.00000064,-0.00000040,0.00000061,0.00000055,-0.00000093,0.00000032
 ,-0.00000010,-0.00000024,0.00000077,0.00000002,-0.00000112,0.00000027,
 0.00000005,-0.00000047\\\@


 TO SEE A WORLD IN A GRAIN OF SAND
 AND A HEAVEN IN A WILD FLOWER
 HOLD INFINITY IN THE PALM OF YOUR HAND
 AND ETERNITY IN AN HOUR

                       -- WILLIAM BLAKE
 Job cpu time:       0 days 13 hours 53 minutes 40.9 seconds.
 File lengths (MBytes):  RWF=    973 Int=      0 D2E=      0 Chk=     34 Scr=      1
 Normal termination of Gaussian 09 at Sat Jul 24 10:14:45 2021.
