 Entering Gaussian System, Link 0=g09
 Input=opt_freq-conf-338.com
 Output=opt_freq-conf-338.log
 Initial command:
 /aerosol/software/g09/l1.exe "/scratch/nicole/10352/Gau-74383.inp" -scrdir="/scratch/nicole/10352/"
 Entering Link 1 = /aerosol/software/g09/l1.exe PID=     74387.
  
 Copyright (c) 1988,1990,1992,1993,1995,1998,2003,2009,2013,
            Gaussian, Inc.  All Rights Reserved.
  
 This is part of the Gaussian(R) 09 program.  It is based on
 the Gaussian(R) 03 system (copyright 2003, Gaussian, Inc.),
 the Gaussian(R) 98 system (copyright 1998, Gaussian, Inc.),
 the Gaussian(R) 94 system (copyright 1995, Gaussian, Inc.),
 the Gaussian 92(TM) system (copyright 1992, Gaussian, Inc.),
 the Gaussian 90(TM) system (copyright 1990, Gaussian, Inc.),
 the Gaussian 88(TM) system (copyright 1988, Gaussian, Inc.),
 the Gaussian 86(TM) system (copyright 1986, Carnegie Mellon
 University), and the Gaussian 82(TM) system (copyright 1983,
 Carnegie Mellon University). Gaussian is a federally registered
 trademark of Gaussian, Inc.
  
 This software contains proprietary and confidential information,
 including trade secrets, belonging to Gaussian, Inc.
  
 This software is provided under written license and may be
 used, copied, transmitted, or stored only in accord with that
 written license.
  
 The following legend is applicable only to US Government
 contracts under FAR:
  
                    RESTRICTED RIGHTS LEGEND
  
 Use, reproduction and disclosure by the US Government is
 subject to restrictions as set forth in subparagraphs (a)
 and (c) of the Commercial Computer Software - Restricted
 Rights clause in FAR 52.227-19.
  
 Gaussian, Inc.
 340 Quinnipiac St., Bldg. 40, Wallingford CT 06492
  
  
 ---------------------------------------------------------------
 Warning -- This program may not be used in any manner that
 competes with the business of Gaussian, Inc. or will provide
 assistance to any competitor of Gaussian, Inc.  The licensee
 of this program is prohibited from giving any competitor of
 Gaussian, Inc. access to this program.  By using this program,
 the user acknowledges that Gaussian, Inc. is engaged in the
 business of creating and licensing software in the field of
 computational chemistry and represents and warrants to the
 licensee that it is not a competitor of Gaussian, Inc. and that
 it will not use this program in any manner prohibited above.
 ---------------------------------------------------------------
  

 Cite this work as:
 Gaussian 09, Revision D.01,
 M. J. Frisch, G. W. Trucks, H. B. Schlegel, G. E. Scuseria, 
 M. A. Robb, J. R. Cheeseman, G. Scalmani, V. Barone, B. Mennucci, 
 G. A. Petersson, H. Nakatsuji, M. Caricato, X. Li, H. P. Hratchian, 
 A. F. Izmaylov, J. Bloino, G. Zheng, J. L. Sonnenberg, M. Hada, 
 M. Ehara, K. Toyota, R. Fukuda, J. Hasegawa, M. Ishida, T. Nakajima, 
 Y. Honda, O. Kitao, H. Nakai, T. Vreven, J. A. Montgomery, Jr., 
 J. E. Peralta, F. Ogliaro, M. Bearpark, J. J. Heyd, E. Brothers, 
 K. N. Kudin, V. N. Staroverov, T. Keith, R. Kobayashi, J. Normand, 
 K. Raghavachari, A. Rendell, J. C. Burant, S. S. Iyengar, J. Tomasi, 
 M. Cossi, N. Rega, J. M. Millam, M. Klene, J. E. Knox, J. B. Cross, 
 V. Bakken, C. Adamo, J. Jaramillo, R. Gomperts, R. E. Stratmann, 
 O. Yazyev, A. J. Austin, R. Cammi, C. Pomelli, J. W. Ochterski, 
 R. L. Martin, K. Morokuma, V. G. Zakrzewski, G. A. Voth, 
 P. Salvador, J. J. Dannenberg, S. Dapprich, A. D. Daniels, 
 O. Farkas, J. B. Foresman, J. V. Ortiz, J. Cioslowski, 
 and D. J. Fox, Gaussian, Inc., Wallingford CT, 2013.
 
 ******************************************
 Gaussian 09:  ES64L-G09RevD.01 24-Apr-2013
                24-Jul-2021 
 ******************************************
 %mem=2gb
 %nproc=4
 Will use up to    4 processors via shared memory.
 %chk=conf-338.chk
 ----------------------------------------------------------------------
 # B3LYP/6-311G(2df,2pd) EmpiricalDispersion=GD3BJ opt=calcfc freq=nora
 man nosymm integral(ultrafinegrid)
 ----------------------------------------------------------------------
 1/10=4,14=-1,18=20,19=15,26=4,38=1/1,3;
 2/9=110,12=2,15=1,17=6,18=5,40=1/2;
 3/5=4,6=6,7=404,11=2,16=1,25=1,30=1,71=2,74=-5,75=-5,124=41,140=1/1,2,3;
 4//1;
 5/5=2,38=5/2;
 8/6=4,10=90,11=11/1;
 11/6=1,8=1,9=11,15=111,16=1,31=1/1,2,10;
 10/6=1,13=1,31=1/2;
 6/7=2,8=2,9=2,10=2,28=1/1;
 7/10=1,18=20,25=1,30=1/1,2,3,16;
 1/10=4,14=-1,18=20,19=15,26=4/3(2);
 2/9=110,15=1/2;
 99//99;
 2/9=110,15=1/2;
 3/5=4,6=6,7=404,11=2,16=1,25=1,30=1,71=1,74=-5,75=-5,124=41/1,2,3;
 4/5=5,16=3,69=1/1;
 5/5=2,38=5/2;
 7/30=1/1,2,3,16;
 1/14=-1,18=20,19=15,26=4/3(-5);
 2/9=110,15=1/2;
 6/7=2,8=2,9=2,10=2,19=2,28=1/1;
 99/9=1/99;
 ------------------------------------------------------------
 Candidate Structure: Conf:338 OPT and FREQ calc in gas phase
 ------------------------------------------------------------
 Symbolic Z-matrix:
 Charge =  0 Multiplicity = 1
 O                     1.43892   0.43625   2.04209 
 C                     1.83455  -0.01925   0.9791 
 N                     0.99885  -0.49739   0.0318 
 C                    -0.43897  -0.48529   0.22041 
 C                    -1.00601  -1.51003  -0.73236 
 O                    -1.83722  -2.39627  -0.15191 
 O                    -0.74626  -1.52592  -1.9109 
 C                    -0.99401   0.91774  -0.09473 
 C                    -2.4693    1.03315   0.10272 
 C                    -3.51664   1.05168  -0.77677 
 N                    -4.72522   1.13183  -0.10608 
 C                    -4.40833   1.16399   1.16783 
 N                    -3.05678   1.10528   1.34778 
 C                     3.31923  -0.13885   0.65087 
 C                     3.69369   0.20522  -0.78484 
 N                     3.16474  -0.78792  -1.73454 
 H                     1.39882  -0.79892  -0.85044 
 H                    -0.65378  -0.7514    1.25501 
 H                    -2.14195  -2.97749  -0.86229 
 H                    -0.75931   1.1531   -1.13095 
 H                    -0.46054   1.62353   0.54024 
 H                    -3.46138   0.99554  -1.85631 
 H                    -5.09181   1.23027   1.99532 
 H                    -2.56877   1.11963   2.22933 
 H                     3.83552   0.51704   1.35279 
 H                     3.63828  -1.16585   0.86407 
 H                     3.27303   1.17738  -1.04483 
 H                     4.78376   0.30372  -0.85047 
 H                     3.68705  -1.65305  -1.66654 
 H                     3.26977  -0.4577   -2.6836 
 

 GradGradGradGradGradGradGradGradGradGradGradGradGradGradGradGradGradGrad
 Berny optimization.
 Initialization pass.
                           ----------------------------
                           !    Initial Parameters    !
                           ! (Angstroms and Degrees)  !
 --------------------------                            --------------------------
 ! Name  Definition              Value          Derivative Info.                !
 --------------------------------------------------------------------------------
 ! R1    R(1,2)                  1.2223         calculate D2E/DX2 analytically  !
 ! R2    R(2,3)                  1.3507         calculate D2E/DX2 analytically  !
 ! R3    R(2,14)                 1.5252         calculate D2E/DX2 analytically  !
 ! R4    R(3,4)                  1.4502         calculate D2E/DX2 analytically  !
 ! R5    R(3,17)                 1.0145         calculate D2E/DX2 analytically  !
 ! R6    R(4,5)                  1.5098         calculate D2E/DX2 analytically  !
 ! R7    R(4,8)                  1.5414         calculate D2E/DX2 analytically  !
 ! R8    R(4,18)                 1.0897         calculate D2E/DX2 analytically  !
 ! R9    R(5,6)                  1.3466         calculate D2E/DX2 analytically  !
 ! R10   R(5,7)                  1.2069         calculate D2E/DX2 analytically  !
 ! R11   R(6,19)                 0.9671         calculate D2E/DX2 analytically  !
 ! R12   R(8,9)                  1.4929         calculate D2E/DX2 analytically  !
 ! R13   R(8,20)                 1.0882         calculate D2E/DX2 analytically  !
 ! R14   R(8,21)                 1.089          calculate D2E/DX2 analytically  !
 ! R15   R(9,10)                 1.3678         calculate D2E/DX2 analytically  !
 ! R16   R(9,13)                 1.3786         calculate D2E/DX2 analytically  !
 ! R17   R(10,11)                1.3845         calculate D2E/DX2 analytically  !
 ! R18   R(10,22)                1.0824         calculate D2E/DX2 analytically  !
 ! R19   R(11,12)                1.3131         calculate D2E/DX2 analytically  !
 ! R20   R(12,13)                1.3647         calculate D2E/DX2 analytically  !
 ! R21   R(12,23)                1.0753         calculate D2E/DX2 analytically  !
 ! R22   R(13,24)                1.0077         calculate D2E/DX2 analytically  !
 ! R23   R(14,15)                1.5231         calculate D2E/DX2 analytically  !
 ! R24   R(14,25)                1.0906         calculate D2E/DX2 analytically  !
 ! R25   R(14,26)                1.0964         calculate D2E/DX2 analytically  !
 ! R26   R(15,16)                1.4724         calculate D2E/DX2 analytically  !
 ! R27   R(15,27)                1.0907         calculate D2E/DX2 analytically  !
 ! R28   R(15,28)                1.0965         calculate D2E/DX2 analytically  !
 ! R29   R(16,29)                1.0129         calculate D2E/DX2 analytically  !
 ! R30   R(16,30)                1.0103         calculate D2E/DX2 analytically  !
 ! A1    A(1,2,3)              122.7921         calculate D2E/DX2 analytically  !
 ! A2    A(1,2,14)             122.1045         calculate D2E/DX2 analytically  !
 ! A3    A(3,2,14)             115.0607         calculate D2E/DX2 analytically  !
 ! A4    A(2,3,4)              121.2835         calculate D2E/DX2 analytically  !
 ! A5    A(2,3,17)             118.1109         calculate D2E/DX2 analytically  !
 ! A6    A(4,3,17)             120.4287         calculate D2E/DX2 analytically  !
 ! A7    A(3,4,5)              106.5372         calculate D2E/DX2 analytically  !
 ! A8    A(3,4,8)              109.7564         calculate D2E/DX2 analytically  !
 ! A9    A(3,4,18)             108.4754         calculate D2E/DX2 analytically  !
 ! A10   A(5,4,8)              110.7044         calculate D2E/DX2 analytically  !
 ! A11   A(5,4,18)             111.0626         calculate D2E/DX2 analytically  !
 ! A12   A(8,4,18)             110.2083         calculate D2E/DX2 analytically  !
 ! A13   A(4,5,6)              113.9862         calculate D2E/DX2 analytically  !
 ! A14   A(4,5,7)              122.9795         calculate D2E/DX2 analytically  !
 ! A15   A(6,5,7)              123.0314         calculate D2E/DX2 analytically  !
 ! A16   A(5,6,19)             105.8669         calculate D2E/DX2 analytically  !
 ! A17   A(4,8,9)              113.5259         calculate D2E/DX2 analytically  !
 ! A18   A(4,8,20)             108.2938         calculate D2E/DX2 analytically  !
 ! A19   A(4,8,21)             107.1166         calculate D2E/DX2 analytically  !
 ! A20   A(9,8,20)             108.8048         calculate D2E/DX2 analytically  !
 ! A21   A(9,8,21)             110.9082         calculate D2E/DX2 analytically  !
 ! A22   A(20,8,21)            108.0228         calculate D2E/DX2 analytically  !
 ! A23   A(8,9,10)             132.2758         calculate D2E/DX2 analytically  !
 ! A24   A(8,9,13)             122.9981         calculate D2E/DX2 analytically  !
 ! A25   A(10,9,13)            104.6968         calculate D2E/DX2 analytically  !
 ! A26   A(9,10,11)            110.9607         calculate D2E/DX2 analytically  !
 ! A27   A(9,10,22)            126.9782         calculate D2E/DX2 analytically  !
 ! A28   A(11,10,22)           122.0526         calculate D2E/DX2 analytically  !
 ! A29   A(10,11,12)           105.1121         calculate D2E/DX2 analytically  !
 ! A30   A(11,12,13)           111.4601         calculate D2E/DX2 analytically  !
 ! A31   A(11,12,23)           126.4897         calculate D2E/DX2 analytically  !
 ! A32   A(13,12,23)           122.05           calculate D2E/DX2 analytically  !
 ! A33   A(9,13,12)            107.7701         calculate D2E/DX2 analytically  !
 ! A34   A(9,13,24)            125.7639         calculate D2E/DX2 analytically  !
 ! A35   A(12,13,24)           126.4641         calculate D2E/DX2 analytically  !
 ! A36   A(2,14,15)            115.1166         calculate D2E/DX2 analytically  !
 ! A37   A(2,14,25)            105.9704         calculate D2E/DX2 analytically  !
 ! A38   A(2,14,26)            108.3535         calculate D2E/DX2 analytically  !
 ! A39   A(15,14,25)           110.7586         calculate D2E/DX2 analytically  !
 ! A40   A(15,14,26)           108.8668         calculate D2E/DX2 analytically  !
 ! A41   A(25,14,26)           107.4837         calculate D2E/DX2 analytically  !
 ! A42   A(14,15,16)           111.5487         calculate D2E/DX2 analytically  !
 ! A43   A(14,15,27)           109.3421         calculate D2E/DX2 analytically  !
 ! A44   A(14,15,28)           108.7315         calculate D2E/DX2 analytically  !
 ! A45   A(16,15,27)           107.9923         calculate D2E/DX2 analytically  !
 ! A46   A(16,15,28)           112.2796         calculate D2E/DX2 analytically  !
 ! A47   A(27,15,28)           106.8031         calculate D2E/DX2 analytically  !
 ! A48   A(15,16,29)           110.3388         calculate D2E/DX2 analytically  !
 ! A49   A(15,16,30)           110.3696         calculate D2E/DX2 analytically  !
 ! A50   A(29,16,30)           106.7753         calculate D2E/DX2 analytically  !
 ! D1    D(1,2,3,4)              0.606          calculate D2E/DX2 analytically  !
 ! D2    D(1,2,3,17)           175.791          calculate D2E/DX2 analytically  !
 ! D3    D(14,2,3,4)           178.2743         calculate D2E/DX2 analytically  !
 ! D4    D(14,2,3,17)           -6.5407         calculate D2E/DX2 analytically  !
 ! D5    D(1,2,14,15)         -140.2381         calculate D2E/DX2 analytically  !
 ! D6    D(1,2,14,25)          -17.4646         calculate D2E/DX2 analytically  !
 ! D7    D(1,2,14,26)           97.6346         calculate D2E/DX2 analytically  !
 ! D8    D(3,2,14,15)           42.0759         calculate D2E/DX2 analytically  !
 ! D9    D(3,2,14,25)          164.8494         calculate D2E/DX2 analytically  !
 ! D10   D(3,2,14,26)          -80.0514         calculate D2E/DX2 analytically  !
 ! D11   D(2,3,4,5)           -159.5128         calculate D2E/DX2 analytically  !
 ! D12   D(2,3,4,8)             80.5857         calculate D2E/DX2 analytically  !
 ! D13   D(2,3,4,18)           -39.8777         calculate D2E/DX2 analytically  !
 ! D14   D(17,3,4,5)            25.4129         calculate D2E/DX2 analytically  !
 ! D15   D(17,3,4,8)           -94.4887         calculate D2E/DX2 analytically  !
 ! D16   D(17,3,4,18)          145.048          calculate D2E/DX2 analytically  !
 ! D17   D(3,4,5,6)            128.6376         calculate D2E/DX2 analytically  !
 ! D18   D(3,4,5,7)            -51.9702         calculate D2E/DX2 analytically  !
 ! D19   D(8,4,5,6)           -112.0759         calculate D2E/DX2 analytically  !
 ! D20   D(8,4,5,7)             67.3163         calculate D2E/DX2 analytically  !
 ! D21   D(18,4,5,6)            10.6949         calculate D2E/DX2 analytically  !
 ! D22   D(18,4,5,7)          -169.9129         calculate D2E/DX2 analytically  !
 ! D23   D(3,4,8,9)           -178.6995         calculate D2E/DX2 analytically  !
 ! D24   D(3,4,8,20)            60.356          calculate D2E/DX2 analytically  !
 ! D25   D(3,4,8,21)           -55.9252         calculate D2E/DX2 analytically  !
 ! D26   D(5,4,8,9)             63.9734         calculate D2E/DX2 analytically  !
 ! D27   D(5,4,8,20)           -56.9711         calculate D2E/DX2 analytically  !
 ! D28   D(5,4,8,21)          -173.2523         calculate D2E/DX2 analytically  !
 ! D29   D(18,4,8,9)           -59.2926         calculate D2E/DX2 analytically  !
 ! D30   D(18,4,8,20)          179.763          calculate D2E/DX2 analytically  !
 ! D31   D(18,4,8,21)           63.4818         calculate D2E/DX2 analytically  !
 ! D32   D(4,5,6,19)           178.8374         calculate D2E/DX2 analytically  !
 ! D33   D(7,5,6,19)            -0.5545         calculate D2E/DX2 analytically  !
 ! D34   D(4,8,9,10)          -102.8617         calculate D2E/DX2 analytically  !
 ! D35   D(4,8,9,13)            74.8506         calculate D2E/DX2 analytically  !
 ! D36   D(20,8,9,10)           17.7951         calculate D2E/DX2 analytically  !
 ! D37   D(20,8,9,13)         -164.4926         calculate D2E/DX2 analytically  !
 ! D38   D(21,8,9,10)          136.4784         calculate D2E/DX2 analytically  !
 ! D39   D(21,8,9,13)          -45.8092         calculate D2E/DX2 analytically  !
 ! D40   D(8,9,10,11)          177.9683         calculate D2E/DX2 analytically  !
 ! D41   D(8,9,10,22)           -0.9796         calculate D2E/DX2 analytically  !
 ! D42   D(13,9,10,11)          -0.0483         calculate D2E/DX2 analytically  !
 ! D43   D(13,9,10,22)        -178.9962         calculate D2E/DX2 analytically  !
 ! D44   D(8,9,13,12)         -178.2889         calculate D2E/DX2 analytically  !
 ! D45   D(8,9,13,24)            2.1849         calculate D2E/DX2 analytically  !
 ! D46   D(10,9,13,12)          -0.0387         calculate D2E/DX2 analytically  !
 ! D47   D(10,9,13,24)        -179.5648         calculate D2E/DX2 analytically  !
 ! D48   D(9,10,11,12)           0.1183         calculate D2E/DX2 analytically  !
 ! D49   D(22,10,11,12)        179.1267         calculate D2E/DX2 analytically  !
 ! D50   D(10,11,12,13)         -0.1432         calculate D2E/DX2 analytically  !
 ! D51   D(10,11,12,23)        179.7012         calculate D2E/DX2 analytically  !
 ! D52   D(11,12,13,9)           0.1185         calculate D2E/DX2 analytically  !
 ! D53   D(11,12,13,24)        179.6404         calculate D2E/DX2 analytically  !
 ! D54   D(23,12,13,9)        -179.7339         calculate D2E/DX2 analytically  !
 ! D55   D(23,12,13,24)         -0.2119         calculate D2E/DX2 analytically  !
 ! D56   D(2,14,15,16)         -68.1162         calculate D2E/DX2 analytically  !
 ! D57   D(2,14,15,27)          51.2626         calculate D2E/DX2 analytically  !
 ! D58   D(2,14,15,28)         167.5287         calculate D2E/DX2 analytically  !
 ! D59   D(25,14,15,16)        171.7078         calculate D2E/DX2 analytically  !
 ! D60   D(25,14,15,27)        -68.9134         calculate D2E/DX2 analytically  !
 ! D61   D(25,14,15,28)         47.3527         calculate D2E/DX2 analytically  !
 ! D62   D(26,14,15,16)         53.7343         calculate D2E/DX2 analytically  !
 ! D63   D(26,14,15,27)        173.1131         calculate D2E/DX2 analytically  !
 ! D64   D(26,14,15,28)        -70.6208         calculate D2E/DX2 analytically  !
 ! D65   D(14,15,16,29)        -72.8542         calculate D2E/DX2 analytically  !
 ! D66   D(14,15,16,30)        169.3726         calculate D2E/DX2 analytically  !
 ! D67   D(27,15,16,29)        166.9699         calculate D2E/DX2 analytically  !
 ! D68   D(27,15,16,30)         49.1967         calculate D2E/DX2 analytically  !
 ! D69   D(28,15,16,29)         49.4839         calculate D2E/DX2 analytically  !
 ! D70   D(28,15,16,30)        -68.2893         calculate D2E/DX2 analytically  !
 --------------------------------------------------------------------------------
 Trust Radius=3.00D-01 FncErr=1.00D-07 GrdErr=1.00D-06
 Number of steps in this run=    160 maximum allowed number of steps=    180.
 GradGradGradGradGradGradGradGradGradGradGradGradGradGradGradGradGradGrad

                          Input orientation:                          
 ---------------------------------------------------------------------
 Center     Atomic      Atomic             Coordinates (Angstroms)
 Number     Number       Type             X           Y           Z
 ---------------------------------------------------------------------
      1          8           0        1.438917    0.436248    2.042087
      2          6           0        1.834550   -0.019245    0.979103
      3          7           0        0.998849   -0.497389    0.031803
      4          6           0       -0.438970   -0.485290    0.220409
      5          6           0       -1.006007   -1.510026   -0.732363
      6          8           0       -1.837219   -2.396269   -0.151910
      7          8           0       -0.746262   -1.525921   -1.910900
      8          6           0       -0.994009    0.917744   -0.094734
      9          6           0       -2.469296    1.033152    0.102718
     10          6           0       -3.516640    1.051681   -0.776767
     11          7           0       -4.725223    1.131834   -0.106082
     12          6           0       -4.408332    1.163990    1.167832
     13          7           0       -3.056777    1.105284    1.347775
     14          6           0        3.319231   -0.138846    0.650866
     15          6           0        3.693694    0.205216   -0.784841
     16          7           0        3.164743   -0.787920   -1.734535
     17          1           0        1.398821   -0.798920   -0.850438
     18          1           0       -0.653775   -0.751404    1.255008
     19          1           0       -2.141948   -2.977487   -0.862290
     20          1           0       -0.759313    1.153105   -1.130955
     21          1           0       -0.460540    1.623525    0.540239
     22          1           0       -3.461381    0.995541   -1.856306
     23          1           0       -5.091809    1.230273    1.995318
     24          1           0       -2.568773    1.119626    2.229332
     25          1           0        3.835516    0.517044    1.352785
     26          1           0        3.638281   -1.165852    0.864072
     27          1           0        3.273030    1.177383   -1.044828
     28          1           0        4.783761    0.303721   -0.850471
     29          1           0        3.687047   -1.653052   -1.666544
     30          1           0        3.269772   -0.457701   -2.683603
 ---------------------------------------------------------------------
                    Distance matrix (angstroms):
                    1          2          3          4          5
     1  O    0.000000
     2  C    1.222266   0.000000
     3  N    2.259775   1.350702   0.000000
     4  C    2.773843   2.441661   1.450187   0.000000
     5  C    4.178901   3.635974   2.372515   1.509765   0.000000
     6  O    4.854878   4.517889   3.418007   2.396990   1.346575
     7  O    4.924553   4.157256   2.806667   2.391614   1.206926
     8  C    3.273679   3.167306   2.447468   1.541392   2.510136
     9  C    4.403587   4.516490   3.791519   2.538059   3.050628
    10  C    5.734304   5.732818   4.841802   3.581717   3.587143
    11  N    6.564685   6.747832   5.953014   4.592783   4.604804
    12  C    5.956866   6.356827   5.769606   4.401542   4.726195
    13  N    4.597929   5.032452   4.555047   3.264016   3.920776
    14  C    2.408695   1.525228   2.428161   3.798604   4.743537
    15  C    3.623385   2.572605   2.902198   4.308856   5.003199
    16  N    4.328965   3.118350   2.809886   4.110978   4.349821
    17  H    3.145465   2.035920   1.014518   2.150012   2.510540
    18  H    2.531674   2.608437   2.071695   1.089657   2.156205
    19  H    5.736862   5.287198   4.100596   3.206776   1.860291
    20  H    3.926104   3.543285   2.677175   2.147823   2.704071
    21  H    2.696871   2.856350   2.624233   2.133040   3.425813
    22  H    6.286747   6.092308   5.068278   3.954816   3.683745
    23  H    6.578985   7.111149   6.628448   5.267103   5.625235
    24  H    4.069846   4.716922   4.491303   3.338801   4.257811
    25  H    2.495065   2.105020   3.289491   4.534113   5.647761
    26  H    2.965071   2.140417   2.847125   4.183473   4.923055
    27  H    3.666374   2.756345   3.022565   4.259607   5.062604
    28  H    4.424074   3.485612   3.968090   5.389456   6.068363
    29  H    4.813856   3.619464   3.383245   4.684898   4.787265
    30  H    5.146195   3.958222   3.540070   4.710501   4.816328
                    6          7          8          9         10
     6  O    0.000000
     7  O    2.245382   0.000000
     8  C    3.420081   3.054723   0.000000
     9  C    3.496468   3.684069   1.492909   0.000000
    10  C    3.885777   3.950353   2.616634   1.367760   0.000000
    11  N    4.559625   5.114016   3.737368   2.267717   1.384527
    12  C    4.585606   5.488622   3.648604   2.216178   2.142240
    13  N    3.999657   4.783376   2.524088   1.378588   2.174403
    14  C    5.685893   5.001485   4.502926   5.931365   7.084111
    15  C    6.144862   4.896739   4.791504   6.281376   7.259855
    16  N    5.487360   3.983931   4.784711   6.199533   6.995880
    17  H    3.675788   2.500898   3.040339   4.384898   5.252801
    18  H    2.466888   3.260583   2.173389   2.794375   3.946546
    19  H    0.967116   2.270368   4.132763   4.138070   4.258085
    20  H    3.836465   2.790280   1.088223   2.111961   2.781832
    21  H    4.305004   4.001091   1.088994   2.138941   3.376575
    22  H    4.128830   3.705755   3.032673   2.196229   1.082409
    23  H    5.324918   6.460567   4.610635   3.240118   3.193354
    24  H    4.308945   5.240419   2.814591   2.130695   3.152730
    25  H    6.552207   5.984817   5.057686   6.448231   7.673007
    26  H    5.703266   5.201379   5.169023   6.535884   7.668293
    27  H    6.299439   4.920634   4.379237   5.857642   6.796122
    28  H    7.184379   5.920578   5.859248   7.351699   8.334358
    29  H    5.776158   4.441857   5.567034   6.945973   7.745992
    30  H    6.020704   4.226901   5.174352   6.551575   7.208998
                   11         12         13         14         15
    11  N    0.000000
    12  C    1.313130   0.000000
    13  N    2.213169   1.364744   0.000000
    14  C    8.179293   7.853653   6.533531   0.000000
    15  C    8.496912   8.388982   7.136319   1.523107   0.000000
    16  N    8.281841   8.341772   7.196679   2.476954   1.472423
    17  H    6.464194   6.453639   5.320761   2.525388   2.505800
    18  H    4.687839   4.215808   3.038144   4.065094   4.896590
    19  H    4.912400   5.139039   4.731841   6.338138   6.647580
    20  H    4.096250   4.312758   3.380050   4.634494   4.565913
    21  H    4.341315   4.023694   2.767877   4.171913   4.585313
    22  H    2.163136   3.173405   3.231390   7.317748   7.277895
    23  H    2.135406   1.075299   2.139226   8.627145   9.271737
    24  H    3.178771   2.124319   1.007719   6.224459   7.009984
    25  H    8.705889   8.271262   6.917352   1.090612   2.164901
    26  H    8.727472   8.382626   7.086313   1.096354   2.145184
    27  H    8.053283   7.993708   6.767290   2.147085   1.090715
    28  H    9.573957   9.450301   8.182226   2.143531   1.096474
    29  H    8.997606   9.027988   7.885030   2.792579   2.056844
    30  H    8.549280   8.741666   7.662908   3.350044   2.055351
                   16         17         18         19         20
    16  N    0.000000
    17  H    1.974900   0.000000
    18  H    4.849720   2.940801   0.000000
    19  H    5.806547   4.157324   3.413656   0.000000
    20  H    4.419287   2.923463   3.054687   4.364132   0.000000
    21  H    4.912468   3.355510   2.487675   5.095442   1.761661
    22  H    6.863023   5.277635   4.540346   4.302780   2.802166
    23  H    9.282003   7.371854   4.916427   5.879868   5.343226
    24  H    7.226630   5.376580   2.849084   5.150402   3.816647
    25  H    3.418248   3.538847   4.666075   7.269689   5.261747
    26  H    2.668302   2.844181   4.329705   6.298682   5.356914
    27  H    2.085626   2.730608   4.942597   6.827756   4.033335
    28  H    2.143470   3.560004   5.925633   7.663674   5.614783
    29  H    1.012856   2.575179   5.309536   6.031429   5.285024
    30  H    1.010349   2.641474   5.567148   6.241251   4.608572
                   21         22         23         24         25
    21  H    0.000000
    22  H    3.891380   0.000000
    23  H    4.870376   4.189081   0.000000
    24  H    2.748017   4.183848   2.536280   0.000000
    25  H    4.510058   7.985733   8.978790   6.492022   0.000000
    26  H    4.968483   7.904257   9.123355   6.753878   1.763486
    27  H    4.080566   6.785562   8.900327   6.697023   2.549704
    28  H    5.583784   8.335027  10.319103   8.013154   2.408115
    29  H    5.727855   7.625685   9.939372   7.874063   3.721251
    30  H    5.351625   6.935759   9.729214   7.791887   4.190779
                   26         27         28         29         30
    26  H    0.000000
    27  H    3.044349   0.000000
    28  H    2.532080   1.755952   0.000000
    29  H    2.577550   2.927337   2.386989   0.000000
    30  H    3.636383   2.314972   2.496457   1.624005   0.000000
 Symmetry turned off by external request.
 Stoichiometry    C9H14N4O3
 Framework group  C1[X(C9H14N4O3)]
 Deg. of freedom    84
 Full point group                 C1      NOp   1
 Rotational constants (GHZ):      0.9635637      0.2824545      0.2508772
 Standard basis: 6-311G(2df,2pd) (5D, 7F)
   676 basis functions,  1006 primitive gaussians,   770 cartesian basis functions
    60 alpha electrons       60 beta electrons
       nuclear repulsion energy      1127.8646177760 Hartrees.
 NAtoms=   30 NActive=   30 NUniq=   30 SFac= 1.00D+00 NAtFMM=   60 NAOKFM=F Big=F
 Integral buffers will be    131072 words long.
 Raffenetti 2 integral format.
 Two-electron integral symmetry is turned off.
 Nuclear repulsion after empirical dispersion term =     1127.8101966719 Hartrees.
 One-electron integrals computed using PRISM.
 NBasis=   676 RedAO= T EigKep=  2.06D-04  NBF=   676
 NBsUse=   676 1.00D-06 EigRej= -1.00D+00 NBFU=   676
 ExpMin= 1.03D-01 ExpMax= 8.59D+03 ExpMxC= 1.30D+03 IAcc=3 IRadAn=         5 AccDes= 0.00D+00
 Harris functional with IExCor=  402 and IRadAn=       5 diagonalized for initial guess.
 HarFok:  IExCor=  402 AccDes= 0.00D+00 IRadAn=         5 IDoV= 1 UseB2=F ITyADJ=14
 ICtDFT=  3500011 ScaDFX=  1.000000  1.000000  1.000000  1.000000
 FoFCou: FMM=F IPFlag=           0 FMFlag=      100000 FMFlg1=           0
         NFxFlg=           0 DoJE=T BraDBF=F KetDBF=T FulRan=T
         wScrn=  0.000000 ICntrl=     500 IOpCl=  0 I1Cent=   200000004 NGrid=           0
         NMat0=    1 NMatS0=      1 NMatT0=    0 NMatD0=    1 NMtDS0=    0 NMtDT0=    0
 Symmetry not used in FoFCou.
 Requested convergence on RMS density matrix=1.00D-08 within 128 cycles.
 Requested convergence on MAX density matrix=1.00D-06.
 Requested convergence on             energy=1.00D-06.
 No special actions if energy rises.
 Integral accuracy reduced to 1.0D-05 until final iterations.
 Initial convergence to 1.0D-05 achieved.  Increase integral accuracy.
 SCF Done:  E(RB3LYP) =  -796.420420667     A.U. after   13 cycles
            NFock= 13  Conv=0.88D-08     -V/T= 2.0037
 DoSCS=F DFT=T ScalE2(SS,OS)=  1.000000  1.000000
 Range of M.O.s used for correlation:     1   676
 NBasis=   676 NAE=    60 NBE=    60 NFC=     0 NFV=     0
 NROrb=    676 NOA=    60 NOB=    60 NVA=   616 NVB=   616

 **** Warning!!: The largest alpha MO coefficient is  0.10243529D+02

 Symmetrizing basis deriv contribution to polar:
 IMax=3 JMax=2 DiffMx= 0.00D+00
 G2DrvN: will do    31 centers at a time, making    1 passes.
 Calling FoFCou, ICntrl=  3107 FMM=F I1Cent=   0 AccDes= 0.00D+00.
 End of G2Drv F.D. properties file   721 does not exist.
 End of G2Drv F.D. properties file   722 does not exist.
 End of G2Drv F.D. properties file   788 does not exist.
          IDoAtm=111111111111111111111111111111
          Differentiating once with respect to nuclear coordinates.
          There are    93 degrees of freedom in the 1st order CPHF.  IDoFFX=6 NUNeed=     0.
     87 vectors produced by pass  0 Test12= 3.97D-14 1.08D-09 XBig12= 1.89D-01 1.05D-01.
 AX will form    87 AO Fock derivatives at one time.
     87 vectors produced by pass  1 Test12= 3.97D-14 1.08D-09 XBig12= 2.38D-02 4.37D-02.
     87 vectors produced by pass  2 Test12= 3.97D-14 1.08D-09 XBig12= 5.37D-04 3.25D-03.
     87 vectors produced by pass  3 Test12= 3.97D-14 1.08D-09 XBig12= 2.92D-06 2.16D-04.
     87 vectors produced by pass  4 Test12= 3.97D-14 1.08D-09 XBig12= 5.98D-09 9.99D-06.
     85 vectors produced by pass  5 Test12= 3.97D-14 1.08D-09 XBig12= 9.05D-12 2.62D-07.
     38 vectors produced by pass  6 Test12= 3.97D-14 1.08D-09 XBig12= 1.36D-14 1.25D-08.
 InvSVY:  IOpt=1 It=  1 EMax= 5.55D-16
 Solved reduced A of dimension   558 with    93 vectors.
 End of Minotr F.D. properties file   721 does not exist.
 End of Minotr F.D. properties file   722 does not exist.
 End of Minotr F.D. properties file   788 does not exist.

 **********************************************************************

            Population analysis using the SCF density.

 **********************************************************************

 Alpha  occ. eigenvalues --  -19.17888 -19.11930 -19.07799 -14.36123 -14.32579
 Alpha  occ. eigenvalues --  -14.31851 -14.28203 -10.31165 -10.26413 -10.22845
 Alpha  occ. eigenvalues --  -10.21555 -10.21539 -10.19767 -10.18730 -10.18352
 Alpha  occ. eigenvalues --  -10.17251  -1.12200  -1.03614  -1.03049  -1.01010
 Alpha  occ. eigenvalues --   -0.93091  -0.90850  -0.86523  -0.80688  -0.77057
 Alpha  occ. eigenvalues --   -0.73720  -0.68364  -0.64945  -0.61603  -0.60890
 Alpha  occ. eigenvalues --   -0.58820  -0.58219  -0.53802  -0.53491  -0.51908
 Alpha  occ. eigenvalues --   -0.50344  -0.48896  -0.47695  -0.46903  -0.46297
 Alpha  occ. eigenvalues --   -0.44825  -0.44489  -0.43276  -0.41818  -0.41611
 Alpha  occ. eigenvalues --   -0.40950  -0.40332  -0.39538  -0.39077  -0.38286
 Alpha  occ. eigenvalues --   -0.37615  -0.35451  -0.33529  -0.29547  -0.27930
 Alpha  occ. eigenvalues --   -0.27500  -0.26665  -0.26044  -0.25299  -0.22369
 Alpha virt. eigenvalues --   -0.01254   0.01075   0.02215   0.02853   0.03572
 Alpha virt. eigenvalues --    0.03905   0.05359   0.05808   0.06383   0.07538
 Alpha virt. eigenvalues --    0.08095   0.09024   0.10287   0.11334   0.11863
 Alpha virt. eigenvalues --    0.12276   0.12690   0.14787   0.17006   0.17517
 Alpha virt. eigenvalues --    0.18831   0.19665   0.20129   0.20451   0.22123
 Alpha virt. eigenvalues --    0.22591   0.24353   0.25050   0.26225   0.28304
 Alpha virt. eigenvalues --    0.28818   0.30040   0.30533   0.31209   0.32250
 Alpha virt. eigenvalues --    0.32850   0.33420   0.33676   0.34570   0.35927
 Alpha virt. eigenvalues --    0.36391   0.37433   0.38171   0.39281   0.40023
 Alpha virt. eigenvalues --    0.40191   0.40574   0.41046   0.42015   0.43143
 Alpha virt. eigenvalues --    0.43388   0.44777   0.44971   0.45537   0.46100
 Alpha virt. eigenvalues --    0.46611   0.47251   0.47540   0.48023   0.48507
 Alpha virt. eigenvalues --    0.48726   0.49755   0.50154   0.50466   0.51307
 Alpha virt. eigenvalues --    0.52012   0.52303   0.53438   0.53814   0.54679
 Alpha virt. eigenvalues --    0.55824   0.55925   0.56455   0.57070   0.57403
 Alpha virt. eigenvalues --    0.58261   0.59450   0.60032   0.60445   0.63072
 Alpha virt. eigenvalues --    0.63874   0.64982   0.65560   0.66418   0.67585
 Alpha virt. eigenvalues --    0.67838   0.68354   0.69289   0.70364   0.70448
 Alpha virt. eigenvalues --    0.71245   0.71883   0.73153   0.73980   0.74765
 Alpha virt. eigenvalues --    0.75580   0.76936   0.78038   0.78917   0.79671
 Alpha virt. eigenvalues --    0.80522   0.81245   0.81972   0.82904   0.83426
 Alpha virt. eigenvalues --    0.83867   0.85428   0.86577   0.86977   0.88410
 Alpha virt. eigenvalues --    0.89595   0.90549   0.91075   0.92247   0.92973
 Alpha virt. eigenvalues --    0.94480   0.94852   0.96562   0.97204   0.99292
 Alpha virt. eigenvalues --    0.99462   1.00226   1.00965   1.01354   1.02337
 Alpha virt. eigenvalues --    1.02963   1.03918   1.04456   1.05890   1.06844
 Alpha virt. eigenvalues --    1.06927   1.08142   1.08371   1.09160   1.10653
 Alpha virt. eigenvalues --    1.11044   1.11738   1.13119   1.13776   1.14023
 Alpha virt. eigenvalues --    1.14988   1.16435   1.16655   1.17661   1.18862
 Alpha virt. eigenvalues --    1.19988   1.20633   1.21103   1.21410   1.22725
 Alpha virt. eigenvalues --    1.24851   1.25235   1.26335   1.26798   1.27241
 Alpha virt. eigenvalues --    1.27799   1.28854   1.29649   1.30183   1.30662
 Alpha virt. eigenvalues --    1.30821   1.31643   1.32176   1.32875   1.33186
 Alpha virt. eigenvalues --    1.33756   1.34915   1.35516   1.35859   1.36422
 Alpha virt. eigenvalues --    1.37416   1.38779   1.39833   1.40324   1.40574
 Alpha virt. eigenvalues --    1.41093   1.41884   1.43872   1.45211   1.46003
 Alpha virt. eigenvalues --    1.47153   1.47991   1.48572   1.49526   1.51642
 Alpha virt. eigenvalues --    1.52607   1.53952   1.54611   1.56251   1.56499
 Alpha virt. eigenvalues --    1.57546   1.59418   1.59970   1.61543   1.62026
 Alpha virt. eigenvalues --    1.64753   1.65398   1.66857   1.67714   1.67986
 Alpha virt. eigenvalues --    1.70573   1.71445   1.72892   1.74714   1.74928
 Alpha virt. eigenvalues --    1.75760   1.77516   1.78747   1.79777   1.81638
 Alpha virt. eigenvalues --    1.82680   1.85794   1.86590   1.88108   1.90130
 Alpha virt. eigenvalues --    1.91356   1.95156   1.95471   1.98788   2.01039
 Alpha virt. eigenvalues --    2.05207   2.05979   2.08355   2.09465   2.11392
 Alpha virt. eigenvalues --    2.14360   2.15688   2.17625   2.19826   2.24863
 Alpha virt. eigenvalues --    2.28210   2.31519   2.37096   2.42438   2.43915
 Alpha virt. eigenvalues --    2.46267   2.46811   2.49643   2.51009   2.52767
 Alpha virt. eigenvalues --    2.55236   2.56341   2.57197   2.60086   2.61542
 Alpha virt. eigenvalues --    2.62070   2.62450   2.64192   2.65489   2.66860
 Alpha virt. eigenvalues --    2.67128   2.67830   2.68485   2.69367   2.70862
 Alpha virt. eigenvalues --    2.72431   2.72918   2.75918   2.76621   2.79154
 Alpha virt. eigenvalues --    2.79210   2.80575   2.81143   2.82471   2.83452
 Alpha virt. eigenvalues --    2.85438   2.85764   2.86060   2.86219   2.88797
 Alpha virt. eigenvalues --    2.88889   2.89575   2.90406   2.91952   2.93284
 Alpha virt. eigenvalues --    2.93436   2.94814   2.95465   2.95842   2.97249
 Alpha virt. eigenvalues --    2.97504   2.98772   2.99870   3.00058   3.01715
 Alpha virt. eigenvalues --    3.02477   3.02997   3.04362   3.04581   3.04816
 Alpha virt. eigenvalues --    3.05849   3.07031   3.07382   3.07826   3.08911
 Alpha virt. eigenvalues --    3.09383   3.09918   3.10381   3.11198   3.11813
 Alpha virt. eigenvalues --    3.13007   3.13305   3.14059   3.15112   3.15957
 Alpha virt. eigenvalues --    3.16133   3.18331   3.19673   3.19727   3.20498
 Alpha virt. eigenvalues --    3.21786   3.22177   3.22743   3.23089   3.23610
 Alpha virt. eigenvalues --    3.24127   3.25411   3.25550   3.25936   3.27156
 Alpha virt. eigenvalues --    3.27640   3.28575   3.29562   3.30007   3.30409
 Alpha virt. eigenvalues --    3.30972   3.32351   3.32842   3.33867   3.35121
 Alpha virt. eigenvalues --    3.35405   3.35907   3.36351   3.37867   3.38530
 Alpha virt. eigenvalues --    3.39002   3.39824   3.40918   3.41677   3.42250
 Alpha virt. eigenvalues --    3.43025   3.44784   3.45014   3.45665   3.46308
 Alpha virt. eigenvalues --    3.47057   3.48014   3.48760   3.49327   3.50011
 Alpha virt. eigenvalues --    3.51645   3.51681   3.52675   3.53252   3.55136
 Alpha virt. eigenvalues --    3.55985   3.56514   3.56978   3.58241   3.58885
 Alpha virt. eigenvalues --    3.59392   3.60470   3.61707   3.62744   3.63207
 Alpha virt. eigenvalues --    3.63278   3.64319   3.65494   3.66681   3.67450
 Alpha virt. eigenvalues --    3.69253   3.69764   3.70293   3.71977   3.72451
 Alpha virt. eigenvalues --    3.73166   3.73596   3.74865   3.76268   3.76615
 Alpha virt. eigenvalues --    3.77659   3.78285   3.79080   3.79951   3.80801
 Alpha virt. eigenvalues --    3.81244   3.82865   3.83750   3.85246   3.86053
 Alpha virt. eigenvalues --    3.86459   3.88127   3.88659   3.89655   3.89970
 Alpha virt. eigenvalues --    3.90939   3.91426   3.92572   3.92978   3.94137
 Alpha virt. eigenvalues --    3.94735   3.95438   3.97223   3.97488   3.97962
 Alpha virt. eigenvalues --    3.98842   3.99229   4.00617   4.01438   4.02967
 Alpha virt. eigenvalues --    4.03475   4.03685   4.04323   4.05578   4.05910
 Alpha virt. eigenvalues --    4.06744   4.08531   4.08941   4.09461   4.10019
 Alpha virt. eigenvalues --    4.11434   4.12944   4.13832   4.14621   4.16414
 Alpha virt. eigenvalues --    4.17112   4.18265   4.18954   4.21217   4.21774
 Alpha virt. eigenvalues --    4.22176   4.23330   4.24480   4.28482   4.28908
 Alpha virt. eigenvalues --    4.29747   4.31198   4.31519   4.32793   4.34204
 Alpha virt. eigenvalues --    4.34357   4.36864   4.37153   4.40920   4.41267
 Alpha virt. eigenvalues --    4.44332   4.45641   4.46688   4.48981   4.49768
 Alpha virt. eigenvalues --    4.51249   4.52471   4.52748   4.54688   4.55419
 Alpha virt. eigenvalues --    4.58177   4.58768   4.60629   4.60977   4.65159
 Alpha virt. eigenvalues --    4.65583   4.68076   4.68682   4.71699   4.72465
 Alpha virt. eigenvalues --    4.75754   4.76637   4.79057   4.79784   4.80673
 Alpha virt. eigenvalues --    4.81807   4.82564   4.84622   4.86345   4.86660
 Alpha virt. eigenvalues --    4.88809   4.90249   4.90794   4.91774   4.92644
 Alpha virt. eigenvalues --    4.94447   4.94770   4.95416   4.96371   4.99072
 Alpha virt. eigenvalues --    5.00251   5.01256   5.01637   5.02471   5.04165
 Alpha virt. eigenvalues --    5.04429   5.05758   5.06787   5.07159   5.07725
 Alpha virt. eigenvalues --    5.08928   5.09599   5.10675   5.11658   5.12296
 Alpha virt. eigenvalues --    5.12982   5.13957   5.14830   5.15641   5.17730
 Alpha virt. eigenvalues --    5.18329   5.19014   5.19773   5.21635   5.23934
 Alpha virt. eigenvalues --    5.25025   5.25390   5.25854   5.27132   5.28948
 Alpha virt. eigenvalues --    5.29106   5.29806   5.30474   5.32856   5.34957
 Alpha virt. eigenvalues --    5.35330   5.35777   5.39596   5.41693   5.42220
 Alpha virt. eigenvalues --    5.43092   5.45007   5.47654   5.48497   5.49899
 Alpha virt. eigenvalues --    5.52081   5.54616   5.55617   5.55983   5.57661
 Alpha virt. eigenvalues --    5.58798   5.59317   5.62056   5.67375   5.67722
 Alpha virt. eigenvalues --    5.68865   5.70353   5.73427   5.76263   5.77409
 Alpha virt. eigenvalues --    5.78446   5.79039   5.82114   5.84672   5.86187
 Alpha virt. eigenvalues --    5.86330   5.87927   5.91583   5.93999   6.00128
 Alpha virt. eigenvalues --    6.01666   6.03656   6.06937   6.10146   6.12513
 Alpha virt. eigenvalues --    6.19504   6.20593   6.25689   6.32091   6.32827
 Alpha virt. eigenvalues --    6.34001   6.35250   6.36312   6.37505   6.40986
 Alpha virt. eigenvalues --    6.42823   6.44190   6.48854   6.51708   6.60006
 Alpha virt. eigenvalues --    6.67428   6.71852   6.82923   6.89302   6.90312
 Alpha virt. eigenvalues --    6.92704   6.96754   6.98106   7.00480   7.06527
 Alpha virt. eigenvalues --    7.13794   7.15693   7.17456   7.18984   7.20181
 Alpha virt. eigenvalues --    7.27810   7.29042   7.30158   7.42457   7.50006
 Alpha virt. eigenvalues --    7.52901   7.57904   7.59068   7.65919   7.96677
 Alpha virt. eigenvalues --   24.44534  24.63456  24.74811  24.83338  24.93990
 Alpha virt. eigenvalues --   24.95094  25.05342  25.06699  25.10568  35.96879
 Alpha virt. eigenvalues --   36.23790  36.25596  36.41654  50.17872  50.23424
 Alpha virt. eigenvalues --   50.28486
          Condensed to atoms (all electrons):
               1          2          3          4          5          6
     1  O    7.872932   0.708630  -0.133058  -0.012420   0.000671   0.000002
     2  C    0.708630   4.371772   0.319683  -0.065128   0.005668  -0.000191
     3  N   -0.133058   0.319683   6.824925   0.251709  -0.005324  -0.000046
     4  C   -0.012420  -0.065128   0.251709   5.210879   0.210545  -0.068894
     5  C    0.000671   0.005668  -0.005324   0.210545   4.291509   0.395430
     6  O    0.000002  -0.000191  -0.000046  -0.068894   0.395430   7.765363
     7  O   -0.000007  -0.000784  -0.004325  -0.128454   0.694751  -0.086487
     8  C   -0.001950  -0.001472  -0.042049   0.254967  -0.058482  -0.001495
     9  C   -0.001596   0.000516   0.005009  -0.056679  -0.011031   0.002049
    10  C   -0.000006  -0.000005  -0.000102  -0.003375   0.003847   0.001045
    11  N    0.000000   0.000000   0.000000  -0.000566   0.000086  -0.000093
    12  C   -0.000002   0.000001   0.000003   0.000840   0.000062   0.000243
    13  N   -0.000016   0.000007   0.000095   0.001739   0.000836  -0.000498
    14  C   -0.061697   0.383658  -0.078219   0.003694   0.000272   0.000001
    15  C    0.001261  -0.063764   0.019664   0.000171  -0.000031   0.000000
    16  N    0.000007   0.003043  -0.058874   0.000262  -0.000636   0.000000
    17  H    0.003506  -0.009679   0.263169  -0.038177  -0.009964   0.001018
    18  H    0.026736  -0.004550  -0.038856   0.367160  -0.011057   0.011687
    19  H    0.000002   0.000051  -0.000725   0.021935  -0.056968   0.320159
    20  H   -0.000081   0.000764   0.010432  -0.049167  -0.002862   0.000636
    21  H    0.015535   0.002520  -0.010544  -0.047971   0.005724  -0.000213
    22  H    0.000000   0.000000  -0.000014  -0.000010   0.000942  -0.000165
    23  H    0.000000   0.000000   0.000000   0.000019   0.000003   0.000009
    24  H    0.000467   0.000034  -0.000108  -0.000412   0.000002  -0.000073
    25  H    0.013584  -0.041659   0.008949  -0.000151  -0.000009   0.000000
    26  H    0.001572  -0.028774   0.004884  -0.000071  -0.000034   0.000000
    27  H    0.000559  -0.003595   0.007015  -0.000374   0.000007   0.000000
    28  H   -0.000321   0.005749  -0.001043   0.000014  -0.000004   0.000000
    29  H    0.000014  -0.000490   0.003013  -0.000024   0.000077  -0.000001
    30  H    0.000007   0.000001   0.001801  -0.000038   0.000033   0.000001
               7          8          9         10         11         12
     1  O   -0.000007  -0.001950  -0.001596  -0.000006   0.000000  -0.000002
     2  C   -0.000784  -0.001472   0.000516  -0.000005   0.000000   0.000001
     3  N   -0.004325  -0.042049   0.005009  -0.000102   0.000000   0.000003
     4  C   -0.128454   0.254967  -0.056679  -0.003375  -0.000566   0.000840
     5  C    0.694751  -0.058482  -0.011031   0.003847   0.000086   0.000062
     6  O   -0.086487  -0.001495   0.002049   0.001045  -0.000093   0.000243
     7  O    7.859945   0.008194  -0.003351   0.000123   0.000006  -0.000001
     8  C    0.008194   5.036530   0.154684  -0.041614   0.010814  -0.003567
     9  C   -0.003351   0.154684   5.312400   0.513081  -0.046698  -0.124993
    10  C    0.000123  -0.041614   0.513081   4.722576   0.457204  -0.147573
    11  N    0.000006   0.010814  -0.046698   0.457204   6.524390   0.578121
    12  C   -0.000001  -0.003567  -0.124993  -0.147573   0.578121   4.583694
    13  N    0.000018  -0.045057   0.335832  -0.044790  -0.136110   0.473709
    14  C    0.000006  -0.000472  -0.000066   0.000000   0.000000   0.000000
    15  C   -0.000072   0.000225   0.000031   0.000000   0.000000   0.000000
    16  N   -0.000354  -0.000309  -0.000005   0.000000   0.000000   0.000000
    17  H    0.025228   0.003650  -0.001207  -0.000002   0.000000  -0.000002
    18  H    0.003897  -0.062458   0.013112  -0.000767   0.000015   0.000120
    19  H    0.012511  -0.002142   0.000961   0.000503  -0.000004  -0.000020
    20  H    0.011816   0.363907  -0.018548  -0.008768   0.000541  -0.000353
    21  H   -0.000159   0.413614  -0.042049   0.003477  -0.000538   0.000075
    22  H    0.000834  -0.001625  -0.054056   0.429239  -0.018787   0.005990
    23  H    0.000000  -0.000301   0.005885   0.003851  -0.017203   0.423648
    24  H   -0.000004   0.005219  -0.029824   0.002443   0.007554  -0.025336
    25  H    0.000001   0.000020  -0.000004   0.000000   0.000000   0.000000
    26  H   -0.000002   0.000031   0.000003   0.000000   0.000000   0.000000
    27  H   -0.000015   0.000309   0.000040   0.000000   0.000000   0.000000
    28  H   -0.000003  -0.000025   0.000000   0.000000   0.000000   0.000000
    29  H   -0.000030   0.000014   0.000000   0.000000   0.000000   0.000000
    30  H    0.000155   0.000024   0.000002   0.000000   0.000000   0.000000
              13         14         15         16         17         18
     1  O   -0.000016  -0.061697   0.001261   0.000007   0.003506   0.026736
     2  C    0.000007   0.383658  -0.063764   0.003043  -0.009679  -0.004550
     3  N    0.000095  -0.078219   0.019664  -0.058874   0.263169  -0.038856
     4  C    0.001739   0.003694   0.000171   0.000262  -0.038177   0.367160
     5  C    0.000836   0.000272  -0.000031  -0.000636  -0.009964  -0.011057
     6  O   -0.000498   0.000001   0.000000   0.000000   0.001018   0.011687
     7  O    0.000018   0.000006  -0.000072  -0.000354   0.025228   0.003897
     8  C   -0.045057  -0.000472   0.000225  -0.000309   0.003650  -0.062458
     9  C    0.335832  -0.000066   0.000031  -0.000005  -0.001207   0.013112
    10  C   -0.044790   0.000000   0.000000   0.000000  -0.000002  -0.000767
    11  N   -0.136110   0.000000   0.000000   0.000000   0.000000   0.000015
    12  C    0.473709   0.000000   0.000000   0.000000  -0.000002   0.000120
    13  N    6.292066   0.000000   0.000000   0.000000   0.000004   0.003394
    14  C    0.000000   4.909017   0.265610  -0.041874  -0.013451   0.001271
    15  C    0.000000   0.265610   4.745719   0.252157  -0.026769   0.000112
    16  N    0.000000  -0.041874   0.252157   6.380778   0.120233  -0.000110
    17  H    0.000004  -0.013451  -0.026769   0.120233   0.577258   0.001418
    18  H    0.003394   0.001271   0.000112  -0.000110   0.001418   0.680956
    19  H   -0.000004  -0.000004   0.000002   0.000002  -0.000568  -0.001243
    20  H    0.003312  -0.000064   0.000099  -0.000049   0.002135   0.009646
    21  H   -0.000311   0.000958  -0.000539   0.000033  -0.000092  -0.008088
    22  H    0.004820   0.000000   0.000000   0.000000  -0.000007  -0.000003
    23  H   -0.038890   0.000000   0.000000   0.000000   0.000000   0.000013
    24  H    0.378890   0.000003   0.000000   0.000000   0.000003   0.001057
    25  H    0.000000   0.367541  -0.021768   0.004452   0.000879  -0.000283
    26  H    0.000000   0.372550  -0.041595  -0.004824  -0.000409  -0.000405
    27  H    0.000000  -0.042679   0.400180  -0.037344  -0.005225  -0.000010
    28  H    0.000000  -0.048184   0.417401  -0.033287   0.004033   0.000015
    29  H    0.000000   0.000498  -0.038489   0.337593  -0.009439   0.000007
    30  H    0.000000   0.006071  -0.021147   0.344617  -0.007374   0.000004
              19         20         21         22         23         24
     1  O    0.000002  -0.000081   0.015535   0.000000   0.000000   0.000467
     2  C    0.000051   0.000764   0.002520   0.000000   0.000000   0.000034
     3  N   -0.000725   0.010432  -0.010544  -0.000014   0.000000  -0.000108
     4  C    0.021935  -0.049167  -0.047971  -0.000010   0.000019  -0.000412
     5  C   -0.056968  -0.002862   0.005724   0.000942   0.000003   0.000002
     6  O    0.320159   0.000636  -0.000213  -0.000165   0.000009  -0.000073
     7  O    0.012511   0.011816  -0.000159   0.000834   0.000000  -0.000004
     8  C   -0.002142   0.363907   0.413614  -0.001625  -0.000301   0.005219
     9  C    0.000961  -0.018548  -0.042049  -0.054056   0.005885  -0.029824
    10  C    0.000503  -0.008768   0.003477   0.429239   0.003851   0.002443
    11  N   -0.000004   0.000541  -0.000538  -0.018787  -0.017203   0.007554
    12  C   -0.000020  -0.000353   0.000075   0.005990   0.423648  -0.025336
    13  N   -0.000004   0.003312  -0.000311   0.004820  -0.038890   0.378890
    14  C   -0.000004  -0.000064   0.000958   0.000000   0.000000   0.000003
    15  C    0.000002   0.000099  -0.000539   0.000000   0.000000   0.000000
    16  N    0.000002  -0.000049   0.000033   0.000000   0.000000   0.000000
    17  H   -0.000568   0.002135  -0.000092  -0.000007   0.000000   0.000003
    18  H   -0.001243   0.009646  -0.008088  -0.000003   0.000013   0.001057
    19  H    0.486302  -0.000156   0.000052   0.000081   0.000001   0.000005
    20  H   -0.000156   0.701379  -0.042230   0.001759   0.000019  -0.000122
    21  H    0.000052  -0.042230   0.678859   0.000145  -0.000025   0.001730
    22  H    0.000081   0.001759   0.000145   0.622103  -0.000421  -0.000482
    23  H    0.000001   0.000019  -0.000025  -0.000421   0.608875  -0.001478
    24  H    0.000005  -0.000122   0.001730  -0.000482  -0.001478   0.548087
    25  H    0.000000  -0.000037   0.000036   0.000000   0.000000  -0.000001
    26  H    0.000001  -0.000011   0.000037   0.000000   0.000000   0.000000
    27  H    0.000001   0.000199  -0.000009   0.000000   0.000000   0.000000
    28  H    0.000000   0.000008   0.000009   0.000000   0.000000   0.000000
    29  H    0.000001  -0.000006   0.000002   0.000000   0.000000   0.000000
    30  H   -0.000001   0.000047  -0.000012   0.000000   0.000000   0.000000
              25         26         27         28         29         30
     1  O    0.013584   0.001572   0.000559  -0.000321   0.000014   0.000007
     2  C   -0.041659  -0.028774  -0.003595   0.005749  -0.000490   0.000001
     3  N    0.008949   0.004884   0.007015  -0.001043   0.003013   0.001801
     4  C   -0.000151  -0.000071  -0.000374   0.000014  -0.000024  -0.000038
     5  C   -0.000009  -0.000034   0.000007  -0.000004   0.000077   0.000033
     6  O    0.000000   0.000000   0.000000   0.000000  -0.000001   0.000001
     7  O    0.000001  -0.000002  -0.000015  -0.000003  -0.000030   0.000155
     8  C    0.000020   0.000031   0.000309  -0.000025   0.000014   0.000024
     9  C   -0.000004   0.000003   0.000040   0.000000   0.000000   0.000002
    10  C    0.000000   0.000000   0.000000   0.000000   0.000000   0.000000
    11  N    0.000000   0.000000   0.000000   0.000000   0.000000   0.000000
    12  C    0.000000   0.000000   0.000000   0.000000   0.000000   0.000000
    13  N    0.000000   0.000000   0.000000   0.000000   0.000000   0.000000
    14  C    0.367541   0.372550  -0.042679  -0.048184   0.000498   0.006071
    15  C   -0.021768  -0.041595   0.400180   0.417401  -0.038489  -0.021147
    16  N    0.004452  -0.004824  -0.037344  -0.033287   0.337593   0.344617
    17  H    0.000879  -0.000409  -0.005225   0.004033  -0.009439  -0.007374
    18  H   -0.000283  -0.000405  -0.000010   0.000015   0.000007   0.000004
    19  H    0.000000   0.000001   0.000001   0.000000   0.000001  -0.000001
    20  H   -0.000037  -0.000011   0.000199   0.000008  -0.000006   0.000047
    21  H    0.000036   0.000037  -0.000009   0.000009   0.000002  -0.000012
    22  H    0.000000   0.000000   0.000000   0.000000   0.000000   0.000000
    23  H    0.000000   0.000000   0.000000   0.000000   0.000000   0.000000
    24  H   -0.000001   0.000000   0.000000   0.000000   0.000000   0.000000
    25  H    0.697917  -0.034055  -0.001373  -0.005662  -0.000553  -0.000685
    26  H   -0.034055   0.711361   0.009504  -0.006410   0.004482   0.000074
    27  H   -0.001373   0.009504   0.701321  -0.057718   0.010428  -0.006457
    28  H   -0.005662  -0.006410  -0.057718   0.743541  -0.012618  -0.004557
    29  H   -0.000553   0.004482   0.010428  -0.012618   0.640693  -0.034671
    30  H   -0.000685   0.000074  -0.006457  -0.004557  -0.034671   0.634562
 Mulliken charges:
               1
     1  O   -0.434330
     2  C    0.417992
     3  N   -0.347066
     4  C    0.147978
     5  C    0.545937
     6  O   -0.339483
     7  O   -0.393438
     8  C    0.010812
     9  C    0.046506
    10  C    0.109611
    11  N   -0.358732
    12  C    0.235340
    13  N   -0.229045
    14  C   -0.024438
    15  C    0.111543
    16  N   -0.265512
    17  H    0.119833
    18  H    0.007207
    19  H    0.219265
    20  H    0.015755
    21  H    0.029973
    22  H    0.009659
    23  H    0.015996
    24  H    0.112345
    25  H    0.012861
    26  H    0.012091
    27  H    0.025235
    28  H   -0.000938
    29  H    0.099498
    30  H    0.087544
 Sum of Mulliken charges =   0.00000
 Mulliken charges with hydrogens summed into heavy atoms:
               1
     1  O   -0.434330
     2  C    0.417992
     3  N   -0.227233
     4  C    0.155185
     5  C    0.545937
     6  O   -0.120218
     7  O   -0.393438
     8  C    0.056540
     9  C    0.046506
    10  C    0.119270
    11  N   -0.358732
    12  C    0.251336
    13  N   -0.116700
    14  C    0.000514
    15  C    0.135840
    16  N   -0.078469
 APT charges:
               1
     1  O   -0.071452
     2  C   -0.038913
     3  N   -0.328587
     4  C   -0.019242
     5  C   -0.285145
     6  O   -0.548241
     7  O    0.081140
     8  C   -0.376424
     9  C   -0.292682
    10  C   -0.538585
    11  N    0.730140
    12  C   -0.801185
    13  N   -0.497008
    14  C   -0.639467
    15  C   -0.779725
    16  N   -0.957106
    17  H    0.260038
    18  H    0.179900
    19  H    0.748177
    20  H    0.167237
    21  H    0.197386
    22  H    0.266803
    23  H    0.873078
    24  H    0.230943
    25  H    0.411518
    26  H    0.346304
    27  H    0.125419
    28  H    0.592873
    29  H    0.509348
    30  H    0.453457
 Sum of APT charges =   0.00000
 APT charges with hydrogens summed into heavy atoms:
               1
     1  O   -0.071452
     2  C   -0.038913
     3  N   -0.068549
     4  C    0.160658
     5  C   -0.285145
     6  O    0.199936
     7  O    0.081140
     8  C   -0.011801
     9  C   -0.292682
    10  C   -0.271782
    11  N    0.730140
    12  C    0.071893
    13  N   -0.266064
    14  C    0.118354
    15  C   -0.061433
    16  N    0.005699
 Electronic spatial extent (au):  <R**2>=           4508.2526
 Charge=              0.0000 electrons
 Dipole moment (field-independent basis, Debye):
    X=              4.6830    Y=             -1.5890    Z=             -0.5479  Tot=              4.9755
 Quadrupole moment (field-independent basis, Debye-Ang):
   XX=            -96.0400   YY=            -89.5774   ZZ=            -93.9053
   XY=              2.5446   XZ=            -17.1644   YZ=              1.8846
 Traceless Quadrupole moment (field-independent basis, Debye-Ang):
   XX=             -2.8657   YY=              3.5968   ZZ=             -0.7311
   XY=              2.5446   XZ=            -17.1644   YZ=              1.8846
 Octapole moment (field-independent basis, Debye-Ang**2):
  XXX=            296.0888  YYY=            -26.2221  ZZZ=             -3.4339  XYY=             44.6713
  XXY=            -43.5307  XXZ=             12.7124  XZZ=             20.7215  YZZ=              9.9416
  YYZ=             -5.3946  XYZ=            -17.1253
 Hexadecapole moment (field-independent basis, Debye-Ang**3):
 XXXX=          -4792.6618 YYYY=           -702.6553 ZZZZ=           -750.0112 XXXY=            383.3426
 XXXZ=           -138.9560 YYYX=            346.0094 YYYZ=           -102.6719 ZZZX=              1.8827
 ZZZY=           -151.3230 XXYY=           -838.8865 XXZZ=           -712.3039 YYZZ=           -250.4546
 XXYZ=             42.1384 YYXZ=             43.0315 ZZXY=             48.6650
 N-N= 1.127810196672D+03 E-N=-4.117963382694D+03  KE= 7.934545673989D+02
  Exact polarizability:   0.000   0.000   0.000   0.000   0.000   0.000
 Approx polarizability: 218.488   2.502 158.355  -2.319  11.362 226.516
 Calling FoFJK, ICntrl=    100147 FMM=F ISym2X=0 I1Cent= 0 IOpClX= 0 NMat=1 NMatS=1 NMatT=0.
 -------------------------------------------------------------------
 Center     Atomic                   Forces (Hartrees/Bohr)
 Number     Number              X              Y              Z
 -------------------------------------------------------------------
      1        8           0.000526101    0.001144741    0.000474406
      2        6          -0.000469439   -0.003340538    0.003557209
      3        7          -0.001276110   -0.001850606    0.002504609
      4        6           0.008360304    0.001907311    0.001844746
      5        6          -0.004585292   -0.001930729   -0.006887493
      6        8           0.004139791    0.004771334    0.000075829
      7        8          -0.000882067   -0.001293406    0.004835115
      8        6          -0.010056375    0.001295529    0.000296931
      9        6           0.004278828    0.000496276   -0.000643542
     10        6          -0.004913235   -0.001394357   -0.001389182
     11        7           0.005550630    0.000025251    0.001010035
     12        6           0.001524936   -0.000432658   -0.004674536
     13        7          -0.000054091   -0.000265005    0.003132298
     14        6          -0.001256882    0.000344463    0.002512651
     15        6           0.004284066    0.000675966   -0.002884262
     16        7           0.001165416    0.001674902    0.001141227
     17        1           0.000427442   -0.000898086   -0.003363370
     18        1          -0.000934539    0.000318832   -0.001634294
     19        1          -0.002052613   -0.001279519   -0.000584853
     20        1           0.000729237   -0.000749837   -0.000443100
     21        1           0.000993733   -0.000295683    0.000628160
     22        1          -0.000944256    0.000799216    0.003735982
     23        1          -0.001436687    0.000103902    0.000435881
     24        1          -0.000592321    0.000190972   -0.001780128
     25        1           0.000088363   -0.001347733   -0.001576094
     26        1          -0.000729020    0.001407069    0.001282793
     27        1          -0.000557386   -0.000135143   -0.000806462
     28        1          -0.000503797    0.000680190    0.000381132
     29        1          -0.000170425   -0.000605510    0.000399806
     30        1          -0.000654312   -0.000017145   -0.001581493
 -------------------------------------------------------------------
 Cartesian Forces:  Max     0.010056375 RMS     0.002513523
 FormGI is forming the generalized inverse of G from B-inverse, IUseBI=4.

 GradGradGradGradGradGradGradGradGradGradGradGradGradGradGradGradGradGrad
 Berny optimization.
 Internal  Forces:  Max     0.005381621 RMS     0.001710928
 Search for a local minimum.
 Step number   1 out of a maximum of  160
 All quantities printed in internal units (Hartrees-Bohrs-Radians)
 Mixed Optimization -- RFO/linear search
 Second derivative matrix not updated -- analytic derivatives used.
 ITU=  0
     Eigenvalues ---    0.00004   0.00072   0.00177   0.00214   0.00281
     Eigenvalues ---    0.00385   0.00460   0.00530   0.00876   0.01145
     Eigenvalues ---    0.01982   0.02107   0.02461   0.02833   0.03266
     Eigenvalues ---    0.03658   0.03726   0.04207   0.04228   0.04392
     Eigenvalues ---    0.04542   0.04604   0.04988   0.05191   0.05309
     Eigenvalues ---    0.05582   0.05731   0.06226   0.07720   0.07770
     Eigenvalues ---    0.08292   0.09920   0.10646   0.10776   0.11086
     Eigenvalues ---    0.11537   0.12456   0.13186   0.14407   0.14784
     Eigenvalues ---    0.14925   0.15405   0.15936   0.16699   0.18817
     Eigenvalues ---    0.19551   0.20881   0.21620   0.22464   0.22502
     Eigenvalues ---    0.23897   0.24094   0.24726   0.26549   0.26982
     Eigenvalues ---    0.30178   0.30982   0.31515   0.32416   0.32708
     Eigenvalues ---    0.32780   0.33270   0.33743   0.33758   0.33829
     Eigenvalues ---    0.34491   0.34957   0.35898   0.37159   0.37298
     Eigenvalues ---    0.40221   0.40297   0.41593   0.44133   0.44697
     Eigenvalues ---    0.45547   0.46442   0.47096   0.47306   0.51597
     Eigenvalues ---    0.57386   0.58102   0.80555   0.85995
 RFO step:  Lambda=-3.18130803D-03 EMin= 4.48973003D-05
 Linear search not attempted -- first point.
 Iteration  1 RMS(Cart)=  0.10667499 RMS(Int)=  0.00558106
 Iteration  2 RMS(Cart)=  0.01057073 RMS(Int)=  0.00024058
 Iteration  3 RMS(Cart)=  0.00009583 RMS(Int)=  0.00023512
 Iteration  4 RMS(Cart)=  0.00000002 RMS(Int)=  0.00023512
 Variable       Old X    -DE/DX   Delta X   Delta X   Delta X     New X
                                 (Linear)    (Quad)   (Total)
    R1        2.30975   0.00067   0.00000   0.00132   0.00132   2.31107
    R2        2.55246   0.00327   0.00000   0.00649   0.00649   2.55894
    R3        2.88226   0.00166   0.00000  -0.00203  -0.00203   2.88023
    R4        2.74046   0.00062   0.00000  -0.01519  -0.01519   2.72526
    R5        1.91716   0.00336   0.00000   0.00621   0.00621   1.92337
    R6        2.85304   0.00270   0.00000   0.00728   0.00728   2.86032
    R7        2.91281   0.00150   0.00000   0.02073   0.02073   2.93354
    R8        2.05915  -0.00145   0.00000  -0.00454  -0.00454   2.05461
    R9        2.54466  -0.00381   0.00000  -0.00845  -0.00845   2.53621
   R10        2.28076  -0.00489   0.00000  -0.00689  -0.00689   2.27386
   R11        1.82758   0.00184   0.00000   0.00301   0.00301   1.83060
   R12        2.82119  -0.00343   0.00000  -0.01616  -0.01616   2.80503
   R13        2.05644   0.00042   0.00000   0.00214   0.00214   2.05859
   R14        2.05790   0.00066   0.00000   0.00268   0.00268   2.06058
   R15        2.58469   0.00087   0.00000   0.00343   0.00345   2.58814
   R16        2.60515   0.00042   0.00000   0.00287   0.00288   2.60804
   R17        2.61638  -0.00538   0.00000  -0.01538  -0.01538   2.60099
   R18        2.04546  -0.00382   0.00000  -0.01009  -0.01009   2.03537
   R19        2.48146  -0.00354   0.00000  -0.00641  -0.00643   2.47503
   R20        2.57899  -0.00074   0.00000  -0.00174  -0.00175   2.57724
   R21        2.03202   0.00125   0.00000   0.00336   0.00336   2.03538
   R22        1.90431  -0.00184   0.00000  -0.00374  -0.00374   1.90057
   R23        2.87826   0.00455   0.00000   0.01279   0.01279   2.89104
   R24        2.06096  -0.00178   0.00000  -0.00490  -0.00490   2.05606
   R25        2.07181  -0.00128   0.00000  -0.00340  -0.00340   2.06841
   R26        2.78248  -0.00080   0.00000  -0.00714  -0.00714   2.77533
   R27        2.06115   0.00029   0.00000   0.00113   0.00113   2.06228
   R28        2.07204  -0.00046   0.00000  -0.00142  -0.00142   2.07061
   R29        1.91402   0.00046   0.00000   0.00045   0.00045   1.91447
   R30        1.90928   0.00141   0.00000   0.00234   0.00234   1.91162
    A1        2.14313  -0.00134   0.00000  -0.00241  -0.00249   2.14064
    A2        2.13113  -0.00317   0.00000  -0.00794  -0.00803   2.12310
    A3        2.00819   0.00455   0.00000   0.01121   0.01113   2.01931
    A4        2.11680  -0.00400   0.00000  -0.02117  -0.02143   2.09536
    A5        2.06142   0.00295   0.00000   0.01372   0.01345   2.07488
    A6        2.10188   0.00102   0.00000   0.00438   0.00413   2.10601
    A7        1.85943   0.00301   0.00000   0.04477   0.04511   1.90454
    A8        1.91561   0.00355   0.00000   0.03121   0.03162   1.94723
    A9        1.89325  -0.00179   0.00000   0.00629   0.00673   1.89999
   A10        1.93216  -0.00433   0.00000  -0.03342  -0.03477   1.89739
   A11        1.93841   0.00010   0.00000  -0.01839  -0.01977   1.91864
   A12        1.92350  -0.00033   0.00000  -0.02649  -0.02745   1.89605
   A13        1.98943  -0.00485   0.00000  -0.02964  -0.02977   1.95967
   A14        2.14640   0.00354   0.00000   0.01871   0.01859   2.16498
   A15        2.14730   0.00131   0.00000   0.01065   0.01052   2.15783
   A16        1.84773   0.00257   0.00000   0.02246   0.02246   1.87018
   A17        1.98140  -0.00118   0.00000  -0.00839  -0.00840   1.97301
   A18        1.89008  -0.00048   0.00000  -0.00260  -0.00257   1.88752
   A19        1.86954  -0.00032   0.00000  -0.01177  -0.01179   1.85775
   A20        1.89900   0.00118   0.00000   0.01699   0.01697   1.91597
   A21        1.93571   0.00071   0.00000   0.00471   0.00458   1.94030
   A22        1.88535   0.00009   0.00000   0.00089   0.00079   1.88614
   A23        2.30865   0.00118   0.00000   0.01067   0.01054   2.31919
   A24        2.14672  -0.00035   0.00000  -0.00895  -0.00905   2.13767
   A25        1.82730  -0.00084   0.00000  -0.00247  -0.00250   1.82480
   A26        1.93663   0.00011   0.00000   0.00019   0.00019   1.93682
   A27        2.21619   0.00075   0.00000   0.00556   0.00550   2.22169
   A28        2.13022  -0.00085   0.00000  -0.00548  -0.00554   2.12468
   A29        1.83455   0.00145   0.00000   0.00505   0.00506   1.83961
   A30        1.94535   0.00058   0.00000  -0.00004  -0.00004   1.94530
   A31        2.20766  -0.00113   0.00000  -0.00641  -0.00641   2.20125
   A32        2.13017   0.00055   0.00000   0.00644   0.00644   2.13662
   A33        1.88094  -0.00130   0.00000  -0.00273  -0.00271   1.87824
   A34        2.19499   0.00033   0.00000  -0.00348  -0.00349   2.19150
   A35        2.20721   0.00096   0.00000   0.00618   0.00616   2.21338
   A36        2.00916   0.00488   0.00000   0.01259   0.01255   2.02171
   A37        1.84953  -0.00098   0.00000   0.00203   0.00206   1.85159
   A38        1.89113  -0.00222   0.00000  -0.00423  -0.00434   1.88679
   A39        1.93310  -0.00235   0.00000  -0.01003  -0.01002   1.92308
   A40        1.90008   0.00025   0.00000   0.00817   0.00813   1.90821
   A41        1.87594   0.00013   0.00000  -0.01024  -0.01023   1.86571
   A42        1.94689  -0.00013   0.00000  -0.00543  -0.00545   1.94144
   A43        1.90838   0.00055   0.00000  -0.00020  -0.00024   1.90814
   A44        1.89772  -0.00026   0.00000  -0.00232  -0.00232   1.89541
   A45        1.88482  -0.00060   0.00000  -0.00667  -0.00669   1.87813
   A46        1.95965   0.00051   0.00000   0.01362   0.01363   1.97328
   A47        1.86407  -0.00007   0.00000   0.00105   0.00106   1.86513
   A48        1.92578   0.00003   0.00000   0.00664   0.00655   1.93232
   A49        1.92631   0.00150   0.00000   0.01454   0.01445   1.94076
   A50        1.86358  -0.00016   0.00000   0.00618   0.00601   1.86959
    D1        0.01058   0.00034   0.00000   0.02847   0.02850   0.03908
    D2        3.06813  -0.00017   0.00000  -0.01281  -0.01289   3.05524
    D3        3.11147   0.00139   0.00000   0.05178   0.05186  -3.11985
    D4       -0.11416   0.00087   0.00000   0.01050   0.01047  -0.10369
    D5       -2.44762   0.00149   0.00000   0.01170   0.01166  -2.43596
    D6       -0.30482   0.00089   0.00000   0.00848   0.00847  -0.29634
    D7        1.70405  -0.00049   0.00000  -0.00433  -0.00433   1.69971
    D8        0.73436   0.00041   0.00000  -0.01157  -0.01158   0.72279
    D9        2.87716  -0.00019   0.00000  -0.01479  -0.01477   2.86240
   D10       -1.39716  -0.00158   0.00000  -0.02760  -0.02757  -1.42473
   D11       -2.78402  -0.00076   0.00000  -0.01722  -0.01675  -2.80077
   D12        1.40649   0.00071   0.00000  -0.02058  -0.02097   1.38551
   D13       -0.69600   0.00008   0.00000  -0.01081  -0.01074  -0.70674
   D14        0.44354  -0.00032   0.00000   0.02460   0.02498   0.46851
   D15       -1.64914   0.00115   0.00000   0.02124   0.02075  -1.62838
   D16        2.53156   0.00052   0.00000   0.03101   0.03099   2.56255
   D17        2.24515  -0.00074   0.00000   0.17896   0.17912   2.42427
   D18       -0.90705  -0.00096   0.00000   0.15032   0.15044  -0.75661
   D19       -1.95609   0.00296   0.00000   0.22492   0.22449  -1.73160
   D20        1.17489   0.00274   0.00000   0.19627   0.19581   1.37070
   D21        0.18666  -0.00043   0.00000   0.15478   0.15511   0.34177
   D22       -2.96554  -0.00065   0.00000   0.12614   0.12643  -2.83911
   D23       -3.11890   0.00150   0.00000   0.05201   0.05190  -3.06699
   D24        1.05341   0.00111   0.00000   0.03773   0.03766   1.09107
   D25       -0.97608   0.00141   0.00000   0.04413   0.04408  -0.93200
   D26        1.11655  -0.00176   0.00000  -0.00190  -0.00145   1.11510
   D27       -0.99433  -0.00216   0.00000  -0.01618  -0.01570  -1.01003
   D28       -3.02382  -0.00186   0.00000  -0.00978  -0.00928  -3.03310
   D29       -1.03485   0.00132   0.00000   0.06285   0.06243  -0.97242
   D30        3.13746   0.00092   0.00000   0.04857   0.04818  -3.09755
   D31        1.10797   0.00122   0.00000   0.05497   0.05460   1.16257
   D32        3.12130  -0.00089   0.00000  -0.07428  -0.07423   3.04708
   D33       -0.00968  -0.00069   0.00000  -0.04568  -0.04574  -0.05542
   D34       -1.79528   0.00014   0.00000  -0.00144  -0.00144  -1.79671
   D35        1.30639  -0.00015   0.00000  -0.03062  -0.03062   1.27577
   D36        0.31058  -0.00041   0.00000   0.00180   0.00175   0.31234
   D37       -2.87094  -0.00069   0.00000  -0.02738  -0.02743  -2.89837
   D38        2.38200   0.00087   0.00000   0.01626   0.01632   2.39832
   D39       -0.79952   0.00058   0.00000  -0.01291  -0.01287  -0.81239
   D40        3.10613  -0.00010   0.00000  -0.02162  -0.02178   3.08435
   D41       -0.01710  -0.00049   0.00000  -0.03825  -0.03839  -0.05548
   D42       -0.00084   0.00015   0.00000   0.00385   0.00383   0.00299
   D43       -3.12407  -0.00024   0.00000  -0.01278  -0.01278  -3.13685
   D44       -3.11173   0.00011   0.00000   0.01982   0.01962  -3.09211
   D45        0.03813   0.00020   0.00000   0.02327   0.02311   0.06124
   D46       -0.00067  -0.00006   0.00000  -0.00217  -0.00215  -0.00282
   D47       -3.13400   0.00002   0.00000   0.00128   0.00134  -3.13266
   D48        0.00207  -0.00017   0.00000  -0.00404  -0.00404  -0.00197
   D49        3.12635   0.00021   0.00000   0.01177   0.01163   3.13798
   D50       -0.00250   0.00013   0.00000   0.00258   0.00259   0.00009
   D51        3.13638   0.00002   0.00000  -0.00037  -0.00038   3.13600
   D52        0.00207  -0.00005   0.00000  -0.00029  -0.00029   0.00178
   D53        3.13532  -0.00013   0.00000  -0.00383  -0.00390   3.13142
   D54       -3.13695   0.00006   0.00000   0.00253   0.00256  -3.13438
   D55       -0.00370  -0.00002   0.00000  -0.00101  -0.00104  -0.00474
   D56       -1.18885  -0.00004   0.00000   0.00240   0.00235  -1.18650
   D57        0.89470  -0.00050   0.00000  -0.00943  -0.00947   0.88523
   D58        2.92393  -0.00043   0.00000  -0.00958  -0.00962   2.91430
   D59        2.99687  -0.00043   0.00000  -0.00157  -0.00156   2.99531
   D60       -1.20276  -0.00089   0.00000  -0.01339  -0.01338  -1.21614
   D61        0.82646  -0.00082   0.00000  -0.01355  -0.01354   0.81292
   D62        0.93784   0.00064   0.00000   0.01185   0.01188   0.94972
   D63        3.02139   0.00018   0.00000   0.00002   0.00006   3.02145
   D64       -1.23257   0.00025   0.00000  -0.00013  -0.00010  -1.23267
   D65       -1.27155   0.00049   0.00000   0.02208   0.02214  -1.24940
   D66        2.95611  -0.00025   0.00000   0.00145   0.00142   2.95753
   D67        2.91417   0.00027   0.00000   0.02993   0.02996   2.94413
   D68        0.85864  -0.00047   0.00000   0.00930   0.00924   0.86788
   D69        0.86366   0.00043   0.00000   0.02496   0.02501   0.88866
   D70       -1.19187  -0.00031   0.00000   0.00433   0.00429  -1.18759
         Item               Value     Threshold  Converged?
 Maximum Force            0.005382     0.000450     NO 
 RMS     Force            0.001711     0.000300     NO 
 Maximum Displacement     0.622828     0.001800     NO 
 RMS     Displacement     0.109841     0.001200     NO 
 Predicted change in Energy=-1.964162D-03
 GradGradGradGradGradGradGradGradGradGradGradGradGradGradGradGradGradGrad

                          Input orientation:                          
 ---------------------------------------------------------------------
 Center     Atomic      Atomic             Coordinates (Angstroms)
 Number     Number       Type             X           Y           Z
 ---------------------------------------------------------------------
      1          8           0        1.382775    0.425443    2.006777
      2          6           0        1.815042   -0.038708    0.961144
      3          7           0        1.008626   -0.541826   -0.003348
      4          6           0       -0.423785   -0.500825    0.158833
      5          6           0       -1.057083   -1.515178   -0.769101
      6          8           0       -2.067991   -2.177378   -0.185322
      7          8           0       -0.723899   -1.681704   -1.913275
      8          6           0       -0.995765    0.903514   -0.173571
      9          6           0       -2.454442    1.011538    0.079229
     10          6           0       -3.546637    1.003042   -0.747085
     11          7           0       -4.714318    1.061692   -0.020778
     12          6           0       -4.341693    1.103042    1.234143
     13          7           0       -2.983329    1.073840    1.352456
     14          6           0        3.310406   -0.106732    0.674270
     15          6           0        3.731048    0.235189   -0.756346
     16          7           0        3.268036   -0.785579   -1.705326
     17          1           0        1.423070   -0.843863   -0.882515
     18          1           0       -0.667626   -0.739859    1.191078
     19          1           0       -2.471535   -2.738643   -0.863947
     20          1           0       -0.786559    1.115755   -1.221372
     21          1           0       -0.436979    1.616047    0.433928
     22          1           0       -3.550508    0.956351   -1.823136
     23          1           0       -4.994691    1.158835    2.088882
     24          1           0       -2.451904    1.103205    2.205821
     25          1           0        3.783707    0.575010    1.377835
     26          1           0        3.659112   -1.113853    0.923587
     27          1           0        3.280677    1.185519   -1.047897
     28          1           0        4.817141    0.378715   -0.776416
     29          1           0        3.796321   -1.643003   -1.595352
     30          1           0        3.392721   -0.479543   -2.661414
 ---------------------------------------------------------------------
                    Distance matrix (angstroms):
                    1          2          3          4          5
     1  O    0.000000
     2  C    1.222964   0.000000
     3  N    2.261902   1.354135   0.000000
     4  C    2.745274   2.422726   1.442146   0.000000
     5  C    4.174257   3.663716   2.408515   1.513618   0.000000
     6  O    4.846418   4.578891   3.489085   2.373328   1.342104
     7  O    4.923916   4.172282   2.819358   2.403783   1.203277
     8  C    3.261890   3.174272   2.477008   1.552361   2.491684
     9  C    4.333957   4.484338   3.796392   2.533209   3.009414
    10  C    5.675956   5.722840   4.867256   3.582529   3.541158
    11  N    6.456806   6.693848   5.943372   4.569726   4.536036
    12  C    5.815981   6.267656   5.732616   4.367915   4.653679
    13  N    4.462222   4.941180   4.514896   3.233508   3.861923
    14  C    2.403029   1.524152   2.438579   3.790141   4.810613
    15  C    3.631175   2.587638   2.929563   4.317627   5.098053
    16  N    4.335954   3.127150   2.839204   4.145566   4.485029
    17  H    3.156069   2.049633   1.017804   2.147779   2.571903
    18  H    2.495484   2.590005   2.067775   1.087255   2.143618
    19  H    5.753973   5.384733   4.204539   3.201123   1.872574
    20  H    3.950125   3.586710   2.730173   2.156363   2.683196
    21  H    2.683821   2.843901   2.633895   2.134713   3.411214
    22  H    6.267964   6.126294   5.132432   3.978437   3.665599
    23  H    6.420022   7.005596   6.580995   5.231897   5.551862
    24  H    3.899198   4.589119   4.422875   3.297930   4.201383
    25  H    2.486446   2.103788   3.294854   4.510696   5.693107
    26  H    2.953717   2.134933   2.865571   4.198892   5.026803
    27  H    3.675702   2.771834   3.039247   4.245350   5.117388
    28  H    4.420771   3.493702   3.993723   5.395887   6.171985
[...]
 99,0.00012719,0.00029919,0.00001974,-0.00013809,-0.00006533,-0.0011378
 4,-0.00050328,-0.00004230,0.00000296,-0.00003245,0.00003824,-0.0002780
 6,0.00005632,-0.00026013,0.00005739,0.00031431,-0.00022051,0.00175193,
 -0.00036928,-0.00041532,-0.00120301,0.00014051,-0.04029257,0.02908271,
 -0.00352886,0.00159324,-0.00422812,0.00195832,-0.00055995,-0.00030800,
 0.00003623,-0.00005613,-0.00054302,0.00065908,-0.00051307,-0.00014999,
 -0.00014009,-0.00048617,-0.00039328,0.00015155,0.00020689,0.00008871,-
 0.00010037,0.00025540,0.00026326,0.00027464,0.00036142,0.00072592,-0.0
 2798868,0.00690126,-0.00277529,-0.00156278,-0.00202589,-0.00722659,0.0
 0740520,-0.00273270,-0.00007015,0.01003797,0.00333704,0.01724856,-0.13
 085209,0.00249754,-0.13456974,-0.00004373,-0.00038598,0.00029419,-0.00
 006364,-0.00000612,0.00000737,-0.00008573,-0.00001168,-0.00001827,0.00
 005017,-0.00002730,-0.00010009,0.00003158,-0.00045678,0.00002312,-0.00
 003072,-0.00003611,-0.00000234,-0.00001906,0.00025356,0.00031465,0.000
 39301,0.00010220,-0.00053170,-0.00119537,-0.00014246,0.00049788,-0.000
 25777,0.00020606,-0.00063102,0.14487300,-0.00828908,0.13206842,0.00321
 463,0.00216426,0.00065073,-0.00879567,-0.02938008,-0.02415694,-0.00684
 105,0.00079667,0.00096381,0.00021193,-0.00007405,-0.00151182,-0.000366
 10,0.00037635,0.00027876,-0.00012001,-0.00022354,-0.00017341,0.0000706
 8,-0.00011778,-0.00014265,-0.00015315,-0.00017434,-0.00006838,-0.00002
 631,0.00002047,-0.00016178,0.00005957,0.00000752,0.00001404,0.00004433
 ,0.00000925,0.00008945,-0.00012116,0.00003283,0.00006957,0.00016250,-0
 .00004202,-0.00000666,-0.05569011,-0.03849595,-0.02851179,0.00274398,0
 .01387465,0.00835035,-0.00106747,-0.00115742,0.00420723,-0.00041443,0.
 00005874,0.00078385,0.00003424,-0.00004201,-0.00001337,-0.00002992,-0.
 00002649,0.00000162,-0.00004661,0.00007043,-0.00000689,-0.00000347,0.0
 0000527,-0.00000148,0.00000910,-0.00000308,0.00000376,-0.00000727,0.00
 000018,0.00000573,-0.00026537,0.00007252,-0.00004625,0.06483246,0.0005
 2264,0.00122802,0.00172754,0.00213527,-0.00272927,-0.00225008,-0.00076
 312,0.00058121,0.00010984,0.00047819,0.00039393,-0.00009854,0.00013240
 ,0.00006536,0.00006129,-0.00008816,-0.00004862,-0.00002771,-0.00007659
 ,-0.00000916,-0.00003351,-0.00011238,-0.00003917,-0.00005017,-0.000008
 11,0.00000568,-0.00005743,0.00002327,0.00000431,0.00001606,-0.00001573
 ,0.00000914,0.00004170,-0.00002705,0.00000416,0.00000676,0.00000854,-0
 .00001123,-0.00001423,-0.04177904,-0.20331708,-0.12629455,0.00152124,0
 .00474855,0.00424358,-0.00037476,0.00086912,0.00091253,0.00005808,-0.0
 0010988,0.00039380,-0.00003637,-0.00002784,0.00001400,0.00001463,0.000
 01115,0.00000909,-0.00003452,0.00002667,-0.00000807,-0.00001532,-0.000
 03044,0.00001196,0.00000390,-0.00000073,0.00000029,-0.00000412,0.00000
 342,0.00000350,-0.00003323,0.00001527,-0.00002425,0.04335055,0.2178292
 9,0.00228357,0.00142828,0.00050897,-0.00251880,-0.00395732,-0.00502014
 ,-0.00100670,-0.00002147,0.00132972,0.00012494,-0.00029517,-0.00004996
 ,0.00001373,-0.00003295,-0.00005752,-0.00007221,-0.00002687,-0.0000204
 7,-0.00008219,0.00001691,0.00006521,0.00001745,-0.00004230,0.00000480,
 -0.00000669,-0.00000130,-0.00003893,0.00000891,-0.00000008,-0.00000863
 ,0.00003079,0.00000071,0.00001233,-0.00003874,0.00001159,0.00003119,0.
 00006247,-0.00000291,0.00000941,-0.03117213,-0.12594854,-0.14915634,-0
 .00676098,-0.02162571,-0.01434412,0.00249419,0.00202689,-0.00550916,0.
 00074467,0.00028920,-0.00023057,-0.00004179,0.00000802,0.00003733,0.00
 000006,-0.00000398,-0.00000239,0.00000737,0.00000552,0.00000727,0.0000
 0631,0.00000839,-0.00001944,0.00000216,-0.00000226,0.00000169,0.000000
 94,-0.00000311,0.00000022,-0.00008693,0.00003243,0.00001972,0.03243722
 ,0.13772699,0.16178105,-0.00198936,-0.00392364,0.00250576,-0.01103823,
 0.03133540,-0.01518233,-0.00092994,-0.00190627,0.00038514,-0.00010683,
 -0.00133861,0.00041136,-0.00025149,0.00029967,0.00039036,-0.00010290,-
 0.00018076,-0.00017013,0.00007209,-0.00019550,-0.00013744,0.00024900,-
 0.00014592,0.00002566,0.00003553,0.00001354,0.00004830,0.00001029,0.00
 000993,0.00001475,-0.00008096,0.00000937,0.00001779,0.00005298,-0.0000
 0963,-0.00002767,-0.00011402,0.00003583,-0.00010172,-0.07444610,0.0728
 0942,-0.03911306,0.00603688,-0.01521654,0.00902429,0.00054087,-0.00051
 428,-0.00152146,-0.00051804,0.00058586,-0.00034902,-0.00022742,-0.0000
 3914,-0.00018249,-0.00002465,0.00001115,-0.00002370,-0.00002535,0.0000
 0002,-0.00000898,0.00005254,-0.00000684,0.00003233,-0.00000208,-0.0000
 0107,-0.00000291,-0.00000239,0.00000378,0.00000368,0.00023113,-0.00018
 731,0.00006324,0.00191845,-0.00536705,0.00334450,0.08084289,0.00089591
 ,0.00076417,0.00003981,-0.00037899,0.00235626,-0.00225834,-0.00036785,
 -0.00025381,-0.00059322,0.00022553,-0.00022937,0.00023022,-0.00005963,
 -0.00002414,0.00003625,0.00001578,0.00000602,-0.00002155,0.00001822,0.
 00001003,-0.00000989,-0.00004086,-0.00003203,0.00000747,-0.00002036,0.
 00000080,-0.00005486,0.00001045,0.00000199,0.00000245,0.00003385,0.000
 00015,0.00000870,-0.00003811,0.00001403,0.00003271,0.00008528,-0.00001
 296,-0.00000126,0.06863409,-0.21998840,0.09347225,0.00143030,-0.004612
 75,0.00208971,-0.00052477,0.00181194,-0.00100838,-0.00019917,0.0000130
 2,0.00003162,-0.00006716,-0.00003564,-0.00000570,-0.00000866,-0.000008
 40,-0.00000305,-0.00000960,0.00000632,-0.00000340,0.00001659,-0.000011
 40,-0.00000359,0.00000127,-0.00000196,0.00000146,0.00000044,-0.0000047
 3,-0.00000025,-0.00012148,0.00001604,0.00002237,0.00813151,-0.02075495
 ,0.01158661,-0.07607611,0.23937634,0.00098297,0.00054486,-0.00040268,-
 0.00218244,0.00275836,-0.00289736,-0.00076899,-0.00080388,0.00032301,-
 0.00006132,-0.00034117,0.00000118,-0.00018648,0.00007778,0.00011823,0.
 00003970,-0.00002817,-0.00004543,0.00009757,-0.00007060,-0.00001711,0.
 00006450,-0.00001707,0.00000284,-0.00001121,-0.00001842,-0.00003769,0.
 00001451,-0.00000454,0.00000208,0.00002248,-0.00000094,0.00001825,-0.0
 0003887,0.00001564,0.00002541,0.00003481,-0.00000661,0.00000126,-0.037
 22668,0.09307507,-0.09259303,-0.00864378,0.02588300,-0.01725024,-0.000
 90012,0.00046103,0.00302866,-0.00038189,0.00042099,-0.00023685,-0.0000
 5120,-0.00001994,-0.00003320,-0.00001922,-0.00000178,-0.00001159,0.000
 00292,0.00000671,0.00000057,0.00001314,-0.00000668,-0.00001142,0.00000
 231,0.00000101,0.00000028,0.00000033,-0.00000063,-0.00000005,-0.000103
 10,0.00002226,-0.00000080,0.00710675,-0.01629156,0.00986573,0.03852497
 ,-0.10454258,0.10363111,0.00039233,0.00009035,-0.00023968,0.00101243,-
 0.00103119,0.00044844,0.00013808,0.00023316,-0.00019882,-0.00016626,0.
 00010972,-0.00014336,-0.00006235,-0.00011412,-0.00009535,0.00008313,0.
 00006417,0.00004809,0.00003788,0.00007728,0.00005105,-0.00007650,-0.00
 006693,0.00002524,0.00000313,0.00000772,-0.00001803,-0.00002255,0.0000
 0569,-0.00000916,0.00004549,-0.00002214,-0.00003028,-0.00000757,0.0000
 0392,0.00001457,0.00006651,-0.00001225,0.00002779,0.00629164,-0.014128
 86,0.00962980,-0.09307925,0.08008029,-0.05391637,0.00217900,-0.0021381
 0,0.00297169,0.00005271,-0.00043078,0.00010001,0.00008411,0.00001757,0
 .00001940,-0.00000984,-0.00000887,-0.00000307,0.00002037,0.00000422,0.
 00000352,-0.00001757,0.00006720,0.00000666,0.00000017,0.00000298,0.000
 00222,0.00000242,0.00000020,-0.00000387,-0.00008471,0.00003537,0.00002
 126,0.00034206,0.00034606,-0.00077257,-0.00118617,-0.00112011,0.003390
 72,0.09573432,-0.00029401,-0.00013600,-0.00012816,0.00083269,0.0004516
 6,0.00081810,-0.00059997,0.00048077,-0.00071860,-0.00015056,-0.0000381
 6,0.00001887,0.00005973,-0.00013676,-0.00010861,-0.00001749,0.00003624
 ,0.00003147,-0.00008289,0.00012151,0.00002967,-0.00007184,-0.00006484,
 0.00003270,-0.00000354,0.00003489,0.00000798,-0.00001831,0.00001069,-0
 .00000627,0.00001238,-0.00001297,-0.00003335,0.00001938,-0.00000581,-0
 .00001180,-0.00000047,0.00001464,0.00001140,0.00028347,-0.00214705,0.0
 0344866,0.07555220,-0.19568920,0.09463406,0.01065766,-0.02920940,0.010
 77364,0.00071095,-0.00074279,-0.00001300,0.00003476,0.00001048,-0.0000
 0598,0.00000439,-0.00001204,0.00000669,-0.00000757,-0.00000719,-0.0000
 0300,-0.00001971,0.00006720,0.00001666,-0.00000308,-0.00000150,0.00000
 097,0.00000156,-0.00000230,-0.00000225,0.00001650,-0.00002125,0.000023
 13,-0.00026423,0.00021803,0.00040206,-0.00008535,0.00112744,0.00033811
 ,-0.08500308,0.22209615,0.00048794,-0.00027354,-0.00011443,-0.00225508
 ,-0.00014292,0.00050355,0.00042388,-0.00017885,0.00073566,0.00004346,0
 .00014228,0.00005152,0.00002322,0.00000347,0.00000473,0.00000741,0.000
 00180,0.00001246,0.00000235,0.00000718,-0.00001562,0.00004893,0.000044
 08,-0.00004014,0.00000034,-0.00001744,-0.00000862,0.00001035,-0.000007
 80,0.00000392,0.00000528,0.00000067,0.00001703,-0.00001611,0.00000262,
 0.00000898,0.00002332,-0.00002661,0.00000310,-0.00938302,0.02259850,-0
 .01624315,-0.05370734,0.10222454,-0.11413829,0.00867084,-0.02186466,0.
 01018406,0.00019663,0.00014059,-0.00010457,-0.00002224,-0.00000278,0.0
 0000963,0.00000257,0.00000426,-0.00000083,-0.00000909,-0.00001051,0.00
 000113,0.00000842,-0.00000988,0.00003325,0.00000169,0.00000215,-0.0000
 0019,-0.00000038,0.00000500,-0.00000055,-0.00006444,0.00006068,-0.0000
 2625,-0.00037804,-0.00043867,0.00044088,0.00337693,0.00002604,-0.00447
 367,0.05488770,-0.10282891,0.12640634,-0.00193343,0.00061865,0.0004019
 2,0.00248217,-0.00057513,0.00326356,0.00006812,-0.00017175,-0.00006233
 ,0.00038261,0.00019396,-0.00003808,0.00027451,0.00019160,0.00009385,-0
 .00022505,-0.00012542,-0.00007293,-0.00017174,-0.00011601,-0.00006174,
 -0.00002218,-0.00007426,-0.00003080,0.00003510,0.00002906,0.00004280,0
 .00000877,0.00001003,0.00001693,-0.00012445,0.00002913,0.00002715,0.00
 007195,-0.00002703,-0.00006147,-0.00020076,0.00006165,-0.00002487,-0.0
 1747669,-0.00249015,-0.00188863,-0.27194778,-0.04375476,-0.04544086,0.
 00471807,-0.00491140,-0.00340316,0.00040947,0.00013835,-0.00016473,-0.
 00003328,0.00000753,0.00003093,0.00003178,0.00002282,0.00001322,-0.000
 03747,0.00001916,-0.00002143,0.00000914,-0.00004848,0.00002674,-0.0000
 0153,-0.00000477,-0.00000464,-0.00000365,-0.00000050,0.00000776,0.0002
 9799,-0.00012273,-0.00005027,0.00022654,0.00056917,0.00032483,0.000746
 98,-0.00052300,-0.00019616,-0.01290965,-0.00138909,-0.00267145,0.29342
 078,-0.00062479,0.00018099,0.00016354,0.00026510,0.00081331,0.00127366
 ,-0.00003815,0.00057042,0.00011711,-0.00012857,0.00003360,0.00015212,0
 .00045453,-0.00020319,-0.00030943,-0.00024830,0.00000131,0.00005446,-0
 .00038569,0.00008897,0.00017421,-0.00002643,-0.00003253,0.00004508,0.0
 0000606,0.00002633,-0.00000123,-0.00000064,0.00000708,-0.00000319,-0.0
 0001142,0.00000098,0.00000148,0.00000866,-0.00000414,-0.00000930,-0.00
 002482,0.00001803,0.00000347,-0.00646531,-0.00035924,0.00026410,-0.043
 34563,-0.06019921,-0.00565561,-0.02808402,-0.01618595,-0.01613032,0.00
 164895,-0.00078769,-0.00098833,-0.00000743,0.00001290,-0.00000319,0.00
 004244,0.00001752,0.00001121,0.00000780,-0.00001081,0.00000229,-0.0000
 2450,0.00002290,-0.00000657,0.00000074,-0.00000312,0.00000102,-0.00000
 100,-0.00000069,0.00000142,0.00003914,-0.00003094,-0.00000354,0.000450
 08,0.00047198,-0.00003614,-0.00009397,-0.00000963,-0.00068400,0.023497
 84,0.00621811,0.00466336,0.05357296,0.06742463,0.00294215,-0.00096184,
 -0.00010889,-0.00219372,0.00108436,-0.00656048,0.00006790,0.00062035,0
 .00183220,-0.00017208,0.00003686,0.00025816,0.00040298,-0.00028434,-0.
 00035326,-0.00018491,0.00004786,0.00008203,-0.00032925,0.00014754,0.00
 022791,0.00008588,0.00003057,0.00001405,-0.00002013,-0.00002387,-0.000
 08012,0.00003969,-0.00001023,-0.00000688,0.00008202,0.00000325,0.00005
 059,-0.00010130,0.00003565,0.00008260,0.00021322,-0.00006640,-0.000010
 03,0.03150315,0.00595058,0.00380340,-0.04659438,-0.00611926,-0.0589029
 4,-0.02015029,-0.01413764,-0.00813685,0.00187552,-0.00048102,-0.000972
 19,-0.00002897,-0.00003059,-0.00002769,0.00003799,0.00001330,0.0000071
 5,0.00003814,-0.00001605,0.00002338,0.00000292,0.00001905,-0.00002649,
 0.00000862,-0.00000139,0.00000480,-0.00000063,-0.00000066,-0.00000051,
 -0.00033979,0.00011256,0.00001808,-0.00044990,-0.00043847,0.00112199,-
 0.00083793,0.00009578,0.00118857,-0.01670970,-0.00264406,-0.00263301,0
 .05058030,0.01583460,0.06825372,0.00004061,0.00004650,0.00003143,-0.00
 031782,0.00027236,-0.00011847,-0.00129887,-0.00091144,0.00119974,-0.00
 006262,-0.00003661,0.00022884,-0.00049366,0.00032419,0.00032823,0.0002
 7405,0.00000962,-0.00007513,0.00045689,-0.00043063,-0.00002941,0.00002
 078,0.00003721,-0.00000945,-0.00000119,-0.00003069,0.00000461,-0.00000
 445,-0.00000881,-0.00000236,0.00001979,-0.00000806,-0.00000327,-0.0000
 1481,0.00000441,0.00000694,0.00002273,-0.00001406,0.00000942,-0.000343
 91,0.00080969,-0.00018921,-0.00073493,-0.00989925,-0.00074783,-0.12773
 274,0.18579524,-0.08465482,0.00062550,0.00271723,-0.00198669,-0.000140
 95,-0.00000952,0.00000025,-0.00005750,-0.00000277,-0.00003257,0.000017
 26,0.00000793,0.00000195,0.00001597,-0.00003319,-0.00001318,-0.0000004
 6,0.00000599,-0.00000077,0.00000033,0.00000377,-0.00000164,-0.00003163
 ,0.00003097,-0.00000258,0.00006106,-0.00042293,0.00016607,0.00018541,0
 .00007339,0.00065532,0.00079254,-0.00065615,-0.00008884,0.00141110,-0.
 00063938,0.00107762,0.12343143,-0.00033903,0.00008697,0.00015273,0.000
 34785,0.00002927,0.00008603,-0.00065331,-0.00027355,0.00055213,0.00009
 286,0.00004449,0.00004487,-0.00012459,0.00019534,0.00017209,0.00005290
 ,-0.00003510,-0.00005214,0.00012923,-0.00026282,-0.00003677,-0.0000316
 1,-0.00001310,-0.00000507,0.00000746,0.00000219,0.00001349,-0.00000386
 ,0.00000061,0.00000333,-0.00002148,-0.00000102,-0.00000288,0.00001791,
 -0.00000557,-0.00001159,-0.00003856,0.00000745,-0.00000657,-0.00030955
 ,0.00120595,0.00012238,0.01759663,-0.02682906,0.01234442,0.14192652,-0
 .25666187,0.10398579,0.00092330,0.00067363,-0.00099251,-0.00005668,-0.
 00000150,0.00001429,-0.00002150,0.00001007,-0.00001205,-0.00000388,0.0
 0001156,-0.00000597,0.00000391,-0.00002019,0.00000153,-0.00000125,0.00
 000221,-0.00000198,0.00000055,0.00000163,0.00000004,0.00006573,-0.0000
 1965,-0.00000067,-0.00027198,0.00014468,0.00001266,0.00046216,0.000270
 76,-0.00075000,-0.00118966,-0.00339953,-0.00474393,-0.00074188,0.00167
 609,0.00124439,-0.16280074,0.28830410,-0.00024115,-0.00001253,0.000016
 75,0.00048243,0.00015222,0.00009089,0.00002255,0.00000829,-0.00030003,
 0.00012470,-0.00005207,-0.00000613,-0.00005048,0.00013390,0.00014414,0
 .00001744,-0.00003317,-0.00005116,0.00007527,-0.00014736,-0.00008628,-
 0.00001771,-0.00000939,-0.00000684,0.00000920,0.00000544,0.00001369,-0
 .00000127,0.00000271,0.00000495,-0.00002888,0.00000473,-0.00000344,0.0
 0002487,-0.00000624,-0.00001136,-0.00004441,0.00001368,-0.00001402,0.0
 0017623,-0.00098461,0.00219182,0.01244669,-0.02031105,0.00962471,-0.06
 565436,0.10896535,-0.11832902,-0.00033198,-0.00001916,0.00009004,-0.00
 000636,-0.00000487,-0.00001150,-0.00000721,0.00000526,0.00000528,-0.00
 000544,0.00001017,-0.00000637,-0.00000232,-0.00001431,-0.00000031,-0.0
 0000125,-0.00000043,-0.00000211,0.00000088,-0.00000149,0.00000045,0.00
 006748,-0.00003251,0.00000691,-0.00028288,0.00040487,-0.00010078,-0.00
 030867,0.00091649,-0.00070704,0.00022533,-0.00430841,-0.00192143,-0.00
 007690,0.00005242,0.00054125,0.07592631,-0.11412628,0.12229774,-0.0003
 2231,0.00009224,0.00000850,0.00093194,-0.00033570,-0.00025353,-0.00244
 394,0.00050198,-0.00023022,0.00030363,0.00025648,0.00028644,-0.0007090
 3,0.00050382,0.00074633,0.00039419,-0.00007848,-0.00014042,0.00061837,
 -0.00010686,-0.00071577,-0.00016875,-0.00006872,-0.00000384,-0.0000144
 8,0.00005686,0.00001364,-0.00001840,0.00001197,0.00000909,-0.00002669,
 -0.00001327,-0.00003709,0.00004556,-0.00001788,-0.00003323,-0.00005374
 ,0.00001238,-0.00001763,0.00020319,0.00092644,0.00068189,-0.00302555,-
 0.00341299,-0.00810127,-0.07461710,-0.02047719,0.16346304,0.00174764,-
 0.00074572,0.00226612,-0.00009908,-0.00002822,-0.00003753,-0.00007828,
 -0.00005247,-0.00000008,-0.00008496,0.00002531,-0.00003313,0.00002396,
 0.00000280,0.00004878,-0.00000939,0.00000279,-0.00000445,0.00000351,-0
 .00000083,-0.00000383,0.00012628,-0.00003361,0.00001273,0.00001657,-0.
 00000546,0.00048954,0.00007089,-0.00001673,-0.00018156,0.00034410,0.00
 048168,0.00037478,0.00049258,0.00015573,-0.00084513,0.00386009,0.00498
 256,-0.02253811,0.07248921,0.00029334,0.00006735,0.00026925,-0.0006896
 0,-0.00033870,-0.00052881,-0.00018492,0.00033353,0.00027943,0.00009125
 ,0.00009282,0.00008692,-0.00015234,0.00017667,0.00021643,0.00012815,-0
 .00002606,-0.00003678,0.00018830,-0.00011734,-0.00022869,-0.00002192,0
 .00003613,-0.00001461,-0.00000579,-0.00001391,-0.00001392,0.00000636,-
 0.00000607,0.00000507,0.00000341,-0.00000012,0.00001179,-0.00001343,0.
 00000465,0.00000825,0.00001936,-0.00001231,-0.00000434,-0.00129342,-0.
 00555835,-0.00283699,0.01247537,0.00600692,-0.03198392,-0.01521058,-0.
 07285662,0.07369477,0.00051033,-0.00036342,0.00045154,-0.00002470,-0.0
 0001856,-0.00001077,-0.00002272,-0.00000046,0.00000024,0.00000174,0.00
 001300,-0.00000197,-0.00000780,-0.00002443,-0.00001217,0.00000160,0.00
 000369,-0.00000077,-0.00000039,0.00000160,0.,-0.00003661,0.00001702,-0
 .00000221,0.00085167,0.00044840,-0.00155617,-0.00028817,0.00020487,-0.
 00001627,0.00062234,0.00073900,0.00061927,-0.00038771,0.00024200,-0.00
 006087,-0.01423426,-0.00514404,0.02938833,0.01738110,0.07609272,0.0000
 5782,0.00018092,0.00018736,-0.00016765,-0.00034049,-0.00029553,-0.0008
 0159,0.00034123,0.00033711,0.00008774,0.00012028,0.00011511,-0.0000529
 9,0.00009400,0.00012808,0.00003763,-0.00002250,-0.00002765,0.00004656,
 -0.00002061,-0.00017717,-0.00003103,-0.00001112,-0.00000772,-0.0000037
 9,0.00001126,-0.00000229,0.00000232,0.00000170,0.00000486,-0.00000693,
 -0.00000036,-0.00000099,0.00000331,-0.00000198,-0.00000376,-0.00000677
 ,-0.00000156,-0.00000876,-0.00169825,-0.00478793,-0.00107603,0.0096926
 1,0.00552016,-0.01760152,0.11808595,0.06350654,-0.35881370,0.00125460,
 -0.00032690,-0.00003099,-0.00003476,-0.00001271,0.00000207,-0.00001032
 ,-0.00000966,0.00000975,-0.00002281,0.00000598,-0.00000781,0.00000662,
 -0.00000417,0.00000917,-0.00000199,0.00000028,-0.00000109,0.00000030,-
 0.00000012,-0.00000063,0.00001291,-0.00000152,-0.00000213,0.00094937,0
 .00034344,-0.00067906,-0.00020154,-0.00009388,0.00051096,0.00026678,0.
 00021824,0.00130451,-0.00055952,0.00101530,0.00030946,0.00831949,0.001
 99821,-0.01347082,-0.13522405,-0.06772204,0.38928922\\-0.00000009,-0.0
 0000108,0.00000014,-0.00000135,-0.00000103,-0.00000286,0.00000004,0.00
 000389,-0.00000058,-0.00000012,-0.00000275,0.00000129,0.00000066,0.000
 00114,0.00000166,-0.00000148,-0.00000114,-0.00000044,0.00000140,0.0000
 0025,-0.00000092,0.00000138,0.00000033,-0.00000070,-0.00000019,0.00000
 006,0.00000047,0.00000155,-0.00000010,-0.00000018,-0.00000081,0.000000
 36,0.00000091,0.00000006,0.00000025,0.00000152,-0.00000011,-0.00000058
 ,-0.00000138,0.00000062,-0.00000023,-0.00000090,-0.00000069,-0.0000002
 3,0.00000063,0.00000078,-0.00000097,-0.00000077,-0.00000083,0.00000031
 ,0.00000228,0.00000005,0.00000044,0.00000063,0.00000010,0.00000066,-0.
 00000006,0.00000003,0.00000040,-0.00000034,-0.00000055,0.00000020,-0.0
 0000024,-0.00000050,-0.00000005,-0.00000093,0.00000020,-0.00000024,-0.
 00000029,-0.00000065,0.00000047,0.00000075,-0.00000033,0.00000007,0.00
 000033,0.00000052,-0.00000045,-0.00000021,-0.00000005,0.00000008,0.000
 00016,0.00000017,-0.00000027,-0.00000018,-0.00000007,0.00000008,-0.000
 00003,0.00000026,0.00000014,0.00000025\\\@


 IT IS A QUALITY OF REVOLUTIONS NOT TO GO BY OLD LINES OR OLD LAWS,
 BUT TO BREAK UP BOTH, AND MAKE NEW ONES.
                                              -- A. LINCOLN (1848)
 Job cpu time:       0 days 14 hours 42 minutes 24.6 seconds.
 File lengths (MBytes):  RWF=    973 Int=      0 D2E=      0 Chk=     34 Scr=      1
 Normal termination of Gaussian 09 at Sat Jul 24 13:10:25 2021.
