 Entering Gaussian System, Link 0=g09
 Input=opt_freq-conf-640.com
 Output=opt_freq-conf-640.log
 Initial command:
 /aerosol/software/g09/l1.exe "/scratch/nicole/10355/Gau-73449.inp" -scrdir="/scratch/nicole/10355/"
 Entering Link 1 = /aerosol/software/g09/l1.exe PID=     73454.
  
 Copyright (c) 1988,1990,1992,1993,1995,1998,2003,2009,2013,
            Gaussian, Inc.  All Rights Reserved.
  
 This is part of the Gaussian(R) 09 program.  It is based on
 the Gaussian(R) 03 system (copyright 2003, Gaussian, Inc.),
 the Gaussian(R) 98 system (copyright 1998, Gaussian, Inc.),
 the Gaussian(R) 94 system (copyright 1995, Gaussian, Inc.),
 the Gaussian 92(TM) system (copyright 1992, Gaussian, Inc.),
 the Gaussian 90(TM) system (copyright 1990, Gaussian, Inc.),
 the Gaussian 88(TM) system (copyright 1988, Gaussian, Inc.),
 the Gaussian 86(TM) system (copyright 1986, Carnegie Mellon
 University), and the Gaussian 82(TM) system (copyright 1983,
 Carnegie Mellon University). Gaussian is a federally registered
 trademark of Gaussian, Inc.
  
 This software contains proprietary and confidential information,
 including trade secrets, belonging to Gaussian, Inc.
  
 This software is provided under written license and may be
 used, copied, transmitted, or stored only in accord with that
 written license.
  
 The following legend is applicable only to US Government
 contracts under FAR:
  
                    RESTRICTED RIGHTS LEGEND
  
 Use, reproduction and disclosure by the US Government is
 subject to restrictions as set forth in subparagraphs (a)
 and (c) of the Commercial Computer Software - Restricted
 Rights clause in FAR 52.227-19.
  
 Gaussian, Inc.
 340 Quinnipiac St., Bldg. 40, Wallingford CT 06492
  
  
 ---------------------------------------------------------------
 Warning -- This program may not be used in any manner that
 competes with the business of Gaussian, Inc. or will provide
 assistance to any competitor of Gaussian, Inc.  The licensee
 of this program is prohibited from giving any competitor of
 Gaussian, Inc. access to this program.  By using this program,
 the user acknowledges that Gaussian, Inc. is engaged in the
 business of creating and licensing software in the field of
 computational chemistry and represents and warrants to the
 licensee that it is not a competitor of Gaussian, Inc. and that
 it will not use this program in any manner prohibited above.
 ---------------------------------------------------------------
  

 Cite this work as:
 Gaussian 09, Revision D.01,
 M. J. Frisch, G. W. Trucks, H. B. Schlegel, G. E. Scuseria, 
 M. A. Robb, J. R. Cheeseman, G. Scalmani, V. Barone, B. Mennucci, 
 G. A. Petersson, H. Nakatsuji, M. Caricato, X. Li, H. P. Hratchian, 
 A. F. Izmaylov, J. Bloino, G. Zheng, J. L. Sonnenberg, M. Hada, 
 M. Ehara, K. Toyota, R. Fukuda, J. Hasegawa, M. Ishida, T. Nakajima, 
 Y. Honda, O. Kitao, H. Nakai, T. Vreven, J. A. Montgomery, Jr., 
 J. E. Peralta, F. Ogliaro, M. Bearpark, J. J. Heyd, E. Brothers, 
 K. N. Kudin, V. N. Staroverov, T. Keith, R. Kobayashi, J. Normand, 
 K. Raghavachari, A. Rendell, J. C. Burant, S. S. Iyengar, J. Tomasi, 
 M. Cossi, N. Rega, J. M. Millam, M. Klene, J. E. Knox, J. B. Cross, 
 V. Bakken, C. Adamo, J. Jaramillo, R. Gomperts, R. E. Stratmann, 
 O. Yazyev, A. J. Austin, R. Cammi, C. Pomelli, J. W. Ochterski, 
 R. L. Martin, K. Morokuma, V. G. Zakrzewski, G. A. Voth, 
 P. Salvador, J. J. Dannenberg, S. Dapprich, A. D. Daniels, 
 O. Farkas, J. B. Foresman, J. V. Ortiz, J. Cioslowski, 
 and D. J. Fox, Gaussian, Inc., Wallingford CT, 2013.
 
 ******************************************
 Gaussian 09:  ES64L-G09RevD.01 24-Apr-2013
                24-Jul-2021 
 ******************************************
 %mem=2gb
 %nproc=4
 Will use up to    4 processors via shared memory.
 %chk=conf-640.chk
 ----------------------------------------------------------------------
 # B3LYP/6-311G(2df,2pd) EmpiricalDispersion=GD3BJ opt=calcfc freq=nora
 man nosymm integral(ultrafinegrid)
 ----------------------------------------------------------------------
 1/10=4,14=-1,18=20,19=15,26=4,38=1/1,3;
 2/9=110,12=2,15=1,17=6,18=5,40=1/2;
 3/5=4,6=6,7=404,11=2,16=1,25=1,30=1,71=2,74=-5,75=-5,124=41,140=1/1,2,3;
 4//1;
 5/5=2,38=5/2;
 8/6=4,10=90,11=11/1;
 11/6=1,8=1,9=11,15=111,16=1,31=1/1,2,10;
 10/6=1,13=1,31=1/2;
 6/7=2,8=2,9=2,10=2,28=1/1;
 7/10=1,18=20,25=1,30=1/1,2,3,16;
 1/10=4,14=-1,18=20,19=15,26=4/3(2);
 2/9=110,15=1/2;
 99//99;
 2/9=110,15=1/2;
 3/5=4,6=6,7=404,11=2,16=1,25=1,30=1,71=1,74=-5,75=-5,124=41/1,2,3;
 4/5=5,16=3,69=1/1;
 5/5=2,38=5/2;
 7/30=1/1,2,3,16;
 1/14=-1,18=20,19=15,26=4/3(-5);
 2/9=110,15=1/2;
 6/7=2,8=2,9=2,10=2,19=2,28=1/1;
 99/9=1/99;
 ------------------------------------------------------------
 Candidate Structure: Conf:640 OPT and FREQ calc in gas phase
 ------------------------------------------------------------
 Symbolic Z-matrix:
 Charge =  0 Multiplicity = 1
 O                     0.92904  -1.24196  -0.873 
 C                     1.14845  -0.10723  -0.44526 
 N                     0.2273    0.87891  -0.54866 
 C                    -0.97462   0.70331  -1.33263 
 C                    -1.08429   1.83216  -2.33354 
 O                    -1.97773   1.54387  -3.30167 
 O                    -0.49299   2.87836  -2.27439 
 C                    -2.26049   0.68855  -0.4937 
 C                    -2.33041  -0.37329   0.56466 
 C                    -3.14952  -0.49021   1.64953 
 N                    -2.89099  -1.66012   2.3362 
 C                    -1.92679  -2.23652   1.662 
 N                    -1.55644  -1.50578   0.58175 
 C                     2.45641   0.27932   0.21253 
 C                     3.08644  -0.86428   1.00797 
 N                     4.40372  -0.56311   1.56443 
 H                     0.49677   1.83106  -0.35097 
 H                    -0.88867  -0.23908  -1.87118 
 H                    -2.00681   2.31839  -3.87722 
 H                    -3.09639   0.5662   -1.18687 
 H                    -2.4066    1.65964  -0.01709 
 H                    -3.91554   0.19426   1.98446 
 H                    -1.45505  -3.17397   1.89963 
 H                    -0.77922  -1.70241  -0.03841 
 H                     2.29431   1.15407   0.84898 
 H                     3.14994   0.58266  -0.5804 
 H                     2.43604  -1.14432   1.83845 
 H                     3.16991  -1.73687   0.3616 
 H                     4.3486    0.23292   2.18976 
 H                     5.04569  -0.30467   0.82302 
 

 GradGradGradGradGradGradGradGradGradGradGradGradGradGradGradGradGradGrad
 Berny optimization.
 Initialization pass.
                           ----------------------------
                           !    Initial Parameters    !
                           ! (Angstroms and Degrees)  !
 --------------------------                            --------------------------
 ! Name  Definition              Value          Derivative Info.                !
 --------------------------------------------------------------------------------
 ! R1    R(1,2)                  1.2324         calculate D2E/DX2 analytically  !
 ! R2    R(2,3)                  1.3534         calculate D2E/DX2 analytically  !
 ! R3    R(2,14)                 1.5142         calculate D2E/DX2 analytically  !
 ! R4    R(3,4)                  1.4457         calculate D2E/DX2 analytically  !
 ! R5    R(3,17)                 1.0091         calculate D2E/DX2 analytically  !
 ! R6    R(4,5)                  1.5127         calculate D2E/DX2 analytically  !
 ! R7    R(4,8)                  1.5354         calculate D2E/DX2 analytically  !
 ! R8    R(4,18)                 1.0888         calculate D2E/DX2 analytically  !
 ! R9    R(5,6)                  1.3486         calculate D2E/DX2 analytically  !
 ! R10   R(5,7)                  1.2032         calculate D2E/DX2 analytically  !
 ! R11   R(6,19)                 0.9654         calculate D2E/DX2 analytically  !
 ! R12   R(8,9)                  1.5008         calculate D2E/DX2 analytically  !
 ! R13   R(8,20)                 1.0928         calculate D2E/DX2 analytically  !
 ! R14   R(8,21)                 1.0916         calculate D2E/DX2 analytically  !
 ! R15   R(9,10)                 1.3644         calculate D2E/DX2 analytically  !
 ! R16   R(9,13)                 1.3718         calculate D2E/DX2 analytically  !
 ! R17   R(10,11)                1.381          calculate D2E/DX2 analytically  !
 ! R18   R(10,22)                1.0805         calculate D2E/DX2 analytically  !
 ! R19   R(11,12)                1.3101         calculate D2E/DX2 analytically  !
 ! R20   R(12,13)                1.3558         calculate D2E/DX2 analytically  !
 ! R21   R(12,23)                1.076          calculate D2E/DX2 analytically  !
 ! R22   R(13,24)                1.0136         calculate D2E/DX2 analytically  !
 ! R23   R(14,15)                1.5289         calculate D2E/DX2 analytically  !
 ! R24   R(14,25)                1.0939         calculate D2E/DX2 analytically  !
 ! R25   R(14,26)                1.0962         calculate D2E/DX2 analytically  !
 ! R26   R(15,16)                1.4614         calculate D2E/DX2 analytically  !
 ! R27   R(15,27)                1.0914         calculate D2E/DX2 analytically  !
 ! R28   R(15,28)                1.0891         calculate D2E/DX2 analytically  !
 ! R29   R(16,29)                1.0138         calculate D2E/DX2 analytically  !
 ! R30   R(16,30)                1.0142         calculate D2E/DX2 analytically  !
 ! A1    A(1,2,3)              121.5484         calculate D2E/DX2 analytically  !
 ! A2    A(1,2,14)             122.6579         calculate D2E/DX2 analytically  !
 ! A3    A(3,2,14)             115.7913         calculate D2E/DX2 analytically  !
 ! A4    A(2,3,4)              121.2506         calculate D2E/DX2 analytically  !
 ! A5    A(2,3,17)             119.3924         calculate D2E/DX2 analytically  !
 ! A6    A(4,3,17)             116.2863         calculate D2E/DX2 analytically  !
 ! A7    A(3,4,5)              109.175          calculate D2E/DX2 analytically  !
 ! A8    A(3,4,8)              113.6491         calculate D2E/DX2 analytically  !
 ! A9    A(3,4,18)             107.922          calculate D2E/DX2 analytically  !
 ! A10   A(5,4,8)              107.9384         calculate D2E/DX2 analytically  !
 ! A11   A(5,4,18)             108.9258         calculate D2E/DX2 analytically  !
 ! A12   A(8,4,18)             109.1496         calculate D2E/DX2 analytically  !
 ! A13   A(4,5,6)              111.317          calculate D2E/DX2 analytically  !
 ! A14   A(4,5,7)              125.5017         calculate D2E/DX2 analytically  !
 ! A15   A(6,5,7)              123.1454         calculate D2E/DX2 analytically  !
 ! A16   A(5,6,19)             106.0485         calculate D2E/DX2 analytically  !
 ! A17   A(4,8,9)              115.5387         calculate D2E/DX2 analytically  !
 ! A18   A(4,8,20)             107.1636         calculate D2E/DX2 analytically  !
 ! A19   A(4,8,21)             110.0055         calculate D2E/DX2 analytically  !
 ! A20   A(9,8,20)             109.4183         calculate D2E/DX2 analytically  !
 ! A21   A(9,8,21)             108.3769         calculate D2E/DX2 analytically  !
 ! A22   A(20,8,21)            105.9131         calculate D2E/DX2 analytically  !
 ! A23   A(8,9,10)             130.4895         calculate D2E/DX2 analytically  !
 ! A24   A(8,9,13)             124.5113         calculate D2E/DX2 analytically  !
 ! A25   A(10,9,13)            104.9555         calculate D2E/DX2 analytically  !
 ! A26   A(9,10,11)            110.8288         calculate D2E/DX2 analytically  !
 ! A27   A(9,10,22)            128.1563         calculate D2E/DX2 analytically  !
 ! A28   A(11,10,22)           121.0148         calculate D2E/DX2 analytically  !
 ! A29   A(10,11,12)           104.7504         calculate D2E/DX2 analytically  !
 ! A30   A(11,12,13)           111.9587         calculate D2E/DX2 analytically  !
 ! A31   A(11,12,23)           126.3198         calculate D2E/DX2 analytically  !
 ! A32   A(13,12,23)           121.7214         calculate D2E/DX2 analytically  !
 ! A33   A(9,13,12)            107.5037         calculate D2E/DX2 analytically  !
 ! A34   A(9,13,24)            125.8148         calculate D2E/DX2 analytically  !
 ! A35   A(12,13,24)           126.3288         calculate D2E/DX2 analytically  !
 ! A36   A(2,14,15)            113.0179         calculate D2E/DX2 analytically  !
 ! A37   A(2,14,25)            109.2018         calculate D2E/DX2 analytically  !
 ! A38   A(2,14,26)            107.6311         calculate D2E/DX2 analytically  !
 ! A39   A(15,14,25)           110.8868         calculate D2E/DX2 analytically  !
 ! A40   A(15,14,26)           108.8199         calculate D2E/DX2 analytically  !
 ! A41   A(25,14,26)           107.0571         calculate D2E/DX2 analytically  !
 ! A42   A(14,15,16)           114.5457         calculate D2E/DX2 analytically  !
 ! A43   A(14,15,27)           110.0138         calculate D2E/DX2 analytically  !
 ! A44   A(14,15,28)           108.7903         calculate D2E/DX2 analytically  !
 ! A45   A(16,15,27)           107.476          calculate D2E/DX2 analytically  !
 ! A46   A(16,15,28)           108.7849         calculate D2E/DX2 analytically  !
 ! A47   A(27,15,28)           106.9591         calculate D2E/DX2 analytically  !
 ! A48   A(15,16,29)           110.346          calculate D2E/DX2 analytically  !
 ! A49   A(15,16,30)           110.1652         calculate D2E/DX2 analytically  !
 ! A50   A(29,16,30)           106.5732         calculate D2E/DX2 analytically  !
 ! D1    D(1,2,3,4)             -9.0351         calculate D2E/DX2 analytically  !
 ! D2    D(1,2,3,17)          -168.4865         calculate D2E/DX2 analytically  !
 ! D3    D(14,2,3,4)           170.4087         calculate D2E/DX2 analytically  !
 ! D4    D(14,2,3,17)           10.9574         calculate D2E/DX2 analytically  !
 ! D5    D(1,2,14,15)          -33.549          calculate D2E/DX2 analytically  !
 ! D6    D(1,2,14,25)         -157.4765         calculate D2E/DX2 analytically  !
 ! D7    D(1,2,14,26)           86.6363         calculate D2E/DX2 analytically  !
 ! D8    D(3,2,14,15)          147.014          calculate D2E/DX2 analytically  !
 ! D9    D(3,2,14,25)           23.0865         calculate D2E/DX2 analytically  !
 ! D10   D(3,2,14,26)          -92.8008         calculate D2E/DX2 analytically  !
 ! D11   D(2,3,4,5)           -125.8807         calculate D2E/DX2 analytically  !
 ! D12   D(2,3,4,8)            113.5711         calculate D2E/DX2 analytically  !
 ! D13   D(2,3,4,18)            -7.6271         calculate D2E/DX2 analytically  !
 ! D14   D(17,3,4,5)            34.1759         calculate D2E/DX2 analytically  !
 ! D15   D(17,3,4,8)           -86.3724         calculate D2E/DX2 analytically  !
 ! D16   D(17,3,4,18)          152.4295         calculate D2E/DX2 analytically  !
 ! D17   D(3,4,5,6)            164.2008         calculate D2E/DX2 analytically  !
 ! D18   D(3,4,5,7)            -17.9287         calculate D2E/DX2 analytically  !
 ! D19   D(8,4,5,6)            -71.8144         calculate D2E/DX2 analytically  !
 ! D20   D(8,4,5,7)            106.0562         calculate D2E/DX2 analytically  !
 ! D21   D(18,4,5,6)            46.5777         calculate D2E/DX2 analytically  !
 ! D22   D(18,4,5,7)          -135.5517         calculate D2E/DX2 analytically  !
 ! D23   D(3,4,8,9)            -58.5958         calculate D2E/DX2 analytically  !
 ! D24   D(3,4,8,20)           179.1816         calculate D2E/DX2 analytically  !
 ! D25   D(3,4,8,21)            64.4837         calculate D2E/DX2 analytically  !
 ! D26   D(5,4,8,9)           -179.8379         calculate D2E/DX2 analytically  !
 ! D27   D(5,4,8,20)            57.9396         calculate D2E/DX2 analytically  !
 ! D28   D(5,4,8,21)           -56.7584         calculate D2E/DX2 analytically  !
 ! D29   D(18,4,8,9)            61.9133         calculate D2E/DX2 analytically  !
 ! D30   D(18,4,8,20)          -60.3092         calculate D2E/DX2 analytically  !
 ! D31   D(18,4,8,21)         -175.0072         calculate D2E/DX2 analytically  !
 ! D32   D(4,5,6,19)           178.314          calculate D2E/DX2 analytically  !
 ! D33   D(7,5,6,19)             0.3845         calculate D2E/DX2 analytically  !
 ! D34   D(4,8,9,10)           163.5485         calculate D2E/DX2 analytically  !
 ! D35   D(4,8,9,13)           -19.2303         calculate D2E/DX2 analytically  !
 ! D36   D(20,8,9,10)          -75.4396         calculate D2E/DX2 analytically  !
 ! D37   D(20,8,9,13)          101.7816         calculate D2E/DX2 analytically  !
 ! D38   D(21,8,9,10)           39.6128         calculate D2E/DX2 analytically  !
 ! D39   D(21,8,9,13)         -143.166          calculate D2E/DX2 analytically  !
 ! D40   D(8,9,10,11)          178.0604         calculate D2E/DX2 analytically  !
 ! D41   D(8,9,10,22)           -1.8368         calculate D2E/DX2 analytically  !
 ! D42   D(13,9,10,11)           0.4303         calculate D2E/DX2 analytically  !
 ! D43   D(13,9,10,22)        -179.4669         calculate D2E/DX2 analytically  !
 ! D44   D(8,9,13,12)         -178.3463         calculate D2E/DX2 analytically  !
 ! D45   D(8,9,13,24)            8.1382         calculate D2E/DX2 analytically  !
 ! D46   D(10,9,13,12)          -0.5334         calculate D2E/DX2 analytically  !
 ! D47   D(10,9,13,24)        -174.049          calculate D2E/DX2 analytically  !
 ! D48   D(9,10,11,12)          -0.1528         calculate D2E/DX2 analytically  !
 ! D49   D(22,10,11,12)        179.7528         calculate D2E/DX2 analytically  !
 ! D50   D(10,11,12,13)         -0.201          calculate D2E/DX2 analytically  !
 ! D51   D(10,11,12,23)        179.7219         calculate D2E/DX2 analytically  !
 ! D52   D(11,12,13,9)           0.4761         calculate D2E/DX2 analytically  !
 ! D53   D(11,12,13,24)        173.949          calculate D2E/DX2 analytically  !
 ! D54   D(23,12,13,9)        -179.4508         calculate D2E/DX2 analytically  !
 ! D55   D(23,12,13,24)         -5.978          calculate D2E/DX2 analytically  !
 ! D56   D(2,14,15,16)         175.1479         calculate D2E/DX2 analytically  !
 ! D57   D(2,14,15,27)         -63.6736         calculate D2E/DX2 analytically  !
 ! D58   D(2,14,15,28)          53.1883         calculate D2E/DX2 analytically  !
 ! D59   D(25,14,15,16)        -61.8547         calculate D2E/DX2 analytically  !
 ! D60   D(25,14,15,27)         59.3238         calculate D2E/DX2 analytically  !
 ! D61   D(25,14,15,28)        176.1857         calculate D2E/DX2 analytically  !
 ! D62   D(26,14,15,16)         55.645          calculate D2E/DX2 analytically  !
 ! D63   D(26,14,15,27)        176.8234         calculate D2E/DX2 analytically  !
 ! D64   D(26,14,15,28)        -66.3147         calculate D2E/DX2 analytically  !
 ! D65   D(14,15,16,29)         59.4691         calculate D2E/DX2 analytically  !
 ! D66   D(14,15,16,30)        -57.9352         calculate D2E/DX2 analytically  !
 ! D67   D(27,15,16,29)        -63.0946         calculate D2E/DX2 analytically  !
 ! D68   D(27,15,16,30)        179.5011         calculate D2E/DX2 analytically  !
 ! D69   D(28,15,16,29)       -178.5683         calculate D2E/DX2 analytically  !
 ! D70   D(28,15,16,30)         64.0274         calculate D2E/DX2 analytically  !
 --------------------------------------------------------------------------------
 Trust Radius=3.00D-01 FncErr=1.00D-07 GrdErr=1.00D-06
 Number of steps in this run=    160 maximum allowed number of steps=    180.
 GradGradGradGradGradGradGradGradGradGradGradGradGradGradGradGradGradGrad

                          Input orientation:                          
 ---------------------------------------------------------------------
 Center     Atomic      Atomic             Coordinates (Angstroms)
 Number     Number       Type             X           Y           Z
 ---------------------------------------------------------------------
      1          8           0        0.929043   -1.241963   -0.873004
      2          6           0        1.148453   -0.107229   -0.445265
      3          7           0        0.227295    0.878910   -0.548664
      4          6           0       -0.974618    0.703315   -1.332629
      5          6           0       -1.084293    1.832158   -2.333541
      6          8           0       -1.977728    1.543869   -3.301668
      7          8           0       -0.492986    2.878356   -2.274390
      8          6           0       -2.260494    0.688548   -0.493701
      9          6           0       -2.330413   -0.373288    0.564662
     10          6           0       -3.149524   -0.490207    1.649530
     11          7           0       -2.890995   -1.660122    2.336198
     12          6           0       -1.926786   -2.236516    1.661995
     13          7           0       -1.556443   -1.505777    0.581748
     14          6           0        2.456413    0.279321    0.212533
     15          6           0        3.086444   -0.864276    1.007965
     16          7           0        4.403718   -0.563113    1.564429
     17          1           0        0.496774    1.831061   -0.350975
     18          1           0       -0.888672   -0.239080   -1.871181
     19          1           0       -2.006809    2.318387   -3.877224
     20          1           0       -3.096390    0.566200   -1.186873
     21          1           0       -2.406602    1.659641   -0.017086
     22          1           0       -3.915536    0.194263    1.984460
     23          1           0       -1.455054   -3.173967    1.899627
     24          1           0       -0.779216   -1.702408   -0.038411
     25          1           0        2.294314    1.154066    0.848976
     26          1           0        3.149944    0.582658   -0.580398
     27          1           0        2.436040   -1.144321    1.838451
     28          1           0        3.169914   -1.736868    0.361604
     29          1           0        4.348596    0.232922    2.189758
     30          1           0        5.045691   -0.304669    0.823024
 ---------------------------------------------------------------------
                    Distance matrix (angstroms):
                    1          2          3          4          5
     1  O    0.000000
     2  C    1.232365   0.000000
     3  N    2.257377   1.353401   0.000000
     4  C    2.760306   2.439637   1.445694   0.000000
     5  C    3.954354   3.508841   2.411375   1.512660   0.000000
     6  O    4.701977   4.545126   3.589335   2.364291   1.348557
     7  O    4.578546   3.867007   2.737648   2.418612   1.203193
     8  C    3.747518   3.500932   2.495667   1.535413   2.465016
     9  C    3.666815   3.632251   3.057673   2.568456   3.849206
    10  C    4.854176   4.796607   4.255520   3.879173   5.052070
    11  N    5.006648   5.144429   4.949025   4.766406   6.104642
    12  C    3.946025   4.293192   4.385540   4.303139   5.764391
    13  N    2.891979   3.213588   3.185324   2.980511   4.456865
    14  C    2.413619   1.514225   2.430616   3.786723   4.629298
    15  C    2.887053   2.537875   3.692767   4.942464   5.985940
    16  N    4.298288   3.852720   4.897663   6.238853   7.144912
    17  H    3.146880   2.047082   1.009104   2.097726   2.535812
    18  H    2.303523   2.490080   2.060178   1.088821   2.131213
    19  H    5.506419   5.255248   4.259416   3.185724   1.862904
    20  H    4.424034   4.361442   3.398820   2.131187   2.639323
    21  H    4.503158   3.992941   2.798130   2.166978   2.672869
    22  H    5.804979   5.624805   4.903928   4.462198   5.416989
    23  H    4.135703   4.656355   5.024962   5.070662   6.566465
    24  H    1.956197   2.534963   2.817203   2.738739   4.225382
    25  H    3.251175   2.139842   2.510314   3.955818   4.690758
    26  H    2.889163   2.121361   2.937796   4.194332   4.750108
    27  H    3.103637   2.819361   3.830188   5.010200   6.217531
    28  H    2.605895   2.719019   4.041025   5.099222   6.172522
    29  H    4.821737   4.159323   4.990128   6.400398   7.248040
    30  H    4.549926   4.103170   5.147749   6.473561   7.218493
                    6          7          8          9         10
     6  O    0.000000
     7  O    2.245131   0.000000
     8  C    2.948933   3.330194   0.000000
     9  C    4.329940   4.691432   1.500838   0.000000
    10  C    5.479500   5.813911   2.602552   1.364387   0.000000
    11  N    6.548675   6.899692   3.731235   2.260207   1.380960
    12  C    6.239539   6.611567   3.648888   2.199698   2.131862
    13  N    4.955677   5.339390   2.543097   1.371806   2.170126
    14  C    5.797439   4.651745   4.787007   4.843923   5.838121
    15  C    7.072336   6.131352   5.766802   5.457099   6.280034
    16  N    8.297055   7.110412   7.086203   6.810586   7.554073
    17  H    3.861636   2.403327   2.988015   3.700072   4.762961
    18  H    2.532043   3.168209   2.154028   2.833718   4.191649
    19  H    0.965395   2.274709   3.764167   5.203862   6.303888
    20  H    2.584491   3.647803   1.092785   2.130078   3.027210
    21  H    3.314486   3.200408   1.091573   2.115901   2.819821
    22  H    5.789618   6.087364   3.020722   2.202397   1.080487
    23  H    7.041635   7.414756   4.614734   3.223692   3.183762
    24  H    4.756426   5.105383   2.849236   2.129899   3.152290
    25  H    5.969098   4.527432   4.771348   4.878703   5.742811
    26  H    5.884068   4.627178   5.412168   5.679727   6.768080
    27  H    7.288932   6.455741   5.554797   4.993606   5.626906
    28  H    7.119060   6.454889   6.008620   5.670465   6.568730
    29  H    8.479193   7.097032   7.147630   6.900550   7.552256
    30  H    8.352161   7.099476   7.490032   7.380946   8.238876
                   11         12         13         14         15
    11  N    0.000000
    12  C    1.310143   0.000000
    13  N    2.209738   1.355753   0.000000
    14  C    6.071751   5.257642   4.407482   0.000000
    15  C    6.174735   5.238633   4.706334   1.528877   0.000000
    16  N    7.417000   6.548670   6.113738   2.515813   1.461356
    17  H    5.557539   5.144986   4.027426   2.562347   3.977179
    18  H    4.871416   4.189363   2.840299   3.974946   4.947919
    19  H    7.430809   7.171923   5.891476   6.387821   7.741812
    20  H    4.172617   4.164041   3.129305   5.733607   6.714984
    21  H    4.097976   4.269610   3.331853   5.060328   6.131431
    22  H    2.147591   3.157181   3.228475   6.614278   7.148550
    23  H    2.131724   1.076018   2.128366   5.483707   5.172517
    24  H    3.178075   2.119804   1.013579   3.802567   4.091540
    25  H    6.084316   5.474918   4.687696   1.093853   2.174041
    26  H    7.073156   6.224890   5.278467   1.096239   2.149546
    27  H    5.375044   4.500919   4.201175   2.161199   1.091402
    28  H    6.374914   5.283656   4.737121   2.143903   1.089113
    29  H    7.484433   6.764398   6.362252   2.737139   2.047805
    30  H    8.192553   7.283635   6.714837   2.723620   2.045974
                   16         17         18         19         20
    16  N    0.000000
    17  H    4.966392   0.000000
    18  H    6.318054   2.918214   0.000000
    19  H    8.888728   4.351994   3.437306   0.000000
    20  H    8.068248   3.899926   2.447605   3.390476   0.000000
    21  H    7.336367   2.927535   3.057273   3.936299   1.743509
    22  H    8.364211   5.253745   4.920940   6.520312   3.296466
    23  H    6.422937   5.824530   4.811792   7.990143   5.119504
    24  H    5.543455   3.769782   2.347841   5.693001   3.440181
    25  H    2.812501   2.264808   4.412653   6.495558   5.792232
    26  H    2.735877   2.941166   4.318772   6.361912   6.275728
    27  H    2.069939   4.172198   5.063056   8.024848   6.533471
    28  H    2.084889   4.514816   4.868348   7.823759   6.853354
    29  H    1.013779   4.883227   6.644019   9.030427   8.181719
    30  H    1.014201   5.160645   6.517646   8.871894   8.431582
                   21         22         23         24         25
    21  H    0.000000
    22  H    2.903515   0.000000
    23  H    5.286114   4.172067   0.000000
    24  H    3.735267   4.186390   2.525516   0.000000
    25  H    4.806691   6.385356   5.821811   4.288763   0.000000
    26  H    5.687918   7.526642   6.439624   4.577508   1.761170
    27  H    5.895456   6.492737   4.389056   3.764564   2.506338
    28  H    6.540429   7.521072   5.081446   3.969487   3.059690
    29  H    7.248337   8.266772   6.735980   5.916477   2.620358
    30  H    7.752481   9.049942   7.186906   6.051883   3.114266
                   26         27         28         29         30
    26  H    0.000000
    27  H    3.056623   0.000000
    28  H    2.503591   1.752359   0.000000
    29  H    3.038559   2.382874   2.934538   0.000000
    30  H    2.520079   2.923421   2.404713   1.625701   0.000000
 Symmetry turned off by external request.
 Stoichiometry    C9H14N4O3
 Framework group  C1[X(C9H14N4O3)]
 Deg. of freedom    84
 Full point group                 C1      NOp   1
 Rotational constants (GHZ):      0.5050640      0.4053310      0.2477507
 Standard basis: 6-311G(2df,2pd) (5D, 7F)
   676 basis functions,  1006 primitive gaussians,   770 cartesian basis functions
    60 alpha electrons       60 beta electrons
       nuclear repulsion energy      1124.8072977319 Hartrees.
 NAtoms=   30 NActive=   30 NUniq=   30 SFac= 1.00D+00 NAtFMM=   60 NAOKFM=F Big=F
 Integral buffers will be    131072 words long.
 Raffenetti 2 integral format.
 Two-electron integral symmetry is turned off.
 Nuclear repulsion after empirical dispersion term =     1124.7532306770 Hartrees.
 One-electron integrals computed using PRISM.
 NBasis=   676 RedAO= T EigKep=  1.64D-04  NBF=   676
 NBsUse=   676 1.00D-06 EigRej= -1.00D+00 NBFU=   676
 ExpMin= 1.03D-01 ExpMax= 8.59D+03 ExpMxC= 1.30D+03 IAcc=3 IRadAn=         5 AccDes= 0.00D+00
 Harris functional with IExCor=  402 and IRadAn=       5 diagonalized for initial guess.
 HarFok:  IExCor=  402 AccDes= 0.00D+00 IRadAn=         5 IDoV= 1 UseB2=F ITyADJ=14
 ICtDFT=  3500011 ScaDFX=  1.000000  1.000000  1.000000  1.000000
 FoFCou: FMM=F IPFlag=           0 FMFlag=      100000 FMFlg1=           0
         NFxFlg=           0 DoJE=T BraDBF=F KetDBF=T FulRan=T
         wScrn=  0.000000 ICntrl=     500 IOpCl=  0 I1Cent=   200000004 NGrid=           0
         NMat0=    1 NMatS0=      1 NMatT0=    0 NMatD0=    1 NMtDS0=    0 NMtDT0=    0
 Symmetry not used in FoFCou.
 Requested convergence on RMS density matrix=1.00D-08 within 128 cycles.
 Requested convergence on MAX density matrix=1.00D-06.
 Requested convergence on             energy=1.00D-06.
 No special actions if energy rises.
 Integral accuracy reduced to 1.0D-05 until final iterations.
 Initial convergence to 1.0D-05 achieved.  Increase integral accuracy.
 SCF Done:  E(RB3LYP) =  -796.419764627     A.U. after   13 cycles
            NFock= 13  Conv=0.55D-08     -V/T= 2.0037
 DoSCS=F DFT=T ScalE2(SS,OS)=  1.000000  1.000000
 Range of M.O.s used for correlation:     1   676
 NBasis=   676 NAE=    60 NBE=    60 NFC=     0 NFV=     0
 NROrb=    676 NOA=    60 NOB=    60 NVA=   616 NVB=   616

 **** Warning!!: The largest alpha MO coefficient is  0.10560816D+02

 Symmetrizing basis deriv contribution to polar:
 IMax=3 JMax=2 DiffMx= 0.00D+00
 G2DrvN: will do    31 centers at a time, making    1 passes.
 Calling FoFCou, ICntrl=  3107 FMM=F I1Cent=   0 AccDes= 0.00D+00.
 End of G2Drv F.D. properties file   721 does not exist.
 End of G2Drv F.D. properties file   722 does not exist.
 End of G2Drv F.D. properties file   788 does not exist.
          IDoAtm=111111111111111111111111111111
          Differentiating once with respect to nuclear coordinates.
          There are    93 degrees of freedom in the 1st order CPHF.  IDoFFX=6 NUNeed=     0.
     87 vectors produced by pass  0 Test12= 3.97D-14 1.08D-09 XBig12= 1.54D-01 8.35D-02.
 AX will form    87 AO Fock derivatives at one time.
     87 vectors produced by pass  1 Test12= 3.97D-14 1.08D-09 XBig12= 2.91D-02 3.49D-02.
     87 vectors produced by pass  2 Test12= 3.97D-14 1.08D-09 XBig12= 3.20D-04 2.00D-03.
     87 vectors produced by pass  3 Test12= 3.97D-14 1.08D-09 XBig12= 1.82D-06 1.60D-04.
     87 vectors produced by pass  4 Test12= 3.97D-14 1.08D-09 XBig12= 6.62D-09 8.75D-06.
     84 vectors produced by pass  5 Test12= 3.97D-14 1.08D-09 XBig12= 1.19D-11 5.70D-07.
     38 vectors produced by pass  6 Test12= 3.97D-14 1.08D-09 XBig12= 1.49D-14 1.86D-08.
 InvSVY:  IOpt=1 It=  1 EMax= 5.00D-16
 Solved reduced A of dimension   557 with    93 vectors.
 End of Minotr F.D. properties file   721 does not exist.
 End of Minotr F.D. properties file   722 does not exist.
 End of Minotr F.D. properties file   788 does not exist.

 **********************************************************************

            Population analysis using the SCF density.

 **********************************************************************

 Alpha  occ. eigenvalues --  -19.19549 -19.14106 -19.10952 -14.36180 -14.34939
 Alpha  occ. eigenvalues --  -14.29595 -14.27577 -10.33084 -10.29423 -10.24926
 Alpha  occ. eigenvalues --  -10.20620 -10.20313 -10.20174 -10.19652 -10.19408
 Alpha  occ. eigenvalues --  -10.16741  -1.14149  -1.06443  -1.05222  -1.00705
 Alpha  occ. eigenvalues --   -0.95701  -0.89395  -0.86089  -0.82301  -0.77417
 Alpha  occ. eigenvalues --   -0.74775  -0.68466  -0.66192  -0.62345  -0.61736
 Alpha  occ. eigenvalues --   -0.59930  -0.58368  -0.55219  -0.52733  -0.52431
 Alpha  occ. eigenvalues --   -0.51707  -0.50562  -0.49574  -0.48621  -0.46929
 Alpha  occ. eigenvalues --   -0.45328  -0.44783  -0.43843  -0.42799  -0.42669
 Alpha  occ. eigenvalues --   -0.41898  -0.40607  -0.39988  -0.39696  -0.39142
 Alpha  occ. eigenvalues --   -0.37990  -0.35731  -0.35598  -0.31716  -0.29439
 Alpha  occ. eigenvalues --   -0.28708  -0.27370  -0.25977  -0.24991  -0.22035
 Alpha virt. eigenvalues --   -0.02384  -0.01031   0.01509   0.02254   0.03310
 Alpha virt. eigenvalues --    0.03973   0.05225   0.05969   0.06170   0.06723
 Alpha virt. eigenvalues --    0.07766   0.09275   0.09943   0.11179   0.11480
 Alpha virt. eigenvalues --    0.12925   0.13405   0.14377   0.15869   0.16200
 Alpha virt. eigenvalues --    0.17790   0.19397   0.20133   0.21335   0.21945
 Alpha virt. eigenvalues --    0.23456   0.24346   0.24557   0.26685   0.27208
 Alpha virt. eigenvalues --    0.28827   0.29092   0.30072   0.31066   0.31585
 Alpha virt. eigenvalues --    0.32774   0.33417   0.34350   0.34468   0.35756
 Alpha virt. eigenvalues --    0.36059   0.36780   0.37060   0.37760   0.37966
 Alpha virt. eigenvalues --    0.38358   0.40535   0.41854   0.42378   0.42708
 Alpha virt. eigenvalues --    0.43290   0.43525   0.43754   0.44646   0.45508
 Alpha virt. eigenvalues --    0.45713   0.46111   0.46648   0.47299   0.48279
 Alpha virt. eigenvalues --    0.48612   0.49003   0.50011   0.50469   0.50675
 Alpha virt. eigenvalues --    0.50951   0.52283   0.52412   0.53607   0.54015
 Alpha virt. eigenvalues --    0.54526   0.55596   0.56429   0.57086   0.57494
 Alpha virt. eigenvalues --    0.58706   0.59431   0.59838   0.60551   0.61569
 Alpha virt. eigenvalues --    0.62501   0.63470   0.63974   0.65055   0.66960
 Alpha virt. eigenvalues --    0.68079   0.68248   0.69045   0.70472   0.70647
 Alpha virt. eigenvalues --    0.71304   0.72171   0.72540   0.73135   0.74575
 Alpha virt. eigenvalues --    0.74971   0.75593   0.76318   0.77652   0.78381
 Alpha virt. eigenvalues --    0.79009   0.80143   0.80340   0.82167   0.82547
 Alpha virt. eigenvalues --    0.83096   0.84071   0.86224   0.86828   0.87924
 Alpha virt. eigenvalues --    0.89998   0.90383   0.91756   0.92524   0.93922
 Alpha virt. eigenvalues --    0.94528   0.95752   0.96049   0.96560   0.96732
 Alpha virt. eigenvalues --    0.97672   0.98534   0.99121   1.01500   1.02164
 Alpha virt. eigenvalues --    1.02618   1.03254   1.03770   1.05142   1.06489
 Alpha virt. eigenvalues --    1.06939   1.07877   1.07942   1.09440   1.09888
 Alpha virt. eigenvalues --    1.11295   1.12372   1.12811   1.13087   1.14402
 Alpha virt. eigenvalues --    1.15639   1.16596   1.17112   1.17829   1.18135
 Alpha virt. eigenvalues --    1.19053   1.19420   1.20482   1.21059   1.22221
 Alpha virt. eigenvalues --    1.22519   1.23598   1.24318   1.25053   1.26075
 Alpha virt. eigenvalues --    1.26927   1.27212   1.28329   1.29125   1.29598
 Alpha virt. eigenvalues --    1.30001   1.30562   1.30956   1.32151   1.32542
 Alpha virt. eigenvalues --    1.33776   1.33861   1.34551   1.36167   1.37109
 Alpha virt. eigenvalues --    1.38508   1.38910   1.39811   1.40873   1.41170
 Alpha virt. eigenvalues --    1.41547   1.41872   1.44258   1.44459   1.45073
 Alpha virt. eigenvalues --    1.45903   1.46974   1.47539   1.49290   1.50580
 Alpha virt. eigenvalues --    1.50973   1.51755   1.53346   1.53786   1.55424
 Alpha virt. eigenvalues --    1.57113   1.58219   1.58822   1.60548   1.62055
 Alpha virt. eigenvalues --    1.63228   1.64000   1.65366   1.66396   1.67399
 Alpha virt. eigenvalues --    1.68235   1.68671   1.70790   1.71213   1.72497
 Alpha virt. eigenvalues --    1.76712   1.78403   1.79254   1.79683   1.81094
 Alpha virt. eigenvalues --    1.82382   1.83303   1.84220   1.88123   1.89369
 Alpha virt. eigenvalues --    1.90786   1.91952   1.98437   1.99222   2.02603
 Alpha virt. eigenvalues --    2.03680   2.04406   2.06052   2.10111   2.11420
 Alpha virt. eigenvalues --    2.13928   2.14895   2.15386   2.19966   2.22884
 Alpha virt. eigenvalues --    2.26590   2.31756   2.35356   2.41111   2.44522
 Alpha virt. eigenvalues --    2.46334   2.48143   2.49129   2.50735   2.52485
 Alpha virt. eigenvalues --    2.53416   2.54541   2.55359   2.59514   2.60838
 Alpha virt. eigenvalues --    2.61371   2.62237   2.64323   2.65222   2.66090
 Alpha virt. eigenvalues --    2.66968   2.68483   2.68638   2.70404   2.71632
 Alpha virt. eigenvalues --    2.72499   2.73212   2.73747   2.75357   2.76944
 Alpha virt. eigenvalues --    2.78414   2.79986   2.81245   2.82457   2.83264
 Alpha virt. eigenvalues --    2.84362   2.84623   2.86032   2.86790   2.88096
 Alpha virt. eigenvalues --    2.88731   2.90012   2.90631   2.91732   2.92337
 Alpha virt. eigenvalues --    2.92884   2.94040   2.94217   2.94533   2.96775
 Alpha virt. eigenvalues --    2.97139   2.97446   2.98313   2.98912   3.00085
 Alpha virt. eigenvalues --    3.00951   3.01218   3.02396   3.03408   3.04131
 Alpha virt. eigenvalues --    3.04845   3.05711   3.06421   3.07104   3.07892
 Alpha virt. eigenvalues --    3.08927   3.09589   3.10418   3.10785   3.11470
 Alpha virt. eigenvalues --    3.11805   3.13548   3.13863   3.15077   3.15381
 Alpha virt. eigenvalues --    3.16834   3.17658   3.17982   3.18529   3.18990
 Alpha virt. eigenvalues --    3.20013   3.20910   3.22329   3.22689   3.23300
 Alpha virt. eigenvalues --    3.23674   3.24621   3.25416   3.26342   3.26878
 Alpha virt. eigenvalues --    3.28772   3.29597   3.29683   3.30059   3.30117
 Alpha virt. eigenvalues --    3.31238   3.31464   3.32443   3.33088   3.34094
 Alpha virt. eigenvalues --    3.34710   3.35290   3.35971   3.36634   3.37678
 Alpha virt. eigenvalues --    3.38756   3.39257   3.40103   3.40644   3.42062
 Alpha virt. eigenvalues --    3.42742   3.43430   3.45267   3.45874   3.46273
 Alpha virt. eigenvalues --    3.47021   3.47517   3.48455   3.49181   3.49733
 Alpha virt. eigenvalues --    3.50756   3.51233   3.52048   3.53434   3.53488
 Alpha virt. eigenvalues --    3.54975   3.55491   3.56201   3.57105   3.58923
 Alpha virt. eigenvalues --    3.59482   3.60028   3.61304   3.62155   3.62306
 Alpha virt. eigenvalues --    3.64206   3.64778   3.64898   3.65648   3.66602
 Alpha virt. eigenvalues --    3.66971   3.67403   3.68185   3.69657   3.70851
 Alpha virt. eigenvalues --    3.72964   3.73122   3.74015   3.75086   3.76055
 Alpha virt. eigenvalues --    3.76535   3.77306   3.77827   3.78281   3.79813
 Alpha virt. eigenvalues --    3.80902   3.81666   3.82497   3.83206   3.83523
 Alpha virt. eigenvalues --    3.85361   3.86171   3.86518   3.87497   3.88335
 Alpha virt. eigenvalues --    3.89751   3.90490   3.90727   3.91794   3.93164
 Alpha virt. eigenvalues --    3.93989   3.95557   3.96240   3.97018   3.97265
 Alpha virt. eigenvalues --    3.98465   4.00019   4.00341   4.01246   4.01855
 Alpha virt. eigenvalues --    4.02783   4.03708   4.04666   4.06440   4.06532
 Alpha virt. eigenvalues --    4.07857   4.09352   4.10068   4.10800   4.12385
 Alpha virt. eigenvalues --    4.12533   4.13745   4.14504   4.16003   4.16627
 Alpha virt. eigenvalues --    4.18936   4.19412   4.20223   4.22131   4.23670
 Alpha virt. eigenvalues --    4.25171   4.26008   4.27243   4.27699   4.28569
 Alpha virt. eigenvalues --    4.29800   4.30837   4.32461   4.33855   4.35082
 Alpha virt. eigenvalues --    4.35479   4.37195   4.37796   4.39133   4.39595
 Alpha virt. eigenvalues --    4.42670   4.44252   4.45551   4.48755   4.49157
 Alpha virt. eigenvalues --    4.49991   4.50279   4.52948   4.53361   4.55408
 Alpha virt. eigenvalues --    4.57638   4.57756   4.58385   4.59672   4.61146
 Alpha virt. eigenvalues --    4.64808   4.66102   4.68109   4.70013   4.72252
 Alpha virt. eigenvalues --    4.73832   4.75191   4.76617   4.78622   4.80475
 Alpha virt. eigenvalues --    4.82153   4.82873   4.84778   4.86297   4.87077
 Alpha virt. eigenvalues --    4.87254   4.89487   4.90200   4.91991   4.93801
 Alpha virt. eigenvalues --    4.94638   4.95780   4.96244   4.97475   4.97640
 Alpha virt. eigenvalues --    4.98856   5.00429   5.01075   5.01992   5.02598
 Alpha virt. eigenvalues --    5.03375   5.05118   5.05680   5.06955   5.07724
 Alpha virt. eigenvalues --    5.07914   5.09595   5.10453   5.11125   5.12537
 Alpha virt. eigenvalues --    5.13453   5.13894   5.14460   5.15164   5.16264
 Alpha virt. eigenvalues --    5.17602   5.18329   5.19546   5.21051   5.21627
 Alpha virt. eigenvalues --    5.23111   5.23130   5.25598   5.27095   5.28669
 Alpha virt. eigenvalues --    5.29833   5.31503   5.32362   5.32870   5.33699
 Alpha virt. eigenvalues --    5.35310   5.36262   5.38128   5.38590   5.40130
 Alpha virt. eigenvalues --    5.44098   5.45023   5.45789   5.46272   5.47301
 Alpha virt. eigenvalues --    5.49535   5.51589   5.52492   5.53988   5.56128
 Alpha virt. eigenvalues --    5.58802   5.59862   5.60389   5.62773   5.65075
 Alpha virt. eigenvalues --    5.67888   5.70327   5.73605   5.75166   5.75989
 Alpha virt. eigenvalues --    5.78520   5.81244   5.83285   5.85002   5.85851
 Alpha virt. eigenvalues --    5.88397   5.89476   5.90988   5.94576   5.96195
 Alpha virt. eigenvalues --    5.97914   6.03420   6.04732   6.05957   6.10869
 Alpha virt. eigenvalues --    6.16455   6.20511   6.21731   6.25608   6.28298
 Alpha virt. eigenvalues --    6.31988   6.35238   6.37538   6.38621   6.39146
 Alpha virt. eigenvalues --    6.41689   6.46806   6.49865   6.54299   6.56082
 Alpha virt. eigenvalues --    6.66242   6.72951   6.78687   6.84707   6.88930
 Alpha virt. eigenvalues --    6.92827   6.95014   7.00417   7.02484   7.03026
 Alpha virt. eigenvalues --    7.09667   7.15101   7.17040   7.19186   7.22093
 Alpha virt. eigenvalues --    7.23666   7.26477   7.30253   7.42369   7.49578
 Alpha virt. eigenvalues --    7.53319   7.56148   7.61831   7.67220   7.95790
 Alpha virt. eigenvalues --   24.47857  24.60961  24.71533  24.82518  24.96872
 Alpha virt. eigenvalues --   24.97918  25.01753  25.07069  25.12602  35.98385
 Alpha virt. eigenvalues --   36.21869  36.26899  36.44507  50.14636  50.18817
 Alpha virt. eigenvalues --   50.27241
          Condensed to atoms (all electrons):
               1          2          3          4          5          6
     1  O    7.965248   0.573748  -0.112067  -0.000260  -0.001177   0.000003
     2  C    0.573748   4.562198   0.372734  -0.073039   0.007380  -0.000302
     3  N   -0.112067   0.372734   6.618058   0.218130  -0.010058   0.000938
     4  C   -0.000260  -0.073039   0.218130   5.288954   0.250997  -0.108768
     5  C   -0.001177   0.007380  -0.010058   0.250997   4.192845   0.398094
     6  O    0.000003  -0.000302   0.000938  -0.108768   0.398094   7.798189
     7  O   -0.000008  -0.000375  -0.019805  -0.103956   0.731248  -0.084386
     8  C   -0.000623  -0.000085  -0.046057   0.283308  -0.028493   0.004220
     9  C   -0.003012   0.003302   0.004379  -0.056727  -0.004186   0.000042
    10  C    0.000099  -0.000261  -0.001019   0.000532  -0.000002  -0.000002
    11  N   -0.000008  -0.000068   0.000019  -0.000283   0.000004   0.000000
    12  C   -0.000525   0.001013   0.000190   0.000434  -0.000001   0.000000
    13  N   -0.016481   0.006123  -0.001673  -0.005120  -0.000100   0.000007
    14  C   -0.057885   0.182692  -0.036523   0.004635  -0.000510  -0.000003
    15  C   -0.000332  -0.039758  -0.000833  -0.000163   0.000018   0.000000
    16  N    0.000310   0.008169  -0.000030   0.000003   0.000000   0.000000
    17  H    0.004703  -0.021845   0.329920  -0.044730  -0.002262   0.001360
    18  H    0.033086  -0.018468  -0.052502   0.388493  -0.015297   0.007492
    19  H    0.000002   0.000058  -0.000302   0.021865  -0.050533   0.312330
    20  H   -0.000076   0.000343   0.005488  -0.049473   0.000758   0.014589
    21  H   -0.000092  -0.001197   0.001724  -0.032496   0.003333  -0.001374
    22  H    0.000003   0.000006  -0.000048   0.000112  -0.000018   0.000000
    23  H    0.000016   0.000022   0.000011  -0.000003   0.000000   0.000000
    24  H    0.055942  -0.014433  -0.003718  -0.000667  -0.000128  -0.000013
    25  H    0.002835  -0.023932   0.001310   0.000456  -0.000091  -0.000003
    26  H    0.000608  -0.005404  -0.000133  -0.000265   0.000046  -0.000001
    27  H    0.000296   0.005499   0.000274  -0.000005   0.000000   0.000000
    28  H    0.019701  -0.003145   0.001239  -0.000027   0.000002   0.000000
    29  H    0.000002   0.000676  -0.000007   0.000002   0.000000   0.000000
    30  H   -0.000012   0.000917  -0.000013   0.000000   0.000000   0.000000
               7          8          9         10         11         12
     1  O   -0.000008  -0.000623  -0.003012   0.000099  -0.000008  -0.000525
     2  C   -0.000375  -0.000085   0.003302  -0.000261  -0.000068   0.001013
     3  N   -0.019805  -0.046057   0.004379  -0.001019   0.000019   0.000190
     4  C   -0.103956   0.283308  -0.056727   0.000532  -0.000283   0.000434
     5  C    0.731248  -0.028493  -0.004186  -0.000002   0.000004  -0.000001
     6  O   -0.084386   0.004220   0.000042  -0.000002   0.000000   0.000000
     7  O    7.800584  -0.001378  -0.000209  -0.000003   0.000000   0.000000
     8  C   -0.001378   4.786868   0.301784  -0.036928   0.007888   0.002007
     9  C   -0.000209   0.301784   5.091743   0.535928  -0.037409  -0.126523
    10  C   -0.000003  -0.036928   0.535928   4.710036   0.467948  -0.160738
    11  N    0.000000   0.007888  -0.037409   0.467948   6.519755   0.589076
    12  C    0.000000   0.002007  -0.126523  -0.160738   0.589076   4.581292
    13  N    0.000001  -0.032554   0.368418  -0.028889  -0.153638   0.486146
    14  C   -0.000352  -0.000384   0.000084   0.000013   0.000001  -0.000115
    15  C    0.000000   0.000043  -0.000058   0.000005  -0.000001  -0.000043
    16  N    0.000000   0.000000   0.000000   0.000000   0.000000   0.000000
    17  H    0.033558   0.003663  -0.000947  -0.000015  -0.000004   0.000003
    18  H    0.002457  -0.056174  -0.002680  -0.000719  -0.000001  -0.000047
    19  H    0.013695  -0.000842   0.000086   0.000001   0.000000   0.000000
    20  H    0.000259   0.390676  -0.036457  -0.002915   0.000141   0.000261
    21  H    0.003472   0.390953  -0.048001  -0.005661   0.000427  -0.000249
    22  H    0.000000  -0.000672  -0.058741   0.438348  -0.021861   0.006539
    23  H    0.000000  -0.000278   0.006340   0.003395  -0.017586   0.424393
    24  H   -0.000012   0.003882  -0.031565   0.005232   0.004078  -0.025027
    25  H   -0.000249  -0.000110   0.000126  -0.000007   0.000001   0.000003
    26  H    0.000107  -0.000015   0.000013   0.000000   0.000000   0.000000
    27  H    0.000000  -0.000009  -0.000037  -0.000044  -0.000004   0.000576
    28  H    0.000000   0.000003   0.000003   0.000000   0.000000   0.000001
    29  H    0.000000   0.000000   0.000000   0.000000   0.000000   0.000000
    30  H    0.000000   0.000000   0.000000   0.000000   0.000000   0.000000
              13         14         15         16         17         18
     1  O   -0.016481  -0.057885  -0.000332   0.000310   0.004703   0.033086
     2  C    0.006123   0.182692  -0.039758   0.008169  -0.021845  -0.018468
     3  N   -0.001673  -0.036523  -0.000833  -0.000030   0.329920  -0.052502
     4  C   -0.005120   0.004635  -0.000163   0.000003  -0.044730   0.388493
     5  C   -0.000100  -0.000510   0.000018   0.000000  -0.002262  -0.015297
     6  O    0.000007  -0.000003   0.000000   0.000000   0.001360   0.007492
     7  O    0.000001  -0.000352   0.000000   0.000000   0.033558   0.002457
     8  C   -0.032554  -0.000384   0.000043   0.000000   0.003663  -0.056174
     9  C    0.368418   0.000084  -0.000058   0.000000  -0.000947  -0.002680
    10  C   -0.028889   0.000013   0.000005   0.000000  -0.000015  -0.000719
    11  N   -0.153638   0.000001  -0.000001   0.000000  -0.000004  -0.000001
    12  C    0.486146  -0.000115  -0.000043   0.000000   0.000003  -0.000047
    13  N    6.285492  -0.000717  -0.000070   0.000000   0.000164   0.002455
    14  C   -0.000717   5.137324   0.327550  -0.085280  -0.001946   0.002900
    15  C   -0.000070   0.327550   4.613452   0.328678  -0.000064  -0.000287
    16  N    0.000000  -0.085280   0.328678   6.323466  -0.000105  -0.000001
    17  H    0.000164  -0.001946  -0.000064  -0.000105   0.589095   0.006570
    18  H    0.002455   0.002900  -0.000287  -0.000001   0.006570   0.652682
    19  H   -0.000002   0.000003   0.000000   0.000000  -0.000404  -0.000675
    20  H   -0.000163   0.000006  -0.000001   0.000000  -0.000552  -0.002842
    21  H    0.001764  -0.000016  -0.000009   0.000000   0.002474   0.009458
    22  H    0.004966   0.000000   0.000000   0.000000  -0.000001   0.000006
    23  H   -0.038933  -0.000018   0.000018   0.000000   0.000000   0.000015
    24  H    0.367181   0.000446   0.000755   0.000009  -0.000195  -0.002677
    25  H    0.000084   0.355303  -0.039291   0.012299  -0.003396  -0.000109
    26  H   -0.000005   0.342859  -0.038115   0.009679   0.000322  -0.000195
    27  H    0.000626  -0.055686   0.398058  -0.020326  -0.000004  -0.000025
    28  H    0.000002  -0.052550   0.393943  -0.018471  -0.000150  -0.000119
    29  H    0.000000  -0.002147  -0.056373   0.385090   0.000013   0.000000
    30  H    0.000000  -0.003361  -0.059968   0.388988  -0.000002   0.000000
              19         20         21         22         23         24
     1  O    0.000002  -0.000076  -0.000092   0.000003   0.000016   0.055942
     2  C    0.000058   0.000343  -0.001197   0.000006   0.000022  -0.014433
     3  N   -0.000302   0.005488   0.001724  -0.000048   0.000011  -0.003718
     4  C    0.021865  -0.049473  -0.032496   0.000112  -0.000003  -0.000667
     5  C   -0.050533   0.000758   0.003333  -0.000018   0.000000  -0.000128
     6  O    0.312330   0.014589  -0.001374   0.000000   0.000000  -0.000013
     7  O    0.013695   0.000259   0.003472   0.000000   0.000000  -0.000012
     8  C   -0.000842   0.390676   0.390953  -0.000672  -0.000278   0.003882
     9  C    0.000086  -0.036457  -0.048001  -0.058741   0.006340  -0.031565
    10  C    0.000001  -0.002915  -0.005661   0.438348   0.003395   0.005232
    11  N    0.000000   0.000141   0.000427  -0.021861  -0.017586   0.004078
    12  C    0.000000   0.000261  -0.000249   0.006539   0.424393  -0.025027
    13  N   -0.000002  -0.000163   0.001764   0.004966  -0.038933   0.367181
    14  C    0.000003   0.000006  -0.000016   0.000000  -0.000018   0.000446
    15  C    0.000000  -0.000001  -0.000009   0.000000   0.000018   0.000755
    16  N    0.000000   0.000000   0.000000   0.000000   0.000000   0.000009
    17  H   -0.000404  -0.000552   0.002474  -0.000001   0.000000  -0.000195
    18  H   -0.000675  -0.002842   0.009458   0.000006   0.000015  -0.002677
    19  H    0.480486  -0.000450  -0.000180   0.000000   0.000000  -0.000002
    20  H   -0.000450   0.693921  -0.043817   0.000189   0.000016  -0.000406
    21  H   -0.000180  -0.043817   0.701367   0.000861   0.000023  -0.000478
    22  H    0.000000   0.000189   0.000861   0.633118  -0.000460  -0.000395
    23  H    0.000000   0.000016   0.000023  -0.000460   0.610951  -0.002289
    24  H   -0.000002  -0.000406  -0.000478  -0.000395  -0.002289   0.511295
    25  H    0.000002   0.000011   0.000025  -0.000001   0.000002  -0.000537
    26  H    0.000000   0.000001   0.000006   0.000000   0.000001   0.000041
    27  H    0.000000   0.000000   0.000002   0.000000   0.000047  -0.000190
    28  H    0.000000   0.000000   0.000000   0.000000   0.000006  -0.000035
    29  H    0.000000   0.000000   0.000000   0.000000   0.000000   0.000001
    30  H    0.000000   0.000000   0.000000   0.000000   0.000000   0.000000
              25         26         27         28         29         30
     1  O    0.002835   0.000608   0.000296   0.019701   0.000002  -0.000012
     2  C   -0.023932  -0.005404   0.005499  -0.003145   0.000676   0.000917
     3  N    0.001310  -0.000133   0.000274   0.001239  -0.000007  -0.000013
     4  C    0.000456  -0.000265  -0.000005  -0.000027   0.000002   0.000000
     5  C   -0.000091   0.000046   0.000000   0.000002   0.000000   0.000000
     6  O   -0.000003  -0.000001   0.000000   0.000000   0.000000   0.000000
     7  O   -0.000249   0.000107   0.000000   0.000000   0.000000   0.000000
     8  C   -0.000110  -0.000015  -0.000009   0.000003   0.000000   0.000000
     9  C    0.000126   0.000013  -0.000037   0.000003   0.000000   0.000000
    10  C   -0.000007   0.000000  -0.000044   0.000000   0.000000   0.000000
    11  N    0.000001   0.000000  -0.000004   0.000000   0.000000   0.000000
    12  C    0.000003   0.000000   0.000576   0.000001   0.000000   0.000000
    13  N    0.000084  -0.000005   0.000626   0.000002   0.000000   0.000000
    14  C    0.355303   0.342859  -0.055686  -0.052550  -0.002147  -0.003361
    15  C   -0.039291  -0.038115   0.398058   0.393943  -0.056373  -0.059968
    16  N    0.012299   0.009679  -0.020326  -0.018471   0.385090   0.388988
    17  H   -0.003396   0.000322  -0.000004  -0.000150   0.000013  -0.000002
    18  H   -0.000109  -0.000195  -0.000025  -0.000119   0.000000   0.000000
    19  H    0.000002   0.000000   0.000000   0.000000   0.000000   0.000000
    20  H    0.000011   0.000001   0.000000   0.000000   0.000000   0.000000
    21  H    0.000025   0.000006   0.000002   0.000000   0.000000   0.000000
    22  H   -0.000001   0.000000   0.000000   0.000000   0.000000   0.000000
    23  H    0.000002   0.000001   0.000047   0.000006   0.000000   0.000000
    24  H   -0.000537   0.000041  -0.000190  -0.000035   0.000001   0.000000
    25  H    0.728808  -0.041419  -0.006181   0.009849   0.004947  -0.000131
    26  H   -0.041419   0.704217   0.008956  -0.004849  -0.000335   0.006202
    27  H   -0.006181   0.008956   0.694883  -0.045830  -0.010479   0.008805
    28  H    0.009849  -0.004849  -0.045830   0.677000   0.007941  -0.009168
    29  H    0.004947  -0.000335  -0.010479   0.007941   0.633450  -0.057842
    30  H   -0.000131   0.006202   0.008805  -0.009168  -0.057842   0.628443
 Mulliken charges:
               1
     1  O   -0.464044
     2  C    0.477434
     3  N   -0.269624
     4  C    0.018060
     5  C    0.528130
     6  O   -0.342415
     7  O   -0.374647
     8  C    0.029307
     9  C    0.094303
    10  C    0.075668
    11  N   -0.358476
    12  C    0.221335
    13  N   -0.245086
    14  C   -0.056325
    15  C    0.172846
    16  N   -0.332479
    17  H    0.104778
    18  H    0.047206
    19  H    0.224862
    20  H    0.030492
    21  H    0.017684
    22  H   -0.001951
    23  H    0.014312
    24  H    0.133906
    25  H   -0.000603
    26  H    0.017676
    27  H    0.020798
    28  H    0.024652
    29  H    0.095061
    30  H    0.097141
 Sum of Mulliken charges =   0.00000
 Mulliken charges with hydrogens summed into heavy atoms:
               1
     1  O   -0.464044
     2  C    0.477434
     3  N   -0.164846
     4  C    0.065266
     5  C    0.528130
     6  O   -0.117552
     7  O   -0.374647
     8  C    0.077482
     9  C    0.094303
    10  C    0.073717
    11  N   -0.358476
    12  C    0.235648
    13  N   -0.111180
    14  C   -0.039251
    15  C    0.218296
    16  N   -0.140277
 APT charges:
               1
     1  O   -0.241071
     2  C    0.143368
     3  N   -0.355306
     4  C   -0.096608
     5  C   -0.473080
     6  O   -0.715146
     7  O    0.257398
     8  C   -0.766247
     9  C   -0.015515
    10  C   -0.721729
    11  N    0.673752
    12  C   -0.597840
    13  N   -0.401848
    14  C   -0.486037
    15  C   -0.401004
    16  N   -0.573398
    17  H    0.344375
    18  H    0.156741
    19  H    0.946022
    20  H    0.415510
    21  H    0.294902
    22  H    0.597049
    23  H    0.448528
    24  H    0.048467
    25  H    0.146111
    26  H    0.350986
    27  H    0.095072
    28  H    0.247391
    29  H    0.266671
    30  H    0.412484
 Sum of APT charges =   0.00000
 APT charges with hydrogens summed into heavy atoms:
               1
     1  O   -0.241071
     2  C    0.143368
     3  N   -0.010931
     4  C    0.060133
     5  C   -0.473080
     6  O    0.230876
     7  O    0.257398
     8  C   -0.055834
     9  C   -0.015515
    10  C   -0.124680
    11  N    0.673752
    12  C   -0.149312
    13  N   -0.353380
    14  C    0.011060
    15  C   -0.058541
    16  N    0.105757
 Electronic spatial extent (au):  <R**2>=           4427.8223
 Charge=              0.0000 electrons
 Dipole moment (field-independent basis, Debye):
    X=              1.7842    Y=              3.9379    Z=             -3.4571  Tot=              5.5355
 Quadrupole moment (field-independent basis, Debye-Ang):
   XX=            -98.0156   YY=            -97.8556   ZZ=            -97.2787
   XY=             -3.3126   XZ=             11.3794   YZ=              3.4241
 Traceless Quadrupole moment (field-independent basis, Debye-Ang):
   XX=             -0.2989   YY=             -0.1390   ZZ=              0.4379
   XY=             -3.3126   XZ=             11.3794   YZ=              3.4241
 Octapole moment (field-independent basis, Debye-Ang**2):
  XXX=            117.9208  YYY=            -12.0551  ZZZ=            -41.7551  XYY=             21.4044
  XXY=             70.1395  XXZ=            -47.7087  XZZ=             32.1573  YZZ=             44.4754
  YYZ=              5.3060  XYZ=              7.5812
 Hexadecapole moment (field-independent basis, Debye-Ang**3):
 XXXX=          -3121.7249 YYYY=          -1164.9415 ZZZZ=          -1410.3494 XXXY=             24.0559
 XXXZ=           -116.4382 YYYX=             -5.1088 YYYZ=            482.2150 ZZZX=             61.7564
 ZZZY=            416.0743 XXYY=           -748.0399 XXZZ=           -846.6109 YYZZ=           -420.0206
 XXYZ=            260.5260 YYXZ=             30.6601 ZZXY=            -86.6080
 N-N= 1.124753230677D+03 E-N=-4.110874596077D+03  KE= 7.934975996475D+02
  Exact polarizability:   0.000   0.000   0.000   0.000   0.000   0.000
 Approx polarizability: 194.595  -9.505 216.238  -7.077 -11.543 189.153
 Calling FoFJK, ICntrl=    100147 FMM=F ISym2X=0 I1Cent= 0 IOpClX= 0 NMat=1 NMatS=1 NMatT=0.
 -------------------------------------------------------------------
 Center     Atomic                   Forces (Hartrees/Bohr)
 Number     Number              X              Y              Z
 -------------------------------------------------------------------
      1        8           0.002384726    0.004637881    0.005744458
      2        6           0.001243206   -0.006007928   -0.005510769
      3        7          -0.000967060    0.001636817   -0.001343336
      4        6          -0.000758953    0.001934807    0.001891939
      5        6          -0.001648249    0.000954946   -0.004713009
      6        8           0.003702352    0.000079445    0.003356140
      7        8           0.000681498   -0.002220949    0.001537011
      8        6          -0.008315541   -0.004506112    0.003888972
      9        6           0.002552522    0.006493104   -0.005879651
     10        6          -0.004868303   -0.001270425    0.009104274
     11        7          -0.002020172    0.003361704   -0.002295276
     12        6           0.000512950   -0.003618694    0.002984690
     13        7           0.003806682   -0.001627033   -0.005231722
     14        6          -0.002825897    0.001859983   -0.001331686
     15        6           0.003614381   -0.000768813    0.002731078
     16        7          -0.000633190    0.000338348   -0.001038837
     17        1          -0.000348410   -0.001068811    0.000365438
     18        1           0.001124359    0.000548889   -0.000039011
     19        1          -0.001835494    0.001850937   -0.002735091
     20        1           0.000769422    0.000266921   -0.000708063
     21        1           0.001896281    0.000869475   -0.000303461
     22        1           0.001830909   -0.000816860   -0.001188548
     23        1           0.000138834   -0.000734296    0.000958821
     24        1           0.000976319   -0.000431409   -0.000415957
     25        1           0.001745753   -0.000762176   -0.000131844
     26        1          -0.001461770   -0.000114688    0.000373333
     27        1          -0.001391050   -0.000380061   -0.001457240
     28        1          -0.000820307    0.000119427    0.000567681
     29        1           0.000574663   -0.000312771   -0.000043797
     30        1           0.000339540   -0.000311655    0.000863464
 -------------------------------------------------------------------
 Cartesian Forces:  Max     0.009104274 RMS     0.002714336
 FormGI is forming the generalized inverse of G from B-inverse, IUseBI=4.
 GSVD:  received Info=                   1 from GESDD.

 GradGradGradGradGradGradGradGradGradGradGradGradGradGradGradGradGradGrad
 Berny optimization.
 Internal  Forces:  Max     0.006689051 RMS     0.001683329
 Search for a local minimum.
 Step number   1 out of a maximum of  160
 All quantities printed in internal units (Hartrees-Bohrs-Radians)
 Mixed Optimization -- RFO/linear search
 Second derivative matrix not updated -- analytic derivatives used.
 ITU=  0
     Eigenvalues ---   -0.00031   0.00055   0.00224   0.00248   0.00288
     Eigenvalues ---    0.00505   0.00539   0.00851   0.00977   0.01537
     Eigenvalues ---    0.01957   0.02028   0.02204   0.02811   0.02973
     Eigenvalues ---    0.03519   0.03695   0.04110   0.04177   0.04324
     Eigenvalues ---    0.04391   0.04618   0.04835   0.05331   0.05404
     Eigenvalues ---    0.05762   0.06057   0.06316   0.07650   0.08318
     Eigenvalues ---    0.08415   0.10644   0.10687   0.11329   0.11575
     Eigenvalues ---    0.11809   0.12797   0.13435   0.14447   0.15275
     Eigenvalues ---    0.15969   0.17238   0.18049   0.18355   0.18684
     Eigenvalues ---    0.20664   0.21147   0.22076   0.22727   0.23046
     Eigenvalues ---    0.24217   0.24425   0.25107   0.27207   0.27949
     Eigenvalues ---    0.29940   0.32168   0.32544   0.32767   0.33056
     Eigenvalues ---    0.33288   0.33640   0.33789   0.33965   0.34051
     Eigenvalues ---    0.35574   0.36365   0.36624   0.37046   0.37380
     Eigenvalues ---    0.40918   0.41326   0.42841   0.44232   0.44346
     Eigenvalues ---    0.45312   0.46145   0.46875   0.47705   0.52199
     Eigenvalues ---    0.58681   0.65091   0.77132   0.87644
 RFO step:  Lambda=-2.36178987D-03 EMin=-3.12558344D-04
 Linear search not attempted -- first point.
 Iteration  1 RMS(Cart)=  0.16235807 RMS(Int)=  0.04376841
 Iteration  2 RMS(Cart)=  0.11624955 RMS(Int)=  0.00810174
 Iteration  3 RMS(Cart)=  0.01387185 RMS(Int)=  0.00020412
 Iteration  4 RMS(Cart)=  0.00015309 RMS(Int)=  0.00018896
 Iteration  5 RMS(Cart)=  0.00000004 RMS(Int)=  0.00018896
 Variable       Old X    -DE/DX   Delta X   Delta X   Delta X     New X
                                 (Linear)    (Quad)   (Total)
    R1        2.32883  -0.00669   0.00000  -0.00723  -0.00723   2.32160
    R2        2.55756   0.00318   0.00000   0.00144   0.00144   2.55899
    R3        2.86147  -0.00059   0.00000  -0.00590  -0.00590   2.85557
    R4        2.73197   0.00096   0.00000  -0.00026  -0.00026   2.73171
    R5        1.90693  -0.00103   0.00000  -0.00349  -0.00349   1.90344
    R6        2.85851   0.00212   0.00000   0.00884   0.00884   2.86735
    R7        2.90151   0.00279   0.00000   0.01811   0.01811   2.91962
    R8        2.05757  -0.00037   0.00000   0.00059   0.00059   2.05816
    R9        2.54840  -0.00210   0.00000  -0.01118  -0.01118   2.53723
   R10        2.27370  -0.00152   0.00000  -0.00088  -0.00088   2.27283
   R11        1.82433   0.00317   0.00000   0.00546   0.00546   1.82979
   R12        2.83617  -0.00248   0.00000  -0.01250  -0.01250   2.82368
   R13        2.06506  -0.00017   0.00000  -0.00057  -0.00057   2.06450
   R14        2.06277   0.00039   0.00000   0.00107   0.00107   2.06384
   R15        2.57832   0.00597   0.00000   0.01375   0.01369   2.59201
   R16        2.59234   0.00564   0.00000   0.01104   0.01118   2.60351
   R17        2.60964  -0.00262   0.00000  -0.01331  -0.01348   2.59616
   R18        2.04182  -0.00218   0.00000  -0.00562  -0.00562   2.03620
   R19        2.47581   0.00257   0.00000   0.00376   0.00372   2.47953
   R20        2.56200   0.00522   0.00000   0.01105   0.01118   2.57318
   R21        2.03338   0.00091   0.00000   0.00188   0.00188   2.03526
   R22        1.91539   0.00109   0.00000   0.00378   0.00378   1.91916
   R23        2.88916   0.00252   0.00000   0.02327   0.02327   2.91243
   R24        2.06708  -0.00094   0.00000  -0.00489  -0.00489   2.06220
   R25        2.07159  -0.00123   0.00000  -0.00611  -0.00611   2.06548
   R26        2.76156   0.00011   0.00000  -0.01230  -0.01230   2.74926
   R27        2.06245  -0.00018   0.00000   0.00149   0.00149   2.06394
   R28        2.05813  -0.00050   0.00000  -0.00117  -0.00117   2.05695
   R29        1.91576  -0.00030   0.00000  -0.00175  -0.00175   1.91402
   R30        1.91656  -0.00050   0.00000  -0.00235  -0.00235   1.91421
    A1        2.12142   0.00276   0.00000   0.01145   0.01122   2.13264
    A2        2.14078  -0.00318   0.00000  -0.02382  -0.02403   2.11675
    A3        2.02094   0.00043   0.00000   0.01271   0.01249   2.03343
    A4        2.11622   0.00382   0.00000   0.01980   0.01918   2.13540
    A5        2.08379  -0.00143   0.00000  -0.00112  -0.00177   2.08202
    A6        2.02958  -0.00203   0.00000   0.00097   0.00034   2.02992
    A7        1.90546  -0.00240   0.00000  -0.01508  -0.01513   1.89034
    A8        1.98355  -0.00070   0.00000   0.00548   0.00554   1.98909
    A9        1.88359   0.00056   0.00000  -0.00705  -0.00709   1.87650
   A10        1.88388   0.00360   0.00000   0.01256   0.01257   1.89645
   A11        1.90111  -0.00037   0.00000   0.00063   0.00050   1.90161
   A12        1.90502  -0.00071   0.00000   0.00329   0.00327   1.90829
   A13        1.94285   0.00232   0.00000   0.00818   0.00818   1.95103
   A14        2.19042  -0.00374   0.00000  -0.01739  -0.01739   2.17303
   A15        2.14929   0.00143   0.00000   0.00925   0.00925   2.15854
   A16        1.85090   0.00362   0.00000   0.02279   0.02279   1.87368
   A17        2.01653  -0.00460   0.00000  -0.00656  -0.00666   2.00988
   A18        1.87036   0.00118   0.00000  -0.00465  -0.00463   1.86572
   A19        1.91996  -0.00070   0.00000  -0.02319  -0.02331   1.89664
   A20        1.90971   0.00194   0.00000   0.02386   0.02384   1.93355
   A21        1.89153   0.00252   0.00000   0.00098   0.00068   1.89221
   A22        1.84853   0.00001   0.00000   0.01159   0.01142   1.85996
   A23        2.27747   0.00056   0.00000  -0.00335  -0.00350   2.27398
   A24        2.17313  -0.00043   0.00000   0.00461   0.00447   2.17760
   A25        1.83182  -0.00013   0.00000  -0.00177  -0.00157   1.83025
   A26        1.93433  -0.00025   0.00000   0.00082   0.00078   1.93511
   A27        2.23675  -0.00069   0.00000  -0.01076  -0.01075   2.22600
   A28        2.11211   0.00094   0.00000   0.00993   0.00995   2.12205
   A29        1.82824   0.00272   0.00000   0.00699   0.00692   1.83516
   A30        1.95405  -0.00057   0.00000  -0.00179  -0.00158   1.95247
   A31        2.20470  -0.00048   0.00000  -0.00466  -0.00477   2.19992
   A32        2.12444   0.00105   0.00000   0.00644   0.00633   2.13077
   A33        1.87629  -0.00176   0.00000  -0.00430  -0.00466   1.87163
   A34        2.19588   0.00117   0.00000  -0.00078  -0.00174   2.19414
   A35        2.20485   0.00057   0.00000  -0.00238  -0.00332   2.20153
   A36        1.97253  -0.00174   0.00000  -0.03384  -0.03391   1.93862
   A37        1.90593   0.00193   0.00000   0.04025   0.04007   1.94600
   A38        1.87852  -0.00038   0.00000  -0.00443  -0.00479   1.87373
   A39        1.93534  -0.00074   0.00000  -0.01380  -0.01346   1.92188
   A40        1.89926   0.00141   0.00000   0.00257   0.00233   1.90159
   A41        1.86850  -0.00041   0.00000   0.01159   0.01144   1.87994
   A42        1.99920   0.00214   0.00000   0.01767   0.01770   2.01690
   A43        1.92010  -0.00181   0.00000  -0.01997  -0.02014   1.89996
   A44        1.89875  -0.00049   0.00000  -0.01181  -0.01197   1.88678
   A45        1.87581   0.00067   0.00000   0.01244   0.01255   1.88836
   A46        1.89866  -0.00046   0.00000   0.00561   0.00567   1.90433
   A47        1.86679  -0.00017   0.00000  -0.00493  -0.00521   1.86158
   A48        1.92590   0.00082   0.00000   0.01313   0.01301   1.93891
   A49        1.92274   0.00123   0.00000   0.01198   0.01185   1.93460
   A50        1.86005  -0.00058   0.00000   0.00625   0.00601   1.86606
    D1       -0.15769  -0.00161   0.00000   0.01798   0.01773  -0.13997
    D2       -2.94064  -0.00234   0.00000  -0.04558  -0.04584  -2.98648
    D3        2.97419   0.00000   0.00000   0.05602   0.05628   3.03047
    D4        0.19124  -0.00073   0.00000  -0.00754  -0.00729   0.18395
    D5       -0.58554   0.00026   0.00000  -0.37886  -0.37932  -0.96486
    D6       -2.74848   0.00101   0.00000  -0.36715  -0.36703  -3.11552
    D7        1.51209   0.00069   0.00000  -0.39946  -0.39964   1.11245
    D8        2.56588  -0.00141   0.00000  -0.41759  -0.41770   2.14817
    D9        0.40293  -0.00066   0.00000  -0.40588  -0.40542  -0.00248
   D10       -1.61968  -0.00098   0.00000  -0.43819  -0.43802  -2.05770
   D11       -2.19703  -0.00004   0.00000  -0.06471  -0.06481  -2.26185
   D12        1.98219  -0.00246   0.00000  -0.07362  -0.07367   1.90852
   D13       -0.13312  -0.00150   0.00000  -0.07633  -0.07634  -0.20945
   D14        0.59648   0.00074   0.00000  -0.00359  -0.00359   0.59289
   D15       -1.50748  -0.00168   0.00000  -0.01250  -0.01244  -1.51992
   D16        2.66040  -0.00072   0.00000  -0.01521  -0.01511   2.64529
   D17        2.86584  -0.00034   0.00000  -0.00067  -0.00064   2.86521
   D18       -0.31291  -0.00011   0.00000   0.00050   0.00053  -0.31239
   D19       -1.25340  -0.00040   0.00000   0.00466   0.00462  -1.24877
   D20        1.85103  -0.00017   0.00000   0.00583   0.00579   1.85682
   D21        0.81293   0.00057   0.00000   0.01602   0.01602   0.82896
   D22       -2.36582   0.00080   0.00000   0.01719   0.01719  -2.34863
   D23       -1.02269  -0.00007   0.00000   0.04295   0.04289  -0.97980
   D24        3.12731  -0.00041   0.00000   0.02001   0.02004  -3.13584
   D25        1.12545  -0.00070   0.00000   0.02064   0.02072   1.14617
   D26       -3.13876   0.00087   0.00000   0.04963   0.04955  -3.08921
   D27        1.01124   0.00053   0.00000   0.02669   0.02670   1.03793
   D28       -0.99062   0.00024   0.00000   0.02732   0.02738  -0.96324
   D29        1.08059  -0.00033   0.00000   0.03993   0.03984   1.12044
   D30       -1.05259  -0.00067   0.00000   0.01698   0.01699  -1.03560
   D31       -3.05445  -0.00096   0.00000   0.01762   0.01767  -3.03678
   D32        3.11217  -0.00042   0.00000  -0.02058  -0.02057   3.09159
   D33        0.00671  -0.00051   0.00000  -0.02105  -0.02106  -0.01435
   D34        2.85446  -0.00105   0.00000  -0.08163  -0.08165   2.77281
   D35       -0.33563  -0.00111   0.00000  -0.09797  -0.09798  -0.43361
   D36       -1.31667  -0.00123   0.00000  -0.07395  -0.07402  -1.39068
   D37        1.77642  -0.00129   0.00000  -0.09029  -0.09035   1.68608
   D38        0.69137   0.00118   0.00000  -0.04700  -0.04693   0.64445
   D39       -2.49872   0.00112   0.00000  -0.06333  -0.06326  -2.56198
   D40        3.10774  -0.00035   0.00000  -0.01577  -0.01572   3.09202
   D41       -0.03206  -0.00009   0.00000  -0.01040  -0.01039  -0.04245
   D42        0.00751  -0.00028   0.00000  -0.00199  -0.00199   0.00552
   D43       -3.13229  -0.00002   0.00000   0.00337   0.00334  -3.12895
   D44       -3.11273   0.00008   0.00000   0.00860   0.00865  -3.10408
   D45        0.14204   0.00024   0.00000   0.07708   0.07709   0.21913
   D46       -0.00931   0.00005   0.00000  -0.00435  -0.00433  -0.01364
   D47       -3.03773   0.00020   0.00000   0.06414   0.06411  -2.97362
   D48       -0.00267   0.00041   0.00000   0.00770   0.00772   0.00505
   D49        3.13728   0.00018   0.00000   0.00276   0.00273   3.14001
   D50       -0.00351  -0.00039   0.00000  -0.01063  -0.01065  -0.01416
   D51        3.13674  -0.00030   0.00000  -0.01682  -0.01679   3.11995
   D52        0.00831   0.00022   0.00000   0.00977   0.00971   0.01802
   D53        3.03598   0.00011   0.00000  -0.05904  -0.05897   2.97702
   D54       -3.13201   0.00013   0.00000   0.01564   0.01559  -3.11642
   D55       -0.10434   0.00003   0.00000  -0.05317  -0.05309  -0.15743
   D56        3.05691  -0.00053   0.00000   0.00803   0.00799   3.06490
   D57       -1.11131   0.00049   0.00000   0.02160   0.02141  -1.08991
   D58        0.92831  -0.00103   0.00000  -0.00251  -0.00245   0.92586
   D59       -1.07957   0.00017   0.00000   0.02559   0.02573  -1.05384
   D60        1.03539   0.00118   0.00000   0.03917   0.03915   1.07454
   D61        3.07502  -0.00033   0.00000   0.01506   0.01528   3.09030
   D62        0.97119   0.00009   0.00000   0.03324   0.03320   1.00439
   D63        3.08615   0.00110   0.00000   0.04681   0.04662   3.13277
   D64       -1.15741  -0.00041   0.00000   0.02270   0.02276  -1.13465
   D65        1.03793  -0.00010   0.00000  -0.00021  -0.00012   1.03782
   D66       -1.01116  -0.00063   0.00000  -0.02311  -0.02315  -1.03431
   D67       -1.10121   0.00029   0.00000   0.00446   0.00445  -1.09675
   D68        3.13288  -0.00023   0.00000  -0.01845  -0.01858   3.11431
   D69       -3.11660   0.00038   0.00000   0.00082   0.00093  -3.11567
   D70        1.11749  -0.00015   0.00000  -0.02208  -0.02210   1.09539
         Item               Value     Threshold  Converged?
 Maximum Force            0.006689     0.000450     NO 
 RMS     Force            0.001683     0.000300     NO 
 Maximum Displacement     1.082730     0.001800     NO 
 RMS     Displacement     0.275797     0.001200     NO 
 Predicted change in Energy=-1.961747D-03
 GradGradGradGradGradGradGradGradGradGradGradGradGradGradGradGradGradGrad

                          Input orientation:                          
 ---------------------------------------------------------------------
 Center     Atomic      Atomic             Coordinates (Angstroms)
 Number     Number       Type             X           Y           Z
 ---------------------------------------------------------------------
      1          8           0        0.934602   -1.255217   -1.022628
      2          6           0        1.174249   -0.120676   -0.616805
      3          7           0        0.262465    0.878087   -0.686626
      4          6           0       -0.991012    0.733191   -1.391919
      5          6           0       -1.152199    1.918171   -2.325806
      6          8           0       -2.099832    1.698072   -3.251137
      7          8           0       -0.538325    2.948162   -2.231817
      8          6           0       -2.226672    0.660890   -0.467292
      9          6           0       -2.185721   -0.419258    0.564364
     10          6           0       -2.869496   -0.542628    1.746990
     11          7           0       -2.572431   -1.734581    2.362138
     12          6           0       -1.713300   -2.326342    1.566307
     13          7           0       -1.453796   -1.581470    0.456367
     14          6           0        2.499429    0.219559    0.024737
     15          6           0        2.795468   -0.714791    1.214118
     16          7           0        4.095498   -0.537993    1.842801
     17          1           0        0.545311    1.819740   -0.467872
     18          1           0       -0.930192   -0.178572   -1.984540
     19          1           0       -2.180682    2.505483   -3.779458
     20          1           0       -3.100391    0.547131   -1.113200
     21          1           0       -2.338779    1.620433    0.042093
     22          1           0       -3.561535    0.159667    2.181609
     23          1           0       -1.243400   -3.280127    1.737902
     24          1           0       -0.729425   -1.764130   -0.231614
     25          1           0        2.531169    1.261129    0.348752
     26          1           0        3.273738    0.083792   -0.734657
     27          1           0        2.025961   -0.571365    1.975807
     28          1           0        2.703969   -1.742637    0.867738
     29          1           0        4.203188    0.404169    2.198620
     30          1           0        4.842217   -0.688017    1.174979
 ---------------------------------------------------------------------
                    Distance matrix (angstroms):
                    1          2          3          4          5
     1  O    0.000000
     2  C    1.228538   0.000000
     3  N    2.261780   1.354161   0.000000
     4  C    2.792513   2.453211   1.445558   0.000000
     5  C    4.015396   3.534111   2.402075   1.517335   0.000000
     6  O    4.784972   4.578990   3.581834   2.370057   1.342642
     7  O    4.615197   3.867679   2.704458   2.411732   1.202729
     8  C    3.738117   3.492773   2.508203   1.544998   2.487835
     9  C    3.599137   3.574033   3.040015   2.565640   3.858086
    10  C    4.759173   4.702919   4.213086   3.874166   5.058885
    11  N    4.897520   5.051376   4.915041   4.762743   6.110358
    12  C    3.855033   4.238972   4.387222   4.316659   5.786128
    13  N    2.828129   3.192528   3.209580   2.997997   4.480953
    14  C    2.391782   1.511105   2.437972   3.801830   4.663124
    15  C    2.959377   2.516665   3.544883   4.819285   5.920104
    16  N    4.326241   3.841551   4.805770   6.160512   7.137812
    17  H    3.148755   2.045228   1.007257   2.096364   2.518561
    18  H    2.358367   2.510522   2.055125   1.089133   2.135903
    19  H    5.607848   5.306095   4.264152   3.202605   1.875050
    20  H    4.420162   4.354874   3.405921   2.135833   2.673129
    21  H    4.485311   3.975799   2.801532   2.158718   2.665252
    22  H    5.699498   5.507937   4.833826   4.439214   5.405001
    23  H    4.057644   4.622965   5.043481   5.095704   6.598814
    24  H    1.911461   2.544266   2.858704   2.766106   4.257196
    25  H    3.280504   2.164005   2.523044   3.964141   4.599149
    26  H    2.710614   2.112711   3.114639   4.363692   5.048329
[...]
 ,0.00460355,0.06912121,-0.07870073,-0.04434385,-0.00003138,-0.00018781
 ,0.00063386,-0.00004659,0.00044999,-0.00029361,0.00020308,-0.00021494,
 0.00032177,0.00004468,-0.00004061,-0.00027098,0.00009282,-0.00030249,0
 .00087980,0.00004370,-0.00000370,0.00003101,-0.00014336,0.00014221,-0.
 00001270,-0.00017749,0.00008027,0.00004257,0.00057490,0.00063398,-0.00
 112893,-0.00012792,-0.00065484,-0.00050036,-0.07013212,0.07686585,-0.0
 0239304,-0.00676130,-0.00355592,-0.00139609,0.00882141,0.00318634,0.00
 225147,-0.00329965,-0.00073596,-0.00076865,0.00035869,0.00061571,-0.00
 003228,0.00015205,-0.00052909,0.00023220,-0.00014916,0.00014868,0.0000
 8412,-0.00021153,0.00025356,-0.00114999,-0.00085280,0.00059290,-0.0027
 6361,-0.00534896,0.00317481,-0.00025497,0.00202557,0.00359197,0.000610
 25,0.00581020,-0.00216703,0.01111773,-0.01173379,-0.01416529,0.1790911
 4,-0.04912538,-0.26794800,-0.00012195,-0.00061532,-0.00109446,-0.00046
 159,-0.00064549,0.00072981,0.00001030,0.00029084,-0.00056273,0.0000514
 8,-0.00008195,0.00030428,-0.00015803,0.00113466,-0.00084924,-0.0000407
 5,0.00001645,0.00001449,-0.00004542,0.00041824,-0.00039529,0.00008873,
 0.00011504,-0.00021892,0.00062295,0.00039901,0.00084181,-0.00117658,-0
 .00018813,0.00015288,-0.18328868,0.05971094,0.27884246,-0.00608976,-0.
 00246177,-0.00522929,0.00192079,-0.02893677,-0.00162677,0.00004694,0.0
 0107249,0.00037606,0.00029121,0.00022614,0.00024555,-0.00011159,-0.000
 20381,-0.00007234,0.00009287,0.00004129,0.00008660,0.00009939,0.000142
 46,0.00005723,0.00004430,-0.00000727,0.00002385,0.00009633,-0.00012687
 ,-0.00003101,-0.00000312,0.00001875,0.00006995,-0.00003852,0.00006088,
 0.00009669,-0.00000788,0.00008129,-0.00016363,-0.00013295,-0.00003074,
 0.00019664,-0.05611175,-0.02497727,-0.00451602,-0.00026983,0.00018683,
 -0.00032995,0.00021903,0.00055176,0.00078309,-0.00159301,0.00043950,-0
 .00098730,0.00032000,-0.00021661,0.00008254,-0.00001289,-0.00000285,-0
 .00000980,0.00002454,0.00000675,-0.00001906,-0.00002795,0.00001367,0.0
 0000234,-0.00001524,0.00000051,0.00000823,-0.00000144,0.00000135,-0.00
 000373,0.00029751,0.00007964,-0.00029803,0.05605217,-0.00229444,0.0015
 2147,-0.00057280,0.00402956,-0.00739086,0.00026347,0.00095684,0.000891
 16,0.00087611,-0.00051562,0.00061151,-0.00028931,-0.00021368,-0.000301
 01,0.00001188,0.00006219,0.00007529,0.00002296,0.00013408,0.00019701,0
 .00000452,0.00003405,-0.00000535,0.00000169,0.00008568,-0.00010233,-0.
 00000474,0.00001208,0.00001963,0.00003699,-0.00006057,0.00004697,0.000
 06411,-0.00001232,0.00004845,-0.00014715,-0.00013440,-0.00004368,0.000
 14952,-0.02930247,-0.28909684,-0.05218757,-0.00301195,-0.01827138,-0.0
 0314965,0.00032464,0.00263772,-0.00070215,-0.00035396,0.00109148,-0.00
 002500,0.00016322,0.00009919,0.00015420,-0.00001446,-0.00000449,-0.000
 00957,0.00000280,0.00000036,-0.00002229,-0.00002187,0.00001794,0.00000
 719,-0.00001795,0.00000813,0.00000812,0.00002796,0.00003798,-0.0000065
 7,0.00026275,0.00005209,-0.00012998,0.03068849,0.31630303,-0.00613750,
 -0.00160250,-0.00117610,0.00315561,-0.01745611,-0.00441863,0.00047911,
 0.00089370,0.00005697,0.00014929,0.00022018,-0.00007157,-0.00015221,-0
 .00028838,0.00002402,0.00005792,0.00007349,0.00004218,0.00018814,0.000
 17199,-0.00003212,0.00006023,0.00003304,0.00002956,0.00005577,-0.00012
 463,-0.00001780,-0.00002009,-0.00002431,0.00004923,-0.00003809,0.00005
 188,0.00009298,-0.00001619,0.00010761,-0.00012420,-0.00013994,-0.00002
 431,0.00020443,-0.00632279,-0.04896717,-0.05522357,0.00312015,0.030590
 70,0.00387939,0.00170986,-0.00117740,0.00281914,-0.00102502,0.00023797
 ,0.00045231,0.00015811,-0.00008719,0.00006266,-0.00001829,0.00000067,-
 0.00000273,0.00001272,-0.00000910,-0.00001496,-0.00002040,-0.00000122,
 0.00001048,0.00000429,-0.00000043,0.00000788,-0.00002116,-0.00002782,-
 0.00000147,0.00029411,0.00011123,-0.00035344,0.00857492,0.05273377,0.0
 6105897,0.00392855,-0.00017598,-0.00203121,-0.02327515,0.01199850,0.01
 899599,-0.00407174,-0.00164988,-0.00322023,0.00043945,0.00126835,-0.00
 058815,-0.00033024,-0.00058530,0.00012124,-0.00014665,0.00024760,-0.00
 027876,0.00003506,0.00018725,-0.00012119,0.00010356,0.00002639,-0.0000
 1599,-0.00003963,0.00003422,-0.00000542,0.00001238,-0.00001895,-0.0000
 6468,0.00002073,-0.00006630,0.00001656,0.00001348,-0.00001011,0.000032
 55,0.00002898,0.00004881,-0.00009458,-0.19716410,0.06026668,0.11271270
 ,-0.00069215,-0.00063096,0.00023979,0.00198285,-0.00055947,-0.00059422
 ,-0.00015873,-0.00043119,0.00031828,-0.00009265,0.00002950,-0.00004910
 ,-0.00003085,-0.00000096,-0.00001652,-0.00003794,-0.00001524,0.0000290
 2,-0.00000326,-0.00000241,0.00001670,0.00000316,0.00000185,-0.00000389
 ,-0.00000042,-0.00000290,0.00000617,-0.00012016,0.00001060,0.00017508,
 0.00416919,-0.00121011,-0.00310261,0.21415359,-0.00043177,-0.00031644,
 -0.00079337,-0.00196695,0.00022848,0.00444170,0.00036933,0.00022222,0.
 00017221,-0.00007792,0.00034967,0.00011421,-0.00006423,0.00003903,-0.0
 0009305,0.00002837,-0.00000237,0.00003900,0.00000652,-0.00000578,0.000
 08081,0.00001249,-0.00003355,0.00000296,0.00002359,-0.00003666,0.00000
 436,0.00000888,-0.00000324,0.00002026,-0.00001032,0.00000610,0.0000066
 8,-0.00002546,0.00005243,-0.00004133,-0.00005367,-0.00004398,0.0000379
 8,0.06183737,-0.07409255,-0.05188767,-0.01408511,0.00466133,0.01348931
 ,-0.00116103,0.00019107,-0.00185365,-0.00037329,0.00048565,-0.00053693
 ,0.00015257,-0.00001804,0.00007045,0.00000385,-0.00000270,-0.00001489,
 0.00000810,0.00000837,-0.00001056,-0.00000924,0.00000788,-0.00000653,-
 0.00000584,0.00000003,0.00000337,-0.00000037,0.00000304,0.00000575,0.0
 0008136,0.00005718,-0.00001524,0.02379025,-0.00899006,-0.01686909,-0.0
 6854997,0.07712747,0.00133505,0.00122423,-0.00028970,-0.01526896,0.004
 97993,0.01034512,-0.00215475,-0.00036324,-0.00191058,-0.00012069,0.000
 80949,-0.00070732,-0.00027054,-0.00026478,0.00000461,-0.00003861,0.000
 11828,-0.00010797,0.00005607,0.00007616,-0.00002242,0.00011215,0.00002
 397,0.00002137,-0.00001790,-0.00000112,-0.00002536,-0.00000514,0.00001
 937,0.00000746,0.00003609,0.00001611,0.00005509,0.00002218,-0.00004691
 ,-0.00001919,0.00002722,0.00002799,0.00000068,0.11430127,-0.05184847,-
 0.12780253,0.02348697,-0.00704645,-0.02080356,0.00032187,-0.00094454,0
 .00378319,-0.00023897,-0.00010567,0.00014243,0.00001326,0.00000586,0.0
 0000506,-0.00002034,0.00000538,-0.00002862,0.00000526,-0.00000539,0.00
 001254,-0.00001042,-0.00000091,0.00000501,-0.00000757,-0.00000394,-0.0
 0000222,-0.00001164,-0.00001896,-0.00000476,-0.00000195,0.00000675,0.0
 0001264,0.00372786,-0.00155023,-0.00338444,-0.12267255,0.05108696,0.14
 390025,0.00014224,0.00010783,0.00020482,-0.00000160,-0.00016161,-0.000
 16352,0.00054992,-0.00017745,-0.00000728,-0.00001016,-0.00005821,0.000
 01510,0.00002188,0.00006092,0.00000649,0.00000472,-0.00002203,0.000007
 95,-0.00000357,-0.00003015,-0.00000718,0.00000546,0.00000200,0.0000447
 5,0.00004128,-0.00001398,-0.00006856,-0.00003291,0.00006869,0.00004538
 ,-0.00000493,-0.00000262,-0.00000817,0.00004222,-0.00005653,-0.0000727
 2,-0.00009170,-0.00008716,0.00001835,0.00146855,-0.00030683,0.00155768
 ,-0.19547675,0.05524849,0.10996976,-0.03004514,0.01142286,0.01049728,0
 .00001357,0.00000351,0.00009673,-0.00000374,-0.00000403,-0.00000233,0.
 00000112,0.00000069,0.00000570,0.00001114,-0.00000059,-0.00000769,0.00
 000638,-0.00000525,-0.00000182,0.00000884,-0.00000134,0.00000074,0.000
 01465,0.00003208,0.00001232,-0.00004298,0.00000199,0.00007004,-0.00000
 324,-0.00021287,0.00003410,0.00086767,0.00023867,-0.00088815,0.2219633
 1,-0.00015656,0.00023972,-0.00018172,-0.00117796,0.00048422,-0.0004769
 9,-0.00007756,-0.00007036,-0.00034937,0.00011257,-0.00006251,0.0000760
 0,0.00001475,0.00008602,0.00000904,-0.00002807,-0.00000996,-0.00001304
 ,-0.00002593,-0.00006884,-0.00002754,0.00003516,0.00008987,-0.00009688
 ,-0.00017719,-0.00003967,0.00000487,-0.00014483,0.00001733,-0.00008901
 ,0.00012504,0.00021202,0.00020966,0.00029305,-0.00024539,-0.00003001,0
 .00015850,0.00020993,-0.00001536,-0.01279238,0.00429389,0.01386137,0.0
 5819426,-0.07446869,-0.04513433,-0.00336533,0.00259296,0.00197332,0.00
 000166,-0.00008105,0.00020006,-0.00002575,0.00000203,-0.00002614,-0.00
 000031,0.00000341,-0.00000389,-0.00001986,-0.00002609,0.00005462,0.000
 01235,-0.00002489,0.00001317,0.00004044,-0.00001734,0.00000036,-0.0000
 7047,-0.00011621,-0.00003901,0.00002906,-0.00004055,-0.00021089,-0.000
 43733,0.00090320,-0.00095073,-0.00010317,-0.00099243,0.00365320,-0.063
 22304,0.07396733,-0.00113811,-0.00040010,-0.00020325,0.00381654,-0.000
 34141,0.00032775,-0.00118344,0.00038721,0.00057603,-0.00009935,0.00008
 119,-0.00009885,-0.00001460,0.00010282,-0.00006646,0.00001621,-0.00002
 479,0.00004384,-0.00002983,-0.00006734,0.00004849,-0.00001004,0.000029
 47,-0.00006883,-0.00008700,0.00019568,-0.00012641,-0.00000078,-0.00001
 859,0.00014507,0.00000240,0.00001803,-0.00006653,-0.00009644,-0.000187
 58,0.00021843,0.00026426,0.00002761,0.00000476,0.01918822,-0.00711932,
 -0.02000299,0.11550237,-0.04590309,-0.13318402,-0.01970768,0.00801938,
 0.01108857,0.00015642,0.00012200,-0.00030900,0.00005131,-0.00000742,0.
 00000815,0.00000544,-0.00000226,-0.00001451,0.00000717,-0.00000893,0.0
 0002742,-0.00001803,-0.00000342,0.00000399,-0.00000220,-0.00000849,-0.
 00000318,-0.00001392,-0.00002813,-0.00000414,0.00003150,-0.00005953,-0
 .00023566,-0.00028360,0.00022592,0.00138686,-0.00063177,0.00347292,-0.
 00402089,-0.11683793,0.04422793,0.14818722,-0.00060638,-0.00048277,-0.
 00001935,0.00015622,0.00154147,0.00018945,0.00005590,-0.00026781,-0.00
 034960,0.00007489,-0.00000745,-0.00003778,-0.00001324,0.00009116,-0.00
 004459,0.00000136,-0.00001575,0.00001730,-0.00001544,-0.00006549,0.000
 00999,0.00003939,0.00004032,-0.00001044,-0.00005317,0.00002870,-0.0000
 4380,-0.00004380,-0.00010192,0.00001204,0.00005733,0.00005381,-0.00002
 510,-0.00001568,-0.00007693,0.00024281,0.00015866,0.00013343,-0.000111
 20,0.00090834,-0.00212719,0.00132792,-0.05346858,-0.02336611,-0.002316
 35,-0.00764109,-0.03064890,-0.01427454,0.00004544,-0.00001903,0.000152
 03,-0.00003082,0.00002747,-0.00002722,-0.00000099,0.00000132,-0.000007
 31,0.00000218,-0.00001009,0.00001926,0.00000821,-0.00001773,0.00000741
 ,0.00001909,-0.00001583,-0.00000427,-0.00008015,-0.00011779,0.00000285
 ,-0.00016851,0.00001169,-0.00018634,0.00054076,-0.00026991,-0.00045499
 ,0.00018500,-0.00044563,-0.00051218,0.00409020,0.02448575,0.00503163,0
 .06048112,0.00009632,0.00270867,-0.00053561,-0.00171843,-0.00345379,-0
 .00156766,0.00020482,0.00044049,0.00034952,-0.00008325,0.00004818,-0.0
 0012228,-0.00006819,-0.00012294,-0.00000384,0.00004943,0.00002272,0.00
 003559,0.00007670,0.00010066,0.00000936,0.00000251,-0.00004401,0.00005
 197,0.00008450,-0.00006393,0.00002370,0.00001801,0.00007197,0.00001502
 ,-0.00005670,-0.00000909,0.00001472,-0.00003331,0.00003877,-0.00019798
 ,-0.00015006,-0.00010946,0.00007980,0.00001423,-0.01896632,0.00006799,
 -0.02846948,-0.29425808,-0.05529044,-0.00265907,0.00029480,-0.00264844
 ,-0.00017812,0.00013319,-0.00002180,0.00006399,-0.00001147,0.00003778,
 -0.00000621,-0.00000165,-0.00000105,0.00001427,0.00001272,-0.00003496,
 -0.00000959,0.00001605,-0.00000622,-0.00001642,0.00001335,0.00000617,0
 .00004587,0.00010337,-0.00000015,0.00015716,0.00000174,0.00013617,-0.0
 0011332,-0.00025128,0.00307158,-0.00027655,0.00105698,-0.00016549,-0.0
 0006049,-0.00815328,-0.00198638,0.03373241,0.31820847,0.00032792,-0.00
 177282,-0.00025630,0.00115472,0.00330195,0.00188298,-0.00032756,-0.000
 57035,-0.00009714,-0.00000051,-0.00006454,0.00004976,0.00005862,0.0000
 5863,-0.00000936,-0.00002633,-0.00001276,-0.00002487,-0.00005124,-0.00
 004322,0.00001003,-0.00005126,-0.00004106,-0.00000541,-0.00001906,0.00
 015643,0.00003349,0.00005258,0.00007133,-0.00007403,0.00000545,-0.0000
 9350,-0.00008870,-0.00008674,-0.00010298,0.00005671,-0.00001583,-0.000
 10578,-0.00001753,0.00189650,0.02989182,0.00154804,-0.00426569,-0.0545
 2359,-0.05852827,-0.00582790,-0.01973328,-0.00827207,0.00034753,-0.000
 10069,-0.00006710,-0.00008896,0.00003191,-0.00003179,0.00000409,-0.000
 00036,0.00000436,-0.00001194,0.00000936,-0.00001233,0.00000550,0.00000
 852,-0.00001246,-0.00001406,0.00001140,-0.00000496,0.00007421,0.000098
 68,0.00003360,-0.00022315,-0.00002181,0.00015598,-0.00055846,0.0033791
 5,-0.00478686,0.00035300,-0.00065255,0.00161397,-0.00204008,-0.0174932
 0,-0.00364058,0.01284819,0.05800380,0.07031947,0.00011101,0.00065176,-
 0.00007621,-0.00014451,-0.00066653,-0.00004276,-0.00009144,0.00014856,
 0.00015189,-0.00001981,0.00001811,-0.00001313,-0.00002931,-0.00002531,
 -0.00002768,0.00002095,0.00000573,0.00002305,0.00001272,0.00002267,0.0
 0002457,-0.00000047,-0.00001174,-0.00000617,0.00003409,-0.00002555,-0.
 00001404,0.00001287,0.00004915,0.00000628,0.00000680,0.00000947,0.0000
 4428,0.00001271,-0.00001801,-0.00008375,-0.00005760,-0.00000823,0.0000
 5939,0.00069152,-0.00037036,0.00051410,-0.00520168,-0.03564350,-0.0089
 8750,-0.06890325,-0.04752540,-0.01765209,-0.00001715,0.00001995,-0.000
 11576,0.00001849,0.00000119,0.00000990,-0.00000148,-0.00000053,-0.0000
 0742,0.00000143,0.00000394,0.00000061,-0.00000931,0.00000911,-0.000003
 84,-0.00002073,0.00000292,-0.00000107,0.00001811,0.00003085,-0.0000069
 1,0.00005736,-0.00001808,0.00003040,0.00021477,0.00078003,-0.00041640,
 0.00000878,0.00018642,0.00002865,0.00061490,-0.00004857,0.00082914,-0.
 00552201,-0.00019653,-0.00385522,0.07308209,0.00010569,0.00013297,0.00
 004213,0.00016886,-0.00017846,0.00035064,-0.00005084,0.00005788,-0.000
 01047,0.00005809,-0.00000582,0.00001088,0.00003325,-0.00000668,0.00003
 383,-0.00002796,0.00000584,-0.00002852,-0.00002132,0.00000320,-0.00001
 945,-0.00000031,0.00000147,-0.00000520,0.00000638,-0.00001334,-0.00000
 231,-0.00000091,0.00001818,-0.00000995,-0.00000532,-0.00000051,0.00002
 861,0.00000838,-0.00001348,-0.00004282,-0.00003215,-0.00000286,0.00003
 441,0.00134090,0.00230106,0.00037771,0.00093620,-0.00460800,0.00535765
 ,-0.04540401,-0.38887131,-0.12513207,0.00003146,-0.00001269,0.00001144
 ,-0.00000401,-0.00000064,-0.00000223,0.00000458,-0.00000176,0.00000475
 ,-0.00000572,-0.00000156,0.00000071,0.00000161,0.00000202,0.00000065,-
 0.00000268,0.00000428,-0.00000134,0.00001484,0.00001717,-0.00000406,0.
 00003480,-0.00000319,0.00001713,-0.00007819,0.00008123,-0.00075813,-0.
 00001872,-0.00011219,-0.00009193,-0.00036709,0.00020144,0.00006429,-0.
 00162263,0.00205829,-0.00013571,0.04955951,0.40201783,0.00078938,0.000
 97740,0.00027070,-0.00197551,-0.00038101,-0.00025364,0.00086034,-0.000
 22495,0.00002674,-0.00025044,-0.00008320,-0.00020237,-0.00013688,0.000
 06730,-0.00018250,0.00013641,-0.00004505,0.00014036,0.00011238,-0.0000
 4200,0.00008435,0.00001087,-0.00002255,0.00011581,-0.00002228,0.000080
 99,0.00005963,0.00000219,-0.00001345,0.00001586,-0.00000913,0.00000548
 ,-0.00015870,-0.00002058,-0.00002462,0.00013603,0.00014519,-0.00003532
 ,-0.00017568,0.00177382,-0.00238221,0.00176142,-0.00758535,-0.02045208
 ,-0.01152656,-0.00937083,-0.07656345,-0.03852500,-0.00014227,0.0001185
 4,0.00005290,-0.00000636,0.00003611,0.00001065,-0.00002380,0.00001001,
 -0.00001125,0.00004948,0.00002161,-0.00004212,-0.00000090,-0.00000455,
 -0.00001089,0.00001241,-0.00000566,0.00000475,-0.00000367,0.00000098,0
 .00000781,-0.00018541,-0.00007506,0.00012637,-0.00029648,0.00086197,-0
 .00045604,-0.00001095,0.00003901,-0.00031309,0.00060961,0.00081753,0.0
 0072134,-0.00237534,0.00072587,-0.00027260,0.02029205,0.11765353,0.057
 18955,0.00032876,0.00019234,0.00003355,-0.00031082,-0.00053763,0.00015
 035,0.00058395,-0.00006299,0.00005321,-0.00004948,-0.00008739,-0.00003
 362,-0.00001969,0.00002020,-0.00004798,0.00004007,-0.00001695,0.000041
 56,0.00003191,-0.00000555,0.00002353,0.00000317,-0.00002170,0.00005665
 ,0.00001293,-0.00000448,0.00003973,0.00001250,-0.00001755,-0.00001475,
 -0.00002272,-0.00002283,-0.00006019,-0.00002001,0.00005356,0.00001542,
 -0.00000953,-0.00004101,-0.00005602,0.00207892,0.00045178,0.00094162,-
 0.02906169,0.00873594,0.02031393,-0.28434541,0.09089597,0.14421957,-0.
 00004720,0.00001441,0.00004800,-0.00001103,0.00001114,0.00000113,-0.00
 000610,0.00000286,0.00000008,0.00001481,0.00001116,-0.00002295,0.00000
 262,0.00000099,-0.00000527,0.00000215,0.00000171,0.00000125,0.00000641
 ,0.00001447,0.00000570,-0.00007019,-0.00000482,0.00010010,-0.00001063,
 0.00008224,-0.00016864,0.00021124,0.00051303,-0.00123354,-0.00415132,-
 0.00162830,-0.00474788,0.00083579,-0.00046450,0.00033567,0.00510018,-0
 .00466270,-0.00237795,0.30887039,-0.00033852,-0.00058237,-0.00020597,0
 .00072287,0.00079142,0.00042256,-0.00048324,-0.00006156,-0.00012049,0.
 00012030,0.00009091,0.00008801,0.00009014,-0.00005153,0.00012894,-0.00
 009566,0.00003035,-0.00010684,-0.00007302,0.00002340,-0.00005914,0.000
 00235,0.00000978,-0.00004528,0.00001125,-0.00006500,-0.00001311,0.0000
 0803,-0.00002142,-0.00001588,-0.00001177,-0.00004509,0.00005551,-0.000
 01749,0.00010418,-0.00006992,-0.00010769,-0.00001951,0.00006636,-0.000
 44946,-0.00026823,-0.00162596,-0.00103213,0.00132523,0.00616976,0.0643
 5018,-0.07040160,-0.06756054,0.00005926,-0.00008539,-0.00001692,0.0000
 0362,-0.00001283,-0.00000418,0.00001517,-0.00000424,0.00001106,-0.0000
 2731,-0.00000973,0.00001685,0.00000310,-0.00000019,0.00000861,0.000004
 34,0.00000216,0.00000018,-0.00000650,0.00000044,0.00000149,0.00010250,
 0.00008487,-0.00003684,0.00019071,-0.00018658,0.00007070,0.00018840,0.
 00015306,0.00040437,-0.00239646,0.00111386,-0.00080768,-0.00046856,0.0
 0011486,0.00044524,0.03305899,-0.01307035,-0.02106119,-0.09342340,0.08
 104110,0.00044970,0.00026588,0.00014546,-0.00088200,-0.00040345,-0.000
 46730,0.00050798,-0.00006714,0.00003977,-0.00011107,-0.00008745,-0.000
 03582,-0.00007269,0.00006175,-0.00011550,0.00008359,-0.00003207,0.0000
 9206,0.00006026,-0.00003343,0.00005648,-0.00000431,-0.00001550,0.00004
 165,0.00000181,0.00003857,0.00001895,0.00000145,0.00001198,0.00000244,
 0.00001313,0.00001847,-0.00005129,0.00000922,-0.00004097,0.00004733,0.
 00006118,0.00000048,-0.00006303,-0.00137277,0.00037561,0.00259464,-0.0
 2335170,0.01012228,0.00628516,0.17466809,-0.09603935,-0.14144913,-0.00
 005176,0.00005972,0.00001265,-0.00001281,0.00001325,0.00000130,-0.0000
 1417,0.00000587,-0.00000950,0.00002072,0.00001046,-0.00001479,-0.00000
 141,0.00000014,-0.00000971,-0.00000612,-0.00000256,-0.00000110,0.00000
 194,-0.00000036,0.00000360,-0.00010847,-0.00005092,0.00006633,0.000093
 92,-0.00000453,-0.00011316,0.00048474,-0.00031309,-0.00046677,-0.00309
 137,0.00003697,-0.00074263,0.00093952,-0.00004675,0.00049399,0.0092956
 5,0.00225582,-0.00859382,-0.15761224,0.08386033,0.14223173\\0.00000033
 ,0.00000053,-0.00000145,-0.00000388,0.00000317,0.00000282,0.00000061,-
 0.00000121,0.00000007,0.00000140,0.00000045,0.,0.00000094,0.00000032,-
 0.00000037,0.00000098,0.00000026,-0.00000048,0.00000082,0.,0.,-0.00000
 033,-0.00000090,-0.00000101,0.00000049,0.00000054,0.00000143,-0.000000
 51,-0.00000059,-0.00000038,-0.00000162,0.00000154,-0.00000063,-0.00000
 062,0.00000027,-0.00000086,0.00000002,0.00000022,-0.00000165,-0.000000
 26,-0.00000002,0.00000094,0.00000199,-0.00000238,-0.00000085,-0.000001
 11,0.00000012,0.00000179,0.00000024,-0.00000100,-0.00000058,0.00000069
 ,-0.00000026,-0.00000025,0.00000123,0.00000038,-0.00000053,0.00000034,
 0.00000049,-0.00000100,0.00000008,0.00000004,-0.00000050,-0.00000030,0
 .00000029,-0.00000070,-0.00000067,0.00000005,-0.00000034,-0.00000042,0
 .00000025,0.00000015,0.00000035,-0.00000167,0.00000048,0.00000114,-0.0
 0000164,0.00000173,-0.00000037,0.00000160,0.00000100,-0.00000048,0.000
 00045,-0.00000080,-0.00000040,-0.00000065,0.00000100,-0.00000069,-0.00
 000066,0.00000098\\\@


 BREAD HAS TO MOLD IN ORDER TO GET PENICILLIN.
          -- JERRY BOATZ
 Job cpu time:       0 days 14 hours 48 minutes 33.9 seconds.
 File lengths (MBytes):  RWF=    973 Int=      0 D2E=      0 Chk=     34 Scr=      1
 Normal termination of Gaussian 09 at Sat Jul 24 10:24:31 2021.
