 Entering Gaussian System, Link 0=g09
 Input=opt_freq-conf-273.com
 Output=opt_freq-conf-273.log
 Initial command:
 /aerosol/software/g09/l1.exe "/scratch/nicole/10713/Gau-86414.inp" -scrdir="/scratch/nicole/10713/"
 Entering Link 1 = /aerosol/software/g09/l1.exe PID=     86419.
  
 Copyright (c) 1988,1990,1992,1993,1995,1998,2003,2009,2013,
            Gaussian, Inc.  All Rights Reserved.
  
 This is part of the Gaussian(R) 09 program.  It is based on
 the Gaussian(R) 03 system (copyright 2003, Gaussian, Inc.),
 the Gaussian(R) 98 system (copyright 1998, Gaussian, Inc.),
 the Gaussian(R) 94 system (copyright 1995, Gaussian, Inc.),
 the Gaussian 92(TM) system (copyright 1992, Gaussian, Inc.),
 the Gaussian 90(TM) system (copyright 1990, Gaussian, Inc.),
 the Gaussian 88(TM) system (copyright 1988, Gaussian, Inc.),
 the Gaussian 86(TM) system (copyright 1986, Carnegie Mellon
 University), and the Gaussian 82(TM) system (copyright 1983,
 Carnegie Mellon University). Gaussian is a federally registered
 trademark of Gaussian, Inc.
  
 This software contains proprietary and confidential information,
 including trade secrets, belonging to Gaussian, Inc.
  
 This software is provided under written license and may be
 used, copied, transmitted, or stored only in accord with that
 written license.
  
 The following legend is applicable only to US Government
 contracts under FAR:
  
                    RESTRICTED RIGHTS LEGEND
  
 Use, reproduction and disclosure by the US Government is
 subject to restrictions as set forth in subparagraphs (a)
 and (c) of the Commercial Computer Software - Restricted
 Rights clause in FAR 52.227-19.
  
 Gaussian, Inc.
 340 Quinnipiac St., Bldg. 40, Wallingford CT 06492
  
  
 ---------------------------------------------------------------
 Warning -- This program may not be used in any manner that
 competes with the business of Gaussian, Inc. or will provide
 assistance to any competitor of Gaussian, Inc.  The licensee
 of this program is prohibited from giving any competitor of
 Gaussian, Inc. access to this program.  By using this program,
 the user acknowledges that Gaussian, Inc. is engaged in the
 business of creating and licensing software in the field of
 computational chemistry and represents and warrants to the
 licensee that it is not a competitor of Gaussian, Inc. and that
 it will not use this program in any manner prohibited above.
 ---------------------------------------------------------------
  

 Cite this work as:
 Gaussian 09, Revision D.01,
 M. J. Frisch, G. W. Trucks, H. B. Schlegel, G. E. Scuseria, 
 M. A. Robb, J. R. Cheeseman, G. Scalmani, V. Barone, B. Mennucci, 
 G. A. Petersson, H. Nakatsuji, M. Caricato, X. Li, H. P. Hratchian, 
 A. F. Izmaylov, J. Bloino, G. Zheng, J. L. Sonnenberg, M. Hada, 
 M. Ehara, K. Toyota, R. Fukuda, J. Hasegawa, M. Ishida, T. Nakajima, 
 Y. Honda, O. Kitao, H. Nakai, T. Vreven, J. A. Montgomery, Jr., 
 J. E. Peralta, F. Ogliaro, M. Bearpark, J. J. Heyd, E. Brothers, 
 K. N. Kudin, V. N. Staroverov, T. Keith, R. Kobayashi, J. Normand, 
 K. Raghavachari, A. Rendell, J. C. Burant, S. S. Iyengar, J. Tomasi, 
 M. Cossi, N. Rega, J. M. Millam, M. Klene, J. E. Knox, J. B. Cross, 
 V. Bakken, C. Adamo, J. Jaramillo, R. Gomperts, R. E. Stratmann, 
 O. Yazyev, A. J. Austin, R. Cammi, C. Pomelli, J. W. Ochterski, 
 R. L. Martin, K. Morokuma, V. G. Zakrzewski, G. A. Voth, 
 P. Salvador, J. J. Dannenberg, S. Dapprich, A. D. Daniels, 
 O. Farkas, J. B. Foresman, J. V. Ortiz, J. Cioslowski, 
 and D. J. Fox, Gaussian, Inc., Wallingford CT, 2013.
 
 ******************************************
 Gaussian 09:  ES64L-G09RevD.01 24-Apr-2013
                29-Jul-2021 
 ******************************************
 %mem=2gb
 %nproc=4
 Will use up to    4 processors via shared memory.
 %chk=conf-273.chk
 ----------------------------------------------------------------------
 # B3LYP/6-311G(2df,2pd) guess=read geom=checkpoint opt=readfc freq=nor
 aman nosymm integral(ultrafinegrid)
 ----------------------------------------------------------------------
 1/10=3,14=-1,18=20,19=15,26=4,29=2,38=1/1,3;
 2/9=110,12=2,15=1,40=1/2;
 3/5=4,6=6,7=404,11=2,14=-4,16=1,25=1,30=1,71=1,74=-5,75=-5,116=-2/1,2,3;
 4/5=1/1;
 5/5=2,38=6/2;
 6/7=2,8=2,9=2,10=2,28=1/1;
 7/30=1/1,2,3,16;
 1/14=-1,18=20,19=15,26=4/3(2);
 2/9=110,15=1/2;
 99//99;
 2/9=110,15=1/2;
 3/5=4,6=6,7=404,11=2,14=-2,16=1,25=1,30=1,71=1,74=-5,75=-5/1,2,3;
 4/5=5,16=3,69=1/1;
 5/5=2,38=5/2;
 7/30=1/1,2,3,16;
 1/14=-1,18=20,19=15,26=4/3(-5);
 2/9=110,15=1/2;
 6/7=2,8=2,9=2,10=2,19=2,28=1/1;
 99/9=1/99;
 ------------------------------------------------------------
 Candidate Structure: Conf:273 OPT and FREQ calc in gas phase
 ------------------------------------------------------------
 Structure from the checkpoint file:  "conf-273.chk"
 Charge =  0 Multiplicity = 1
 Redundant internal coordinates found in file.
 O,0,0.7225021846,-1.7321236483,1.5933129712
 C,0,0.8967268641,-0.673840341,0.9689240688
 N,0,0.2964286218,-0.4488877627,-0.2263634609
 C,0,-0.8002121307,-1.2844732483,-0.7411767034
 C,0,-0.280630098,-2.6404931249,-1.2950172624
 O,0,0.368633792,-3.4041298481,-0.418612431
 O,0,-0.4809765649,-2.9850424674,-2.4382343961
 C,0,-1.5707640794,-0.5419746578,-1.8351554074
 C,0,-2.1641674823,0.7623995753,-1.3937585688
 C,0,-2.3539090123,1.3670688594,-0.170379516
 N,0,-2.9924455279,2.5815779549,-0.3044146591
 C,0,-3.1941611982,2.7213612839,-1.5944129292
 N,0,-2.7103471975,1.6544793483,-2.3009703495
 C,0,1.7776211611,0.4351152257,1.5112266601
 C,0,2.9938383718,-0.106350139,2.270070567
 N,0,3.7140416725,0.9999245228,2.9033186476
 H,0,0.3964378847,0.4668607038,-0.6424236131
 H,0,-1.4669629345,-1.5143167032,0.1016694924
 H,0,0.4534849893,-2.9329457314,0.4537673369
 H,0,-2.3461832327,-1.2255267788,-2.1978461824
 H,0,-0.8989569178,-0.3961630402,-2.6910003503
 H,0,-2.0688900936,0.9932715772,0.8031539296
 H,0,-3.6752331688,3.5620654383,-2.0752115336
 H,0,-2.7592639686,1.5254973648,-3.300674385
 H,0,2.0901660779,1.1057151369,0.7009841053
 H,0,1.1783307101,1.0385306691,2.2045325748
 H,0,2.6324174341,-0.7814225505,3.0501166799
 H,0,3.6048708387,-0.7182148095,1.5843761031
 H,0,4.4211347228,0.6328965204,3.5348387604
 H,0,4.2164316916,1.5394429606,2.2013969808
 Recover connectivity data from disk.

 GradGradGradGradGradGradGradGradGradGradGradGradGradGradGradGradGradGrad
 Berny optimization.
 Initialization pass.
 Force constant matrix read from checkpoint file:
 "conf-273.chk"
                           ----------------------------
                           !    Initial Parameters    !
                           ! (Angstroms and Degrees)  !
 --------------------------                            --------------------------
 ! Name  Definition              Value          Derivative Info.                !
 --------------------------------------------------------------------------------
 ! R1    R(1,2)                  1.241          D2E/DX2 =    0.7321             !
 ! R2    R(2,3)                  1.3563         D2E/DX2 =    0.4724             !
 ! R3    R(2,14)                 1.5165         D2E/DX2 =    0.2804             !
 ! R4    R(3,4)                  1.4717         D2E/DX2 =    0.3316             !
 ! R5    R(3,17)                 1.0108         D2E/DX2 =    0.4673             !
 ! R6    R(4,5)                  1.5542         D2E/DX2 =    0.2569             !
 ! R7    R(4,8)                  1.5303         D2E/DX2 =    0.2861             !
 ! R8    R(4,18)                 1.099          D2E/DX2 =    0.3261             !
 ! R9    R(5,6)                  1.3315         D2E/DX2 =    0.4742             !
 ! R10   R(5,7)                  1.2107         D2E/DX2 =    0.8652             !
 ! R11   R(6,19)                 0.9951         D2E/DX2 =    0.3775             !
 ! R12   R(8,9)                  1.4995         D2E/DX2 =    0.3124             !
 ! R13   R(8,20)                 1.0955         D2E/DX2 =    0.3354             !
 ! R14   R(8,21)                 1.0978         D2E/DX2 =    0.3301             !
 ! R15   R(9,10)                 1.3778         D2E/DX2 =    0.4039             !
 ! R16   R(9,13)                 1.3846         D2E/DX2 =    0.3596             !
 ! R17   R(10,11)                1.3787         D2E/DX2 =    0.3332             !
 ! R18   R(10,22)                1.0811         D2E/DX2 =    0.3728             !
 ! R19   R(11,12)                1.3131         D2E/DX2 =    0.4686             !
 ! R20   R(12,13)                1.368          D2E/DX2 =    0.3594             !
 ! R21   R(12,23)                1.0814         D2E/DX2 =    0.3738             !
 ! R22   R(13,24)                1.0092         D2E/DX2 =    0.4754             !
 ! R23   R(14,15)                1.5324         D2E/DX2 =    0.2777             !
 ! R24   R(14,25)                1.0972         D2E/DX2 =    0.3313             !
 ! R25   R(14,26)                1.0972         D2E/DX2 =    0.3339             !
 ! R26   R(15,16)                1.4641         D2E/DX2 =    0.333              !
 ! R27   R(15,27)                1.0931         D2E/DX2 =    0.3422             !
 ! R28   R(15,28)                1.1036         D2E/DX2 =    0.3127             !
 ! R29   R(16,29)                1.0166         D2E/DX2 =    0.4486             !
 ! R30   R(16,30)                1.0179         D2E/DX2 =    0.4432             !
 ! A1    A(1,2,3)              121.5116         D2E/DX2 =    0.2542             !
 ! A2    A(1,2,14)             121.6815         D2E/DX2 =    0.1842             !
 ! A3    A(3,2,14)             116.8037         D2E/DX2 =    0.1781             !
 ! A4    A(2,3,4)              122.9498         D2E/DX2 =    0.2596             !
 ! A5    A(2,3,17)             117.9828         D2E/DX2 =    0.1331             !
 ! A6    A(4,3,17)             116.3674         D2E/DX2 =    0.1165             !
 ! A7    A(3,4,5)              111.7725         D2E/DX2 =    0.1228             !
 ! A8    A(3,4,8)              110.475          D2E/DX2 =    0.1102             !
 ! A9    A(3,4,18)             107.6108         D2E/DX2 =    0.0316             !
 ! A10   A(5,4,8)              109.6892         D2E/DX2 =    0.1233             !
 ! A11   A(5,4,18)             107.0765         D2E/DX2 =    0.0273             !
 ! A12   A(8,4,18)             110.1357         D2E/DX2 =    0.0312             !
 ! A13   A(4,5,6)              115.3956         D2E/DX2 =    0.2544             !
 ! A14   A(4,5,7)              121.9696         D2E/DX2 =    0.2098             !
 ! A15   A(6,5,7)              122.6166         D2E/DX2 =    0.2072             !
 ! A16   A(5,6,19)             110.3074         D2E/DX2 =    0.2673             !
 ! A17   A(4,8,9)              114.2615         D2E/DX2 =    0.1599             !
 ! A18   A(4,8,20)             106.8787         D2E/DX2 =    0.0613             !
 ! A19   A(4,8,21)             108.2786         D2E/DX2 =    0.0643             !
 ! A20   A(9,8,20)             111.1085         D2E/DX2 =    0.0529             !
 ! A21   A(9,8,21)             110.8638         D2E/DX2 =    0.0507             !
 ! A22   A(20,8,21)            104.9482         D2E/DX2 =    0.0205             !
 ! A23   A(8,9,10)             134.2395         D2E/DX2 =    0.1022             !
 ! A24   A(8,9,13)             121.5803         D2E/DX2 =    0.1079             !
 ! A25   A(10,9,13)            104.1643         D2E/DX2 =    0.1025             !
 ! A26   A(9,10,11)            111.3505         D2E/DX2 =    0.114              !
 ! A27   A(9,10,22)            127.7017         D2E/DX2 =    0.0825             !
 ! A28   A(11,10,22)           120.9474         D2E/DX2 =    0.0906             !
 ! A29   A(10,11,12)           105.0956         D2E/DX2 =    0.1306             !
 ! A30   A(11,12,13)           111.7175         D2E/DX2 =    0.1184             !
 ! A31   A(11,12,23)           126.0066         D2E/DX2 =    0.0894             !
 ! A32   A(13,12,23)           122.2754         D2E/DX2 =    0.0902             !
 ! A33   A(9,13,12)            107.6713         D2E/DX2 =    0.1026             !
 ! A34   A(9,13,24)            125.862          D2E/DX2 =    0.0781             !
 ! A35   A(12,13,24)           126.4526         D2E/DX2 =    0.0788             !
 ! A36   A(2,14,15)            112.316          D2E/DX2 =    0.1382             !
 ! A37   A(2,14,25)            110.3846         D2E/DX2 =    0.055              !
 ! A38   A(2,14,26)            108.1097         D2E/DX2 =    0.0432             !
 ! A39   A(15,14,25)           110.828          D2E/DX2 =    0.0574             !
 ! A40   A(15,14,26)           108.3553         D2E/DX2 =    0.0516             !
 ! A41   A(25,14,26)           106.6228         D2E/DX2 =    0.0207             !
 ! A42   A(14,15,16)           109.7315         D2E/DX2 =    0.1518             !
 ! A43   A(14,15,27)           108.0103         D2E/DX2 =    0.0559             !
 ! A44   A(14,15,28)           109.1268         D2E/DX2 =    0.0632             !
 ! A45   A(16,15,27)           108.702          D2E/DX2 =    0.0492             !
 ! A46   A(16,15,28)           114.5388         D2E/DX2 =    0.0574             !
 ! A47   A(27,15,28)           106.5024         D2E/DX2 =    0.0219             !
 ! A48   A(15,16,29)           109.7568         D2E/DX2 =    0.1427             !
 ! A49   A(15,16,30)           110.1828         D2E/DX2 =    0.1476             !
 ! A50   A(29,16,30)           106.0472         D2E/DX2 =    0.0568             !
 ! D1    D(1,2,3,4)             13.0022         D2E/DX2 =    0.0158             !
 ! D2    D(1,2,3,17)           173.6867         D2E/DX2 =    0.0192             !
 ! D3    D(14,2,3,4)          -166.3545         D2E/DX2 =    0.0111             !
 ! D4    D(14,2,3,17)           -5.6701         D2E/DX2 =    0.0104             !
 ! D5    D(1,2,14,15)           35.8055         D2E/DX2 =    0.0138             !
 ! D6    D(1,2,14,25)          160.0378         D2E/DX2 =    0.0156             !
 ! D7    D(1,2,14,26)          -83.6916         D2E/DX2 =    0.0156             !
 ! D8    D(3,2,14,15)         -144.8389         D2E/DX2 =    0.0135             !
 ! D9    D(3,2,14,25)          -20.6066         D2E/DX2 =    0.0157             !
 ! D10   D(3,2,14,26)           95.664          D2E/DX2 =    0.0141             !
 ! D11   D(2,3,4,5)            -76.617          D2E/DX2 =    0.0521             !
 ! D12   D(2,3,4,8)            160.9442         D2E/DX2 =    0.0198             !
 ! D13   D(2,3,4,18)            40.6758         D2E/DX2 =    0.0115             !
 ! D14   D(17,3,4,5)           122.4102         D2E/DX2 =    0.0371             !
 ! D15   D(17,3,4,8)            -0.0287         D2E/DX2 =    0.015              !
 ! D16   D(17,3,4,18)         -120.297          D2E/DX2 =    0.0096             !
 ! D17   D(3,4,5,6)             59.399          D2E/DX2 =    0.0407             !
 ! D18   D(3,4,5,7)           -122.1145         D2E/DX2 =    0.0329             !
 ! D19   D(8,4,5,6)           -177.714          D2E/DX2 =    0.0223             !
 ! D20   D(8,4,5,7)              0.7725         D2E/DX2 =    0.0194             !
 ! D21   D(18,4,5,6)           -58.2149         D2E/DX2 =    0.0185             !
 ! D22   D(18,4,5,7)           120.2715         D2E/DX2 =    0.0165             !
 ! D23   D(3,4,8,9)            -58.5422         D2E/DX2 =    0.0213             !
 ! D24   D(3,4,8,20)           178.1209         D2E/DX2 =    0.0205             !
 ! D25   D(3,4,8,21)            65.5329         D2E/DX2 =    0.0198             !
 ! D26   D(5,4,8,9)            177.8067         D2E/DX2 =    0.0179             !
 ! D27   D(5,4,8,20)            54.4699         D2E/DX2 =    0.0176             !
 ! D28   D(5,4,8,21)           -58.1181         D2E/DX2 =    0.0174             !
 ! D29   D(18,4,8,9)            60.2007         D2E/DX2 =    0.0132             !
 ! D30   D(18,4,8,20)          -63.1362         D2E/DX2 =    0.0137             !
 ! D31   D(18,4,8,21)         -175.7242         D2E/DX2 =    0.014              !
 ! D32   D(4,5,6,19)            -3.2464         D2E/DX2 =    0.0242             !
 ! D33   D(7,5,6,19)           178.2779         D2E/DX2 =    0.0357             !
 ! D34   D(4,8,9,10)           -11.8866         D2E/DX2 =    0.0107             !
 ! D35   D(4,8,9,13)           169.8169         D2E/DX2 =    0.0112             !
 ! D36   D(20,8,9,10)          109.1357         D2E/DX2 =    0.0131             !
 ! D37   D(20,8,9,13)          -69.1608         D2E/DX2 =    0.0133             !
 ! D38   D(21,8,9,10)         -134.5665         D2E/DX2 =    0.014              !
 ! D39   D(21,8,9,13)           47.137          D2E/DX2 =    0.0135             !
 ! D40   D(8,9,10,11)         -178.383          D2E/DX2 =    0.0096             !
 ! D41   D(8,9,10,22)            1.3723         D2E/DX2 =    0.007              !
 ! D42   D(13,9,10,11)           0.1204         D2E/DX2 =    0.0139             !
 ! D43   D(13,9,10,22)         179.8756         D2E/DX2 =    0.0098             !
 ! D44   D(8,9,13,12)          178.4885         D2E/DX2 =    0.0081             !
 ! D45   D(8,9,13,24)           -0.211          D2E/DX2 =    0.0025             !
 ! D46   D(10,9,13,12)          -0.2529         D2E/DX2 =    0.0122             !
 ! D47   D(10,9,13,24)        -178.9524         D2E/DX2 =    0.0044             !
 ! D48   D(9,10,11,12)           0.064          D2E/DX2 =    0.0174             !
 ! D49   D(22,10,11,12)       -179.7101         D2E/DX2 =    0.0099             !
 ! D50   D(10,11,12,13)         -0.2323         D2E/DX2 =    0.0183             !
 ! D51   D(10,11,12,23)        179.9982         D2E/DX2 =    0.0102             !
 ! D52   D(11,12,13,9)           0.3163         D2E/DX2 =    0.0171             !
 ! D53   D(11,12,13,24)        179.0059         D2E/DX2 =    0.0077             !
 ! D54   D(23,12,13,9)        -179.9043         D2E/DX2 =    0.0101             !
 ! D55   D(23,12,13,24)         -1.2147         D2E/DX2 =    0.0059             !
 ! D56   D(2,14,15,16)        -173.2463         D2E/DX2 =    0.0149             !
 ! D57   D(2,14,15,27)         -54.8993         D2E/DX2 =    0.0143             !
 ! D58   D(2,14,15,28)          60.4983         D2E/DX2 =    0.0142             !
 ! D59   D(25,14,15,16)         62.7676         D2E/DX2 =    0.0154             !
 ! D60   D(25,14,15,27)       -178.8854         D2E/DX2 =    0.0147             !
 ! D61   D(25,14,15,28)        -63.4878         D2E/DX2 =    0.0159             !
 ! D62   D(26,14,15,16)        -53.8926         D2E/DX2 =    0.0155             !
 ! D63   D(26,14,15,27)         64.4544         D2E/DX2 =    0.0162             !
 ! D64   D(26,14,15,28)        179.852          D2E/DX2 =    0.0147             !
 ! D65   D(14,15,16,29)        170.2551         D2E/DX2 =    0.0154             !
 ! D66   D(14,15,16,30)        -73.3241         D2E/DX2 =    0.0155             !
 ! D67   D(27,15,16,29)         52.3373         D2E/DX2 =    0.0174             !
 ! D68   D(27,15,16,30)        168.7582         D2E/DX2 =    0.0184             !
 ! D69   D(28,15,16,29)        -66.6238         D2E/DX2 =    0.0183             !
 ! D70   D(28,15,16,30)         49.7971         D2E/DX2 =    0.0184             !
 --------------------------------------------------------------------------------
 Trust Radius=3.00D-01 FncErr=1.00D-07 GrdErr=1.00D-06
 Number of steps in this run=    160 maximum allowed number of steps=    180.
 GradGradGradGradGradGradGradGradGradGradGradGradGradGradGradGradGradGrad

                          Input orientation:                          
 ---------------------------------------------------------------------
 Center     Atomic      Atomic             Coordinates (Angstroms)
 Number     Number       Type             X           Y           Z
 ---------------------------------------------------------------------
      1          8           0        0.722502   -1.732124    1.593313
      2          6           0        0.896727   -0.673840    0.968924
      3          7           0        0.296429   -0.448888   -0.226363
      4          6           0       -0.800212   -1.284473   -0.741177
      5          6           0       -0.280630   -2.640493   -1.295017
      6          8           0        0.368634   -3.404130   -0.418612
      7          8           0       -0.480977   -2.985042   -2.438234
      8          6           0       -1.570764   -0.541975   -1.835155
      9          6           0       -2.164167    0.762400   -1.393759
     10          6           0       -2.353909    1.367069   -0.170380
     11          7           0       -2.992446    2.581578   -0.304415
     12          6           0       -3.194161    2.721361   -1.594413
     13          7           0       -2.710347    1.654479   -2.300970
     14          6           0        1.777621    0.435115    1.511227
     15          6           0        2.993838   -0.106350    2.270071
     16          7           0        3.714042    0.999925    2.903319
     17          1           0        0.396438    0.466861   -0.642424
     18          1           0       -1.466963   -1.514317    0.101669
     19          1           0        0.453485   -2.932946    0.453767
     20          1           0       -2.346183   -1.225527   -2.197846
     21          1           0       -0.898957   -0.396163   -2.691000
     22          1           0       -2.068890    0.993272    0.803154
     23          1           0       -3.675233    3.562065   -2.075212
     24          1           0       -2.759264    1.525497   -3.300674
     25          1           0        2.090166    1.105715    0.700984
     26          1           0        1.178331    1.038531    2.204533
     27          1           0        2.632417   -0.781423    3.050117
     28          1           0        3.604871   -0.718215    1.584376
     29          1           0        4.421135    0.632897    3.534839
     30          1           0        4.216432    1.539443    2.201397
 ---------------------------------------------------------------------
                    Distance matrix (angstroms):
                    1          2          3          4          5
     1  O    0.000000
     2  C    1.241040   0.000000
     3  N    2.267037   1.356346   0.000000
     4  C    2.822923   2.485341   1.471685   0.000000
     5  C    3.189649   3.221696   2.505624   1.554186   0.000000
     6  O    2.639824   3.107832   2.962369   2.441965   1.331454
     7  O    4.389936   4.341480   3.453811   2.423603   1.210702
     8  C    4.293008   3.737481   2.466432   1.530308   2.521899
     9  C    4.845421   4.124819   2.980698   2.544784   3.890648
    10  C    4.709555   4.003743   3.213273   3.125773   4.650145
    11  N    6.000852   5.229226   4.472863   4.465759   5.967015
    12  C    6.733155   5.901987   4.909812   4.744019   6.109647
    13  N    6.198304   5.396690   4.215311   3.836537   5.036095
    14  C    2.411833   1.516525   2.448390   3.830865   4.644434
    15  C    2.874040   2.532371   3.691278   4.985018   5.463870
    16  N    4.257876   3.805343   4.855311   6.235327   6.843688
    17  H    3.152835   2.036647   1.010793   2.123416   3.246529
    18  H    2.658232   2.654347   2.086215   1.098988   2.150905
    19  H    1.677173   2.359111   2.580269   2.391048   1.919036
    20  H    4.903709   4.566099   3.387227   2.124944   2.661530
    21  H    4.771715   4.086151   2.739737   2.144914   2.714427
    22  H    3.980452   3.406116   2.955412   3.030284   4.561189
    23  H    7.799140   6.936316   5.939704   5.790884   7.113632
    24  H    6.832708   6.035961   4.763071   4.276078   5.246119
    25  H    3.274154   2.159376   2.548383   4.018347   4.861972
    26  H    2.873655   2.130315   2.983190   4.241248   5.283051
    27  H    2.583387   2.712113   4.037666   5.139057   5.551773
    28  H    3.055510   2.777552   3.781151   5.013342   5.204150
    29  H    4.800284   4.551146   5.685956   7.015916   7.493276
    30  H    4.824983   4.175889   5.021345   6.465289   7.065433
                    6          7          8          9         10
     6  O    0.000000
     7  O    2.230772   0.000000
     8  C    3.736280   2.742248   0.000000
     9  C    4.972520   4.238795   1.499450   0.000000
    10  C    5.498927   5.252801   2.651272   1.377782   0.000000
    11  N    6.865755   6.468997   3.757782   2.276428   1.378668
    12  C    7.183151   6.374672   3.652771   2.222314   2.137289
    13  N    6.213930   5.149184   2.517944   1.384613   2.179236
    14  C    4.522093   5.691835   4.833701   4.907520   4.556959
    15  C    4.999607   6.521453   6.154530   6.386188   6.060129
    16  N    6.451564   7.874664   7.263591   7.285234   6.811934
    17  H    3.877555   3.988788   2.512019   2.684874   2.932168
    18  H    2.685424   3.096178   2.169681   2.811732   3.027056
    19  H    0.995118   3.039672   3.879883   4.890913   5.173118
    20  H    3.909247   2.575399   1.095474   2.152101   3.291236
    21  H    3.977235   2.634558   1.097751   2.150782   3.402852
    22  H    5.174106   5.371690   3.092861   2.211064   1.081077
    23  H    8.223446   7.293811   4.618394   3.253587   3.192537
    24  H    6.510856   5.126340   2.799057   2.138407   3.160405
    25  H    4.955388   5.761924   4.748610   4.754489   4.536230
    26  H    5.222426   6.363782   5.135621   4.918968   4.269059
    27  H    4.902590   6.683649   6.449027   6.718530   6.312770
    28  H    4.658254   6.165554   6.205760   6.659077   6.552452
    29  H    6.953425   8.532162   8.131421   8.226424   7.756859
    30  H    6.790354   8.003924   7.356473   7.364848   6.987447
                   11         12         13         14         15
    11  N    0.000000
    12  C    1.313135   0.000000
    13  N    2.219308   1.368041   0.000000
    14  C    5.536912   6.292101   6.013448   0.000000
    15  C    7.049009   7.824418   7.518821   1.532388   0.000000
    16  N    7.600536   8.421176   8.293723   2.450848   1.464083
    17  H    4.008841   4.345280   3.716629   2.558688   3.944323
    18  H    4.389573   4.878614   4.166527   4.039117   5.155878
    19  H    6.546698   7.033602   6.216340   3.770330   4.212125
    20  H    4.300789   4.081804   2.904769   5.789708   7.051997
    21  H    4.352635   4.023608   2.763764   5.051119   6.312691
    22  H    2.145316   3.162413   3.237939   3.950766   5.384444
    23  H    2.136183   1.081379   2.149618   7.236987   8.764432
    24  H    3.185475   2.128510   1.009177   6.702735   8.172779
    25  H    5.387201   5.983584   5.688392   1.097215   2.178935
    26  H    5.105995   6.031798   5.983374   1.097239   2.147351
    27  H    7.362183   8.233479   7.944362   2.139819   1.093078
    28  H    7.614509   8.256041   7.785087   2.162027   1.103592
    29  H    8.573121   9.416137   9.271372   3.335009   2.045311
    30  H    7.702795   8.409637   8.262252   2.764719   2.051362
                   16         17         18         19         20
    16  N    0.000000
    17  H    4.884971   0.000000
    18  H    6.404175   2.819752   0.000000
    19  H    5.665598   3.572614   2.413421   0.000000
    20  H    8.228052   3.578475   2.478750   4.217164   0.000000
    21  H    7.384120   2.572844   3.061356   4.260743   1.739399
    22  H    6.152482   2.905967   2.672526   4.679704   3.742454
    23  H    9.271015   5.311467   5.948523   8.101063   4.970156
    24  H    8.981617   4.259749   4.741989   6.655472   2.992491
    25  H    2.738328   2.254239   4.458353   4.364702   5.789568
    26  H    2.630518   3.007212   4.235167   4.400364   6.076931
    27  H    2.089176   4.493625   5.102489   4.014702   7.247400
    28  H    2.168762   4.081309   5.343753   4.014292   7.069485
    29  H    1.016616   5.803040   7.146109   6.160396   9.061678
    30  H    1.017924   4.881608   6.784930   6.100511   8.370562
                   21         22         23         24         25
    21  H    0.000000
    22  H    3.938069   0.000000
    23  H    4.873857   4.178998   0.000000
    24  H    2.743214   4.195389   2.547228   0.000000
    25  H    4.764037   4.161830   6.854250   6.301306   0.000000
    26  H    5.508150   3.536998   6.945612   6.785948   1.759720
    27  H    6.751256   5.504605   9.215277   8.644342   3.061658
    28  H    6.218282   5.977546   9.203983   8.330677   2.530105
    29  H    8.253691   7.050702  10.276374   9.953849   3.699690
    30  H    7.338210   6.462094   9.201019   8.884442   2.638250
                   26         27         28         29         30
    26  H    0.000000
    27  H    2.478227   0.000000
    28  H    3.059223   1.760130   0.000000
    29  H    3.528460   2.331258   2.509202   0.000000
    30  H    3.079120   2.935276   2.419037   1.625361   0.000000
 Symmetry turned off by external request.
 Stoichiometry    C9H14N4O3
 Framework group  C1[X(C9H14N4O3)]
 Deg. of freedom    84
 Full point group                 C1      NOp   1
 Rotational constants (GHZ):      0.5859484      0.3247593      0.2230565
 Standard basis: 6-311G(2df,2pd) (5D, 7F)
   676 basis functions,  1006 primitive gaussians,   770 cartesian basis functions
    60 alpha electrons       60 beta electrons
       nuclear repulsion energy      1107.2889274167 Hartrees.
 NAtoms=   30 NActive=   30 NUniq=   30 SFac= 1.00D+00 NAtFMM=   60 NAOKFM=F Big=F
 Integral buffers will be    131072 words long.
 Raffenetti 2 integral format.
 Two-electron integral symmetry is turned off.
 One-electron integrals computed using PRISM.
 NBasis=   676 RedAO= T EigKep=  1.55D-04  NBF=   676
 NBsUse=   676 1.00D-06 EigRej= -1.00D+00 NBFU=   676
 Initial guess from the checkpoint file:  "conf-273.chk"
 B after Tr=     0.000000    0.000000    0.000000
         Rot=    1.000000    0.000000    0.000000    0.000000 Ang=   0.00 deg.
 Requested convergence on RMS density matrix=1.00D-08 within 128 cycles.
 Requested convergence on MAX density matrix=1.00D-06.
 Requested convergence on             energy=1.00D-06.
 No special actions if energy rises.
 SCF Done:  E(RB3LYP) =  -796.362455393     A.U. after   11 cycles
            NFock= 11  Conv=0.58D-08     -V/T= 2.0041

 **********************************************************************

            Population analysis using the SCF density.

 **********************************************************************

 Alpha  occ. eigenvalues --  -19.14743 -19.11992 -19.10205 -14.37932 -14.37019
 Alpha  occ. eigenvalues --  -14.30024 -14.29900 -10.30178 -10.30015 -10.24917
 Alpha  occ. eigenvalues --  -10.23291 -10.22000 -10.20840 -10.20692 -10.19766
 Alpha  occ. eigenvalues --  -10.19216  -1.09644  -1.06613  -1.02602  -1.01303
 Alpha  occ. eigenvalues --   -0.95755  -0.89513  -0.88341  -0.82200  -0.77792
 Alpha  occ. eigenvalues --   -0.74676  -0.68437  -0.64837  -0.62767  -0.61522
 Alpha  occ. eigenvalues --   -0.60415  -0.59770  -0.56367  -0.53663  -0.53196
 Alpha  occ. eigenvalues --   -0.51871  -0.50324  -0.47605  -0.46561  -0.46168
 Alpha  occ. eigenvalues --   -0.44960  -0.44576  -0.43824  -0.43120  -0.42954
 Alpha  occ. eigenvalues --   -0.42059  -0.41872  -0.40309  -0.39539  -0.37680
 Alpha  occ. eigenvalues --   -0.37439  -0.36362  -0.31522  -0.30983  -0.29727
 Alpha  occ. eigenvalues --   -0.29233  -0.28232  -0.26811  -0.25581  -0.24125
 Alpha virt. eigenvalues --   -0.01816  -0.00027   0.00440   0.01601   0.02190
 Alpha virt. eigenvalues --    0.03002   0.04046   0.04878   0.05714   0.07428
 Alpha virt. eigenvalues --    0.07550   0.07802   0.09665   0.10346   0.11414
 Alpha virt. eigenvalues --    0.12898   0.13445   0.14723   0.16155   0.16814
 Alpha virt. eigenvalues --    0.17670   0.18380   0.19142   0.20214   0.20708
 Alpha virt. eigenvalues --    0.21654   0.23220   0.23910   0.25328   0.27806
 Alpha virt. eigenvalues --    0.28543   0.28887   0.30929   0.31380   0.32087
 Alpha virt. eigenvalues --    0.33315   0.33661   0.34330   0.34662   0.35115
 Alpha virt. eigenvalues --    0.35846   0.36320   0.37345   0.37610   0.38255
 Alpha virt. eigenvalues --    0.38572   0.38888   0.39708   0.41060   0.41580
 Alpha virt. eigenvalues --    0.42296   0.43296   0.44040   0.44298   0.45350
 Alpha virt. eigenvalues --    0.46027   0.46334   0.46536   0.47499   0.47616
 Alpha virt. eigenvalues --    0.47958   0.48457   0.49286   0.49775   0.50187
 Alpha virt. eigenvalues --    0.51121   0.51607   0.52516   0.53439   0.53667
 Alpha virt. eigenvalues --    0.54095   0.54776   0.55629   0.56546   0.57142
 Alpha virt. eigenvalues --    0.57785   0.58305   0.58941   0.59733   0.60486
 Alpha virt. eigenvalues --    0.61411   0.62081   0.62440   0.64930   0.65433
 Alpha virt. eigenvalues --    0.66916   0.67026   0.68122   0.68386   0.69661
 Alpha virt. eigenvalues --    0.70592   0.70936   0.72561   0.73046   0.74078
 Alpha virt. eigenvalues --    0.74747   0.76166   0.76223   0.77665   0.78649
 Alpha virt. eigenvalues --    0.79856   0.80889   0.81847   0.82619   0.83229
 Alpha virt. eigenvalues --    0.84366   0.85044   0.85166   0.86539   0.88282
 Alpha virt. eigenvalues --    0.89280   0.90084   0.90408   0.92035   0.93288
 Alpha virt. eigenvalues --    0.93739   0.93951   0.95192   0.96376   0.96601
 Alpha virt. eigenvalues --    0.96829   0.97846   0.99494   0.99595   1.00808
 Alpha virt. eigenvalues --    1.01568   1.02406   1.02928   1.03843   1.04539
 Alpha virt. eigenvalues --    1.05945   1.06513   1.07196   1.08106   1.09643
 Alpha virt. eigenvalues --    1.10606   1.10790   1.11381   1.13273   1.14067
 Alpha virt. eigenvalues --    1.14577   1.14963   1.15619   1.16008   1.17182
 Alpha virt. eigenvalues --    1.17886   1.18458   1.19983   1.20481   1.21025
 Alpha virt. eigenvalues --    1.21857   1.23027   1.23596   1.24639   1.25295
 Alpha virt. eigenvalues --    1.26445   1.26810   1.27843   1.28605   1.29281
 Alpha virt. eigenvalues --    1.30569   1.30985   1.31260   1.32019   1.32381
 Alpha virt. eigenvalues --    1.32777   1.33959   1.34613   1.35643   1.36446
 Alpha virt. eigenvalues --    1.37302   1.37912   1.39621   1.39772   1.40235
 Alpha virt. eigenvalues --    1.40617   1.41235   1.41639   1.43539   1.43843
 Alpha virt. eigenvalues --    1.45075   1.45770   1.46561   1.47819   1.49178
 Alpha virt. eigenvalues --    1.50832   1.52493   1.53823   1.54789   1.56674
 Alpha virt. eigenvalues --    1.58029   1.58851   1.60138   1.62089   1.62787
 Alpha virt. eigenvalues --    1.63235   1.64423   1.64806   1.66349   1.67351
 Alpha virt. eigenvalues --    1.69986   1.70400   1.70661   1.71010   1.72779
 Alpha virt. eigenvalues --    1.73901   1.75497   1.77684   1.79087   1.80892
 Alpha virt. eigenvalues --    1.83393   1.83926   1.85468   1.86235   1.88203
 Alpha virt. eigenvalues --    1.91392   1.92629   1.95889   1.98407   2.01625
 Alpha virt. eigenvalues --    2.02378   2.05365   2.06265   2.10125   2.12676
 Alpha virt. eigenvalues --    2.14934   2.18640   2.21586   2.23984   2.24981
 Alpha virt. eigenvalues --    2.30451   2.35889   2.39202   2.40674   2.44502
 Alpha virt. eigenvalues --    2.45660   2.48922   2.49903   2.50500   2.52025
 Alpha virt. eigenvalues --    2.54564   2.57085   2.58102   2.58632   2.60375
 Alpha virt. eigenvalues --    2.60809   2.61652   2.64374   2.64836   2.65448
 Alpha virt. eigenvalues --    2.66149   2.67305   2.68639   2.69185   2.70406
 Alpha virt. eigenvalues --    2.71489   2.72249   2.73128   2.74523   2.75649
 Alpha virt. eigenvalues --    2.76268   2.78793   2.79413   2.80700   2.81559
 Alpha virt. eigenvalues --    2.83114   2.83592   2.85090   2.86102   2.87125
 Alpha virt. eigenvalues --    2.87901   2.89168   2.89485   2.90997   2.91470
 Alpha virt. eigenvalues --    2.92253   2.92655   2.94336   2.95189   2.95679
 Alpha virt. eigenvalues --    2.96491   2.97249   2.97601   2.98855   2.99534
 Alpha virt. eigenvalues --    3.01280   3.02230   3.02898   3.03104   3.04507
 Alpha virt. eigenvalues --    3.04660   3.05016   3.05423   3.05649   3.06909
 Alpha virt. eigenvalues --    3.07761   3.08850   3.08968   3.09571   3.10728
 Alpha virt. eigenvalues --    3.11021   3.11811   3.13637   3.13898   3.15045
 Alpha virt. eigenvalues --    3.15982   3.16615   3.16842   3.17985   3.18690
 Alpha virt. eigenvalues --    3.19692   3.20040   3.21070   3.21735   3.22055
 Alpha virt. eigenvalues --    3.23050   3.23689   3.23980   3.25612   3.26309
 Alpha virt. eigenvalues --    3.27035   3.27749   3.28927   3.29932   3.30205
 Alpha virt. eigenvalues --    3.30606   3.30827   3.32102   3.32721   3.33222
 Alpha virt. eigenvalues --    3.33898   3.34167   3.34774   3.35351   3.35727
 Alpha virt. eigenvalues --    3.36792   3.38041   3.38751   3.39794   3.40285
 Alpha virt. eigenvalues --    3.40382   3.41769   3.42165   3.43932   3.45057
 Alpha virt. eigenvalues --    3.45957   3.46799   3.47509   3.48295   3.48857
 Alpha virt. eigenvalues --    3.49196   3.49216   3.50165   3.51132   3.52450
 Alpha virt. eigenvalues --    3.53205   3.54093   3.55424   3.55614   3.56357
 Alpha virt. eigenvalues --    3.57264   3.57538   3.59026   3.59361   3.60413
 Alpha virt. eigenvalues --    3.61376   3.61627   3.63123   3.63521   3.64918
 Alpha virt. eigenvalues --    3.65426   3.66613   3.67149   3.67791   3.69283
 Alpha virt. eigenvalues --    3.69557   3.70841   3.72235   3.73716   3.74303
 Alpha virt. eigenvalues --    3.75563   3.75721   3.76989   3.78208   3.79557
 Alpha virt. eigenvalues --    3.80534   3.81652   3.82659   3.83284   3.84519
 Alpha virt. eigenvalues --    3.85573   3.86497   3.87857   3.88239   3.88430
 Alpha virt. eigenvalues --    3.89220   3.90319   3.90849   3.91826   3.92988
 Alpha virt. eigenvalues --    3.93835   3.94452   3.95088   3.95667   3.96461
 Alpha virt. eigenvalues --    3.97084   3.97711   3.98238   3.98910   4.00437
 Alpha virt. eigenvalues --    4.00872   4.01624   4.02950   4.04230   4.05116
 Alpha virt. eigenvalues --    4.05759   4.06617   4.07656   4.07985   4.09363
 Alpha virt. eigenvalues --    4.10662   4.11939   4.13262   4.13764   4.15108
 Alpha virt. eigenvalues --    4.16423   4.19496   4.20026   4.20572   4.21955
 Alpha virt. eigenvalues --    4.23483   4.23545   4.24584   4.25920   4.26538
 Alpha virt. eigenvalues --    4.29633   4.30723   4.31205   4.31977   4.33632
 Alpha virt. eigenvalues --    4.34941   4.36262   4.37723   4.38742   4.39537
 Alpha virt. eigenvalues --    4.42384   4.44082   4.45188   4.46107   4.46682
 Alpha virt. eigenvalues --    4.48222   4.49874   4.50449   4.51175   4.54028
 Alpha virt. eigenvalues --    4.56304   4.57137   4.58941   4.60038   4.61030
 Alpha virt. eigenvalues --    4.63263   4.64936   4.66859   4.67990   4.68865
 Alpha virt. eigenvalues --    4.71408   4.72887   4.74588   4.76891   4.78485
 Alpha virt. eigenvalues --    4.80296   4.80752   4.83527   4.83873   4.86108
 Alpha virt. eigenvalues --    4.86949   4.87688   4.89593   4.90504   4.91293
 Alpha virt. eigenvalues --    4.92569   4.93929   4.94500   4.95861   4.95965
 Alpha virt. eigenvalues --    4.97623   4.98089   5.00085   5.01101   5.01931
 Alpha virt. eigenvalues --    5.03046   5.03992   5.04385   5.05528   5.06767
 Alpha virt. eigenvalues --    5.06980   5.08188   5.08650   5.09882   5.11387
 Alpha virt. eigenvalues --    5.11775   5.12345   5.13107   5.15037   5.17366
 Alpha virt. eigenvalues --    5.18199   5.18650   5.19090   5.20408   5.21714
 Alpha virt. eigenvalues --    5.22721   5.23921   5.24057   5.25022   5.25952
 Alpha virt. eigenvalues --    5.26393   5.28767   5.30744   5.31112   5.32112
 Alpha virt. eigenvalues --    5.33002   5.35600   5.36176   5.36768   5.37863
 Alpha virt. eigenvalues --    5.41042   5.41710   5.43965   5.46922   5.49281
 Alpha virt. eigenvalues --    5.50650   5.51976   5.54213   5.55986   5.56268
 Alpha virt. eigenvalues --    5.57038   5.58943   5.63558   5.63781   5.66107
 Alpha virt. eigenvalues --    5.67463   5.68016   5.70525   5.74670   5.76520
 Alpha virt. eigenvalues --    5.76625   5.78569   5.81443   5.81842   5.83705
 Alpha virt. eigenvalues --    5.84431   5.84487   5.86069   5.91633   5.97568
 Alpha virt. eigenvalues --    6.00278   6.01939   6.03856   6.09420   6.10260
 Alpha virt. eigenvalues --    6.12623   6.17656   6.19401   6.20349   6.23994
 Alpha virt. eigenvalues --    6.28275   6.33884   6.35009   6.35825   6.38049
 Alpha virt. eigenvalues --    6.39256   6.41923   6.48869   6.51495   6.53182
 Alpha virt. eigenvalues --    6.65807   6.69065   6.81247   6.85598   6.94158
 Alpha virt. eigenvalues --    6.97479   6.98104   7.00466   7.05487   7.09866
 Alpha virt. eigenvalues --    7.14484   7.14806   7.21533   7.23333   7.25352
 Alpha virt. eigenvalues --    7.28224   7.29630   7.37325   7.42576   7.50029
 Alpha virt. eigenvalues --    7.56121   7.56941   7.65061   7.79073   8.11901
 Alpha virt. eigenvalues --   24.42643  24.61087  24.69453  24.75773  24.90531
 Alpha virt. eigenvalues --   24.94957  25.02113  25.05266  25.07664  35.96460
 Alpha virt. eigenvalues --   36.18862  36.21489  36.42196  50.18022  50.20029
 Alpha virt. eigenvalues --   50.27110
          Condensed to atoms (all electrons):
               1          2          3          4          5          6
     1  O    7.978654   0.543565  -0.101582   0.009644  -0.006774  -0.025981
     2  C    0.543565   4.590554   0.369630  -0.083200   0.009007   0.010339
     3  N   -0.101582   0.369630   6.602100   0.206415  -0.002868   0.002971
     4  C    0.009644  -0.083200   0.206415   5.590770   0.125472  -0.126839
     5  C   -0.006774   0.009007  -0.002868   0.125472   4.193776   0.460949
     6  O   -0.025981   0.010339   0.002971  -0.126839   0.460949   7.748534
     7  O   -0.000008  -0.000184   0.001038  -0.142694   0.757606  -0.070247
     8  C    0.000770   0.002024  -0.037846   0.271087  -0.044518   0.004665
     9  C    0.000000   0.000596  -0.006392  -0.059991   0.006121  -0.000017
    10  C   -0.000210   0.000719   0.008298  -0.003818  -0.000656  -0.000010
    11  N    0.000000   0.000011   0.000057  -0.000813  -0.000005   0.000000
    12  C    0.000000  -0.000001   0.000029  -0.000094   0.000005   0.000000
    13  N    0.000000  -0.000003  -0.000001  -0.000838   0.000043   0.000000
    14  C   -0.058710   0.191209  -0.038427   0.002891  -0.000165  -0.000046
    15  C   -0.001139  -0.044793   0.000571  -0.000138  -0.000033  -0.000029
    16  N    0.000316   0.000281   0.000015  -0.000001   0.000000   0.000000
    17  H    0.005100  -0.016637   0.343386  -0.031275   0.000167  -0.000455
    18  H    0.015724  -0.008011  -0.057715   0.348568  -0.016316   0.004428
    19  H    0.088516  -0.015120  -0.004128   0.012273  -0.036500   0.301501
    20  H    0.000005   0.000207   0.005272  -0.030042   0.006210   0.000230
    21  H   -0.000006  -0.000836  -0.001919  -0.040225   0.001685   0.000414
    22  H   -0.000038   0.001041   0.002152   0.000232   0.000041  -0.000010
    23  H    0.000000   0.000000   0.000000   0.000008   0.000000   0.000000
    24  H    0.000000   0.000001  -0.000003   0.000074  -0.000029   0.000000
    25  H    0.002850  -0.043276  -0.000383   0.000175   0.000073   0.000050
    26  H    0.000430   0.006627  -0.003010  -0.000203   0.000037  -0.000005
    27  H    0.019795  -0.010751   0.001274  -0.000043   0.000000   0.000041
    28  H    0.000873   0.026160  -0.000392  -0.000015   0.000028   0.000047
    29  H    0.000007  -0.000831   0.000009   0.000000   0.000000   0.000000
    30  H   -0.000006  -0.000770   0.000015   0.000000   0.000000   0.000000
               7          8          9         10         11         12
     1  O   -0.000008   0.000770   0.000000  -0.000210   0.000000   0.000000
     2  C   -0.000184   0.002024   0.000596   0.000719   0.000011  -0.000001
     3  N    0.001038  -0.037846  -0.006392   0.008298   0.000057   0.000029
     4  C   -0.142694   0.271087  -0.059991  -0.003818  -0.000813  -0.000094
     5  C    0.757606  -0.044518   0.006121  -0.000656  -0.000005   0.000005
     6  O   -0.070247   0.004665  -0.000017  -0.000010   0.000000   0.000000
     7  O    7.786179  -0.001493   0.003384  -0.000040   0.000000   0.000000
     8  C   -0.001493   4.949428   0.172520  -0.036758   0.013537  -0.002589
     9  C    0.003384   0.172520   5.252284   0.494543  -0.051760  -0.127248
    10  C   -0.000040  -0.036758   0.494543   4.733934   0.470234  -0.153194
    11  N    0.000000   0.013537  -0.051760   0.470234   6.503031   0.585891
    12  C    0.000000  -0.002589  -0.127248  -0.153194   0.585891   4.587099
    13  N    0.000006  -0.042567   0.384962  -0.037776  -0.135762   0.472525
    14  C    0.000000  -0.000021  -0.000017   0.000372   0.000000  -0.000002
    15  C    0.000000  -0.000004  -0.000001   0.000025   0.000000   0.000000
    16  N    0.000000   0.000000   0.000000   0.000000   0.000000   0.000000
    17  H   -0.000359  -0.004235   0.004280   0.005515  -0.000015  -0.000294
    18  H    0.002940  -0.028348   0.006175  -0.004798  -0.000155  -0.000092
    19  H    0.002882  -0.000584  -0.000160   0.000059   0.000000   0.000000
    20  H    0.014425   0.375497  -0.029864  -0.000566  -0.000296   0.000557
    21  H    0.015830   0.381550  -0.052552   0.000610  -0.000407   0.000273
    22  H   -0.000001  -0.003001  -0.053097   0.431950  -0.019342   0.006521
    23  H    0.000000  -0.000178   0.005812   0.003323  -0.016513   0.423158
    24  H   -0.000024   0.008890  -0.032486   0.002374   0.007446  -0.025783
    25  H    0.000001  -0.000029   0.000005  -0.000095  -0.000002   0.000001
    26  H    0.000000   0.000001   0.000131   0.000422  -0.000004  -0.000005
    27  H    0.000000  -0.000001   0.000000   0.000000   0.000000   0.000000
    28  H    0.000000  -0.000001   0.000000   0.000000   0.000000   0.000000
    29  H    0.000000   0.000000   0.000000   0.000000   0.000000   0.000000
    30  H    0.000000   0.000000   0.000000   0.000000   0.000000   0.000000
              13         14         15         16         17         18
     1  O    0.000000  -0.058710  -0.001139   0.000316   0.005100   0.015724
     2  C   -0.000003   0.191209  -0.044793   0.000281  -0.016637  -0.008011
     3  N   -0.000001  -0.038427   0.000571   0.000015   0.343386  -0.057715
     4  C   -0.000838   0.002891  -0.000138  -0.000001  -0.031275   0.348568
     5  C    0.000043  -0.000165  -0.000033   0.000000   0.000167  -0.016316
     6  O    0.000000  -0.000046  -0.000029   0.000000  -0.000455   0.004428
     7  O    0.000006   0.000000   0.000000   0.000000  -0.000359   0.002940
     8  C   -0.042567  -0.000021  -0.000004   0.000000  -0.004235  -0.028348
     9  C    0.384962  -0.000017  -0.000001   0.000000   0.004280   0.006175
    10  C   -0.037776   0.000372   0.000025   0.000000   0.005515  -0.004798
    11  N   -0.135762   0.000000   0.000000   0.000000  -0.000015  -0.000155
    12  C    0.472525  -0.000002   0.000000   0.000000  -0.000294  -0.000092
    13  N    6.245064  -0.000003   0.000000   0.000000  -0.000107   0.000226
    14  C   -0.000003   5.087921   0.284698  -0.037585  -0.001394   0.000354
    15  C    0.000000   0.284698   4.595596   0.313849  -0.000175  -0.000279
    16  N    0.000000  -0.037585   0.313849   6.393472  -0.000051   0.000000
    17  H   -0.000107  -0.001394  -0.000175  -0.000051   0.577047   0.003677
    18  H    0.000226   0.000354  -0.000279   0.000000   0.003677   0.694910
    19  H   -0.000001   0.000956   0.000337   0.000002   0.000145   0.000324
    20  H    0.000466   0.000029   0.000000   0.000000   0.000334  -0.008978
    21  H    0.000853  -0.000090  -0.000007   0.000000  -0.000355   0.010830
    22  H    0.004529   0.000522   0.000014  -0.000002  -0.000577  -0.000557
    23  H   -0.037408   0.000000   0.000000   0.000000  -0.000004  -0.000001
    24  H    0.384276   0.000000   0.000000   0.000000   0.000013   0.000013
    25  H    0.000000   0.396555  -0.035383   0.000005   0.000893   0.000019
    26  H   -0.000001   0.318332  -0.025483   0.018996   0.000655   0.000238
    27  H    0.000000  -0.020976   0.380377  -0.023759  -0.000148  -0.000031
    28  H    0.000000  -0.096180   0.416907  -0.054910   0.000021   0.000004
    29  H    0.000000   0.006045  -0.032666   0.356346   0.000002   0.000000
    30  H    0.000000   0.000808  -0.049765   0.360412   0.000013   0.000000
              19         20         21         22         23         24
     1  O    0.088516   0.000005  -0.000006  -0.000038   0.000000   0.000000
     2  C   -0.015120   0.000207  -0.000836   0.001041   0.000000   0.000001
     3  N   -0.004128   0.005272  -0.001919   0.002152   0.000000  -0.000003
     4  C    0.012273  -0.030042  -0.040225   0.000232   0.000008   0.000074
     5  C   -0.036500   0.006210   0.001685   0.000041   0.000000  -0.000029
     6  O    0.301501   0.000230   0.000414  -0.000010   0.000000   0.000000
     7  O    0.002882   0.014425   0.015830  -0.000001   0.000000  -0.000024
     8  C   -0.000584   0.375497   0.381550  -0.003001  -0.000178   0.008890
     9  C   -0.000160  -0.029864  -0.052552  -0.053097   0.005812  -0.032486
    10  C    0.000059  -0.000566   0.000610   0.431950   0.003323   0.002374
    11  N    0.000000  -0.000296  -0.000407  -0.019342  -0.016513   0.007446
    12  C    0.000000   0.000557   0.000273   0.006521   0.423158  -0.025783
    13  N   -0.000001   0.000466   0.000853   0.004529  -0.037408   0.384276
    14  C    0.000956   0.000029  -0.000090   0.000522   0.000000   0.000000
    15  C    0.000337   0.000000  -0.000007   0.000014   0.000000   0.000000
    16  N    0.000002   0.000000   0.000000  -0.000002   0.000000   0.000000
    17  H    0.000145   0.000334  -0.000355  -0.000577  -0.000004   0.000013
    18  H    0.000324  -0.008978   0.010830  -0.000557  -0.000001   0.000013
    19  H    0.438261  -0.000192  -0.000220  -0.000018   0.000000   0.000000
    20  H   -0.000192   0.683564  -0.045479  -0.000035   0.000005   0.000338
    21  H   -0.000220  -0.045479   0.701191   0.000012  -0.000012   0.001005
    22  H   -0.000018  -0.000035   0.000012   0.606806  -0.000400  -0.000481
    23  H    0.000000   0.000005  -0.000012  -0.000400   0.601149  -0.001142
    24  H    0.000000   0.000338   0.001005  -0.000481  -0.001142   0.546658
    25  H   -0.000410   0.000000   0.000011  -0.000003   0.000000   0.000000
    26  H    0.000006   0.000000   0.000008  -0.000221   0.000000   0.000000
    27  H   -0.000193   0.000000   0.000000   0.000001   0.000000   0.000000
    28  H    0.000087   0.000000   0.000001  -0.000003   0.000000   0.000000
    29  H   -0.000002   0.000000   0.000000   0.000000   0.000000   0.000000
    30  H    0.000000   0.000000   0.000000   0.000001   0.000000   0.000000
              25         26         27         28         29         30
     1  O    0.002850   0.000430   0.019795   0.000873   0.000007  -0.000006
     2  C   -0.043276   0.006627  -0.010751   0.026160  -0.000831  -0.000770
     3  N   -0.000383  -0.003010   0.001274  -0.000392   0.000009   0.000015
     4  C    0.000175  -0.000203  -0.000043  -0.000015   0.000000   0.000000
     5  C    0.000073   0.000037   0.000000   0.000028   0.000000   0.000000
     6  O    0.000050  -0.000005   0.000041   0.000047   0.000000   0.000000
     7  O    0.000001   0.000000   0.000000   0.000000   0.000000   0.000000
     8  C   -0.000029   0.000001  -0.000001  -0.000001   0.000000   0.000000
     9  C    0.000005   0.000131   0.000000   0.000000   0.000000   0.000000
    10  C   -0.000095   0.000422   0.000000   0.000000   0.000000   0.000000
    11  N   -0.000002  -0.000004   0.000000   0.000000   0.000000   0.000000
    12  C    0.000001  -0.000005   0.000000   0.000000   0.000000   0.000000
    13  N    0.000000  -0.000001   0.000000   0.000000   0.000000   0.000000
    14  C    0.396555   0.318332  -0.020976  -0.096180   0.006045   0.000808
    15  C   -0.035383  -0.025483   0.380377   0.416907  -0.032666  -0.049765
    16  N    0.000005   0.018996  -0.023759  -0.054910   0.356346   0.360412
    17  H    0.000893   0.000655  -0.000148   0.000021   0.000002   0.000013
    18  H    0.000019   0.000238  -0.000031   0.000004   0.000000   0.000000
    19  H   -0.000410   0.000006  -0.000193   0.000087  -0.000002   0.000000
    20  H    0.000000   0.000000   0.000000   0.000000   0.000000   0.000000
    21  H    0.000011   0.000008   0.000000   0.000001   0.000000   0.000000
    22  H   -0.000003  -0.000221   0.000001  -0.000003   0.000000   0.000001
    23  H    0.000000   0.000000   0.000000   0.000000   0.000000   0.000000
    24  H    0.000000   0.000000   0.000000   0.000000   0.000000   0.000000
    25  H    0.718539  -0.043536   0.009139  -0.008611  -0.000247   0.003242
    26  H   -0.043536   0.693304  -0.009223   0.013370  -0.000617  -0.002738
    27  H    0.009139  -0.009223   0.686828  -0.055937  -0.008141   0.008489
    28  H   -0.008611   0.013370  -0.055937   0.783368  -0.003432  -0.011019
    29  H   -0.000247  -0.000617  -0.008141  -0.003432   0.641828  -0.047618
    30  H    0.003242  -0.002738   0.008489  -0.011019  -0.047618   0.643859
 Mulliken charges:
               1
     1  O   -0.471795
     2  C    0.472443
     3  N   -0.288567
     4  C   -0.047382
     5  C    0.546644
     6  O   -0.310530
     7  O   -0.369242
     8  C    0.022204
     9  C    0.082770
    10  C    0.085543
    11  N   -0.355135
    12  C    0.233245
    13  N   -0.238482
    14  C   -0.037079
    15  C    0.197519
    16  N   -0.327384
    17  H    0.114834
    18  H    0.036854
    19  H    0.212176
    20  H    0.028312
    21  H    0.027836
    22  H    0.023966
    23  H    0.022202
    24  H    0.108856
    25  H    0.000416
    26  H    0.032489
    27  H    0.023259
    28  H   -0.010366
    29  H    0.089319
    30  H    0.095077
 Sum of Mulliken charges =   0.00000
 Mulliken charges with hydrogens summed into heavy atoms:
               1
     1  O   -0.471795
     2  C    0.472443
     3  N   -0.173733
     4  C   -0.010528
     5  C    0.546644
     6  O   -0.098354
     7  O   -0.369242
     8  C    0.078352
     9  C    0.082770
    10  C    0.109509
    11  N   -0.355135
    12  C    0.255446
    13  N   -0.129626
    14  C   -0.004175
    15  C    0.210413
    16  N   -0.142988
 Electronic spatial extent (au):  <R**2>=           4819.0813
 Charge=              0.0000 electrons
 Dipole moment (field-independent basis, Debye):
    X=              1.4288    Y=              3.7500    Z=             -1.9666  Tot=              4.4689
 Quadrupole moment (field-independent basis, Debye-Ang):
   XX=            -83.1310   YY=           -116.3144   ZZ=            -91.4553
   XY=              4.9234   XZ=             13.2359   YZ=            -17.6888
 Traceless Quadrupole moment (field-independent basis, Debye-Ang):
   XX=             13.8359   YY=            -19.3475   ZZ=              5.5116
   XY=              4.9234   XZ=             13.2359   YZ=            -17.6888
 Octapole moment (field-independent basis, Debye-Ang**2):
  XXX=            143.6845  YYY=             98.2555  ZZZ=             19.0220  XYY=             26.6399
  XXY=             12.1633  XXZ=              5.7046  XZZ=              0.1295  YZZ=             58.4131
  YYZ=             21.0557  XYZ=             22.4937
 Hexadecapole moment (field-independent basis, Debye-Ang**3):
 XXXX=          -2389.6323 YYYY=          -2202.3747 ZZZZ=          -1566.1716 XXXY=            404.9759
 XXXZ=           -539.8328 YYYX=            364.9069 YYYZ=           -244.3330 ZZZX=           -666.3445
 ZZZY=           -233.1611 XXYY=           -758.2058 XXZZ=           -525.3478 YYZZ=           -672.1147
 XXYZ=           -112.6353 YYXZ=           -219.6414 ZZXY=              5.2799
 N-N= 1.107288927417D+03 E-N=-4.075498827123D+03  KE= 7.931398224861D+02
 Calling FoFJK, ICntrl=      2127 FMM=F ISym2X=0 I1Cent= 0 IOpClX= 0 NMat=1 NMatS=1 NMatT=0.
 -------------------------------------------------------------------
 Center     Atomic                   Forces (Hartrees/Bohr)
 Number     Number              X              Y              Z
 -------------------------------------------------------------------
      1        8           0.001388709    0.009886021   -0.006162073
      2        6          -0.002206423   -0.006057738    0.002322010
      3        7           0.000513546   -0.000159330    0.002814030
      4        6          -0.000052357    0.000224711   -0.000246396
      5        6          -0.001697205   -0.004626417   -0.009274826
      6        8          -0.002191030    0.004071137   -0.000860676
      7        8           0.002802528    0.003725922    0.013762706
      8        6           0.000176987   -0.000442910    0.000167413
      9        6          -0.001808029    0.003038760    0.001340244
     10        6           0.000404316   -0.001193723   -0.002115232
     11        7           0.000762277   -0.002965319   -0.007114759
     12        6           0.000799314   -0.001141705    0.002219316
     13        7          -0.000045690    0.000418584    0.002843351
     14        6           0.000253269    0.000024848   -0.000017246
     15        6          -0.001735073   -0.002038463   -0.000402553
     16        7           0.003765415   -0.001167659   -0.001565109
     17        1           0.000016618   -0.003005330    0.001399922
     18        1           0.001795599    0.000247212   -0.002162611
     19        1          -0.000030451   -0.001025876   -0.002602041
     20        1           0.001746253    0.002093770    0.000830061
     21        1          -0.001653671   -0.000076323    0.002033589
     22        1          -0.000857639    0.000999134   -0.002685661
     23        1           0.001234707   -0.002150957    0.001252458
     24        1           0.000103764    0.000514908    0.003099600
     25        1          -0.000774114   -0.001858187    0.001998301
     26        1           0.001126683   -0.001550999   -0.001716261
     27        1           0.001128887    0.001780106   -0.001935642
     28        1          -0.001398942    0.002127079    0.001960880
     29        1          -0.002197642    0.001634869   -0.001836051
     30        1          -0.001370606   -0.001326127    0.002653258
 -------------------------------------------------------------------
 Cartesian Forces:  Max     0.013762706 RMS     0.002945178

 GradGradGradGradGradGradGradGradGradGradGradGradGradGradGradGradGradGrad
 Berny optimization.
 FormGI is forming the generalized inverse of G from B-inverse, IUseBI=4.
 GSVD:  received Info=                   1 from GESDD.
 Internal  Forces:  Max     0.014519581 RMS     0.002166316
 Search for a local minimum.
 Step number   1 out of a maximum of  160
 All quantities printed in internal units (Hartrees-Bohrs-Radians)
 Mixed Optimization -- RFO/linear search
 Second derivative matrix not updated -- first step.
 ITU=  0
     Eigenvalues ---    0.00082   0.00087   0.00237   0.00262   0.00274
     Eigenvalues ---    0.00401   0.00450   0.00533   0.00923   0.00985
     Eigenvalues ---    0.01983   0.02004   0.02535   0.03133   0.03259
     Eigenvalues ---    0.03727   0.03859   0.03969   0.04344   0.04374
     Eigenvalues ---    0.04593   0.04878   0.05108   0.05140   0.05351
     Eigenvalues ---    0.06093   0.06466   0.07579   0.07749   0.08261
     Eigenvalues ---    0.08369   0.10229   0.10721   0.11100   0.11842
     Eigenvalues ---    0.11992   0.12418   0.13545   0.15027   0.15330
     Eigenvalues ---    0.16758   0.17013   0.18716   0.19190   0.19508
     Eigenvalues ---    0.20745   0.21856   0.22385   0.23144   0.23715
     Eigenvalues ---    0.24214   0.24268   0.27018   0.29271   0.29484
     Eigenvalues ---    0.30900   0.31084   0.31956   0.32883   0.33040
     Eigenvalues ---    0.33372   0.33605   0.33852   0.34223   0.34302
     Eigenvalues ---    0.34630   0.36076   0.37146   0.37252   0.37586
     Eigenvalues ---    0.38241   0.40533   0.44411   0.44898   0.45017
     Eigenvalues ---    0.45695   0.46935   0.47144   0.47844   0.53422
     Eigenvalues ---    0.57978   0.75385   0.82477   0.88854
 RFO step:  Lambda=-1.31729627D-03 EMin= 8.18724333D-04
 Linear search not attempted -- first point.
 Iteration  1 RMS(Cart)=  0.03178811 RMS(Int)=  0.00038852
 Iteration  2 RMS(Cart)=  0.00063046 RMS(Int)=  0.00003379
 Iteration  3 RMS(Cart)=  0.00000021 RMS(Int)=  0.00003379
 Variable       Old X    -DE/DX   Delta X   Delta X   Delta X     New X
                                 (Linear)    (Quad)   (Total)
    R1        2.34522  -0.01173   0.00000  -0.01508  -0.01508   2.33015
    R2        2.56312  -0.00528   0.00000  -0.00827  -0.00827   2.55486
    R3        2.86582  -0.00274   0.00000  -0.00694  -0.00694   2.85888
    R4        2.78108  -0.00225   0.00000  -0.00737  -0.00737   2.77372
    R5        1.91012  -0.00330   0.00000  -0.00767  -0.00767   1.90245
    R6        2.93699  -0.00261   0.00000  -0.00756  -0.00756   2.92943
    R7        2.89186  -0.00221   0.00000  -0.00940  -0.00940   2.88246
    R8        2.07679  -0.00280   0.00000  -0.00802  -0.00802   2.06877
    R9        2.51608  -0.00511   0.00000  -0.00587  -0.00587   2.51022
   R10        2.28789  -0.01452   0.00000  -0.01642  -0.01642   2.27147
   R11        1.88050  -0.00277   0.00000  -0.00920  -0.00920   1.87130
   R12        2.83355  -0.00273   0.00000  -0.00755  -0.00755   2.82600
   R13        2.07015  -0.00282   0.00000  -0.00800  -0.00800   2.06215
   R14        2.07445  -0.00261   0.00000  -0.00658  -0.00658   2.06787
   R15        2.60363  -0.00622   0.00000  -0.01148  -0.01148   2.59215
   R16        2.61654  -0.00401   0.00000  -0.00864  -0.00864   2.60790
   R17        2.60531  -0.00313   0.00000  -0.00570  -0.00570   2.59961
   R18        2.04294  -0.00299   0.00000  -0.00794  -0.00794   2.03500
   R19        2.48147  -0.00655   0.00000  -0.01109  -0.01110   2.47037
   R20        2.58522  -0.00474   0.00000  -0.00783  -0.00783   2.57740
   R21        2.04351  -0.00278   0.00000  -0.00714  -0.00714   2.03637
   R22        1.90707  -0.00314   0.00000  -0.00652  -0.00652   1.90055
   R23        2.89579  -0.00235   0.00000  -0.00862  -0.00862   2.88718
   R24        2.07344  -0.00283   0.00000  -0.00810  -0.00810   2.06533
   R25        2.07348  -0.00255   0.00000  -0.00727  -0.00727   2.06621
   R26        2.76672  -0.00088   0.00000  -0.00331  -0.00331   2.76341
   R27        2.06562  -0.00285   0.00000  -0.00822  -0.00822   2.05740
   R28        2.08549  -0.00317   0.00000  -0.00948  -0.00948   2.07600
   R29        1.92113  -0.00326   0.00000  -0.00819  -0.00819   1.91294
   R30        1.92360  -0.00321   0.00000  -0.00815  -0.00815   1.91545
    A1        2.12078  -0.00069   0.00000  -0.00134  -0.00134   2.11944
    A2        2.12374   0.00021   0.00000   0.00159   0.00159   2.12533
    A3        2.03861   0.00049   0.00000  -0.00026  -0.00026   2.03835
    A4        2.14588   0.00019   0.00000   0.00533   0.00512   2.15100
    A5        2.05919  -0.00035   0.00000   0.00097   0.00075   2.05994
    A6        2.03099   0.00020   0.00000   0.00445   0.00425   2.03524
    A7        1.95080  -0.00052   0.00000   0.00051   0.00049   1.95129
    A8        1.92815   0.00036   0.00000   0.00186   0.00185   1.93000
    A9        1.87816   0.00008   0.00000  -0.00104  -0.00104   1.87712
   A10        1.91444   0.00043   0.00000   0.00536   0.00535   1.91979
   A11        1.86884  -0.00027   0.00000  -0.00603  -0.00603   1.86281
   A12        1.92223  -0.00011   0.00000  -0.00109  -0.00108   1.92115
   A13        2.01403  -0.00060   0.00000  -0.00434  -0.00434   2.00970
   A14        2.12877   0.00093   0.00000   0.00562   0.00562   2.13439
   A15        2.14006  -0.00032   0.00000  -0.00119  -0.00119   2.13887
   A16        1.92523  -0.00036   0.00000   0.00401   0.00401   1.92924
   A17        1.99424   0.00077   0.00000   0.00191   0.00190   1.99614
   A18        1.86539   0.00014   0.00000   0.00239   0.00240   1.86778
   A19        1.88982  -0.00015   0.00000   0.00264   0.00264   1.89246
   A20        1.93921  -0.00070   0.00000  -0.00502  -0.00502   1.93418
   A21        1.93494  -0.00021   0.00000  -0.00084  -0.00085   1.93409
   A22        1.83169   0.00012   0.00000  -0.00109  -0.00110   1.83059
   A23        2.34292   0.00005   0.00000  -0.00242  -0.00243   2.34049
   A24        2.12198   0.00002   0.00000   0.00049   0.00048   2.12246
   A25        1.81801  -0.00007   0.00000   0.00186   0.00186   1.81987
   A26        1.94343  -0.00076   0.00000  -0.00355  -0.00355   1.93988
   A27        2.22881   0.00038   0.00000   0.00229   0.00229   2.23110
   A28        2.11093   0.00038   0.00000   0.00126   0.00126   2.11219
   A29        1.83426   0.00109   0.00000   0.00385   0.00385   1.83811
   A30        1.94984  -0.00075   0.00000  -0.00291  -0.00291   1.94693
   A31        2.19923   0.00036   0.00000   0.00164   0.00164   2.20087
   A32        2.13411   0.00040   0.00000   0.00127   0.00127   2.13538
   A33        1.87922   0.00049   0.00000   0.00076   0.00076   1.87998
   A34        2.19671  -0.00013   0.00000   0.00040   0.00040   2.19711
   A35        2.20701  -0.00036   0.00000  -0.00117  -0.00117   2.20584
   A36        1.96028   0.00070   0.00000   0.00408   0.00408   1.96436
   A37        1.92657  -0.00024   0.00000  -0.00025  -0.00025   1.92633
   A38        1.88687  -0.00044   0.00000  -0.00381  -0.00381   1.88306
   A39        1.93431  -0.00025   0.00000  -0.00179  -0.00179   1.93253
   A40        1.89116   0.00005   0.00000   0.00175   0.00175   1.89291
   A41        1.86092   0.00015   0.00000  -0.00023  -0.00023   1.86069
   A42        1.91518   0.00017   0.00000   0.00119   0.00119   1.91636
   A43        1.88513   0.00013   0.00000   0.00377   0.00376   1.88890
   A44        1.90462   0.00011   0.00000   0.00080   0.00080   1.90542
   A45        1.89721  -0.00008   0.00000  -0.00130  -0.00130   1.89591
   A46        1.99908  -0.00040   0.00000  -0.00546  -0.00546   1.99362
   A47        1.85882   0.00010   0.00000   0.00152   0.00151   1.86033
   A48        1.91562   0.00069   0.00000   0.00873   0.00867   1.92429
   A49        1.92305   0.00094   0.00000   0.01011   0.01005   1.93310
   A50        1.85087  -0.00051   0.00000   0.00416   0.00403   1.85490
    D1        0.22693  -0.00016   0.00000  -0.01257  -0.01256   0.21437
    D2        3.03140   0.00004   0.00000   0.02548   0.02547   3.05688
    D3       -2.90343  -0.00019   0.00000  -0.01145  -0.01144  -2.91487
    D4       -0.09896   0.00001   0.00000   0.02660   0.02659  -0.07237
    D5        0.62492   0.00005   0.00000  -0.00196  -0.00196   0.62296
    D6        2.79319   0.00006   0.00000  -0.00151  -0.00151   2.79168
    D7       -1.46069  -0.00015   0.00000  -0.00411  -0.00411  -1.46480
    D8       -2.52792   0.00008   0.00000  -0.00311  -0.00311  -2.53103
    D9       -0.35965   0.00008   0.00000  -0.00265  -0.00265  -0.36231
   D10        1.66965  -0.00013   0.00000  -0.00526  -0.00525   1.66440
   D11       -1.33722   0.00031   0.00000  -0.00365  -0.00362  -1.34084
   D12        2.80901  -0.00013   0.00000  -0.01220  -0.01217   2.79683
   D13        0.70993  -0.00026   0.00000  -0.01132  -0.01130   0.69863
   D14        2.13646   0.00021   0.00000  -0.04050  -0.04053   2.09593
   D15       -0.00050  -0.00023   0.00000  -0.04906  -0.04908  -0.04958
   D16       -2.09958  -0.00035   0.00000  -0.04818  -0.04820  -2.14778
   D17        1.03671  -0.00051   0.00000  -0.00860  -0.00860   1.02811
   D18       -2.13130  -0.00030   0.00000  -0.00485  -0.00485  -2.13615
   D19       -3.10169  -0.00010   0.00000  -0.00208  -0.00208  -3.10377
   D20        0.01348   0.00011   0.00000   0.00166   0.00167   0.01516
   D21       -1.01604  -0.00015   0.00000  -0.00393  -0.00394  -1.01998
   D22        2.09913   0.00006   0.00000  -0.00019  -0.00019   2.09894
   D23       -1.02175  -0.00043   0.00000  -0.03416  -0.03415  -1.05591
   D24        3.10880  -0.00014   0.00000  -0.03076  -0.03075   3.07805
   D25        1.14377  -0.00028   0.00000  -0.03189  -0.03188   1.11188
   D26        3.10331  -0.00031   0.00000  -0.03975  -0.03976   3.06356
   D27        0.95068  -0.00002   0.00000  -0.03635  -0.03635   0.91433
   D28       -1.01435  -0.00016   0.00000  -0.03748  -0.03748  -1.05184
   D29        1.05070  -0.00018   0.00000  -0.03497  -0.03497   1.01573
   D30       -1.10193   0.00011   0.00000  -0.03157  -0.03157  -1.13350
   D31       -3.06697  -0.00002   0.00000  -0.03270  -0.03270  -3.09966
   D32       -0.05666  -0.00019   0.00000   0.00775   0.00774  -0.04892
   D33        3.11154  -0.00042   0.00000   0.00386   0.00387   3.11540
   D34       -0.20746  -0.00008   0.00000   0.01194   0.01194  -0.19552
   D35        2.96386  -0.00001   0.00000   0.01607   0.01607   2.97993
   D36        1.90478   0.00013   0.00000   0.01265   0.01265   1.91742
   D37       -1.20708   0.00020   0.00000   0.01678   0.01678  -1.19031
   D38       -2.34863  -0.00028   0.00000   0.00768   0.00769  -2.34094
   D39        0.82270  -0.00021   0.00000   0.01181   0.01182   0.83451
   D40       -3.11337   0.00007   0.00000   0.00384   0.00384  -3.10953
   D41        0.02395  -0.00001   0.00000   0.00349   0.00349   0.02744
   D42        0.00210   0.00001   0.00000   0.00021   0.00021   0.00231
   D43        3.13942  -0.00007   0.00000  -0.00014  -0.00014   3.13928
   D44        3.11521  -0.00005   0.00000  -0.00309  -0.00309   3.11212
   D45       -0.00368  -0.00004   0.00000  -0.00269  -0.00269  -0.00638
   D46       -0.00441   0.00000   0.00000   0.00003   0.00003  -0.00438
   D47       -3.12331   0.00001   0.00000   0.00042   0.00043  -3.12288
   D48        0.00112  -0.00001   0.00000  -0.00037  -0.00037   0.00075
   D49       -3.13653   0.00006   0.00000  -0.00005  -0.00005  -3.13659
   D50       -0.00405   0.00001   0.00000   0.00039   0.00040  -0.00366
   D51        3.14156   0.00000   0.00000   0.00022   0.00022  -3.14140
   D52        0.00552  -0.00001   0.00000  -0.00028  -0.00029   0.00523
   D53        3.12424  -0.00001   0.00000  -0.00066  -0.00066   3.12358
   D54       -3.13992   0.00000   0.00000  -0.00012  -0.00012  -3.14004
   D55       -0.02120   0.00000   0.00000  -0.00049  -0.00049  -0.02169
   D56       -3.02372  -0.00009   0.00000   0.00059   0.00059  -3.02313
   D57       -0.95817  -0.00001   0.00000   0.00190   0.00189  -0.95628
   D58        1.05589   0.00023   0.00000   0.00613   0.00613   1.06203
   D59        1.09550  -0.00010   0.00000  -0.00074  -0.00074   1.09476
   D60       -3.12214  -0.00003   0.00000   0.00056   0.00056  -3.12157
   D61       -1.10807   0.00021   0.00000   0.00480   0.00481  -1.10327
   D62       -0.94060  -0.00017   0.00000  -0.00049  -0.00049  -0.94110
   D63        1.12494  -0.00010   0.00000   0.00081   0.00081   1.12575
   D64        3.13901   0.00014   0.00000   0.00505   0.00505  -3.13912
   D65        2.97151  -0.00012   0.00000  -0.01735  -0.01738   2.95413
   D66       -1.27975   0.00021   0.00000  -0.00125  -0.00122  -1.28097
   D67        0.91346  -0.00033   0.00000  -0.02181  -0.02185   0.89161
   D68        2.94539   0.00001   0.00000  -0.00572  -0.00568   2.93971
   D69       -1.16280  -0.00014   0.00000  -0.01933  -0.01937  -1.18217
   D70        0.86912   0.00019   0.00000  -0.00324  -0.00321   0.86592
         Item               Value     Threshold  Converged?
 Maximum Force            0.014520     0.000450     NO 
 RMS     Force            0.002166     0.000300     NO 
 Maximum Displacement     0.107186     0.001800     NO 
 RMS     Displacement     0.031752     0.001200     NO 
 Predicted change in Energy=-6.748090D-04
 GradGradGradGradGradGradGradGradGradGradGradGradGradGradGradGradGradGrad

                          Input orientation:                          
 ---------------------------------------------------------------------
 Center     Atomic      Atomic             Coordinates (Angstroms)
 Number     Number       Type             X           Y           Z
 ---------------------------------------------------------------------
      1          8           0        0.691970   -1.698581    1.607862
      2          6           0        0.895889   -0.662791    0.970685
      3          7           0        0.310335   -0.445777   -0.228423
      4          6           0       -0.790835   -1.266446   -0.746424
      5          6           0       -0.288300   -2.630382   -1.285142
      6          8           0        0.348105   -3.387640   -0.398540
      7          8           0       -0.483168   -2.984952   -2.417016
      8          6           0       -1.547058   -0.520015   -1.840776
      9          6           0       -2.167034    0.765916   -1.395358
     10          6           0       -2.378568    1.350542   -0.172639
     11          7           0       -3.040396    2.549397   -0.303597
     12          6           0       -3.233508    2.698726   -1.587867
     13          7           0       -2.721996    1.651624   -2.296495
     14          6           0        1.797492    0.431972    1.497315
     15          6           0        2.992001   -0.116713    2.276002
     16          7           0        3.730416    0.985202    2.891586
     17          1           0        0.453158    0.447702   -0.669800
     18          1           0       -1.461152   -1.485913    0.090818
     19          1           0        0.430501   -2.914121    0.467244
     20          1           0       -2.305419   -1.202754   -2.227514
     21          1           0       -0.865148   -0.352740   -2.680087
     22          1           0       -2.095879    0.975678    0.796499
     23          1           0       -3.726243    3.530820   -2.063317
     24          1           0       -2.759473    1.531478   -3.294317
     25          1           0        2.131483    1.075889    0.679811
     26          1           0        1.205912    1.060480    2.168520
     27          1           0        2.615256   -0.766186    3.064404
     28          1           0        3.596567   -0.748674    1.611179
     29          1           0        4.412392    0.626504    3.548065
     30          1           0        4.252665    1.502058    2.193358
 ---------------------------------------------------------------------
                    Distance matrix (angstroms):
                    1          2          3          4          5
     1  O    0.000000
     2  C    1.233061   0.000000
     3  N    2.255462   1.351972   0.000000
     4  C    2.815691   2.481511   1.467787   0.000000
     5  C    3.193533   3.219079   2.499503   1.550187   0.000000
     6  O    2.645149   3.098329   2.947020   2.432626   1.328350
     7  O    4.385812   4.332522   3.444851   2.416361   1.202012
     8  C    4.277309   3.727289   2.460711   1.525332   2.519295
     9  C    4.823587   4.125634   2.994544   2.538806   3.882863
    10  C    4.679268   4.010332   3.234203   3.114282   4.631915
    11  N    5.969050   5.237965   4.494898   4.451660   5.947063
    12  C    6.705101   5.907444   4.928976   4.732575   6.096333
    13  N    6.174387   5.396302   4.227416   3.827171   5.028050
    14  C    2.402843   1.512856   2.441362   3.823404   4.633638
    15  C    2.870341   2.528980   3.683987   4.976624   5.455332
    16  N    4.252386   3.800037   4.845524   6.224688   6.831367
    17  H    3.138680   2.029876   1.006736   2.119362   3.225369
    18  H    2.642458   2.647137   2.078933   1.094744   2.139779
    19  H    1.687280   2.353408   2.567317   2.383167   1.915212
    20  H    4.892883   4.557237   3.378098   2.119351   2.644797
    21  H    4.756302   4.065158   2.720491   2.139961   2.732448
    22  H    3.947414   3.415493   2.976720   3.018422   4.539188
    23  H    7.768192   6.939426   5.956015   5.776209   7.098268
    24  H    6.810074   6.030483   4.767910   4.265639   5.240663
    25  H    3.260546   2.152744   2.541050   4.007570   4.842812
    26  H    2.861974   2.121458   2.969209   4.230660   5.270950
    27  H    2.586485   2.711195   4.032125   5.135575   5.551974
    28  H    3.055980   2.776917   3.778254   5.007562   5.198239
    29  H    4.797076   4.546533   5.677897   7.007101   7.487569
    30  H    4.823427   4.177254   5.020065   6.460946   7.056726
                    6          7          8          9         10
     6  O    0.000000
     7  O    2.219778   0.000000
     8  C    3.727594   2.745875   0.000000
     9  C    4.956975   4.236532   1.495456   0.000000
    10  C    5.471393   5.237010   2.640658   1.371705   0.000000
    11  N    6.836619   6.452516   3.743563   2.266165   1.375652
    12  C    7.161445   6.368364   3.642578   2.215892   2.133399
    13  N    6.198543   5.150215   2.510812   1.380040   2.172409
    14  C    4.503822   5.674395   4.820284   4.918997   4.590424
    15  C    4.984207   6.505998   6.141137   6.393243   6.082079
    16  N    6.433249   7.854786   7.246561   7.294236   6.844168
    17  H    3.846357   3.963910   2.511677   2.737353   3.013463
    18  H    2.670102   3.081039   2.161340   2.788857   2.992748
    19  H    0.990248   3.026344   3.869035   4.874336   5.146617
    20  H    3.893592   2.555922   1.091243   2.141798   3.278290
    21  H    3.985982   2.672761   1.094269   2.144022   3.388054
    22  H    5.141956   5.349215   3.081155   2.203021   1.076877
    23  H    8.199810   7.286832   4.605175   3.243762   3.185044
    24  H    6.499252   5.133163   2.791300   2.131458   3.150032
    25  H    4.926090   5.737348   4.736236   4.783268   4.598115
    26  H    5.206861   6.343946   5.113830   4.915766   4.291114
    27  H    4.899385   6.676011   6.437876   6.716183   6.316428
    28  H    4.642802   6.153985   6.198802   6.674754   6.579586
    29  H    6.943160   8.520053   8.115981   8.230778   7.777210
    30  H    6.772937   7.988550   7.348456   7.391436   7.042312
                   11         12         13         14         15
    11  N    0.000000
    12  C    1.307264   0.000000
    13  N    2.208850   1.363899   0.000000
    14  C    5.579599   6.321983   6.025472   0.000000
    15  C    7.081828   7.849404   7.528912   1.527829   0.000000
    16  N    7.648515   8.455643   8.306258   2.446682   1.462332
    17  H    4.093427   4.416046   3.765258   2.550268   3.929636
    18  H    4.351241   4.844629   4.139219   4.034262   5.145902
    19  H    6.518539   7.010884   6.198590   3.758463   4.202187
    20  H    4.280220   4.061040   2.885441   5.777590   7.037315
    21  H    4.336105   4.014165   2.759077   5.015586   6.284594
    22  H    2.139840   3.154092   3.227312   3.993131   5.410061
    23  H    2.128425   1.077600   2.143423   7.265852   8.790278
    24  H    3.171668   2.121120   1.005727   6.703326   8.174622
    25  H    5.466868   6.046411   5.722424   1.092928   2.170396
    26  H    5.134137   6.041750   5.976143   1.093392   2.141833
    27  H    7.370408   8.237553   7.941745   2.135437   1.088728
    28  H    7.654600   8.292670   7.807406   2.154892   1.098574
    29  H    8.606791   9.440957   9.279507   3.328832   2.046467
    30  H    7.779488   8.471863   8.296208   2.767208   2.053418
                   16         17         18         19         20
    16  N    0.000000
    17  H    4.869578   0.000000
    18  H    6.395552   2.825241   0.000000
    19  H    5.654343   3.548977   2.399963   0.000000
    20  H    8.211189   3.572146   2.483471   4.204254   0.000000
    21  H    7.345259   2.533750   3.052411   4.259702   1.732549
    22  H    6.191542   2.987705   2.638237   4.649897   3.732845
    23  H    9.307685   5.377257   5.910884   8.075860   4.944939
    24  H    8.982342   4.287617   4.716930   6.639926   2.969892
    25  H    2.730706   2.243400   4.451602   4.342661   5.773288
    26  H    2.627091   2.999699   4.232516   4.392386   6.064387
    27  H    2.083460   4.482463   5.096795   4.016469   7.239339
    28  H    2.159556   4.063890   5.332498   4.002715   7.055153
    29  H    1.012284   5.787736   7.135361   6.154912   9.046130
    30  H    1.013611   4.872945   6.782061   6.090242   8.358743
[...]
 00004598,0.00001504,-0.00001207,0.00001289,-0.00001153,-0.00001942,-0.
 00001815,-0.00005039,0.00008140,0.00003321,-0.00006047,0.00008734,-0.0
 0010207,0.00004101,0.00006260,0.00011508,-0.00008456,-0.00081334,0.000
 07776,0.00049743,0.00004260,-0.00008507,0.00044405,0.00126015,0.000686
 96,-0.00028082,-0.00055707,0.00080491,-0.01697580,0.05339607,0.0000395
 2,-0.00010281,0.00012792,-0.00011506,0.00009254,-0.00029785,0.00019146
 ,-0.00009681,0.00020635,-0.00003711,-0.00010605,-0.00027356,-0.0000557
 3,0.00028312,0.00021074,0.00008636,-0.00017622,0.00000399,0.00005897,-
 0.00015486,-0.00013076,0.00008884,-0.00003854,0.00077539,0.00334467,-0
 .00646606,-0.00886984,-0.00099781,0.00103929,-0.00133201,0.00027933,-0
 .00189451,0.00011556,-0.00217757,0.00394447,-0.00694180,-0.02741249,-0
 .05042889,-0.44864101,0.00001384,-0.00000171,0.00003939,-0.00004698,0.
 00000985,-0.00002490,0.00003055,0.00001284,0.00002822,-0.00010048,0.00
 003308,-0.00000997,0.00001746,-0.00000072,0.00001128,-0.00002626,0.000
 04207,-0.00002339,-0.00012034,0.00026108,0.00015838,-0.00003344,0.0002
 9428,0.00012429,-0.00003232,-0.00042002,-0.00006225,0.00023489,-0.0000
 2611,0.00019446,0.02676072,0.05391021,0.46462316,-0.00123094,-0.005441
 17,-0.00284424,-0.00544649,-0.00638430,0.01981674,0.00045023,0.0002105
 8,-0.00148650,0.00010357,0.00020285,0.00014850,0.00043799,-0.00041017,
 0.00056345,-0.00035481,-0.00009360,-0.00094703,-0.00014747,0.00007407,
 -0.00033042,0.00004244,0.00001122,0.00001021,0.00003086,-0.00001292,-0
 .00007213,0.00008353,0.00001301,0.00007704,0.00001266,0.00006732,-0.00
 002389,-0.00002935,0.00001724,-0.00000929,0.00000780,0.00001751,0.0000
 1160,-0.07835489,-0.04916833,0.06095483,0.00900531,0.01572428,-0.02188
 767,0.00182228,0.00055517,0.00132482,-0.00106805,-0.00062825,-0.001119
 60,0.00005797,0.00002137,0.00005311,0.00018622,0.00075173,0.00100590,0
 .00001638,-0.00000246,0.00001055,-0.00001887,-0.00001180,-0.00002942,-
 0.00001077,-0.00004312,0.00002158,-0.00000753,-0.00000066,-0.00000014,
 -0.00001310,-0.00001406,-0.00000550,0.08350334,-0.00408829,-0.00476960
 ,-0.00304264,-0.00537694,-0.01423961,0.02226464,0.00199053,0.00096809,
 -0.00053656,0.00007985,-0.00003506,-0.00044351,0.00033020,-0.00047315,
 0.00048813,-0.00020683,-0.00005695,-0.00086884,-0.00010570,0.00010281,
 -0.00025978,0.00001488,0.00005185,0.00000787,-0.00000126,0.00002898,0.
 00000241,-0.00000430,0.00001839,0.00001310,0.00000416,-0.00001978,-0.0
 0001342,-0.00000099,-0.00000524,0.00001895,0.00000253,0.00000154,-0.00
 002414,-0.04934535,-0.12575746,0.10601206,-0.00422785,-0.00755877,0.00
 970209,0.00017335,0.00077266,-0.00107745,-0.00130788,0.00064641,-0.000
 50534,0.00020533,0.00011377,0.00011260,-0.00001807,0.00062732,0.000938
 45,0.00002729,-0.00002405,0.00001590,-0.00001088,-0.00001241,-0.000027
 99,-0.00001530,-0.00000323,0.00000322,0.00000034,-0.00000062,0.0000010
 9,-0.00000946,0.00000095,-0.00000228,0.05379947,0.13788212,-0.00119336
 ,-0.00358971,0.00032134,-0.00481439,-0.00628411,0.00800876,-0.00058601
 ,-0.00072233,-0.00034990,0.00023923,0.00008382,0.00073046,-0.00000183,
 0.00002789,-0.00008022,0.00004553,-0.00005411,-0.00007941,0.00000641,-
 0.00000463,0.00004963,0.00005284,0.00009132,0.00001015,-0.00001419,0.0
 0000950,0.00003088,-0.00006868,0.00000585,-0.00004424,-0.00001452,-0.0
 0004432,0.00001573,0.00001195,-0.00000847,0.00000730,-0.00001147,-0.00
 000477,-0.00000390,0.06395093,0.10940138,-0.19236529,0.00580703,0.0103
 2843,-0.01415106,0.00058042,-0.00059320,0.00127267,-0.00012679,-0.0004
 7497,0.00025607,-0.00011204,-0.00011911,-0.00000252,-0.00005173,0.0000
 6909,0.00015503,0.00001322,-0.00002242,0.00002376,0.00001049,0.0000017
 0,0.00001641,0.00000933,0.00001633,-0.00002231,0.00000667,0.00000136,0
 .00000051,0.00000948,0.00000837,0.00000264,-0.06589102,-0.11961713,0.2
 1066176,-0.00198185,0.00022725,0.00141064,0.01375877,-0.01207792,-0.01
 360226,-0.00172269,-0.00026046,-0.00044690,-0.00073523,0.00070447,0.00
 038972,0.00003030,0.00036751,0.00024961,0.00003398,-0.00008428,0.00004
 830,-0.00000310,-0.00010041,-0.00014992,-0.00015976,-0.00021359,0.0000
 1857,0.00006497,-0.00012400,-0.00011090,0.00002731,0.00009804,-0.00009
 413,-0.00000039,0.00005457,0.00004120,-0.00002055,0.00002818,0.0000301
 2,0.00001884,-0.00003688,0.00013259,-0.11614768,0.07648395,0.08330480,
 -0.01761759,0.01795358,0.01510614,0.00260215,-0.00091863,0.00132886,-0
 .00000041,-0.00023161,-0.00035797,-0.00015267,-0.00009468,-0.00012942,
 -0.00004596,0.00010277,-0.00000949,-0.00004277,0.00007839,-0.00007933,
 0.00001417,0.00002715,0.,-0.00008343,-0.00006842,-0.00001138,-0.000002
 15,0.00000144,0.00001009,0.00000595,-0.00001962,0.00000310,-0.00611156
 ,0.00628251,0.00703267,0.12977434,-0.00334732,0.00091698,0.00173730,0.
 01363355,-0.01605574,-0.01561295,-0.00103303,-0.00006445,0.00088296,-0
 .00054345,0.00020670,-0.00014331,0.00005304,0.00016851,0.00008436,0.00
 002928,0.00004843,0.00013076,-0.00001751,-0.00001918,-0.00001405,-0.00
 011687,-0.00010870,0.00001624,0.00001072,-0.00005776,-0.00002558,-0.00
 004018,0.00007976,-0.00013747,-0.00000068,-0.00002766,0.00004649,0.000
 00473,-0.00000751,0.00001827,0.00001067,0.00000486,0.00006241,0.080997
 33,-0.13379849,-0.09299532,0.01032149,-0.00966581,-0.00712796,-0.00180
 199,0.00118920,-0.00006916,-0.00008843,-0.00005671,-0.00014906,-0.0000
 0273,-0.00001261,-0.00012727,-0.00009211,-0.00009028,-0.00008678,-0.00
 002101,0.00003928,-0.00003846,0.00000094,0.00000863,-0.00000588,-0.000
 06320,0.00000428,-0.00001128,0.00000226,0.00000099,0.00000857,0.000005
 29,-0.00000691,-0.00000030,-0.00982268,0.01162388,0.01159490,-0.089173
 54,0.14590411,0.00005261,0.00127952,0.00022560,0.00496997,-0.00710547,
 -0.00899063,-0.00191569,-0.00072571,0.00028235,-0.00062242,0.00030607,
 0.00033944,0.00001204,0.00030830,0.00000681,0.00006580,-0.00001086,0.0
 0016833,-0.00001402,-0.00004893,-0.00000897,-0.00006579,-0.00015996,-0
 .00000438,0.00005729,-0.00010174,-0.00018848,0.00007508,0.00012994,-0.
 00008528,0.00002225,0.00010263,0.00004410,-0.00002630,0.00001819,0.000
 02022,0.00002884,-0.00004394,0.00017749,0.08738549,-0.09235582,-0.1393
 5501,-0.01133541,0.01098612,0.01045454,0.00112615,0.00055634,0.0006432
 1,0.00067682,-0.00047821,-0.00052873,-0.00018177,-0.00012443,-0.000170
 17,-0.00010166,-0.00013543,-0.00017743,-0.00003794,0.00006332,-0.00003
 429,-0.00000519,0.00002507,0.00001408,-0.00015070,-0.00010542,0.000050
 51,-0.00000351,-0.00000137,0.00001333,0.00000353,-0.00002293,-0.000009
 95,0.01261286,-0.01392602,-0.01500792,-0.09013227,0.10064119,0.1521439
 4,-0.00125535,-0.00073619,0.00049189,0.00100626,0.00086003,-0.00132547
 ,0.00009413,-0.00043676,0.00070901,-0.00005413,-0.00011709,0.00001856,
 -0.00009848,0.00004709,-0.00016146,0.00006369,0.00008372,0.00022838,0.
 00002937,0.00000565,0.00009178,0.00000656,0.00001998,0.00000202,-0.000
 00998,0.00000804,0.00001238,-0.00001644,0.00000135,-0.00002253,0.00000
 068,-0.00001970,0.00001035,0.00000885,-0.00000845,0.00000324,0.0000006
 6,-0.00000715,0.00000424,0.00879354,0.01630236,-0.02105475,-0.08301954
 ,-0.05171238,0.07228120,-0.00894262,-0.01470578,0.01147518,0.00036763,
 0.00017165,0.00024816,-0.00003118,-0.00001858,-0.00002080,-0.00001431,
 -0.00027398,-0.00023144,0.00000245,-0.00000394,0.00000432,0.00000303,0
 .00000002,0.00000891,0.00000175,0.00001148,-0.00000402,0.00000209,-0.0
 0000062,0.00000086,0.00000297,0.00000444,-0.00000145,-0.00426577,0.001
 79403,-0.00362572,0.00151999,-0.00015148,0.00055390,0.09316330,-0.0008
 9111,-0.00030270,-0.00143990,-0.00046925,-0.00053172,-0.00013968,0.000
 06753,-0.00011549,0.00044525,-0.00007512,-0.00000670,-0.00002746,0.000
 01016,0.00000029,-0.00007388,0.00001852,-0.00001705,0.00005646,0.00000
 066,0.00001597,0.00005751,0.00000110,0.00000543,-0.00000601,-0.0000001
 9,0.00001373,0.00000235,0.00000597,-0.00000213,0.00001786,0.00000793,-
 0.00000102,-0.00001218,0.00000050,-0.00000370,0.00000595,0.00000235,-0
 .00000117,-0.00001841,-0.00186812,-0.00744445,0.01144672,-0.05085057,-
 0.13095205,0.10585038,-0.01202263,-0.01920003,0.01754654,-0.00000142,0
 .00009062,-0.00003402,0.00000555,0.00001900,-0.00002086,-0.00003987,-0
 .00000225,-0.00007745,0.00000591,-0.00000305,0.00000360,0.00000173,-0.
 00000386,-0.00000494,-0.00000421,0.00000266,0.00001201,-0.00000152,-0.
 00000083,-0.00000040,-0.00000387,0.00000049,-0.00000208,0.00152434,-0.
 00031265,0.00078358,-0.00051563,0.00017505,-0.00004513,0.06105882,0.14
 915642,0.00078885,-0.00168163,0.00224487,0.00116521,0.00367224,-0.0020
 6438,-0.00010344,-0.00056747,0.00076560,0.00001297,-0.00009647,-0.0000
 6135,-0.00015619,0.00014247,-0.00029952,0.00010993,0.00001140,0.000346
 43,0.00004470,-0.00001859,0.00015631,-0.00002276,-0.00000046,0.0000022
 1,-0.00001090,0.00001523,0.00001982,-0.00002178,-0.00000615,-0.0000082
 3,-0.00000304,-0.00002126,0.00000142,0.00001012,-0.00001008,0.00000580
 ,-0.00000219,-0.00000819,-0.00001100,0.00412091,0.00970339,-0.01497189
 ,0.07308560,0.11222352,-0.19713106,-0.00729627,-0.01193470,0.01343578,
 0.00019744,-0.00001526,0.00024730,-0.00004885,-0.00000740,-0.00002412,
 -0.00004165,-0.00027600,-0.00033949,-0.00000357,-0.00000110,-0.0000010
 2,0.00001205,-0.00000422,0.00001648,0.00000821,0.00001798,-0.00000025,
 0.00000298,-0.00000012,-0.00000035,0.00000555,0.00000681,-0.00000135,-
 0.00336936,0.00085134,-0.00048645,-0.00004327,-0.00034210,0.00114644,-
 0.07365789,-0.11825479,0.20983051,0.00037689,-0.00170440,0.00002812,0.
 00074311,0.00326629,0.00085874,-0.00023160,-0.00058854,-0.00068041,0.0
 0003193,0.00005918,0.00002907,-0.00025399,0.00030392,-0.00011932,0.000
 26390,-0.00019124,0.00004928,0.00008598,-0.00009950,0.00000364,-0.0000
 4119,-0.00003191,0.00000706,-0.00000545,0.00001530,0.00005433,-0.00000
 774,-0.00004764,0.00004859,-0.00001698,-0.00001956,-0.00003154,0.00000
 353,0.00000494,0.00000161,-0.00001073,0.00000894,-0.00006782,-0.017645
 53,0.01389960,0.01411735,-0.13057892,0.07505090,0.08074252,0.01182131,
 -0.01676712,-0.01555326,-0.00005712,0.00005709,0.00018555,-0.00003397,
 -0.00000771,-0.00000168,-0.00020378,0.00012442,0.00010645,-0.00001395,
 0.00000560,-0.00001501,0.00001077,0.00000670,-0.00000260,0.00004120,0.
 00003006,-0.00001182,0.00000029,0.00000181,-0.00000560,-0.00000024,0.0
 0000588,0.00000901,0.00139423,-0.00025992,-0.00032735,-0.00348544,0.00
 168850,-0.00335154,-0.00629726,0.00655078,0.00714044,0.14123290,0.0001
 9787,0.00058447,-0.00020632,-0.00029831,-0.00100262,-0.00003286,0.0000
 5585,0.00035963,0.00039014,0.00001801,0.00000841,0.00004306,0.00014343
 ,-0.00012557,0.00002800,-0.00010345,0.00006004,-0.00001691,-0.00005658
 ,0.00004433,0.00001194,0.00002538,0.00001102,-0.00000818,0.00000098,-0
 .00001473,-0.00002822,0.00000941,0.00001509,-0.00001994,0.00000491,0.0
 0002434,0.00002176,-0.00000239,-0.00000166,-0.00001354,0.00000025,-0.0
 0000016,0.00004288,0.01061479,-0.00617641,-0.00601147,0.07600060,-0.12
 196118,-0.07274493,0.00407241,-0.02288452,-0.02109296,0.00010980,-0.00
 005452,-0.00010172,0.00000494,-0.00000663,0.00001310,0.00006303,-0.000
 00744,-0.00002775,0.00000333,-0.00000038,0.00000669,-0.00000426,-0.000
 00094,0.00000813,-0.00001919,-0.00001796,0.00000072,-0.00000060,-0.000
 00087,0.00000123,0.00000434,-0.00000456,-0.00000329,-0.00055744,0.0000
 0547,-0.00045864,0.00150308,-0.00026811,0.00094099,-0.00952711,0.01123
 140,0.00961358,-0.08271254,0.13870672,-0.00018063,0.00044488,0.0003522
 3,0.00051185,0.00015705,0.00114677,0.00028249,0.00005591,-0.00026712,0
 .00003678,0.00006277,0.00002424,0.00011624,-0.00011596,0.00014041,-0.0
 0013156,0.00010150,-0.00006349,-0.00004248,0.00002306,-0.00006330,0.00
 000152,0.00000783,0.00001008,-0.00000131,-0.00000643,0.00000606,-0.000
 00320,-0.00002144,0.00001443,-0.00000736,0.00001243,0.00000172,-0.0000
 0191,0.00000424,-0.00001568,-0.00000493,0.00001379,-0.00000435,-0.0122
 7962,0.01068752,0.00955218,0.08273541,-0.07317226,-0.13330330,0.000632
 48,-0.01558293,-0.00830231,-0.00002986,-0.00001587,-0.00000558,0.00000
 066,0.00000021,0.00001968,0.00011904,-0.00006292,-0.00000722,0.0000027
 8,-0.00000152,-0.00000046,-0.00000021,-0.00000304,0.00000009,0.0000180
 3,0.00000660,-0.00001202,-0.00000166,0.00000033,-0.00000254,0.00000044
 ,-0.00000291,0.00000259,0.00082518,-0.00035774,0.00114742,-0.00386913,
 0.00150585,-0.00109933,0.01557855,-0.01384634,-0.01431451,-0.08318751,
 0.08916920,0.14409558,-0.00002575,-0.00062421,0.00036430,-0.00030947,0
 .00202585,-0.00132635,-0.00063088,-0.00072142,-0.00037970,0.00014142,0
 .00007376,-0.00010955,-0.00007780,0.00014419,0.00011760,-0.00000495,-0
 .00009385,-0.00007053,0.00001127,-0.00008402,-0.00012293,-0.00003496,-
 0.00007259,0.00000301,0.00000515,-0.00003005,0.00000448,-0.00000815,-0
 .00002007,0.00000166,-0.00002234,0.00002109,0.00000576,-0.00000573,0.0
 0001527,-0.00001736,-0.00000979,0.00001320,0.00001052,-0.00293567,-0.0
 0547100,-0.00186559,-0.01373832,0.01317722,-0.00843852,-0.20527335,0.0
 7222669,-0.19240473,0.00000059,-0.00004520,0.00010169,-0.00001507,-0.0
 0001110,0.00000662,0.00002231,0.00013746,0.00008236,-0.00002519,0.0000
 2075,-0.00002559,0.00000249,0.00000966,0.00000575,0.00002692,0.0000011
 5,-0.00002122,-0.00000001,0.00000258,-0.00000263,0.00000642,-0.0000047
 0,0.00000856,0.00023870,0.00005556,0.00005631,0.00056635,-0.00033713,0
 .00012914,0.00023632,0.00004016,0.00059328,0.00117117,0.00007393,0.000
 21265,0.20851441,0.00018658,-0.00008760,0.00011422,-0.00086068,0.00116
 055,-0.00055347,-0.00015112,-0.00030690,-0.00012357,0.00004242,-0.0000
 5463,-0.00009923,-0.00008068,0.00006785,-0.00004948,0.00005154,-0.0000
 4222,0.00003754,0.00002719,-0.00002293,0.00000612,-0.00000928,-0.00001
 558,-0.00000096,0.00000354,0.00000105,-0.00000256,0.00000420,0.0000051
 4,0.00000004,0.00000618,-0.00000096,-0.00000279,-0.00000281,0.00000328
 ,0.00000251,0.00000340,-0.00000243,-0.00000064,-0.00184073,-0.00373038
 ,-0.00150600,-0.02222183,0.00672993,-0.02542334,0.08131076,-0.09620303
 ,0.12437116,-0.00005806,-0.00001660,0.00004385,0.00000335,0.00000993,0
 .00000105,-0.00002274,0.00001736,-0.00001221,-0.00000427,0.00000313,-0
 .00000461,0.00000014,-0.00000054,-0.00000201,-0.00000803,-0.00000308,0
 .00000216,-0.00000076,-0.00000014,0.00000091,-0.00000392,-0.00000025,-
 0.00000132,0.00011902,-0.00003039,-0.00031154,-0.00012331,-0.00003933,
 0.00028398,0.00014559,0.00124229,0.00064721,-0.00010359,0.00000265,-0.
 00051923,-0.07276946,0.09960120,0.00020757,-0.00012915,0.00003369,-0.0
 0039112,0.00064508,0.00011877,0.00004750,-0.00000892,0.00009796,-0.000
 00837,-0.00000888,-0.00001917,-0.00003255,0.00000413,-0.00006332,0.000
 05085,-0.00000431,0.00002752,0.00001954,0.00000896,0.00003682,-0.00000
 337,0.00000440,-0.00000272,0.00000154,0.00001183,0.00000008,0.00000527
 ,0.00001016,-0.00000044,0.00001177,-0.00000989,-0.00000749,0.00000035,
 -0.00000260,0.00001110,0.00000597,-0.00000657,-0.00000888,0.00011445,-
 0.00269363,0.00027296,-0.01091871,0.00412587,-0.01116687,-0.15359886,0
 .09372230,-0.19670831,-0.00003261,0.00001615,-0.00001495,0.00000693,0.
 00000659,-0.00000145,-0.00003792,-0.00001869,-0.00000407,0.00000426,-0
 .00000321,0.00000345,0.00000064,-0.00000276,-0.00000372,-0.00001494,-0
 .00000139,0.00000897,-0.00000077,-0.00000094,0.00000155,-0.00000585,0.
 00000128,-0.00000263,0.00025412,-0.00012500,0.00022953,-0.00011923,0.0
 0008903,0.00011520,0.00058132,0.00042016,0.00136532,0.00046571,0.00063
 130,-0.00031516,0.18347990,-0.10795882,0.22659918,0.00001269,0.0008422
 0,-0.00045884,-0.00020438,-0.00102450,-0.00032799,-0.00001280,0.000108
 79,-0.00003243,-0.00004172,0.00000038,-0.00002908,0.00006709,-0.000093
 77,0.00003323,-0.00005002,0.00006460,-0.00002367,-0.00002186,0.0000389
 4,-0.00000095,0.00000519,-0.00000300,0.00000114,0.00000721,-0.00000466
 ,-0.00002115,0.00001770,0.00000536,0.00000598,0.00001723,0.00002214,0.
 00000830,-0.00000673,0.00000267,-0.00001335,0.00000581,0.00000592,0.00
 001740,0.00020840,-0.00079336,0.00162899,-0.01109093,-0.00452702,0.017
 26611,-0.15385043,-0.12694744,0.13623334,-0.00007507,-0.00003267,-0.00
 005692,0.00001436,0.00001272,0.00000168,0.00002139,-0.00003575,-0.0000
 0806,0.00000490,0.00000217,0.00000124,-0.00000373,-0.00000339,-0.00000
 615,-0.00001218,-0.00001216,0.00000540,-0.00000453,-0.00000196,0.00000
 059,-0.00000838,-0.00000627,-0.00000473,-0.00033391,0.00021899,-0.0009
 9343,-0.00010391,-0.00010448,0.00017242,-0.00129822,-0.00255850,-0.002
 51710,0.00170668,0.00037551,-0.00133273,0.01217392,0.01635739,-0.02009
 337,0.15285623,-0.00009479,0.00009871,-0.00022797,-0.00023965,-0.00044
 617,0.00003222,0.00009679,0.00002138,-0.00003102,-0.00003163,-0.000008
 46,-0.00000845,-0.00006325,0.00005403,-0.00005904,0.00007653,-0.000037
 25,0.00003314,0.00003180,-0.00001035,0.00003439,-0.00000562,0.00001155
 ,-0.00000431,-0.00000271,0.00001435,0.00001149,-0.00000850,0.00000819,
 -0.00000501,-0.00000372,-0.00002938,-0.00001021,0.00000529,-0.00000555
 ,0.00002063,0.00000120,-0.00001085,-0.00001775,0.00061665,0.00094813,-
 0.00021776,-0.01844508,-0.01967404,0.02111359,-0.09047511,-0.10573372,
 0.10970641,-0.00002727,0.00006588,0.00000807,0.00000551,0.00000347,0.0
 0000042,-0.00004833,0.00000802,0.00001066,0.00000232,-0.00000514,0.000
 00241,0.00000097,0.00000038,-0.00000313,-0.00000513,0.00000557,0.00000
 497,0.00000425,0.00000083,0.00000137,0.00000152,0.00000752,-0.00000026
 ,-0.00051821,0.00045475,-0.00011409,0.00013006,-0.00009143,-0.00025026
 ,-0.00279505,-0.00305250,-0.00365919,0.00145375,0.00147468,0.00145540,
 -0.00775376,-0.00828736,0.01127751,0.11809117,0.13421478,-0.00018291,0
 .00018164,-0.00026589,0.00004443,-0.00036737,0.00005475,0.00006291,0.0
 0006531,-0.00005339,-0.00004145,-0.00001512,-0.00001788,0.00000101,-0.
 00002894,-0.00001956,0.00001478,0.00000862,0.00000059,0.00000652,0.000
 01975,0.00002183,-0.00000190,0.00000940,0.00000057,0.00000257,0.000007
 57,-0.00000242,0.00000150,0.00000997,-0.00000056,0.00000681,-0.0000108
 7,-0.00000308,-0.00000040,-0.00000172,0.00000840,0.00000543,-0.0000033
 5,-0.00000524,0.00042230,-0.00043099,0.00162678,-0.01030412,-0.0137014
 6,0.01162323,0.12221827,0.14463202,-0.23730756,-0.00006940,0.00000979,
 -0.00002209,0.00001061,0.00000835,0.00000168,-0.00001851,-0.00000597,0
 .00000147,0.00000600,-0.00000341,0.00000235,-0.00000107,-0.00000329,-0
 .00000595,-0.00000746,-0.00000116,0.00000530,-0.00000002,-0.00000057,0
 .00000147,-0.00000525,0.00000116,-0.00000311,0.00032570,0.00039599,-0.
 00034682,0.00004918,0.00006864,-0.00018502,-0.00219872,-0.00264482,0.0
 0013069,-0.00049203,-0.00015599,0.00126290,0.01960108,0.01106106,-0.02
 060290,-0.12945586,-0.13910422,0.24409946\\0.00000024,0.00000009,0.000
 00035,0.00000016,-0.00000006,-0.00000025,-0.00000031,-0.00000019,0.000
 00028,0.00000019,0.00000014,0.00000011,-0.00000010,-0.00000010,0.,-0.0
 0000032,-0.00000027,-0.00000013,-0.00000039,-0.00000005,0.00000012,-0.
 00000035,0.00000018,0.00000017,-0.00000022,-0.00000011,-0.00000019,-0.
 00000003,0.00000025,0.00000037,0.00000003,0.00000020,0.00000025,-0.000
 00005,0.00000006,0.00000032,-0.00000024,0.00000014,0.00000037,0.000000
 16,-0.00000009,-0.00000023,0.00000031,0.00000014,-0.00000023,0.0000004
 1,-0.00000010,-0.00000055,0.,0.00000016,-0.00000028,-0.00000002,-0.000
 00006,0.00000022,-0.00000010,0.00000007,0.00000005,-0.00000042,0.00000
 009,0.00000028,-0.00000037,-0.00000005,0.00000017,0.00000012,0.0000000
 3,0.00000031,-0.00000009,0.00000006,0.00000041,-0.00000033,0.00000001,
 0.00000032,0.00000007,-0.00000010,-0.00000029,0.00000030,0.,-0.0000001
 5,0.00000039,-0.00000012,-0.00000030,0.00000020,-0.00000008,-0.0000004
 8,0.00000037,-0.00000004,-0.00000046,0.00000040,-0.00000022,-0.0000005
 5\\\@


 DIATOMIC MOLECULES ARE PECULIAR BECAUSE THEY ONLY HAVE TWO ENDS,
 AND THESE ENDS ARE VERY CLOSE TOGETHER.
 KLAUS RUEDENBERG, REV.MOD.PHYS. PG 176, 32, (1960)
 Job cpu time:       0 days 13 hours 44 minutes 51.7 seconds.
 File lengths (MBytes):  RWF=    973 Int=      0 D2E=      0 Chk=     36 Scr=      1
 Normal termination of Gaussian 09 at Thu Jul 29 06:20:08 2021.
