 Entering Gaussian System, Link 0=g09
 Input=opt_freq-conf-118.com
 Output=opt_freq-conf-118.log
 Initial command:
 /aerosol/software/g09/l1.exe "/scratch/nicole/10720/Gau-88252.inp" -scrdir="/scratch/nicole/10720/"
 Entering Link 1 = /aerosol/software/g09/l1.exe PID=     88262.
  
 Copyright (c) 1988,1990,1992,1993,1995,1998,2003,2009,2013,
            Gaussian, Inc.  All Rights Reserved.
  
 This is part of the Gaussian(R) 09 program.  It is based on
 the Gaussian(R) 03 system (copyright 2003, Gaussian, Inc.),
 the Gaussian(R) 98 system (copyright 1998, Gaussian, Inc.),
 the Gaussian(R) 94 system (copyright 1995, Gaussian, Inc.),
 the Gaussian 92(TM) system (copyright 1992, Gaussian, Inc.),
 the Gaussian 90(TM) system (copyright 1990, Gaussian, Inc.),
 the Gaussian 88(TM) system (copyright 1988, Gaussian, Inc.),
 the Gaussian 86(TM) system (copyright 1986, Carnegie Mellon
 University), and the Gaussian 82(TM) system (copyright 1983,
 Carnegie Mellon University). Gaussian is a federally registered
 trademark of Gaussian, Inc.
  
 This software contains proprietary and confidential information,
 including trade secrets, belonging to Gaussian, Inc.
  
 This software is provided under written license and may be
 used, copied, transmitted, or stored only in accord with that
 written license.
  
 The following legend is applicable only to US Government
 contracts under FAR:
  
                    RESTRICTED RIGHTS LEGEND
  
 Use, reproduction and disclosure by the US Government is
 subject to restrictions as set forth in subparagraphs (a)
 and (c) of the Commercial Computer Software - Restricted
 Rights clause in FAR 52.227-19.
  
 Gaussian, Inc.
 340 Quinnipiac St., Bldg. 40, Wallingford CT 06492
  
  
 ---------------------------------------------------------------
 Warning -- This program may not be used in any manner that
 competes with the business of Gaussian, Inc. or will provide
 assistance to any competitor of Gaussian, Inc.  The licensee
 of this program is prohibited from giving any competitor of
 Gaussian, Inc. access to this program.  By using this program,
 the user acknowledges that Gaussian, Inc. is engaged in the
 business of creating and licensing software in the field of
 computational chemistry and represents and warrants to the
 licensee that it is not a competitor of Gaussian, Inc. and that
 it will not use this program in any manner prohibited above.
 ---------------------------------------------------------------
  

 Cite this work as:
 Gaussian 09, Revision D.01,
 M. J. Frisch, G. W. Trucks, H. B. Schlegel, G. E. Scuseria, 
 M. A. Robb, J. R. Cheeseman, G. Scalmani, V. Barone, B. Mennucci, 
 G. A. Petersson, H. Nakatsuji, M. Caricato, X. Li, H. P. Hratchian, 
 A. F. Izmaylov, J. Bloino, G. Zheng, J. L. Sonnenberg, M. Hada, 
 M. Ehara, K. Toyota, R. Fukuda, J. Hasegawa, M. Ishida, T. Nakajima, 
 Y. Honda, O. Kitao, H. Nakai, T. Vreven, J. A. Montgomery, Jr., 
 J. E. Peralta, F. Ogliaro, M. Bearpark, J. J. Heyd, E. Brothers, 
 K. N. Kudin, V. N. Staroverov, T. Keith, R. Kobayashi, J. Normand, 
 K. Raghavachari, A. Rendell, J. C. Burant, S. S. Iyengar, J. Tomasi, 
 M. Cossi, N. Rega, J. M. Millam, M. Klene, J. E. Knox, J. B. Cross, 
 V. Bakken, C. Adamo, J. Jaramillo, R. Gomperts, R. E. Stratmann, 
 O. Yazyev, A. J. Austin, R. Cammi, C. Pomelli, J. W. Ochterski, 
 R. L. Martin, K. Morokuma, V. G. Zakrzewski, G. A. Voth, 
 P. Salvador, J. J. Dannenberg, S. Dapprich, A. D. Daniels, 
 O. Farkas, J. B. Foresman, J. V. Ortiz, J. Cioslowski, 
 and D. J. Fox, Gaussian, Inc., Wallingford CT, 2013.
 
 ******************************************
 Gaussian 09:  ES64L-G09RevD.01 24-Apr-2013
                29-Jul-2021 
 ******************************************
 %mem=2gb
 %nproc=4
 Will use up to    4 processors via shared memory.
 %chk=conf-118.chk
 ----------------------------------------------------------------------
 # B3LYP/6-311G(2df,2pd) guess=read geom=checkpoint opt=readfc freq=nor
 aman nosymm integral(ultrafinegrid)
 ----------------------------------------------------------------------
 1/10=3,14=-1,18=20,19=15,26=4,29=2,38=1/1,3;
 2/9=110,12=2,15=1,40=1/2;
 3/5=4,6=6,7=404,11=2,14=-4,16=1,25=1,30=1,71=1,74=-5,75=-5,116=-2/1,2,3;
 4/5=1/1;
 5/5=2,38=6/2;
 6/7=2,8=2,9=2,10=2,28=1/1;
 7/30=1/1,2,3,16;
 1/14=-1,18=20,19=15,26=4/3(2);
 2/9=110,15=1/2;
 99//99;
 2/9=110,15=1/2;
 3/5=4,6=6,7=404,11=2,14=-2,16=1,25=1,30=1,71=1,74=-5,75=-5/1,2,3;
 4/5=5,16=3,69=1/1;
 5/5=2,38=5/2;
 7/30=1/1,2,3,16;
 1/14=-1,18=20,19=15,26=4/3(-5);
 2/9=110,15=1/2;
 6/7=2,8=2,9=2,10=2,19=2,28=1/1;
 99/9=1/99;
 ------------------------------------------------------------
 Candidate Structure: Conf:118 OPT and FREQ calc in gas phase
 ------------------------------------------------------------
 Structure from the checkpoint file:  "conf-118.chk"
 Charge =  0 Multiplicity = 1
 Redundant internal coordinates found in file.
 O,0,-1.0281612753,-1.8431574904,1.7918429333
 C,0,-1.0486418158,-1.2204543699,0.7154731701
 N,0,0.0702851955,-0.6552698592,0.2074289116
 C,0,1.4006614034,-0.8539793544,0.7864547398
 C,0,1.5872233699,-0.0443263026,2.0953866426
 O,0,0.7490007694,-0.3599355883,3.0748590946
 O,0,2.4547582587,0.7971326865,2.2381459309
 C,0,2.481156101,-0.5395454164,-0.2690292279
 C,0,2.3167740925,0.7794708203,-0.9578057748
 C,0,1.9364597718,1.1106889416,-2.2425508561
 N,0,1.9151073094,2.4761707651,-2.4162226855
 C,0,2.2750250506,2.9703844423,-1.248485455
 N,0,2.5313476175,1.9923482847,-0.3348109431
 C,0,-2.3314764212,-1.0570004703,-0.0731496951
 C,0,-3.4794712505,-0.4952570788,0.8017118045
 N,0,-4.7779023159,-0.3990637273,0.1481832022
 H,0,0.024636369,-0.0759810573,-0.623326216
 H,0,1.4751762508,-1.9117595858,1.0711607578
 H,0,0.09049671,-1.0407366808,2.7612326302
 H,0,2.4502128326,-1.3264651476,-1.0287498142
 H,0,3.4552341718,-0.6033578104,0.2256833956
 H,0,1.7081213576,0.434560154,-3.0566399714
 H,0,2.3662642377,4.0213860614,-1.0108004902
 H,0,2.759704006,2.0722259137,0.6505941272
 H,0,-2.6143899987,-2.0544525814,-0.4329928373
 H,0,-2.1763557569,-0.4251979611,-0.955815247
 H,0,-3.5747637912,-1.1289685069,1.6878004825
 H,0,-3.2024351989,0.5031734957,1.1597726307
 H,0,-4.7244398109,0.1923152323,-0.6777070222
 H,0,-5.08951126,-1.3149416887,-0.1661560177
 Recover connectivity data from disk.

 GradGradGradGradGradGradGradGradGradGradGradGradGradGradGradGradGradGrad
 Berny optimization.
 Initialization pass.
 Force constant matrix read from checkpoint file:
 "conf-118.chk"
                           ----------------------------
                           !    Initial Parameters    !
                           ! (Angstroms and Degrees)  !
 --------------------------                            --------------------------
 ! Name  Definition              Value          Derivative Info.                !
 --------------------------------------------------------------------------------
 ! R1    R(1,2)                  1.2437         D2E/DX2 =    0.7208             !
 ! R2    R(2,3)                  1.3526         D2E/DX2 =    0.4819             !
 ! R3    R(2,14)                 1.5147         D2E/DX2 =    0.2781             !
 ! R4    R(3,4)                  1.4645         D2E/DX2 =    0.3409             !
 ! R5    R(3,17)                 1.0138         D2E/DX2 =    0.4541             !
 ! R6    R(4,5)                  1.5504         D2E/DX2 =    0.2572             !
 ! R7    R(4,8)                  1.5428         D2E/DX2 =    0.2779             !
 ! R8    R(4,18)                 1.098          D2E/DX2 =    0.3282             !
 ! R9    R(5,6)                  1.3273         D2E/DX2 =    0.4846             !
 ! R10   R(5,7)                  1.217          D2E/DX2 =    0.8319             !
 ! R11   R(6,19)                 0.9977         D2E/DX2 =    0.3671             !
 ! R12   R(8,9)                  1.4971         D2E/DX2 =    0.3222             !
 ! R13   R(8,20)                 1.0942         D2E/DX2 =    0.3387             !
 ! R14   R(8,21)                 1.0944         D2E/DX2 =    0.3386             !
 ! R15   R(9,10)                 1.3802         D2E/DX2 =    0.4018             !
 ! R16   R(9,13)                 1.3803         D2E/DX2 =    0.3711             !
 ! R17   R(10,11)                1.3766         D2E/DX2 =    0.3369             !
 ! R18   R(10,22)                1.0826         D2E/DX2 =    0.3691             !
 ! R19   R(11,12)                1.3181         D2E/DX2 =    0.4553             !
 ! R20   R(12,13)                1.3627         D2E/DX2 =    0.3682             !
 ! R21   R(12,23)                1.0814         D2E/DX2 =    0.3739             !
 ! R22   R(13,24)                1.0147         D2E/DX2 =    0.4548             !
 ! R23   R(14,15)                1.5488         D2E/DX2 =    0.2477             !
 ! R24   R(14,25)                1.0975         D2E/DX2 =    0.332              !
 ! R25   R(14,26)                1.0965         D2E/DX2 =    0.3329             !
 ! R26   R(15,16)                1.4568         D2E/DX2 =    0.3399             !
 ! R27   R(15,27)                1.0935         D2E/DX2 =    0.3413             !
 ! R28   R(15,28)                1.0963         D2E/DX2 =    0.3333             !
 ! R29   R(16,29)                1.0172         D2E/DX2 =    0.4461             !
 ! R30   R(16,30)                1.0172         D2E/DX2 =    0.4463             !
 ! A1    A(1,2,3)              121.3769         D2E/DX2 =    0.2503             !
 ! A2    A(1,2,14)             121.2371         D2E/DX2 =    0.1762             !
 ! A3    A(3,2,14)             117.3846         D2E/DX2 =    0.1748             !
 ! A4    A(2,3,4)              123.1129         D2E/DX2 =    0.2507             !
 ! A5    A(2,3,17)             120.6168         D2E/DX2 =    0.126              !
 ! A6    A(4,3,17)             116.2589         D2E/DX2 =    0.1269             !
 ! A7    A(3,4,5)              111.8555         D2E/DX2 =    0.1241             !
 ! A8    A(3,4,8)              109.7588         D2E/DX2 =    0.1269             !
 ! A9    A(3,4,18)             107.1516         D2E/DX2 =    0.0327             !
 ! A10   A(5,4,8)              112.7601         D2E/DX2 =    0.1491             !
 ! A11   A(5,4,18)             106.0235         D2E/DX2 =    0.0357             !
 ! A12   A(8,4,18)             109.0388         D2E/DX2 =    0.0321             !
 ! A13   A(4,5,6)              115.0158         D2E/DX2 =    0.2531             !
 ! A14   A(4,5,7)              123.0866         D2E/DX2 =    0.2155             !
 ! A15   A(6,5,7)              121.8739         D2E/DX2 =    0.2099             !
 ! A16   A(5,6,19)             110.3103         D2E/DX2 =    0.2702             !
 ! A17   A(4,8,9)              114.6713         D2E/DX2 =    0.1938             !
 ! A18   A(4,8,20)             107.9752         D2E/DX2 =    0.0658             !
 ! A19   A(4,8,21)             107.5902         D2E/DX2 =    0.0636             !
 ! A20   A(9,8,20)             108.1241         D2E/DX2 =    0.062              !
 ! A21   A(9,8,21)             110.9215         D2E/DX2 =    0.0551             !
 ! A22   A(20,8,21)            107.283          D2E/DX2 =    0.0206             !
 ! A23   A(8,9,10)             132.064          D2E/DX2 =    0.1156             !
 ! A24   A(8,9,13)             123.3304         D2E/DX2 =    0.132              !
 ! A25   A(10,9,13)            104.6018         D2E/DX2 =    0.1029             !
 ! A26   A(9,10,11)            111.0842         D2E/DX2 =    0.1155             !
 ! A27   A(9,10,22)            127.4605         D2E/DX2 =    0.0821             !
 ! A28   A(11,10,22)           121.422          D2E/DX2 =    0.0898             !
 ! A29   A(10,11,12)           104.8271         D2E/DX2 =    0.1324             !
 ! A30   A(11,12,13)           112.1014         D2E/DX2 =    0.1198             !
 ! A31   A(11,12,23)           125.6028         D2E/DX2 =    0.0898             !
 ! A32   A(13,12,23)           122.2958         D2E/DX2 =    0.0906             !
 ! A33   A(9,13,12)            107.385          D2E/DX2 =    0.1039             !
 ! A34   A(9,13,24)            122.8533         D2E/DX2 =    0.0826             !
 ! A35   A(12,13,24)           129.5659         D2E/DX2 =    0.0753             !
 ! A36   A(2,14,15)            111.8881         D2E/DX2 =    0.125              !
 ! A37   A(2,14,25)            106.9155         D2E/DX2 =    0.0423             !
 ! A38   A(2,14,26)            111.1908         D2E/DX2 =    0.0536             !
 ! A39   A(15,14,25)           108.8912         D2E/DX2 =    0.0503             !
 ! A40   A(15,14,26)           110.5224         D2E/DX2 =    0.0547             !
 ! A41   A(25,14,26)           107.2302         D2E/DX2 =    0.0204             !
 ! A42   A(14,15,16)           115.5425         D2E/DX2 =    0.149              !
 ! A43   A(14,15,27)           108.1864         D2E/DX2 =    0.0598             !
 ! A44   A(14,15,28)           109.1174         D2E/DX2 =    0.0608             !
 ! A45   A(16,15,27)           108.911          D2E/DX2 =    0.0578             !
 ! A46   A(16,15,28)           108.1568         D2E/DX2 =    0.0595             !
 ! A47   A(27,15,28)           106.5678         D2E/DX2 =    0.0206             !
 ! A48   A(15,16,29)           110.8412         D2E/DX2 =    0.142              !
 ! A49   A(15,16,30)           110.6223         D2E/DX2 =    0.1413             !
 ! A50   A(29,16,30)           106.7778         D2E/DX2 =    0.0589             !
 ! D1    D(1,2,3,4)              7.1639         D2E/DX2 =    0.0153             !
 ! D2    D(1,2,3,17)          -174.11           D2E/DX2 =    0.0204             !
 ! D3    D(14,2,3,4)          -173.2669         D2E/DX2 =    0.0106             !
 ! D4    D(14,2,3,17)            5.4592         D2E/DX2 =    0.0106             !
 ! D5    D(1,2,14,15)           52.0067         D2E/DX2 =    0.014              !
 ! D6    D(1,2,14,25)          -67.1294         D2E/DX2 =    0.0161             !
 ! D7    D(1,2,14,26)          176.1292         D2E/DX2 =    0.0153             !
 ! D8    D(3,2,14,15)         -127.5632         D2E/DX2 =    0.0129             !
 ! D9    D(3,2,14,25)          113.3007         D2E/DX2 =    0.0139             !
 ! D10   D(3,2,14,26)           -3.4407         D2E/DX2 =    0.0151             !
 ! D11   D(2,3,4,5)            -74.8844         D2E/DX2 =    0.056              !
 ! D12   D(2,3,4,8)            159.1721         D2E/DX2 =    0.0225             !
 ! D13   D(2,3,4,18)            40.9033         D2E/DX2 =    0.0114             !
 ! D14   D(17,3,4,5)           106.338          D2E/DX2 =    0.0408             !
 ! D15   D(17,3,4,8)           -19.6054         D2E/DX2 =    0.0193             !
 ! D16   D(17,3,4,18)         -137.8742         D2E/DX2 =    0.0109             !
 ! D17   D(3,4,5,6)             61.0513         D2E/DX2 =    0.0424             !
 ! D18   D(3,4,5,7)           -120.6926         D2E/DX2 =    0.0352             !
 ! D19   D(8,4,5,6)           -174.6662         D2E/DX2 =    0.0234             !
 ! D20   D(8,4,5,7)              3.5898         D2E/DX2 =    0.0224             !
 ! D21   D(18,4,5,6)           -55.4214         D2E/DX2 =    0.0188             !
 ! D22   D(18,4,5,7)           122.8346         D2E/DX2 =    0.0173             !
 ! D23   D(3,4,8,9)             50.6447         D2E/DX2 =    0.0245             !
 ! D24   D(3,4,8,20)           -69.9472         D2E/DX2 =    0.0191             !
 ! D25   D(3,4,8,21)           174.5526         D2E/DX2 =    0.019              !
 ! D26   D(5,4,8,9)            -74.782          D2E/DX2 =    0.0277             !
 ! D27   D(5,4,8,20)           164.6261         D2E/DX2 =    0.0203             !
 ! D28   D(5,4,8,21)            49.1259         D2E/DX2 =    0.0171             !
 ! D29   D(18,4,8,9)           167.7379         D2E/DX2 =    0.0227             !
 ! D30   D(18,4,8,20)           47.146          D2E/DX2 =    0.0152             !
 ! D31   D(18,4,8,21)          -68.3542         D2E/DX2 =    0.0139             !
 ! D32   D(4,5,6,19)            -3.8538         D2E/DX2 =    0.0255             !
 ! D33   D(7,5,6,19)           177.8668         D2E/DX2 =    0.0372             !
 ! D34   D(4,8,9,10)          -108.4128         D2E/DX2 =    0.0157             !
 ! D35   D(4,8,9,13)            70.7612         D2E/DX2 =    0.0182             !
 ! D36   D(20,8,9,10)           12.0969         D2E/DX2 =    0.0136             !
 ! D37   D(20,8,9,13)         -168.7292         D2E/DX2 =    0.0148             !
 ! D38   D(21,8,9,10)          129.4708         D2E/DX2 =    0.0143             !
 ! D39   D(21,8,9,13)          -51.3552         D2E/DX2 =    0.0146             !
 ! D40   D(8,9,10,11)          179.3323         D2E/DX2 =    0.0097             !
 ! D41   D(8,9,10,22)           -2.7623         D2E/DX2 =    0.0071             !
 ! D42   D(13,9,10,11)           0.0455         D2E/DX2 =    0.0144             !
 ! D43   D(13,9,10,22)         177.9509         D2E/DX2 =    0.0098             !
 ! D44   D(8,9,13,12)         -179.2755         D2E/DX2 =    0.0081             !
 ! D45   D(8,9,13,24)           -3.9184         D2E/DX2 =    0.004              !
 ! D46   D(10,9,13,12)           0.0908         D2E/DX2 =    0.0126             !
 ! D47   D(10,9,13,24)         175.4479         D2E/DX2 =    0.0064             !
 ! D48   D(9,10,11,12)          -0.1661         D2E/DX2 =    0.0176             !
 ! D49   D(22,10,11,12)       -178.2178         D2E/DX2 =    0.01               !
 ! D50   D(10,11,12,13)          0.2272         D2E/DX2 =    0.0188             !
 ! D51   D(10,11,12,23)       -179.7958         D2E/DX2 =    0.0109             !
 ! D52   D(11,12,13,9)          -0.2069         D2E/DX2 =    0.0176             !
 ! D53   D(11,12,13,24)       -175.1463         D2E/DX2 =    0.0094             !
 ! D54   D(23,12,13,9)         179.8153         D2E/DX2 =    0.0108             !
 ! D55   D(23,12,13,24)          4.8759         D2E/DX2 =    0.0069             !
 ! D56   D(2,14,15,16)        -175.6401         D2E/DX2 =    0.0146             !
 ! D57   D(2,14,15,27)         -53.2902         D2E/DX2 =    0.0145             !
 ! D58   D(2,14,15,28)          62.2748         D2E/DX2 =    0.0143             !
 ! D59   D(25,14,15,16)        -57.6772         D2E/DX2 =    0.0151             !
 ! D60   D(25,14,15,27)         64.6727         D2E/DX2 =    0.016              !
 ! D61   D(25,14,15,28)       -179.7623         D2E/DX2 =    0.0148             !
 ! D62   D(26,14,15,16)         59.8642         D2E/DX2 =    0.0151             !
 ! D63   D(26,14,15,27)       -177.7858         D2E/DX2 =    0.0147             !
 ! D64   D(26,14,15,28)        -62.2209         D2E/DX2 =    0.0159             !
 ! D65   D(14,15,16,29)        -58.5368         D2E/DX2 =    0.0142             !
 ! D66   D(14,15,16,30)         59.7104         D2E/DX2 =    0.0142             !
 ! D67   D(27,15,16,29)        179.5            D2E/DX2 =    0.0164             !
 ! D68   D(27,15,16,30)        -62.2528         D2E/DX2 =    0.0164             !
 ! D69   D(28,15,16,29)         64.0599         D2E/DX2 =    0.0165             !
 ! D70   D(28,15,16,30)       -177.6928         D2E/DX2 =    0.0165             !
 --------------------------------------------------------------------------------
 Trust Radius=3.00D-01 FncErr=1.00D-07 GrdErr=1.00D-06
 Number of steps in this run=    160 maximum allowed number of steps=    180.
 GradGradGradGradGradGradGradGradGradGradGradGradGradGradGradGradGradGrad

                          Input orientation:                          
 ---------------------------------------------------------------------
 Center     Atomic      Atomic             Coordinates (Angstroms)
 Number     Number       Type             X           Y           Z
 ---------------------------------------------------------------------
      1          8           0       -1.028161   -1.843157    1.791843
      2          6           0       -1.048642   -1.220454    0.715473
      3          7           0        0.070285   -0.655270    0.207429
      4          6           0        1.400661   -0.853979    0.786455
      5          6           0        1.587223   -0.044326    2.095387
      6          8           0        0.749001   -0.359936    3.074859
      7          8           0        2.454758    0.797133    2.238146
      8          6           0        2.481156   -0.539545   -0.269029
      9          6           0        2.316774    0.779471   -0.957806
     10          6           0        1.936460    1.110689   -2.242551
     11          7           0        1.915107    2.476171   -2.416223
     12          6           0        2.275025    2.970384   -1.248485
     13          7           0        2.531348    1.992348   -0.334811
     14          6           0       -2.331476   -1.057000   -0.073150
     15          6           0       -3.479471   -0.495257    0.801712
     16          7           0       -4.777902   -0.399064    0.148183
     17          1           0        0.024636   -0.075981   -0.623326
     18          1           0        1.475176   -1.911760    1.071161
     19          1           0        0.090497   -1.040737    2.761233
     20          1           0        2.450213   -1.326465   -1.028750
     21          1           0        3.455234   -0.603358    0.225683
     22          1           0        1.708121    0.434560   -3.056640
     23          1           0        2.366264    4.021386   -1.010800
     24          1           0        2.759704    2.072226    0.650594
     25          1           0       -2.614390   -2.054453   -0.432993
     26          1           0       -2.176356   -0.425198   -0.955815
     27          1           0       -3.574764   -1.128969    1.687800
     28          1           0       -3.202435    0.503173    1.159773
     29          1           0       -4.724440    0.192315   -0.677707
     30          1           0       -5.089511   -1.314942   -0.166156
 ---------------------------------------------------------------------
                    Distance matrix (angstroms):
                    1          2          3          4          5
     1  O    0.000000
     2  C    1.243684   0.000000
     3  N    2.264515   1.352605   0.000000
     4  C    2.808640   2.477585   1.464465   0.000000
     5  C    3.188757   3.199254   2.497747   1.550370   0.000000
     6  O    2.646579   3.088481   2.961424   2.430131   1.327250
     7  O    4.393296   4.320070   3.452390   2.438175   1.216984
     8  C    4.273395   3.727245   2.460224   1.542849   2.575814
     9  C    5.062345   4.257416   2.909118   2.559271   3.245438
    10  C    5.812961   4.805722   3.550158   3.649915   4.502636
    11  N    6.710234   5.679469   4.482503   4.648838   5.178323
    12  C    6.582159   5.697984   4.486194   4.419418   4.554452
    13  N    5.648351   4.923568   3.655234   3.261483   3.308364
    14  C    2.407254   1.514697   2.451239   3.835230   4.591761
    15  C    2.967510   2.538165   3.602714   4.893323   5.248650
    16  N    4.341380   3.860555   4.855314   6.228081   6.665753
    17  H    3.172434   2.062554   1.013811   2.118067   3.135934
    18  H    2.605914   2.640847   2.073287   1.097957   2.132815
    19  H    1.683743   2.348418   2.582810   2.377216   1.917388
    20  H    4.507971   3.910951   2.764543   2.149365   3.485521
    21  H    4.908237   4.572264   3.385396   2.144422   2.701439
    22  H    6.015233   4.956577   3.811087   4.065002   5.175647
    23  H    7.332790   6.489876   5.350394   5.285045   5.175454
    24  H    5.566022   5.034824   3.855983   3.229262   2.818143
    25  H    2.740559   2.113314   3.094404   4.364496   5.299704
    26  H    3.298270   2.167343   2.540367   4.001801   4.859982
    27  H    2.646899   2.708336   3.962609   5.063882   5.290434
    28  H    3.260713   2.794123   3.599951   4.813494   4.910800
    29  H    4.889203   4.177123   4.948864   6.383993   6.898053
    30  H    4.539530   4.137007   5.215192   6.575887   7.162948
                    6          7          8          9         10
     6  O    0.000000
     7  O    2.224523   0.000000
     8  C    3.770174   2.841361   0.000000
     9  C    4.474209   3.198978   1.497077   0.000000
    10  C    5.643372   4.521459   2.629592   1.380186   0.000000
    11  N    6.289299   4.977302   3.745049   2.273127   1.376648
    12  C    5.666665   4.112411   3.649854   2.210507   2.135711
    13  N    4.509529   2.838047   2.533245   1.380303   2.184190
    14  C    4.459282   5.629204   4.844333   5.075576   5.255517
    15  C    4.802654   6.240889   6.056197   6.190096   6.417079
    16  N    6.254088   7.623005   7.272395   7.276441   7.285439
    17  H    3.779141   3.854328   2.524858   2.469326   2.772209
    18  H    2.636341   3.107979   2.165889   3.473861   4.508732
    19  H    0.997737   3.039920   3.892163   4.701140   5.751005
    20  H    4.546197   3.896447   1.094247   2.111352   2.770736
    21  H    3.937100   2.648081   1.094368   2.146847   3.367018
    22  H    6.256710   5.359448   3.052415   2.212358   1.082603
    23  H    6.205170   4.578132   4.622285   3.242726   3.189686
    24  H    3.979372   2.058926   2.782920   2.110534   3.157938
    25  H    5.146728   6.400218   5.318498   5.711649   5.831197
    26  H    4.980794   5.756969   4.709264   4.651822   4.574920
    27  H    4.605462   6.353572   6.391461   6.734359   7.130029
    28  H    4.475082   5.766553   5.952474   5.917951   6.192990
    29  H    6.659226   7.772315   7.254188   7.071202   6.903603
    30  H    6.745698   8.194970   7.610968   7.737334   7.717472
                   11         12         13         14         15
    11  N    0.000000
    12  C    1.318104   0.000000
    13  N    2.223985   1.362739   0.000000
    14  C    6.000564   6.230658   5.745786   0.000000
    15  C    6.948810   7.023404   6.603772   1.548816   0.000000
    16  N    7.722663   7.940255   7.705665   2.543004   1.456803
    17  H    3.647168   3.838674   3.262641   2.610816   3.805955
    18  H    5.622216   5.464050   4.281859   4.065792   5.160195
    19  H    6.519500   6.077754   4.974218   3.728263   4.108764
    20  H    4.083070   4.306030   3.391557   4.883680   6.261202
    21  H    4.339949   4.041992   2.811656   5.812152   6.959428
    22  H    2.149686   3.165629   3.242338   5.238732   6.531658
    23  H    2.136924   1.081399   2.145043   6.981258   7.606437
    24  H    3.206537   2.155947   1.014668   6.019633   6.748490
    25  H    6.706422   7.058356   6.547126   1.097469   2.168860
    26  H    5.224060   5.606285   5.328475   1.096511   2.189045
    27  H    7.744593   7.723115   7.149697   2.156824   1.093537
    28  H    6.547496   6.472203   6.109639   2.170901   1.096276
    29  H    7.233396   7.552216   7.483592   2.766325   2.052165
    30  H    8.276474   8.589054   8.309278   2.771631   2.049605
                   16         17         18         19         20
    16  N    0.000000
    17  H    4.874832   0.000000
    18  H    6.499317   2.888847   0.000000
    19  H    5.562471   3.519990   2.352097   0.000000
    20  H    7.381795   2.758895   2.388073   4.473686   0.000000
    21  H    8.236035   3.573226   2.519400   4.235772   1.762542
    22  H    7.282467   3.002630   4.753758   6.216177   2.786440
    23  H    8.480727   4.735164   6.350655   6.710621   5.348540
    24  H    7.948283   3.703817   4.207021   4.611941   3.803562
    25  H    2.785474   3.303791   4.359747   4.306635   5.151223
    26  H    2.826224   2.253191   4.433078   4.397039   4.714100
    27  H    2.085839   4.405198   5.147320   3.820232   6.612034
    28  H    2.078327   3.732138   5.264960   3.973881   6.331638
    29  H    1.017193   4.756960   6.776497   6.044033   7.342041
    30  H    1.017223   5.281906   6.706882   5.956280   7.588916
                   21         22         23         24         25
    21  H    0.000000
    22  H    3.860482   0.000000
    23  H    4.909481   4.181379   0.000000
    24  H    2.796973   4.187047   2.591187   0.000000
    25  H    6.275338   5.635851   7.877601   6.861816   0.000000
    26  H    5.756951   4.499090   6.356928   5.760413   1.766264
    27  H    7.199648   7.270709   8.312906   7.172791   2.505315
    28  H    6.813332   6.472744   6.935389   6.186137   3.069878
    29  H    8.267785   6.862641   8.065409   7.830125   3.091951
    30  H    8.583272   7.591012   9.207519   8.587792   2.596980
                   26         27         28         29         30
    26  H    0.000000
    27  H    3.072384   0.000000
    28  H    2.527929   1.755372   0.000000
    29  H    2.636551   2.943327   2.406130   0.000000
    30  H    3.146694   2.401291   2.936782   1.633029   0.000000
 Symmetry turned off by external request.
 Stoichiometry    C9H14N4O3
 Framework group  C1[X(C9H14N4O3)]
 Deg. of freedom    84
 Full point group                 C1      NOp   1
 Rotational constants (GHZ):      0.6918834      0.3215327      0.2530470
 Standard basis: 6-311G(2df,2pd) (5D, 7F)
   676 basis functions,  1006 primitive gaussians,   770 cartesian basis functions
    60 alpha electrons       60 beta electrons
       nuclear repulsion energy      1128.5512773605 Hartrees.
 NAtoms=   30 NActive=   30 NUniq=   30 SFac= 1.00D+00 NAtFMM=   60 NAOKFM=F Big=F
 Integral buffers will be    131072 words long.
 Raffenetti 2 integral format.
 Two-electron integral symmetry is turned off.
 One-electron integrals computed using PRISM.
 NBasis=   676 RedAO= T EigKep=  2.24D-04  NBF=   676
 NBsUse=   676 1.00D-06 EigRej= -1.00D+00 NBFU=   676
 Initial guess from the checkpoint file:  "conf-118.chk"
 B after Tr=     0.000000    0.000000    0.000000
         Rot=    1.000000    0.000000    0.000000    0.000000 Ang=   0.00 deg.
 Requested convergence on RMS density matrix=1.00D-08 within 128 cycles.
 Requested convergence on MAX density matrix=1.00D-06.
 Requested convergence on             energy=1.00D-06.
 No special actions if energy rises.
 SCF Done:  E(RB3LYP) =  -796.372897440     A.U. after   11 cycles
            NFock= 11  Conv=0.64D-08     -V/T= 2.0041

 **********************************************************************

            Population analysis using the SCF density.

 **********************************************************************

 Alpha  occ. eigenvalues --  -19.16118 -19.12205 -19.11934 -14.37388 -14.36448
 Alpha  occ. eigenvalues --  -14.30316 -14.29280 -10.31549 -10.30526 -10.25411
 Alpha  occ. eigenvalues --  -10.22563 -10.21245 -10.21150 -10.21065 -10.20209
 Alpha  occ. eigenvalues --  -10.18884  -1.11060  -1.06962  -1.02774  -1.01700
 Alpha  occ. eigenvalues --   -0.96143  -0.89882  -0.87450  -0.82166  -0.77858
 Alpha  occ. eigenvalues --   -0.74585  -0.68461  -0.65533  -0.62354  -0.62146
 Alpha  occ. eigenvalues --   -0.60900  -0.59662  -0.56404  -0.55315  -0.52725
 Alpha  occ. eigenvalues --   -0.51485  -0.50857  -0.47845  -0.46672  -0.46332
 Alpha  occ. eigenvalues --   -0.45546  -0.44990  -0.44160  -0.43601  -0.42638
 Alpha  occ. eigenvalues --   -0.41562  -0.41425  -0.41114  -0.39969  -0.39240
 Alpha  occ. eigenvalues --   -0.38087  -0.36429  -0.33017  -0.31946  -0.29866
 Alpha  occ. eigenvalues --   -0.28958  -0.28084  -0.27544  -0.25558  -0.23868
 Alpha virt. eigenvalues --   -0.02518  -0.01340   0.00855   0.01688   0.02919
 Alpha virt. eigenvalues --    0.03385   0.05689   0.06138   0.06321   0.06400
 Alpha virt. eigenvalues --    0.07752   0.08421   0.10067   0.10491   0.10784
 Alpha virt. eigenvalues --    0.12233   0.13183   0.13582   0.14759   0.16587
 Alpha virt. eigenvalues --    0.17897   0.18866   0.19563   0.19742   0.20478
 Alpha virt. eigenvalues --    0.22098   0.23155   0.24508   0.24893   0.27272
 Alpha virt. eigenvalues --    0.28060   0.29096   0.29479   0.30412   0.31107
 Alpha virt. eigenvalues --    0.31434   0.32657   0.33555   0.33667   0.34316
 Alpha virt. eigenvalues --    0.35284   0.35786   0.36724   0.37401   0.37934
 Alpha virt. eigenvalues --    0.39151   0.39866   0.40400   0.40466   0.41204
 Alpha virt. eigenvalues --    0.42255   0.42760   0.43244   0.44067   0.44413
 Alpha virt. eigenvalues --    0.45270   0.45760   0.46217   0.47141   0.47295
 Alpha virt. eigenvalues --    0.47581   0.48261   0.48397   0.49513   0.49783
 Alpha virt. eigenvalues --    0.50546   0.51534   0.51947   0.52054   0.53552
 Alpha virt. eigenvalues --    0.54164   0.54742   0.55242   0.56120   0.56904
 Alpha virt. eigenvalues --    0.57911   0.58435   0.59308   0.60183   0.60698
 Alpha virt. eigenvalues --    0.62033   0.63627   0.64767   0.65120   0.65721
 Alpha virt. eigenvalues --    0.66840   0.67330   0.68270   0.68652   0.69357
 Alpha virt. eigenvalues --    0.69647   0.71005   0.72051   0.73238   0.73540
 Alpha virt. eigenvalues --    0.74648   0.75423   0.77172   0.78437   0.79906
 Alpha virt. eigenvalues --    0.80214   0.80844   0.81195   0.82489   0.82753
 Alpha virt. eigenvalues --    0.83839   0.84599   0.86304   0.86819   0.87705
 Alpha virt. eigenvalues --    0.88971   0.90312   0.90586   0.91642   0.92338
 Alpha virt. eigenvalues --    0.93535   0.94626   0.95793   0.97573   0.98096
 Alpha virt. eigenvalues --    0.98502   0.98786   1.00030   1.00546   1.01490
 Alpha virt. eigenvalues --    1.02535   1.03149   1.03280   1.04400   1.05105
 Alpha virt. eigenvalues --    1.06061   1.07066   1.07189   1.07787   1.09009
 Alpha virt. eigenvalues --    1.09645   1.11124   1.11383   1.12830   1.13731
 Alpha virt. eigenvalues --    1.14555   1.14928   1.15523   1.15846   1.16862
 Alpha virt. eigenvalues --    1.17947   1.19002   1.19746   1.20498   1.21100
 Alpha virt. eigenvalues --    1.22162   1.22561   1.23724   1.25013   1.25347
 Alpha virt. eigenvalues --    1.25837   1.26104   1.26930   1.27373   1.28505
 Alpha virt. eigenvalues --    1.29262   1.29927   1.30411   1.32102   1.32546
 Alpha virt. eigenvalues --    1.32879   1.33753   1.34443   1.35850   1.36571
 Alpha virt. eigenvalues --    1.36705   1.37690   1.37902   1.38859   1.39508
 Alpha virt. eigenvalues --    1.40627   1.41562   1.42998   1.44582   1.44907
 Alpha virt. eigenvalues --    1.45993   1.46363   1.46643   1.49356   1.50019
 Alpha virt. eigenvalues --    1.50130   1.52551   1.54264   1.54424   1.56440
 Alpha virt. eigenvalues --    1.58531   1.58955   1.59787   1.60535   1.61564
 Alpha virt. eigenvalues --    1.62482   1.63803   1.65455   1.66240   1.68024
 Alpha virt. eigenvalues --    1.69820   1.72456   1.72833   1.73788   1.74559
 Alpha virt. eigenvalues --    1.76269   1.76797   1.78051   1.78702   1.80469
 Alpha virt. eigenvalues --    1.81886   1.83467   1.86097   1.87906   1.88174
 Alpha virt. eigenvalues --    1.90585   1.92191   1.95757   2.00009   2.00901
 Alpha virt. eigenvalues --    2.04876   2.05429   2.09551   2.12340   2.14393
 Alpha virt. eigenvalues --    2.15913   2.17682   2.22371   2.23260   2.25237
 Alpha virt. eigenvalues --    2.32561   2.35450   2.38820   2.41223   2.43457
 Alpha virt. eigenvalues --    2.45913   2.48026   2.48647   2.50647   2.52258
 Alpha virt. eigenvalues --    2.54539   2.55139   2.56350   2.58511   2.61092
 Alpha virt. eigenvalues --    2.61283   2.62588   2.63758   2.64095   2.65007
 Alpha virt. eigenvalues --    2.66235   2.67298   2.69048   2.69288   2.69799
 Alpha virt. eigenvalues --    2.71331   2.71855   2.73671   2.74675   2.75249
 Alpha virt. eigenvalues --    2.77109   2.77978   2.79017   2.82295   2.83014
 Alpha virt. eigenvalues --    2.83463   2.84193   2.85426   2.87459   2.88147
 Alpha virt. eigenvalues --    2.88669   2.89585   2.89680   2.90399   2.91328
 Alpha virt. eigenvalues --    2.92266   2.92882   2.93562   2.95170   2.96101
 Alpha virt. eigenvalues --    2.97147   2.97811   2.98619   2.99478   3.00367
 Alpha virt. eigenvalues --    3.01117   3.01322   3.02352   3.02676   3.03752
 Alpha virt. eigenvalues --    3.04587   3.05277   3.06665   3.06915   3.07327
 Alpha virt. eigenvalues --    3.07845   3.08682   3.09450   3.10368   3.10845
 Alpha virt. eigenvalues --    3.11530   3.12305   3.12419   3.13351   3.14031
 Alpha virt. eigenvalues --    3.14908   3.15943   3.16177   3.17357   3.19474
 Alpha virt. eigenvalues --    3.19668   3.20745   3.21656   3.22067   3.23036
 Alpha virt. eigenvalues --    3.23588   3.24598   3.25489   3.26002   3.26902
 Alpha virt. eigenvalues --    3.27431   3.28400   3.28599   3.29807   3.30811
 Alpha virt. eigenvalues --    3.31349   3.32111   3.32301   3.33244   3.33696
 Alpha virt. eigenvalues --    3.34552   3.35485   3.36627   3.36871   3.37661
 Alpha virt. eigenvalues --    3.38386   3.39544   3.39561   3.40452   3.41199
 Alpha virt. eigenvalues --    3.42004   3.42370   3.42955   3.44323   3.45351
 Alpha virt. eigenvalues --    3.46417   3.46537   3.47313   3.47839   3.48439
 Alpha virt. eigenvalues --    3.49559   3.50325   3.50600   3.51681   3.52285
 Alpha virt. eigenvalues --    3.53111   3.54362   3.56214   3.56749   3.57488
 Alpha virt. eigenvalues --    3.58261   3.59006   3.60465   3.61275   3.61720
 Alpha virt. eigenvalues --    3.62595   3.63338   3.64209   3.65214   3.65445
 Alpha virt. eigenvalues --    3.66453   3.67162   3.68256   3.68827   3.68964
 Alpha virt. eigenvalues --    3.70438   3.70841   3.72358   3.73087   3.73495
 Alpha virt. eigenvalues --    3.76200   3.76460   3.77495   3.77970   3.79471
 Alpha virt. eigenvalues --    3.80554   3.81262   3.82284   3.83881   3.85329
 Alpha virt. eigenvalues --    3.86715   3.87069   3.87864   3.88519   3.89491
 Alpha virt. eigenvalues --    3.90004   3.90577   3.91306   3.91719   3.92420
 Alpha virt. eigenvalues --    3.93783   3.94300   3.94530   3.95893   3.96513
 Alpha virt. eigenvalues --    3.97066   3.98848   3.99170   4.00070   4.01097
 Alpha virt. eigenvalues --    4.02559   4.03321   4.03571   4.04387   4.06177
 Alpha virt. eigenvalues --    4.06270   4.07395   4.07685   4.08199   4.09583
 Alpha virt. eigenvalues --    4.10363   4.12260   4.13013   4.15275   4.15987
 Alpha virt. eigenvalues --    4.17504   4.18750   4.19788   4.21587   4.21882
 Alpha virt. eigenvalues --    4.23264   4.24662   4.24866   4.26659   4.29477
 Alpha virt. eigenvalues --    4.29730   4.30031   4.30244   4.32023   4.32903
 Alpha virt. eigenvalues --    4.32928   4.35056   4.35249   4.36447   4.38057
 Alpha virt. eigenvalues --    4.39903   4.41360   4.42585   4.46057   4.46525
 Alpha virt. eigenvalues --    4.48468   4.50453   4.51907   4.52541   4.55293
 Alpha virt. eigenvalues --    4.56617   4.57269   4.58156   4.59742   4.60161
 Alpha virt. eigenvalues --    4.61737   4.65796   4.67685   4.68794   4.70298
 Alpha virt. eigenvalues --    4.71206   4.72961   4.76253   4.77739   4.78906
 Alpha virt. eigenvalues --    4.79454   4.81321   4.82270   4.83439   4.84253
 Alpha virt. eigenvalues --    4.86511   4.87442   4.88794   4.91450   4.92122
 Alpha virt. eigenvalues --    4.93140   4.93949   4.94024   4.95460   4.95952
 Alpha virt. eigenvalues --    4.96467   4.98340   4.99352   5.00558   5.02304
 Alpha virt. eigenvalues --    5.03752   5.04336   5.06043   5.06568   5.07516
 Alpha virt. eigenvalues --    5.08146   5.08826   5.09030   5.10419   5.10921
 Alpha virt. eigenvalues --    5.11419   5.12224   5.13737   5.15382   5.16166
 Alpha virt. eigenvalues --    5.16420   5.17807   5.18474   5.19032   5.19726
 Alpha virt. eigenvalues --    5.20241   5.21001   5.22535   5.23723   5.25410
 Alpha virt. eigenvalues --    5.25720   5.27174   5.28524   5.30109   5.31154
 Alpha virt. eigenvalues --    5.34107   5.34281   5.36033   5.36611   5.37270
 Alpha virt. eigenvalues --    5.39871   5.43166   5.43767   5.45715   5.46822
 Alpha virt. eigenvalues --    5.48994   5.51402   5.53700   5.54919   5.57077
 Alpha virt. eigenvalues --    5.57768   5.58927   5.61471   5.64729   5.66751
 Alpha virt. eigenvalues --    5.68325   5.68720   5.71390   5.74573   5.75088
 Alpha virt. eigenvalues --    5.76390   5.76898   5.79963   5.81792   5.83608
 Alpha virt. eigenvalues --    5.84166   5.87174   5.90363   5.92798   5.95902
 Alpha virt. eigenvalues --    5.99555   6.01084   6.02059   6.04262   6.09313
 Alpha virt. eigenvalues --    6.13160   6.17377   6.18511   6.20994   6.24103
 Alpha virt. eigenvalues --    6.28488   6.33304   6.35998   6.37211   6.39611
 Alpha virt. eigenvalues --    6.40710   6.41803   6.46793   6.51445   6.55267
 Alpha virt. eigenvalues --    6.65315   6.68488   6.82374   6.90711   6.92086
 Alpha virt. eigenvalues --    6.95093   6.98177   6.98929   7.05810   7.10584
 Alpha virt. eigenvalues --    7.12710   7.17119   7.20292   7.21845   7.24276
 Alpha virt. eigenvalues --    7.27927   7.29752   7.37719   7.41566   7.47601
 Alpha virt. eigenvalues --    7.55444   7.58138   7.64201   7.78734   8.09204
 Alpha virt. eigenvalues --   24.43723  24.60710  24.68350  24.74905  24.92629
 Alpha virt. eigenvalues --   24.95040  25.01442  25.03367  25.06358  35.96136
 Alpha virt. eigenvalues --   36.19371  36.23532  36.42989  50.16561  50.19066
 Alpha virt. eigenvalues --   50.25537
          Condensed to atoms (all electrons):
               1          2          3          4          5          6
     1  O    7.987377   0.556839  -0.112651   0.007773  -0.007915  -0.026006
     2  C    0.556839   4.583846   0.340828  -0.074953   0.008719   0.009929
     3  N   -0.112651   0.340828   6.656423   0.202457  -0.025613   0.005840
     4  C    0.007773  -0.074953   0.202457   5.468561   0.176539  -0.118643
     5  C   -0.007915   0.008719  -0.025613   0.176539   4.276162   0.446647
     6  O   -0.026006   0.009929   0.005840  -0.118643   0.446647   7.740453
     7  O   -0.000009  -0.000332   0.002216  -0.121896   0.673204  -0.064815
     8  C    0.000452   0.003660  -0.029721   0.297917  -0.051495   0.003442
     9  C   -0.000117  -0.000761  -0.016478  -0.087306   0.004509   0.000041
    10  C    0.000000  -0.000021  -0.003918  -0.001459  -0.000145   0.000001
    11  N    0.000000  -0.000005  -0.000100  -0.000260  -0.000019   0.000000
    12  C    0.000000   0.000008   0.000467   0.000029   0.000276   0.000001
    13  N    0.000000   0.000025   0.000695   0.005917   0.002225  -0.000048
    14  C   -0.063350   0.215525  -0.028145   0.002663  -0.000484  -0.000102
    15  C    0.000847  -0.041951  -0.002590   0.000132   0.000031  -0.000064
    16  N    0.000209   0.006529  -0.000046   0.000001   0.000000   0.000000
    17  H    0.004406  -0.019527   0.335702  -0.032264   0.000402  -0.000530
    18  H    0.016841  -0.010048  -0.037362   0.374142  -0.041230   0.005123
    19  H    0.090446  -0.014019  -0.006550   0.011219  -0.035798   0.302502
    20  H   -0.000054   0.000739   0.003576  -0.035669   0.005481  -0.000204
    21  H   -0.000002   0.000049   0.004474  -0.057683   0.002954   0.000294
    22  H    0.000000   0.000024   0.000015   0.000031   0.000004   0.000000
    23  H    0.000000   0.000000   0.000006   0.000009   0.000013   0.000000
    24  H    0.000004  -0.000046  -0.000480   0.002757  -0.005496   0.000128
    25  H    0.003062  -0.007994   0.000353  -0.000392   0.000004   0.000004
    26  H    0.003391  -0.015327  -0.004723   0.000237   0.000031   0.000032
    27  H    0.018156  -0.004003   0.001365  -0.000036   0.000004   0.000075
    28  H   -0.000863   0.005006   0.001429  -0.000171   0.000060   0.000146
    29  H    0.000002   0.000490   0.000004   0.000001   0.000000   0.000000
    30  H   -0.000017   0.000952  -0.000017   0.000000   0.000000   0.000000
               7          8          9         10         11         12
     1  O   -0.000009   0.000452  -0.000117   0.000000   0.000000   0.000000
     2  C   -0.000332   0.003660  -0.000761  -0.000021  -0.000005   0.000008
     3  N    0.002216  -0.029721  -0.016478  -0.003918  -0.000100   0.000467
     4  C   -0.121896   0.297917  -0.087306  -0.001459  -0.000260   0.000029
     5  C    0.673204  -0.051495   0.004509  -0.000145  -0.000019   0.000276
     6  O   -0.064815   0.003442   0.000041   0.000001   0.000000   0.000001
     7  O    7.871389   0.002376   0.000201   0.000224  -0.000015  -0.000458
     8  C    0.002376   4.774050   0.309695  -0.043798   0.010460   0.000799
     9  C    0.000201   0.309695   5.186365   0.495089  -0.045518  -0.126865
    10  C    0.000224  -0.043798   0.495089   4.748117   0.468200  -0.157150
    11  N   -0.000015   0.010460  -0.045518   0.468200   6.515963   0.578130
    12  C   -0.000458   0.000799  -0.126865  -0.157150   0.578130   4.574510
    13  N   -0.011627  -0.054091   0.343347  -0.039205  -0.140720   0.486151
    14  C    0.000003   0.000075  -0.000263  -0.000132  -0.000001   0.000004
    15  C    0.000000   0.000001   0.000000   0.000002   0.000000   0.000000
    16  N    0.000000   0.000000   0.000000   0.000000   0.000000   0.000000
    17  H   -0.000123  -0.004295   0.014006   0.012615   0.000544  -0.001136
    18  H    0.003433  -0.013962   0.002922  -0.000260   0.000005   0.000017
    19  H    0.002400  -0.000551  -0.000093   0.000004   0.000000  -0.000002
    20  H   -0.000115   0.407027  -0.040989  -0.004999   0.000483  -0.000488
    21  H    0.012936   0.380322  -0.023236   0.002888  -0.000584   0.000521
    22  H   -0.000001  -0.000741  -0.059240   0.431685  -0.018996   0.006273
    23  H   -0.000037  -0.000247   0.006466   0.003330  -0.018298   0.422730
    24  H    0.036490   0.002312  -0.030399   0.003523   0.004913  -0.022297
    25  H    0.000000  -0.000006   0.000012  -0.000009   0.000000   0.000000
    26  H    0.000000  -0.000052   0.000227   0.000339   0.000003  -0.000017
    27  H    0.000000  -0.000001   0.000002   0.000000   0.000000   0.000000
    28  H   -0.000001  -0.000004   0.000004  -0.000004   0.000000   0.000001
    29  H    0.000000   0.000000   0.000000   0.000000   0.000000   0.000000
    30  H    0.000000   0.000000   0.000000   0.000000   0.000000   0.000000
              13         14         15         16         17         18
     1  O    0.000000  -0.063350   0.000847   0.000209   0.004406   0.016841
     2  C    0.000025   0.215525  -0.041951   0.006529  -0.019527  -0.010048
     3  N    0.000695  -0.028145  -0.002590  -0.000046   0.335702  -0.037362
     4  C    0.005917   0.002663   0.000132   0.000001  -0.032264   0.374142
     5  C    0.002225  -0.000484   0.000031   0.000000   0.000402  -0.041230
     6  O   -0.000048  -0.000102  -0.000064   0.000000  -0.000530   0.005123
     7  O   -0.011627   0.000003   0.000000   0.000000  -0.000123   0.003433
     8  C   -0.054091   0.000075   0.000001   0.000000  -0.004295  -0.013962
     9  C    0.343347  -0.000263   0.000000   0.000000   0.014006   0.002922
    10  C   -0.039205  -0.000132   0.000002   0.000000   0.012615  -0.000260
    11  N   -0.140720  -0.000001   0.000000   0.000000   0.000544   0.000005
    12  C    0.486151   0.000004   0.000000   0.000000  -0.001136   0.000017
    13  N    6.304150   0.000002   0.000000   0.000000   0.000177  -0.000197
    14  C    0.000002   5.081150   0.322931  -0.080666  -0.001194   0.001174
    15  C    0.000000   0.322931   4.623668   0.333539   0.000173  -0.000226
    16  N    0.000000  -0.080666   0.333539   6.315456  -0.000173   0.000000
    17  H    0.000177  -0.001194   0.000173  -0.000173   0.556190   0.005701
    18  H   -0.000197   0.001174  -0.000226   0.000000   0.005701   0.677830
    19  H    0.000027   0.000531   0.000550   0.000014  -0.000115   0.000414
    20  H    0.004007  -0.000035   0.000008   0.000000   0.001137  -0.012255
    21  H   -0.000199   0.000009   0.000000   0.000000   0.000745  -0.003158
    22  H    0.005013   0.000003   0.000001   0.000000   0.000476  -0.000055
    23  H   -0.036297   0.000000   0.000000   0.000000  -0.000005   0.000000
    24  H    0.372611  -0.000002   0.000000   0.000000   0.000035  -0.000006
    25  H    0.000000   0.344558  -0.040904   0.009189  -0.000424   0.000198
    26  H   -0.000023   0.351802  -0.036049   0.013047   0.001251  -0.000179
    27  H    0.000000  -0.053520   0.394786  -0.019907  -0.000181  -0.000064
    28  H    0.000000  -0.052696   0.389510  -0.021578  -0.000001   0.000024
    29  H    0.000000  -0.002621  -0.056195   0.386825  -0.000023   0.000000
    30  H    0.000000  -0.003175  -0.059819   0.389632   0.000001   0.000000
              19         20         21         22         23         24
     1  O    0.090446  -0.000054  -0.000002   0.000000   0.000000   0.000004
     2  C   -0.014019   0.000739   0.000049   0.000024   0.000000  -0.000046
     3  N   -0.006550   0.003576   0.004474   0.000015   0.000006  -0.000480
     4  C    0.011219  -0.035669  -0.057683   0.000031   0.000009   0.002757
     5  C   -0.035798   0.005481   0.002954   0.000004   0.000013  -0.005496
     6  O    0.302502  -0.000204   0.000294   0.000000   0.000000   0.000128
     7  O    0.002400  -0.000115   0.012936  -0.000001  -0.000037   0.036490
     8  C   -0.000551   0.407027   0.380322  -0.000741  -0.000247   0.002312
     9  C   -0.000093  -0.040989  -0.023236  -0.059240   0.006466  -0.030399
    10  C    0.000004  -0.004999   0.002888   0.431685   0.003330   0.003523
    11  N    0.000000   0.000483  -0.000584  -0.018996  -0.018298   0.004913
    12  C   -0.000002  -0.000488   0.000521   0.006273   0.422730  -0.022297
    13  N    0.000027   0.004007  -0.000199   0.005013  -0.036297   0.372611
    14  C    0.000531  -0.000035   0.000009   0.000003   0.000000  -0.000002
    15  C    0.000550   0.000008   0.000000   0.000001   0.000000   0.000000
    16  N    0.000014   0.000000   0.000000   0.000000   0.000000   0.000000
    17  H   -0.000115   0.001137   0.000745   0.000476  -0.000005   0.000035
    18  H    0.000414  -0.012255  -0.003158  -0.000055   0.000000  -0.000006
    19  H    0.432378   0.000076  -0.000139   0.000001   0.000000  -0.000043
    20  H    0.000076   0.684445  -0.035012   0.002246   0.000021  -0.000225
    21  H   -0.000139  -0.035012   0.682647  -0.000058  -0.000019   0.000655
    22  H    0.000001   0.002246  -0.000058   0.620965  -0.000439  -0.000411
    23  H    0.000000   0.000021  -0.000019  -0.000439   0.603893  -0.001850
    24  H   -0.000043  -0.000225   0.000655  -0.000411  -0.001850   0.504739
    25  H   -0.000010  -0.000028  -0.000003  -0.000003   0.000000   0.000000
    26  H   -0.000239  -0.000004   0.000008   0.000028   0.000000  -0.000001
    27  H   -0.000101   0.000000   0.000000   0.000000   0.000000   0.000000
    28  H   -0.000053  -0.000001   0.000000   0.000000   0.000000  -0.000001
    29  H    0.000000   0.000000   0.000000   0.000000   0.000000   0.000000
    30  H    0.000001   0.000000   0.000000   0.000000   0.000000   0.000000
              25         26         27         28         29         30
     1  O    0.003062   0.003391   0.018156  -0.000863   0.000002  -0.000017
     2  C   -0.007994  -0.015327  -0.004003   0.005006   0.000490   0.000952
     3  N    0.000353  -0.004723   0.001365   0.001429   0.000004  -0.000017
     4  C   -0.000392   0.000237  -0.000036  -0.000171   0.000001   0.000000
     5  C    0.000004   0.000031   0.000004   0.000060   0.000000   0.000000
     6  O    0.000004   0.000032   0.000075   0.000146   0.000000   0.000000
     7  O    0.000000   0.000000   0.000000  -0.000001   0.000000   0.000000
     8  C   -0.000006  -0.000052  -0.000001  -0.000004   0.000000   0.000000
     9  C    0.000012   0.000227   0.000002   0.000004   0.000000   0.000000
    10  C   -0.000009   0.000339   0.000000  -0.000004   0.000000   0.000000
    11  N    0.000000   0.000003   0.000000   0.000000   0.000000   0.000000
    12  C    0.000000  -0.000017   0.000000   0.000001   0.000000   0.000000
    13  N    0.000000  -0.000023   0.000000   0.000000   0.000000   0.000000
    14  C    0.344558   0.351802  -0.053520  -0.052696  -0.002621  -0.003175
    15  C   -0.040904  -0.036049   0.394786   0.389510  -0.056195  -0.059819
    16  N    0.009189   0.013047  -0.019907  -0.021578   0.386825   0.389632
    17  H   -0.000424   0.001251  -0.000181  -0.000001  -0.000023   0.000001
    18  H    0.000198  -0.000179  -0.000064   0.000024   0.000000   0.000000
    19  H   -0.000010  -0.000239  -0.000101  -0.000053   0.000000   0.000001
    20  H   -0.000028  -0.000004   0.000000  -0.000001   0.000000   0.000000
    21  H   -0.000003   0.000008   0.000000   0.000000   0.000000   0.000000
    22  H   -0.000003   0.000028   0.000000   0.000000   0.000000   0.000000
    23  H    0.000000   0.000000   0.000000   0.000000   0.000000   0.000000
    24  H    0.000000  -0.000001   0.000000  -0.000001   0.000000   0.000000
    25  H    0.701157  -0.039394  -0.003601   0.009180  -0.000318   0.005407
    26  H   -0.039394   0.716316   0.009297  -0.005452   0.005473  -0.000042
    27  H   -0.003601   0.009297   0.673131  -0.044757   0.007969  -0.009239
    28  H    0.009180  -0.005452  -0.044757   0.703086  -0.009592   0.008791
    29  H   -0.000318   0.005473   0.007969  -0.009592   0.626677  -0.056284
    30  H    0.005407  -0.000042  -0.009239   0.008791  -0.056284   0.622976
 Mulliken charges:
               1
     1  O   -0.478823
     2  C    0.455821
     3  N   -0.287456
     4  C   -0.019654
     5  C    0.570929
     6  O   -0.304247
     7  O   -0.405442
     8  C    0.006376
     9  C    0.068382
    10  C    0.085081
    11  N   -0.354187
    12  C    0.238496
    13  N   -0.241936
    14  C   -0.034045
    15  C    0.171621
    16  N   -0.332070
    17  H    0.126433
    18  H    0.031179
    19  H    0.217151
    20  H    0.020831
    21  H    0.031593
    22  H    0.013180
    23  H    0.020724
    24  H    0.133090
    25  H    0.019964
    26  H    0.000022
    27  H    0.030627
    28  H    0.017939
    29  H    0.097591
    30  H    0.100834
 Sum of Mulliken charges =   0.00000
 Mulliken charges with hydrogens summed into heavy atoms:
               1
     1  O   -0.478823
     2  C    0.455821
     3  N   -0.161023
     4  C    0.011525
     5  C    0.570929
     6  O   -0.087096
     7  O   -0.405442
     8  C    0.058800
     9  C    0.068382
    10  C    0.098261
    11  N   -0.354187
    12  C    0.259220
    13  N   -0.108847
    14  C   -0.014059
    15  C    0.220186
    16  N   -0.133646
 Electronic spatial extent (au):  <R**2>=           4495.0910
 Charge=              0.0000 electrons
 Dipole moment (field-independent basis, Debye):
    X=             -0.8974    Y=             -2.3885    Z=             -2.2032  Tot=              3.3711
 Quadrupole moment (field-independent basis, Debye-Ang):
   XX=            -96.8824   YY=            -93.4458   ZZ=           -113.8068
   XY=             -1.8778   XZ=              7.1970   YZ=              9.2179
 Traceless Quadrupole moment (field-independent basis, Debye-Ang):
   XX=              4.4959   YY=              7.9325   ZZ=            -12.4284
   XY=             -1.8778   XZ=              7.1970   YZ=              9.2179
 Octapole moment (field-independent basis, Debye-Ang**2):
  XXX=            -71.8825  YYY=            -23.1958  ZZZ=            -80.9874  XYY=            -27.3948
  XXY=            -37.2971  XXZ=            -50.5717  XZZ=            -64.8207  YZZ=            -45.2455
  YYZ=             -5.7492  XYZ=              5.2424
 Hexadecapole moment (field-independent basis, Debye-Ang**3):
 XXXX=          -3515.0938 YYYY=          -1089.8841 ZZZZ=          -1591.3304 XXXY=           -422.1822
 XXXZ=            328.8711 YYYX=           -445.7746 YYYZ=            382.0156 ZZZX=            162.4283
 ZZZY=            386.1572 XXYY=           -657.3488 XXZZ=           -852.2354 YYZZ=           -526.1792
 XXYZ=            123.7928 YYXZ=            108.0464 ZZXY=           -249.9281
 N-N= 1.128551277360D+03 E-N=-4.117733572095D+03  KE= 7.931425542281D+02
 Calling FoFJK, ICntrl=      2127 FMM=F ISym2X=0 I1Cent= 0 IOpClX= 0 NMat=1 NMatS=1 NMatT=0.
 -------------------------------------------------------------------
 Center     Atomic                   Forces (Hartrees/Bohr)
 Number     Number              X              Y              Z
 -------------------------------------------------------------------
      1        8           0.000235574    0.005632359   -0.009915208
      2        6           0.001780210   -0.002809959    0.005621736
      3        7          -0.002069730   -0.000999093    0.001267787
      4        6           0.000187554   -0.000027769    0.000080174
      5        6           0.006885936    0.006531966    0.003270113
      6        8           0.001223833   -0.000693095   -0.004522190
      7        8          -0.010114701   -0.009747871   -0.001270457
      8        6           0.000238230   -0.000371017   -0.000572610
      9        6          -0.000683806    0.002826797   -0.002143066
     10        6           0.001149675   -0.000610344    0.002226480
     11        7           0.002031240   -0.001555309    0.007288812
     12        6          -0.000473398   -0.001663568   -0.001553477
     13        7          -0.001110359   -0.000520841   -0.003027550
     14        6           0.000149121   -0.000393797   -0.000424749
     15        6           0.001208923    0.000001768    0.001804391
     16        7           0.001059199   -0.001386457   -0.003740120
     17        1          -0.000481364   -0.002058766    0.002605236
     18        1          -0.000009235    0.002775030   -0.000488136
     19        1           0.001678127    0.002109534    0.000590619
     20        1          -0.000006118    0.001878562    0.001741644
     21        1          -0.002372314    0.000385345   -0.001320536
     22        1           0.000605373    0.001721031    0.002269982
     23        1          -0.000238101   -0.002711943   -0.000610854
     24        1          -0.000590221    0.000278838   -0.003148841
     25        1           0.000575075    0.002364739    0.001096567
     26        1          -0.000335935   -0.001478512    0.002455140
     27        1           0.000237369    0.001754958   -0.002286337
     28        1          -0.000537833   -0.002483315   -0.000880975
     29        1          -0.000730434   -0.001798326    0.002612662
     30        1           0.000508111    0.003049054    0.000973763
 -------------------------------------------------------------------
 Cartesian Forces:  Max     0.010114701 RMS     0.002866594

 GradGradGradGradGradGradGradGradGradGradGradGradGradGradGradGradGradGrad
 Berny optimization.
 FormGI is forming the generalized inverse of G from B-inverse, IUseBI=4.
 Internal  Forces:  Max     0.014099621 RMS     0.002133123
 Search for a local minimum.
 Step number   1 out of a maximum of  160
 All quantities printed in internal units (Hartrees-Bohrs-Radians)
 Mixed Optimization -- RFO/linear search
 Second derivative matrix not updated -- first step.
 ITU=  0
     Eigenvalues ---    0.00090   0.00278   0.00347   0.00414   0.00452
     Eigenvalues ---    0.00546   0.00719   0.00925   0.01070   0.01700
     Eigenvalues ---    0.02111   0.02176   0.02636   0.02835   0.03397
     Eigenvalues ---    0.03810   0.03949   0.04338   0.04394   0.04495
     Eigenvalues ---    0.04720   0.04952   0.05194   0.05384   0.05736
     Eigenvalues ---    0.06183   0.06542   0.07491   0.08180   0.08359
     Eigenvalues ---    0.08621   0.10194   0.10604   0.11018   0.11837
     Eigenvalues ---    0.12191   0.12299   0.13578   0.14456   0.15936
     Eigenvalues ---    0.16597   0.17652   0.18320   0.19150   0.20068
     Eigenvalues ---    0.20922   0.22269   0.22606   0.23204   0.23281
     Eigenvalues ---    0.24662   0.25022   0.26227   0.28241   0.29556
     Eigenvalues ---    0.31097   0.32065   0.33020   0.33137   0.33442
     Eigenvalues ---    0.33639   0.33811   0.33942   0.34416   0.34896
     Eigenvalues ---    0.35955   0.36740   0.37164   0.37295   0.37472
     Eigenvalues ---    0.40557   0.44555   0.44637   0.44868   0.45207
     Eigenvalues ---    0.45826   0.46282   0.46765   0.49142   0.55350
     Eigenvalues ---    0.57432   0.73828   0.81313   0.85969
 RFO step:  Lambda=-1.26480145D-03 EMin= 9.00369252D-04
 Linear search not attempted -- first point.
 Iteration  1 RMS(Cart)=  0.01949534 RMS(Int)=  0.00018707
 Iteration  2 RMS(Cart)=  0.00027641 RMS(Int)=  0.00002224
 Iteration  3 RMS(Cart)=  0.00000004 RMS(Int)=  0.00002224
 Variable       Old X    -DE/DX   Delta X   Delta X   Delta X     New X
                                 (Linear)    (Quad)   (Total)
    R1        2.35022  -0.01140   0.00000  -0.01494  -0.01494   2.33528
    R2        2.55605  -0.00547   0.00000  -0.00774  -0.00774   2.54831
    R3        2.86236  -0.00268   0.00000  -0.00707  -0.00707   2.85529
    R4        2.76744  -0.00200   0.00000  -0.00542  -0.00542   2.76202
    R5        1.91583  -0.00329   0.00000  -0.00764  -0.00764   1.90818
    R6        2.92977  -0.00261   0.00000  -0.00734  -0.00734   2.92243
    R7        2.91556  -0.00188   0.00000  -0.00790  -0.00790   2.90767
    R8        2.07484  -0.00280   0.00000  -0.00759  -0.00759   2.06725
    R9        2.50814  -0.00507   0.00000  -0.00632  -0.00632   2.50182
   R10        2.29977  -0.01410   0.00000  -0.01666  -0.01666   2.28311
   R11        1.88545  -0.00273   0.00000  -0.00875  -0.00875   1.87670
   R12        2.82906  -0.00264   0.00000  -0.00775  -0.00775   2.82132
   R13        2.06783  -0.00256   0.00000  -0.00729  -0.00729   2.06053
   R14        2.06806  -0.00273   0.00000  -0.00754  -0.00754   2.06051
   R15        2.60817  -0.00633   0.00000  -0.01135  -0.01135   2.59682
   R16        2.60839  -0.00377   0.00000  -0.00787  -0.00787   2.60053
   R17        2.60149  -0.00327   0.00000  -0.00627  -0.00627   2.59521
   R18        2.04582  -0.00291   0.00000  -0.00776  -0.00776   2.03806
   R19        2.49086  -0.00649   0.00000  -0.01130  -0.01130   2.47956
   R20        2.57520  -0.00484   0.00000  -0.00768  -0.00768   2.56752
   R21        2.04355  -0.00279   0.00000  -0.00718  -0.00718   2.03636
   R22        1.91744  -0.00317   0.00000  -0.00781  -0.00781   1.90963
   R23        2.92684  -0.00247   0.00000  -0.00735  -0.00735   2.91949
   R24        2.07392  -0.00266   0.00000  -0.00830  -0.00830   2.06561
   R25        2.07210  -0.00288   0.00000  -0.00843  -0.00843   2.06368
   R26        2.75296  -0.00069   0.00000  -0.00401  -0.00401   2.74895
   R27        2.06649  -0.00289   0.00000  -0.00804  -0.00804   2.05845
   R28        2.07166  -0.00269   0.00000  -0.00758  -0.00758   2.06408
   R29        1.92222  -0.00321   0.00000  -0.00830  -0.00830   1.91392
   R30        1.92227  -0.00320   0.00000  -0.00825  -0.00825   1.91402
    A1        2.11843  -0.00063   0.00000   0.00033   0.00032   2.11875
    A2        2.11599   0.00030   0.00000   0.00041   0.00040   2.11639
    A3        2.04875   0.00033   0.00000  -0.00077  -0.00077   2.04798
    A4        2.14873   0.00021   0.00000   0.00508   0.00507   2.15379
    A5        2.10516  -0.00073   0.00000  -0.00787  -0.00789   2.09727
    A6        2.02910   0.00052   0.00000   0.00258   0.00256   2.03166
    A7        1.95225  -0.00041   0.00000   0.00270   0.00269   1.95493
    A8        1.91565   0.00016   0.00000   0.00245   0.00243   1.91809
    A9        1.87015   0.00004   0.00000   0.00009   0.00010   1.87025
   A10        1.96803   0.00075   0.00000   0.00207   0.00205   1.97009
   A11        1.85046  -0.00039   0.00000  -0.00473  -0.00472   1.84574
   A12        1.90309  -0.00020   0.00000  -0.00312  -0.00312   1.89997
   A13        2.00740  -0.00068   0.00000  -0.00201  -0.00201   2.00540
   A14        2.14827   0.00077   0.00000   0.00115   0.00115   2.14941
   A15        2.12710  -0.00009   0.00000   0.00091   0.00091   2.12801
   A16        1.92528  -0.00036   0.00000   0.00402   0.00402   1.92930
   A17        2.00139   0.00112   0.00000   0.00489   0.00489   2.00628
   A18        1.88452  -0.00036   0.00000  -0.00034  -0.00034   1.88418
   A19        1.87780  -0.00015   0.00000  -0.00020  -0.00020   1.87761
   A20        1.88712  -0.00042   0.00000  -0.00151  -0.00151   1.88561
   A21        1.93595  -0.00042   0.00000  -0.00273  -0.00273   1.93321
   A22        1.87244   0.00019   0.00000  -0.00034  -0.00034   1.87210
   A23        2.30495  -0.00079   0.00000  -0.00487  -0.00488   2.30007
   A24        2.15252   0.00102   0.00000   0.00441   0.00440   2.15692
   A25        1.82565  -0.00022   0.00000   0.00053   0.00054   1.82618
   A26        1.93879  -0.00060   0.00000  -0.00241  -0.00241   1.93638
   A27        2.22461   0.00018   0.00000   0.00038   0.00038   2.22499
   A28        2.11921   0.00043   0.00000   0.00214   0.00213   2.12135
   A29        1.82958   0.00107   0.00000   0.00362   0.00362   1.83320
   A30        1.95654  -0.00080   0.00000  -0.00316  -0.00316   1.95338
   A31        2.19218   0.00040   0.00000   0.00214   0.00214   2.19432
   A32        2.13446   0.00040   0.00000   0.00102   0.00102   2.13548
   A33        1.87422   0.00055   0.00000   0.00142   0.00141   1.87563
   A34        2.14419   0.00023   0.00000   0.00672   0.00670   2.15090
   A35        2.26135  -0.00078   0.00000  -0.00720  -0.00723   2.25412
   A36        1.95282   0.00039   0.00000   0.00036   0.00036   1.95318
   A37        1.86603  -0.00004   0.00000   0.00083   0.00083   1.86686
   A38        1.94065  -0.00020   0.00000   0.00059   0.00059   1.94123
   A39        1.90051  -0.00014   0.00000  -0.00085  -0.00085   1.89966
   A40        1.92898  -0.00022   0.00000  -0.00400  -0.00400   1.92498
   A41        1.87152   0.00020   0.00000   0.00335   0.00335   1.87487
   A42        2.01660  -0.00011   0.00000  -0.00041  -0.00041   2.01619
   A43        1.88821   0.00012   0.00000   0.00225   0.00225   1.89046
   A44        1.90446  -0.00011   0.00000  -0.00084  -0.00084   1.90361
   A45        1.90086   0.00004   0.00000  -0.00039  -0.00039   1.90046
   A46        1.88769   0.00011   0.00000   0.00004   0.00004   1.88774
   A47        1.85996  -0.00004   0.00000  -0.00070  -0.00070   1.85926
   A48        1.93454   0.00082   0.00000   0.01042   0.01033   1.94488
   A49        1.93072   0.00069   0.00000   0.00978   0.00969   1.94042
   A50        1.86362  -0.00042   0.00000   0.00636   0.00619   1.86982
    D1        0.12503  -0.00005   0.00000   0.00271   0.00269   0.12772
    D2       -3.03879  -0.00006   0.00000  -0.00873  -0.00871  -3.04751
    D3       -3.02408  -0.00005   0.00000  -0.00268  -0.00270  -3.02678
    D4        0.09528  -0.00007   0.00000  -0.01412  -0.01410   0.08118
    D5        0.90769   0.00014   0.00000   0.03604   0.03604   0.94373
    D6       -1.17163   0.00011   0.00000   0.03634   0.03634  -1.13529
    D7        3.07403  -0.00001   0.00000   0.03152   0.03152   3.10555
    D8       -2.22640   0.00015   0.00000   0.04142   0.04142  -2.18498
    D9        1.97747   0.00012   0.00000   0.04172   0.04172   2.01919
   D10       -0.06005   0.00001   0.00000   0.03690   0.03690  -0.02315
   D11       -1.30698   0.00048   0.00000  -0.00281  -0.00282  -1.30980
   D12        2.77808  -0.00033   0.00000  -0.00934  -0.00936   2.76872
   D13        0.71390  -0.00019   0.00000  -0.00700  -0.00701   0.70688
   D14        1.85595   0.00051   0.00000   0.00829   0.00831   1.86426
   D15       -0.34218  -0.00030   0.00000   0.00177   0.00178  -0.34040
   D16       -2.40636  -0.00016   0.00000   0.00411   0.00412  -2.40224
   D17        1.06555  -0.00063   0.00000  -0.01715  -0.01716   1.04839
   D18       -2.10648  -0.00048   0.00000  -0.01533  -0.01533  -2.12182
   D19       -3.04850  -0.00015   0.00000  -0.01020  -0.01019  -3.05870
   D20        0.06265   0.00000   0.00000  -0.00837  -0.00837   0.05429
   D21       -0.96729  -0.00023   0.00000  -0.01588  -0.01587  -0.98316
   D22        2.14387  -0.00007   0.00000  -0.01405  -0.01405   2.12982
   D23        0.88392  -0.00010   0.00000   0.00754   0.00754   0.89146
   D24       -1.22081  -0.00003   0.00000   0.00654   0.00655  -1.21426
   D25        3.04652   0.00001   0.00000   0.00721   0.00722   3.05373
   D26       -1.30519  -0.00025   0.00000   0.00058   0.00058  -1.30461
   D27        2.87327  -0.00017   0.00000  -0.00041  -0.00041   2.87285
   D28        0.85741  -0.00014   0.00000   0.00026   0.00026   0.85767
   D29        2.92758  -0.00008   0.00000   0.00724   0.00723   2.93481
   D30        0.82285  -0.00001   0.00000   0.00624   0.00624   0.82909
   D31       -1.19301   0.00003   0.00000   0.00691   0.00691  -1.18610
   D32       -0.06726  -0.00021   0.00000   0.00903   0.00903  -0.05823
   D33        3.10436  -0.00038   0.00000   0.00722   0.00722   3.11159
   D34       -1.89216   0.00007   0.00000  -0.00811  -0.00812  -1.90028
   D35        1.23502   0.00019   0.00000   0.00049   0.00049   1.23550
   D36        0.21113   0.00003   0.00000  -0.00646  -0.00647   0.20466
   D37       -2.94488   0.00015   0.00000   0.00214   0.00214  -2.94274
   D38        2.25969  -0.00023   0.00000  -0.00933  -0.00933   2.25037
   D39       -0.89632  -0.00011   0.00000  -0.00073  -0.00072  -0.89704
   D40        3.12994   0.00001   0.00000   0.00553   0.00553   3.13547
   D41       -0.04821   0.00009   0.00000   0.00920   0.00919  -0.03902
   D42        0.00079  -0.00011   0.00000  -0.00193  -0.00192  -0.00112
   D43        3.10583  -0.00003   0.00000   0.00174   0.00174   3.10757
   D44       -3.12895  -0.00001   0.00000  -0.00561  -0.00565  -3.13460
   D45       -0.06839  -0.00001   0.00000   0.00513   0.00516  -0.06323
   D46        0.00159   0.00008   0.00000   0.00094   0.00093   0.00252
   D47        3.06214   0.00007   0.00000   0.01167   0.01174   3.07388
   D48       -0.00290   0.00009   0.00000   0.00215   0.00214  -0.00076
   D49       -3.11049   0.00002   0.00000  -0.00123  -0.00123  -3.11172
   D50        0.00397  -0.00004   0.00000  -0.00154  -0.00153   0.00244
   D51       -3.13803  -0.00006   0.00000  -0.00093  -0.00091  -3.13894
   D52       -0.00361  -0.00002   0.00000   0.00039   0.00039  -0.00322
   D53       -3.05688  -0.00009   0.00000  -0.01223  -0.01218  -3.06906
   D54        3.13837   0.00000   0.00000  -0.00019  -0.00021   3.13816
   D55        0.08510  -0.00007   0.00000  -0.01281  -0.01278   0.07232
   D56       -3.06550  -0.00013   0.00000  -0.00810  -0.00810  -3.07360
   D57       -0.93009  -0.00007   0.00000  -0.00715  -0.00715  -0.93724
   D58        1.08690  -0.00011   0.00000  -0.00721  -0.00721   1.07969
   D59       -1.00666  -0.00003   0.00000  -0.00740  -0.00740  -1.01405
   D60        1.12875   0.00003   0.00000  -0.00645  -0.00645   1.12230
   D61       -3.13744  -0.00001   0.00000  -0.00651  -0.00651   3.13924
   D62        1.04483   0.00001   0.00000  -0.00616  -0.00616   1.03867
   D63       -3.10295   0.00007   0.00000  -0.00521  -0.00521  -3.10816
   D64       -1.08596   0.00003   0.00000  -0.00526  -0.00527  -1.09122
   D65       -1.02166  -0.00014   0.00000  -0.00965  -0.00970  -1.03136
   D66        1.04214   0.00030   0.00000   0.01104   0.01109   1.05323
   D67        3.13287  -0.00024   0.00000  -0.01202  -0.01206   3.12081
   D68       -1.08652   0.00019   0.00000   0.00868   0.00872  -1.07779
   D69        1.11806  -0.00028   0.00000  -0.01100  -0.01105   1.10701
   D70       -3.10132   0.00016   0.00000   0.00969   0.00973  -3.09159
         Item               Value     Threshold  Converged?
 Maximum Force            0.014100     0.000450     NO 
 RMS     Force            0.002133     0.000300     NO 
 Maximum Displacement     0.086934     0.001800     NO 
 RMS     Displacement     0.019506     0.001200     NO 
 Predicted change in Energy=-6.420740D-04
 GradGradGradGradGradGradGradGradGradGradGradGradGradGradGradGradGradGrad

                          Input orientation:                          
 ---------------------------------------------------------------------
 Center     Atomic      Atomic             Coordinates (Angstroms)
 Number     Number       Type             X           Y           Z
 ---------------------------------------------------------------------
      1          8           0       -1.020666   -1.868316    1.780659
      2          6           0       -1.045231   -1.242631    0.715268
      3          7           0        0.065272   -0.664317    0.214458
      4          6           0        1.397402   -0.850951    0.786183
      5          6           0        1.583370   -0.050012    2.095962
      6          8           0        0.741706   -0.367007    3.067480
      7          8           0        2.446529    0.782172    2.244632
      8          6           0        2.469966   -0.529266   -0.269106
      9          6           0        2.305722    0.787723   -0.952876
     10          6           0        1.932283    1.113745   -2.234523
     11          7           0        1.913577    2.475816   -2.408994
     12          6           0        2.270151    2.972599   -1.248076
     13          7           0        2.520715    1.998327   -0.334835
     14          6           0       -2.326126   -1.080884   -0.069673
     15          6           0       -3.459903   -0.484355    0.793751
     16          7           0       -4.755031   -0.376839    0.140157
     17          1           0        0.008598   -0.089728   -0.613953
     18          1           0        1.483050   -1.904582    1.067660
     19          1           0        0.088336   -1.046340    2.754630
     20          1           0        2.438718   -1.310502   -1.029130
     21          1           0        3.442474   -0.592303    0.219949
     22          1           0        1.704403    0.438085   -3.043662
     23          1           0        2.362721    4.020315   -1.013687
     24          1           0        2.754907    2.086523    0.644221
     25          1           0       -2.623878   -2.078335   -0.403211
     26          1           0       -2.168722   -0.471201   -0.961910
     27          1           0       -3.566343   -1.095812    1.688923
     28          1           0       -3.165114    0.511796    1.131130
     29          1           0       -4.704027    0.201947   -0.689403
     30          1           0       -5.094761   -1.285660   -0.150537
 ---------------------------------------------------------------------
                    Distance matrix (angstroms):
                    1          2          3          4          5
     1  O    0.000000
     2  C    1.235776   0.000000
     3  N    2.254298   1.348509   0.000000
     4  C    2.805542   2.474853   1.461598   0.000000
     5  C    3.191653   3.199719   2.494404   1.546484   0.000000
     6  O    2.648734   3.081033   2.947149   2.422489   1.323907
     7  O    4.388826   4.316384   3.447364   2.427927   1.208170
     8  C    4.263695   3.719474   2.456547   1.538671   2.570853
     9  C    5.058815   4.258395   2.913881   2.556291   3.243302
    10  C    5.808122   4.808260   3.555944   3.642909   4.497685
    11  N    6.710772   5.687039   4.489896   4.641441   5.175276
    12  C    6.590688   5.710923   4.497517   4.418080   4.559653
    13  N    5.653991   4.931784   3.663413   3.261426   3.314073
    14  C    2.397499   1.510955   2.443981   3.827533   4.586592
    15  C    2.973082   2.532150   3.576986   4.871125   5.226759
    16  N    4.342953   3.852657   4.829440   6.204399   6.641334
    17  H    3.155460   2.050992   1.009767   2.113910   3.134506
    18  H    2.603512   2.637150   2.067923   1.093939   2.122946
    19  H    1.689422   2.341474   2.568842   2.372049   1.913541
    20  H    4.491481   3.896848   2.756321   2.142635   3.476587
    21  H    4.897310   4.561553   3.377974   2.137719   2.696252
    22  H    6.001630   4.951247   3.810169   4.052601   5.164167
    23  H    7.343817   6.504001   5.360260   5.282102   5.181203
    24  H    5.584549   5.052659   3.871169   3.239093   2.836341
    25  H    2.717295   2.107492   3.100402   4.369419   5.297254
    26  H    3.285064   2.161079   2.532166   3.989646   4.858619
    27  H    2.661889   2.706579   3.943205   5.051105   5.270572
    28  H    3.268865   2.782959   3.557939   4.774161   4.877974
    29  H    4.894318   4.176924   4.930882   6.365012   6.881359
    30  H    4.546126   4.141276   5.210109   6.573781   7.153392
                    6          7          8          9         10
     6  O    0.000000
     7  O    2.214522   0.000000
     8  C    3.761118   2.835365   0.000000
     9  C    4.465737   3.200612   1.492976   0.000000
    10  C    5.632169   4.520754   2.617528   1.374179   0.000000
    11  N    6.280660   4.980834   3.730846   2.263563   1.373328
    12  C    5.666845   4.126511   3.641616   2.205015   2.131331
    13  N    4.509481   2.852751   2.528956   1.376139   2.176592
    14  C    4.445553   5.621851   4.831827   5.072056   5.257092
    15  C    4.778821   6.212494   6.024535   6.157217   6.387490
    16  N    6.227635   7.591745   7.238185   7.239141   7.251284
    17  H    3.763944   3.856841   2.523974   2.482250   2.788397
    18  H    2.629259   3.087426   2.156952   3.465236   4.496278
    19  H    0.993107   3.027314   3.883620   4.693206   5.740884
    20  H    4.533458   3.885468   1.090387   2.103818   2.754346
    21  H    3.931073   2.642050   1.090376   2.138269   3.348986
    22  H    6.238671   5.351187   3.036448   2.203456   1.078494
    23  H    6.207431   4.594479   4.611354   3.233666   3.181803
    24  H    3.993115   2.087521   2.785266   2.106981   3.148043
    25  H    5.128499   6.395514   5.325866   5.728645   5.856764
    26  H    4.971662   5.757898   4.690498   4.648184   4.577099
    27  H    4.581579   6.323786   6.371176   6.708797   7.107071
    28  H    4.448032   5.727436   5.899033   5.860824   6.137868
    29  H    6.640323   7.750850   7.223399   7.039114   6.874546
    30  H    6.727846   8.178253   7.603373   7.727213   7.712295
                   11         12         13         14         15
    11  N    0.000000
    12  C    1.312124   0.000000
    13  N    2.213312   1.358675   0.000000
    14  C    6.008129   6.240603   5.748366   0.000000
    15  C    6.920584   6.996650   6.573067   1.544927   0.000000
    16  N    7.688052   7.905638   7.668345   2.537576   1.454683
    17  H    3.665124   3.859350   3.278508   2.594141   3.764022
    18  H    5.608954   5.456102   4.275095   4.059781   5.150228
    19  H    6.511536   6.077322   4.973053   3.715845   4.092782
    20  H    4.063989   4.292005   3.381881   4.865903   6.228896
    21  H    4.319979   4.029635   2.805136   5.796493   6.927027
    22  H    2.144505   3.157208   3.230861   5.234219   6.499746
    23  H    2.129340   1.077597   2.138747   6.992759   7.580358
    24  H    3.190848   2.144973   1.010532   6.029843   6.727231
    25  H    6.734386   7.083591   6.564350   1.093075   2.161580
    26  H    5.238714   5.625411   5.336910   1.092051   2.179373
    27  H    7.718742   7.696921   7.121908   2.151981   1.089285
    28  H    6.494841   6.423261   6.057019   2.163899   1.092264
    29  H    7.205565   7.525144   7.453160   2.772027   2.053924
    30  H    8.268382   8.577838   8.295421   2.777376   2.050983
                   16         17         18         19         20
    16  N    0.000000
    17  H    4.831488   0.000000
    18  H    6.489062   2.880195   0.000000
    19  H    5.544538   3.502687   2.351100   0.000000
    20  H    7.347720   2.751026   2.379656   4.462165   0.000000
    21  H    8.200725   3.569240   2.506000   4.228594   1.755999
    22  H    7.247420   3.009623   4.737094   6.199627   2.766788
    23  H    8.445633   4.753329   6.341154   6.711485   5.331381
    24  H    7.919685   3.723075   4.210206   4.623771   3.799981
    25  H    2.780675   3.305889   4.365835   4.288715   5.158607
    26  H    2.812908   2.237704   4.416919   4.386087   4.683743
    27  H    2.080524   4.369857   5.151354   3.807211   6.595049
    28  H    2.073532   3.671457   5.239116   3.955815   6.276179
    29  H    1.012800   4.722246   6.767914   6.032108   7.309016
    30  H    1.012855   5.262061   6.718234   5.946576   7.584580
                   21         22         23         24         25
    21  H    0.000000
[...]
 98,0.00009501,0.00017610,-0.00006984,-0.00001426,0.00024219,0.00021067
 ,-0.00027214,0.00002659,0.00011012,0.00033421,-0.00053544,-0.00070820,
 -0.00054809,0.00017727,0.00021871,0.00020820,0.00045931,-0.00079290,0.
 00007829,-0.00048483,0.00078581,-0.00112390,-0.00009713,-0.00044850,-0
 .00062465,0.01022358,0.06320839,-0.00045912,-0.00017330,-0.00118261,-0
 .00016885,-0.00033200,0.00077702,0.00029542,0.00006189,-0.00096616,-0.
 00016104,-0.00023176,0.00091029,0.00780622,0.00694784,0.00156589,-0.00
 421451,-0.00269268,0.00121625,-0.00370262,-0.00624740,-0.00554433,0.00
 011840,-0.00054693,0.00074352,-0.00020401,-0.00056481,-0.00616530,0.00
 034941,-0.00093701,0.00163370,-0.00069940,0.00269919,0.00279644,-0.000
 19158,-0.00251468,-0.00827030,-0.09854639,-0.04153192,-0.41421026,-0.0
 0010714,0.00006429,0.00010209,0.00007522,-0.00001268,-0.00003876,-0.00
 009934,0.00002223,-0.00002238,-0.00058352,-0.00043286,0.00037085,0.000
 10482,-0.00008305,-0.00048711,0.00083867,0.00115299,0.00091439,0.00005
 519,0.00036330,-0.00030710,-0.00018594,0.00006014,0.00021626,-0.000404
 30,0.00013496,0.00044329,0.00028515,0.00006067,0.00021737,0.09980829,0
 .04471473,0.42536879,0.00142605,0.00278655,0.00230323,-0.01213270,-0.0
 3036257,-0.00756705,-0.00343378,0.00219154,-0.00195492,-0.00062235,0.0
 0061699,0.00101590,0.00007410,0.00016852,0.00062248,0.00035699,0.00026
 305,-0.00013079,-0.00002593,-0.00008788,-0.00014169,-0.00032796,0.0001
 1498,-0.00038044,-0.00001430,0.00001676,0.00001529,-0.00003228,-0.0000
 0987,-0.00006974,0.00000225,-0.00005550,0.00002495,0.00001392,-0.00001
 236,0.00002350,0.00000697,0.00004866,0.00004380,-0.06769609,-0.0768063
 9,-0.02354370,0.00510724,0.02441720,0.00769965,0.00337386,-0.00052681,
 -0.00017506,0.00033114,-0.00029764,-0.00070980,-0.00029039,-0.00003887
 ,-0.00007672,-0.00033868,-0.00029934,-0.00014057,0.00000107,0.00000595
 ,0.00002373,-0.00011304,-0.00004825,0.00014306,-0.00000267,-0.00000075
 ,0.00000558,-0.00000005,-0.00000209,0.00000212,0.00001335,0.00002540,-
 0.00000562,0.07906559,0.00066194,0.00043394,0.00012067,-0.00014122,0.0
 0288862,0.00201213,0.00008095,-0.00005746,-0.00050981,0.00029980,-0.00
 009078,-0.00023868,-0.00014853,-0.00003792,0.00014613,0.00016345,0.000
 09712,-0.00002127,0.00003320,0.00002491,-0.00005438,0.00004112,-0.0000
 2887,0.00000945,-0.00000463,-0.00000285,0.00002449,-0.00002894,-0.0000
 2060,-0.00002017,-0.00002093,0.00001875,0.00001299,0.00000623,0.000015
 86,-0.00000512,-0.00001322,0.00000161,0.00000372,-0.07600566,-0.262820
 59,-0.05512595,-0.00356629,-0.01553732,-0.00598945,-0.00094282,0.00235
 228,0.00138203,0.00041649,0.00003599,-0.00011077,-0.00008806,-0.000007
 45,-0.00001675,-0.00020464,-0.00010015,-0.00015507,-0.00000189,0.00000
 310,0.00000667,0.00000872,0.00000661,-0.00000917,0.00000846,-0.0000033
 7,-0.00000296,0.00000610,0.00000245,-0.00000216,0.00001654,-0.00000518
 ,0.00000728,0.08060158,0.28598773,0.00008577,0.00285460,0.00050937,-0.
 00418008,-0.01749553,-0.00396583,-0.00104345,0.00077610,-0.00089332,-0
 .00017036,-0.00017913,0.00048796,0.00011686,0.00010630,0.00011419,0.00
 003300,0.00010637,-0.00000530,-0.00006963,-0.00008767,-0.00003696,-0.0
 0015644,0.00011233,-0.00015185,0.00000013,0.00000711,-0.00004106,0.000
 02397,0.00002507,-0.00000262,0.00002564,-0.00004946,0.00000663,-0.0000
 0617,-0.00001670,0.00000044,0.00001016,0.00001657,0.00003619,-0.023023
 22,-0.05524169,-0.06184527,-0.00375145,-0.02044339,-0.00700747,-0.0015
 8491,0.00200312,0.00043592,-0.00041987,0.00010700,0.00007470,0.0000105
 7,-0.00002662,0.00003527,-0.00003925,-0.00015788,-0.00001817,0.0000116
 9,-0.00000229,0.00000239,-0.00004277,-0.00002694,0.00005605,-0.0000124
 9,0.00000788,0.00000439,-0.00000200,-0.00000178,0.00000114,0.00000049,
 0.00001895,-0.00001957,0.02203319,0.06391433,0.06494510,-0.00648010,0.
 00074507,-0.00648487,0.00897677,0.01650163,-0.02217061,-0.00026064,-0.
 00036024,0.00078052,0.00046668,0.00007193,0.00003951,0.00045373,0.0001
 3077,-0.00045537,-0.00068968,-0.00062635,0.00006388,-0.00021957,-0.000
 14138,0.00012140,0.00004997,0.00000580,0.00007027,-0.00002716,-0.00000
 044,-0.00009502,0.00009389,0.00000531,0.00001746,0.00001582,-0.0000382
 2,0.00000160,-0.00000537,0.00001227,0.00004092,0.00000711,0.00003515,0
 .00004001,-0.05605049,-0.02381664,0.03268234,-0.00465154,-0.01230972,0
 .02138570,0.00254921,-0.00082169,-0.00084411,-0.00147876,-0.00039434,-
 0.00072737,0.00011651,0.00001238,-0.00002144,0.00072473,0.00093130,0.0
 0053130,-0.00000979,0.00000793,0.00001015,0.00002792,-0.00000335,-0.00
 001850,-0.00004137,0.00000535,0.00003315,-0.00000029,0.00000068,0.0000
 0391,0.00000256,0.00002789,-0.00004634,-0.00173677,-0.00494106,0.00925
 443,0.06137193,0.00162920,0.00246058,0.00128592,-0.00323615,-0.0048606
 9,0.00091051,-0.00015713,0.00014419,-0.00101628,0.00026748,-0.00000355
 ,-0.00020386,-0.00037333,-0.00011907,0.00026829,0.00049085,0.00033114,
 -0.00003259,0.00018077,0.00012091,-0.00007849,0.00000519,0.00001547,0.
 00008313,0.00005234,0.00002054,0.00001517,-0.00001109,0.00003293,0.000
 06608,-0.00001655,0.00000723,-0.00003803,-0.00000338,-0.00002287,-0.00
 000943,-0.00000438,-0.00004091,-0.00007215,-0.01962521,-0.11874273,0.1
 1293598,0.00335562,0.00803637,-0.01356043,-0.00182478,0.00047723,-0.00
 046598,0.00009685,0.00096355,0.00004360,-0.00002381,0.00003227,-0.0000
 1551,-0.00048046,-0.00042382,-0.00034555,0.00001407,-0.00001803,-0.000
 01423,0.00000541,0.00000351,-0.00002022,0.00003433,-0.00000831,-0.0000
 3221,-0.00000420,-0.00000316,-0.00000279,-0.00001464,-0.00002651,0.000
 03813,-0.00355168,-0.01436698,0.02478514,0.02149149,0.12547050,-0.0049
 0176,0.00053115,-0.00149032,0.00860871,0.00896248,-0.01438298,0.000893
 44,-0.00075643,0.00122585,-0.00036239,-0.00022982,0.00028833,0.0005467
 3,0.00020105,-0.00050184,-0.00060371,-0.00046215,0.00015570,-0.0002436
 0,-0.00017564,0.00014196,-0.00003412,0.00003226,-0.00004433,-0.0000067
 9,-0.00001298,-0.00008333,0.00005802,0.00001638,0.00001033,0.00006064,
 -0.00004483,0.00001411,-0.00002631,-0.00001028,-0.00001398,0.00002506,
 0.00000709,0.00006549,0.02827023,0.11250237,-0.22702732,0.00240069,0.0
 0978580,-0.01685042,-0.00091427,-0.00072275,0.00225052,-0.00133073,-0.
 00033954,0.00061759,0.00017888,-0.00006614,0.00008448,0.00053451,0.000
 65640,0.00040291,-0.00001065,0.00000582,0.00000818,0.00000817,-0.00000
 811,0.00000931,-0.00002273,0.00001061,0.00002117,-0.00000710,-0.000001
 74,0.00000376,-0.00001707,0.00003340,-0.00006344,-0.00088728,-0.003774
 67,0.00738582,-0.03495020,-0.12363914,0.24783477,0.00060933,0.00083436
 ,-0.00217102,0.00048324,-0.00240970,0.00402335,0.00008425,0.00050969,-
 0.00082103,0.00000023,-0.00002854,-0.00006818,-0.00034368,-0.00014576,
 0.00027439,0.00035637,0.00017204,-0.00013321,0.00014842,0.00011471,-0.
 00007060,-0.00001185,0.00000717,0.00000145,0.00002101,0.00000476,0.000
 03691,-0.00002418,0.00000149,0.00000822,-0.00002295,0.00002527,-0.0000
 1491,0.00000519,-0.00000213,-0.00000135,-0.00000958,-0.00001750,-0.000
 04224,-0.00545695,-0.01089959,0.02034284,-0.05141840,-0.02248035,0.030
 59193,-0.00246523,0.02188025,-0.03061211,0.00034481,0.00014646,0.00009
 360,-0.00006394,0.00001359,0.00000096,-0.00037518,-0.00019991,-0.00017
 589,0.00000713,-0.00000323,-0.00000779,-0.00000610,0.00000554,-0.00000
 056,0.00001700,-0.00000475,-0.00001178,0.00000185,0.00000063,-0.000002
 23,-0.00000063,-0.00002397,0.00003477,0.00111600,0.00012739,-0.0007489
 9,-0.00332390,0.00262253,0.00225905,0.06494563,0.00014441,-0.00072620,
 -0.00040349,-0.00037980,0.00062724,0.00007916,0.00009834,0.00017042,0.
 00024802,-0.00000061,0.00003702,0.00004571,-0.00008107,-0.00009014,0.0
 0010574,0.00007200,-0.00007321,-0.00013190,0.00005073,0.00006078,-0.00
 002496,-0.00001188,-0.00001753,-0.00000092,0.00000839,0.00000171,-0.00
 000952,0.00001074,-0.00001007,-0.00000071,-0.00001383,0.00000782,-0.00
 000801,0.00000317,0.00000545,0.00001369,-0.00000830,0.00000450,-0.0000
 0695,0.00416780,0.00712901,-0.01410536,-0.01963680,-0.12528390,0.11733
 948,0.00162243,-0.00023206,0.00177564,-0.00014147,-0.00011278,-0.00008
 980,0.00000032,-0.00001138,0.00000903,-0.00001293,0.00017153,0.0001502
 9,-0.00000139,0.00000428,-0.00000371,-0.00000128,0.00000512,0.00000103
 ,-0.00000555,0.00000124,0.00000637,0.00000515,0.00000213,0.00000047,0.
 00000386,-0.00001031,0.00001619,-0.00087467,0.00114198,0.00006965,0.00
 282170,-0.00029639,-0.00214034,0.01532907,0.13060245,-0.00158244,-0.00
 051802,0.00157466,-0.00079481,0.00120851,-0.00261050,0.00014953,0.0000
 1566,0.00039480,-0.00002813,0.00008398,0.00008978,0.00013583,-0.000001
 66,-0.00013398,-0.00011408,-0.00006574,0.00004267,-0.00003344,0.000002
 06,0.00004859,0.00000640,-0.00001552,0.00000638,-0.00000776,-0.0000083
 1,-0.00002326,0.00001757,-0.00000356,-0.00000398,0.00001510,-0.0000053
 4,0.00000815,-0.00000481,0.00000239,-0.00000254,0.00000498,0.00001045,
 0.00002576,0.00760994,0.00880281,-0.01750220,0.02714049,0.11408112,-0.
 23185250,-0.00433964,0.00972034,-0.01261696,-0.00011733,-0.00018390,0.
 00001318,0.00003349,-0.00001131,0.00000332,0.00008917,0.00009847,0.000
 09341,-0.00000633,0.00000509,0.00000133,0.00000693,0.00000055,-0.00000
 054,-0.00001424,0.00000425,0.00000997,0.00000024,0.00000138,0.00000083
 ,-0.00000097,0.00000361,-0.00001398,-0.00072790,0.00011118,0.00060635,
 0.00220103,-0.00188174,-0.00097058,-0.02701744,-0.12625400,0.25489012,
 -0.00016071,-0.00012958,-0.00055245,0.00229995,0.00083313,0.00092700,-
 0.00004355,-0.00056144,-0.00015683,-0.00010245,0.00001483,0.00005068,-
 0.00006010,-0.00002028,0.00000709,0.00004695,-0.00005982,-0.00001105,0
 .00003178,0.00004137,0.00001500,-0.00001104,0.00000487,0.00001033,0.00
 000712,0.00001227,-0.00000060,0.00000323,0.00000394,0.00001058,-0.0000
 0123,0.00000410,-0.00000978,0.00000008,-0.00001511,0.00000618,0.000007
 46,-0.00000597,-0.00001755,0.00464396,0.02285403,0.00662596,-0.0669897
 2,-0.06466157,-0.01728248,-0.01940415,-0.03063273,-0.00908494,-0.00003
 652,0.00010795,0.00012070,0.00003538,0.00000980,0.00000982,0.00002151,
 0.00007275,0.00000242,0.00000210,-0.00000002,-0.00000630,0.00000028,-0
 .00000014,-0.00000107,0.00000021,0.00000006,-0.00000244,0.00000018,-0.
 00000039,-0.00000002,-0.00001210,-0.00000741,0.00000637,-0.00339768,0.
 00246013,0.00293071,0.00085192,-0.00079087,-0.00048528,-0.00094200,-0.
 00379288,-0.00047549,0.08647231,0.00079469,0.00009714,0.00099432,-0.00
 163666,-0.00051068,-0.00152103,0.00089093,0.00053498,0.00027309,0.0000
 4812,-0.00003299,-0.00004856,0.00025077,-0.00006188,-0.00029084,-0.000
 19328,0.00020293,0.00020258,-0.00006778,0.00003359,0.00008052,0.000027
 99,-0.00001112,0.00002783,-0.00000431,-0.00003331,-0.00001591,0.000002
 45,-0.00001628,-0.00000844,-0.00000613,0.00001665,0.00002570,-0.000004
 08,0.00003559,-0.00002288,-0.00001562,0.00000753,0.00004376,-0.0011811
 9,-0.01343346,-0.00320240,-0.07032509,-0.26780125,-0.05628526,-0.00040
 674,0.00566461,0.00038059,0.00002856,-0.00017943,-0.00009901,0.0000072
 2,0.00000037,-0.00000145,-0.00000818,-0.00032370,-0.00014103,-0.000010
 31,0.00000413,0.00001460,0.00001275,0.00000375,-0.00001460,-0.00000394
 ,0.00000303,0.00000853,0.00000873,0.00000566,-0.00000311,0.00003076,0.
 00000095,-0.00002322,0.00216558,0.00042347,-0.00140482,0.00013254,0.00
 096203,-0.00027110,-0.00492743,-0.01529849,-0.00399904,0.07341565,0.28
 705997,-0.00001247,-0.00016438,0.00034643,-0.00158776,-0.00030090,-0.0
 0048245,0.00034883,0.00051988,0.00007153,0.00005164,0.00000442,-0.0000
 5305,-0.00016574,-0.00011887,0.00014304,0.00018290,0.00001109,-0.00010
 206,0.00008062,0.00008822,-0.00003514,0.00001281,-0.00003289,0.0000117
 0,0.00000633,-0.00000570,0.00002581,-0.00001260,-0.00002110,-0.0000090
 3,-0.00003629,0.00002870,-0.00000944,0.00000849,0.00001641,0.00001631,
 -0.00001774,-0.00000225,-0.00002225,-0.00114691,-0.01970292,-0.0053069
 4,-0.01699494,-0.05285283,-0.06552701,-0.01068714,-0.01484914,-0.00334
 835,0.00011635,-0.00015386,-0.00006062,-0.00001096,0.00000631,-0.00001
 980,-0.00008657,0.00001376,0.00001326,-0.00000134,0.00000400,-0.000000
 18,0.00000070,0.00001104,-0.00000733,0.00000714,-0.00000202,0.00000148
 ,0.00000951,0.00000387,-0.00000104,0.00001134,-0.00001765,0.00002788,0
 .00271311,-0.00180030,-0.00123124,-0.00102203,0.00034607,0.00046419,0.
 00844761,0.02452430,0.00856705,0.02196261,0.06508656,0.06822155,0.0000
 5597,-0.00018742,0.00109360,-0.00093411,-0.00010398,-0.00123111,0.0003
 9966,0.00012063,0.00013752,-0.00013832,0.00006253,0.00000494,-0.000041
 32,-0.00015535,-0.00013360,0.00007281,0.00009724,0.00009317,0.00008612
 ,0.00012737,0.00007318,-0.00000451,-0.00001353,0.00004434,0.00001892,-
 0.00000016,-0.00004257,0.00004880,-0.00000327,0.00002039,0.00002458,0.
 00002501,-0.00001383,-0.00001162,-0.00001115,0.00000113,0.00001143,0.0
 0000696,-0.00000372,0.00251384,0.00054913,-0.00169756,-0.00257382,0.02
 305817,-0.03257508,-0.04279150,-0.04635144,0.02317677,-0.00015168,-0.0
 0006293,0.00004153,0.00001919,-0.00001712,0.00001731,-0.00010542,-0.00
 010534,-0.00013580,-0.00001320,0.00000458,0.00000085,0.00001796,0.0000
 1062,-0.00000871,-0.00002280,0.00000379,0.00001761,-0.00000243,0.00000
 154,0.00000312,-0.00002056,-0.00002041,-0.00000137,-0.00015074,0.00005
 732,0.00017941,-0.00058423,-0.00020556,0.00086595,-0.00504682,0.000153
 06,-0.00247480,0.00111085,-0.00053149,0.00066653,0.05037726,-0.0004533
 2,0.00012960,-0.00070614,0.00099020,0.00046993,0.00075179,-0.00059243,
 -0.00035869,-0.00008824,0.00013094,-0.00008816,0.00000548,0.00011839,0
 .00024765,0.00008907,-0.00015535,-0.00016588,-0.00006653,-0.00012924,-
 0.00020286,-0.00006112,0.00000016,0.00003442,-0.00005303,-0.00002771,0
 .00000253,0.00002466,-0.00003226,0.00003169,-0.00001267,0.00002228,-0.
 00005554,0.00001578,0.00000410,-0.00000566,-0.00001815,0.00000584,-0.0
 0000330,0.00002042,-0.00219090,0.00004650,-0.00009742,0.00340683,-0.00
 120026,0.00238182,-0.02838522,-0.14453187,0.15561714,0.00007047,0.0001
 4419,-0.00002865,-0.00000670,0.00001353,-0.00000852,0.00018955,0.00017
 261,0.00017666,0.00001341,-0.00000884,-0.00000217,-0.00001798,-0.00001
 808,0.00001643,0.00001373,-0.00000246,-0.00001715,-0.00001119,-0.00000
 647,-0.00000084,0.00000338,0.00003596,-0.00001675,0.00016632,-0.000316
 03,0.00005200,0.00066907,-0.00005209,-0.00009448,-0.00037839,0.0017858
 8,-0.00099718,0.00013105,0.00042292,-0.00058699,0.02874045,0.16380821,
 -0.00016421,-0.00004483,0.00027840,0.00057192,0.00007134,-0.00031633,-
 0.00018313,-0.00017570,0.00006970,0.00006526,-0.00000560,0.00000523,0.
 00008114,0.00011208,0.00000030,-0.00008179,-0.00005947,0.00000866,-0.0
 0006112,-0.00008982,-0.00001566,0.00000538,0.00001390,-0.00001638,-0.0
 0001119,0.00000039,0.00000983,-0.00001248,0.00001343,-0.00000160,0.000
 00877,-0.00002348,0.00000290,0.00000217,-0.00000180,-0.00000438,0.0000
 0328,-0.00000262,0.00000275,0.00038093,-0.00060965,0.00237853,0.007116
 77,0.00658229,-0.01692773,-0.00068116,0.19440669,-0.30966882,0.0000225
 0,0.00006288,0.00000784,-0.00000018,0.00000244,-0.00000193,0.00009261,
 0.00004878,0.00004222,0.00000492,-0.00000394,-0.00000068,-0.00000462,-
 0.00000713,0.00000482,0.00000658,-0.00000248,-0.00000695,-0.00000636,-
 0.00000348,0.00000019,-0.00000091,0.00001701,-0.00000867,-0.00002963,0
 .00001043,0.00000807,-0.00055277,0.00052439,0.00045029,-0.00451041,-0.
 00086046,-0.00045390,0.00016480,-0.00031043,-0.00010589,-0.00321210,-0
 .18917019,0.31811191,0.00035559,-0.00003382,0.00066199,-0.00049259,0.0
 0038073,-0.00109096,0.00072585,0.00016904,0.00028963,-0.00007877,0.000
 05260,-0.00009162,-0.00007537,-0.00020508,-0.00016189,0.00009941,0.000
 13596,0.00011240,0.00010520,0.00016030,0.00008263,0.00002392,-0.000025
 34,0.00007216,0.00002496,-0.00001032,-0.00003273,0.00004158,-0.0000113
 4,0.00002006,0.00001239,0.00003936,-0.00001218,-0.00000947,0.00000433,
 -0.00000266,0.00000555,0.00000146,-0.00000846,0.00181302,-0.00196731,0
 .00053113,-0.01887701,-0.03318511,-0.01012120,-0.07419557,-0.10364251,
 -0.04292288,-0.00008132,-0.00011204,0.00004413,0.00001109,-0.00000925,
 0.00000850,-0.00015828,-0.00016172,-0.00018593,-0.00001618,0.00000561,
 0.00000253,0.00002779,0.00001733,-0.00002076,-0.00001783,0.00000188,0.
 00001554,-0.00000108,0.00000343,0.00000153,-0.00001515,-0.00002611,0.0
 0000318,-0.00057314,0.00111847,0.00053507,-0.00014909,0.00007710,0.000
 09392,0.00137093,0.00047133,0.00032890,-0.00437403,0.00150549,-0.00284
 402,-0.00216431,-0.00229548,0.00098503,0.09666191,-0.00007787,-0.00007
 514,0.00005105,0.00042136,-0.00000373,-0.00010237,0.00003503,-0.000025
 60,0.00007072,0.00001592,0.00003101,0.00000967,0.00003348,0.00000747,-
 0.00001720,-0.00002515,-0.00000322,0.00001033,-0.00001503,-0.00000545,
 0.00000279,0.00000422,-0.00000023,-0.00000017,-0.00000397,-0.00000158,
 0.00000073,-0.00000419,-0.00000276,-0.00000482,-0.00000359,-0.00000151
 ,0.00000608,0.00000003,0.00000241,-0.00000161,-0.00000192,0.00000072,0
 .00000833,0.00096851,0.00163742,0.00133747,0.00674183,0.00303616,-0.00
 117307,-0.14007688,-0.35724231,-0.05830660,0.00000317,-0.00001184,-0.0
 0001290,-0.00000090,-0.00000165,0.00000004,0.00001615,0.00000429,0.000
 00604,0.00000064,0.00000059,-0.00000020,0.00000018,-0.00000091,-0.0000
 0079,0.00000017,0.00000122,-0.00000048,0.00000258,0.00000086,-0.000000
 72,0.00000517,0.00000179,-0.00000280,-0.00061445,-0.00003884,0.0001713
 6,-0.00015486,-0.00009334,0.00000535,-0.00027367,0.00040390,-0.0002065
 2,0.00071228,0.00222330,-0.00005284,-0.00524925,-0.02032943,-0.0104949
 5,0.13754100,0.37048640,-0.00009658,0.00020904,-0.00035130,0.00050402,
 -0.00029407,0.00052554,-0.00016955,-0.00001056,-0.00013328,0.00007346,
 -0.00004018,0.00001626,0.00007865,0.00008786,0.00005824,-0.00008397,-0
 .00001482,-0.00004954,-0.00006916,-0.00007444,-0.00004054,-0.00000246,
 0.00001309,-0.00002835,-0.00001457,-0.00000363,0.00001704,-0.00002331,
 0.00000892,-0.00000817,-0.00000714,-0.00001972,0.00000998,0.00000394,0
 .00000622,-0.00000739,-0.00001024,-0.00000193,0.00001155,0.00003519,0.
 00133207,0.00057270,-0.00161773,-0.01938753,-0.00522467,-0.06307006,-0
 .08381691,-0.06532397,0.00005955,0.00004545,-0.00004744,-0.00001103,0.
 00000632,-0.00000207,0.00008006,0.00000137,0.00008840,0.00000857,-0.00
 000367,0.00000118,-0.00001269,-0.00000937,0.00000658,0.00001119,-0.000
 00090,-0.00000803,0.00000251,-0.00000074,-0.00000219,0.00001836,0.0000
 1326,-0.00000405,-0.00012867,0.00007517,0.00050869,0.00011105,0.000126
 27,-0.00000623,0.00029467,-0.00034464,-0.00019141,-0.00476399,0.000525
 04,-0.00158840,0.01509294,0.03287498,0.00614728,0.05370699,0.06869804,
 0.06505359\\-0.00000352,0.00000194,-0.00000720,0.00000838,0.00000208,-
 0.00000244,0.00000003,-0.00000358,0.00000245,-0.00000130,0.00000104,-0
 .00000094,0.00000675,0.00000434,0.00000268,-0.00000089,-0.00000139,-0.
 00000246,-0.00000730,-0.00000744,-0.00000027,0.00000072,0.00000057,-0.
 00000058,-0.00000129,0.00000202,-0.00000098,0.00000051,-0.00000005,0.0
 0000203,0.00000120,0.00000121,0.00000434,-0.00000068,-0.00000063,-0.00
 000007,-0.00000123,0.00000079,-0.00000193,0.00000364,0.00000521,-0.000
 00017,-0.00000388,-0.00000517,0.00000368,0.00000157,0.00000021,-0.0000
 0401,0.00000027,-0.00000157,0.00000179,0.00000013,0.00000151,-0.000000
 28,0.00000101,0.00000061,0.00000017,0.00000004,0.00000164,0.00000056,-
 0.00000092,0.00000029,-0.00000100,0.00000025,0.00000217,0.00000141,-0.
 00000057,-0.00000077,0.00000101,0.00000017,0.00000042,0.00000013,-0.00
 000008,-0.00000115,0.00000276,-0.00000297,-0.00000244,0.00000158,0.000
 00076,-0.00000135,-0.00000300,-0.00000029,-0.00000056,-0.00000182,-0.0
 0000061,-0.00000021,0.00000142,0.00000010,0.00000024,0.00000114\\\@


 IT IS A QUALITY OF REVOLUTIONS NOT TO GO BY OLD LINES OR OLD LAWS,
 BUT TO BREAK UP BOTH, AND MAKE NEW ONES.
                                              -- A. LINCOLN (1848)
 Job cpu time:       0 days 14 hours 17 minutes 28.9 seconds.
 File lengths (MBytes):  RWF=    973 Int=      0 D2E=      0 Chk=     36 Scr=      1
 Normal termination of Gaussian 09 at Thu Jul 29 06:06:28 2021.
