 Entering Gaussian System, Link 0=g09
 Input=opt_freq-conf-150.com
 Output=opt_freq-conf-150.log
 Initial command:
 /aerosol/software/g09/l1.exe "/scratch/nicole/10710/Gau-104133.inp" -scrdir="/scratch/nicole/10710/"
 Entering Link 1 = /aerosol/software/g09/l1.exe PID=    104136.
  
 Copyright (c) 1988,1990,1992,1993,1995,1998,2003,2009,2013,
            Gaussian, Inc.  All Rights Reserved.
  
 This is part of the Gaussian(R) 09 program.  It is based on
 the Gaussian(R) 03 system (copyright 2003, Gaussian, Inc.),
 the Gaussian(R) 98 system (copyright 1998, Gaussian, Inc.),
 the Gaussian(R) 94 system (copyright 1995, Gaussian, Inc.),
 the Gaussian 92(TM) system (copyright 1992, Gaussian, Inc.),
 the Gaussian 90(TM) system (copyright 1990, Gaussian, Inc.),
 the Gaussian 88(TM) system (copyright 1988, Gaussian, Inc.),
 the Gaussian 86(TM) system (copyright 1986, Carnegie Mellon
 University), and the Gaussian 82(TM) system (copyright 1983,
 Carnegie Mellon University). Gaussian is a federally registered
 trademark of Gaussian, Inc.
  
 This software contains proprietary and confidential information,
 including trade secrets, belonging to Gaussian, Inc.
  
 This software is provided under written license and may be
 used, copied, transmitted, or stored only in accord with that
 written license.
  
 The following legend is applicable only to US Government
 contracts under FAR:
  
                    RESTRICTED RIGHTS LEGEND
  
 Use, reproduction and disclosure by the US Government is
 subject to restrictions as set forth in subparagraphs (a)
 and (c) of the Commercial Computer Software - Restricted
 Rights clause in FAR 52.227-19.
  
 Gaussian, Inc.
 340 Quinnipiac St., Bldg. 40, Wallingford CT 06492
  
  
 ---------------------------------------------------------------
 Warning -- This program may not be used in any manner that
 competes with the business of Gaussian, Inc. or will provide
 assistance to any competitor of Gaussian, Inc.  The licensee
 of this program is prohibited from giving any competitor of
 Gaussian, Inc. access to this program.  By using this program,
 the user acknowledges that Gaussian, Inc. is engaged in the
 business of creating and licensing software in the field of
 computational chemistry and represents and warrants to the
 licensee that it is not a competitor of Gaussian, Inc. and that
 it will not use this program in any manner prohibited above.
 ---------------------------------------------------------------
  

 Cite this work as:
 Gaussian 09, Revision D.01,
 M. J. Frisch, G. W. Trucks, H. B. Schlegel, G. E. Scuseria, 
 M. A. Robb, J. R. Cheeseman, G. Scalmani, V. Barone, B. Mennucci, 
 G. A. Petersson, H. Nakatsuji, M. Caricato, X. Li, H. P. Hratchian, 
 A. F. Izmaylov, J. Bloino, G. Zheng, J. L. Sonnenberg, M. Hada, 
 M. Ehara, K. Toyota, R. Fukuda, J. Hasegawa, M. Ishida, T. Nakajima, 
 Y. Honda, O. Kitao, H. Nakai, T. Vreven, J. A. Montgomery, Jr., 
 J. E. Peralta, F. Ogliaro, M. Bearpark, J. J. Heyd, E. Brothers, 
 K. N. Kudin, V. N. Staroverov, T. Keith, R. Kobayashi, J. Normand, 
 K. Raghavachari, A. Rendell, J. C. Burant, S. S. Iyengar, J. Tomasi, 
 M. Cossi, N. Rega, J. M. Millam, M. Klene, J. E. Knox, J. B. Cross, 
 V. Bakken, C. Adamo, J. Jaramillo, R. Gomperts, R. E. Stratmann, 
 O. Yazyev, A. J. Austin, R. Cammi, C. Pomelli, J. W. Ochterski, 
 R. L. Martin, K. Morokuma, V. G. Zakrzewski, G. A. Voth, 
 P. Salvador, J. J. Dannenberg, S. Dapprich, A. D. Daniels, 
 O. Farkas, J. B. Foresman, J. V. Ortiz, J. Cioslowski, 
 and D. J. Fox, Gaussian, Inc., Wallingford CT, 2013.
 
 ******************************************
 Gaussian 09:  ES64L-G09RevD.01 24-Apr-2013
                29-Jul-2021 
 ******************************************
 %mem=2gb
 %nproc=4
 Will use up to    4 processors via shared memory.
 %chk=conf-150.chk
 ----------------------------------------------------------------------
 # B3LYP/6-311G(2df,2pd) guess=read geom=checkpoint opt=readfc freq=nor
 aman nosymm integral(ultrafinegrid)
 ----------------------------------------------------------------------
 1/10=3,14=-1,18=20,19=15,26=4,29=2,38=1/1,3;
 2/9=110,12=2,15=1,40=1/2;
 3/5=4,6=6,7=404,11=2,14=-4,16=1,25=1,30=1,71=1,74=-5,75=-5,116=-2/1,2,3;
 4/5=1/1;
 5/5=2,38=6/2;
 6/7=2,8=2,9=2,10=2,28=1/1;
 7/30=1/1,2,3,16;
 1/14=-1,18=20,19=15,26=4/3(2);
 2/9=110,15=1/2;
 99//99;
 2/9=110,15=1/2;
 3/5=4,6=6,7=404,11=2,14=-2,16=1,25=1,30=1,71=1,74=-5,75=-5/1,2,3;
 4/5=5,16=3,69=1/1;
 5/5=2,38=5/2;
 7/30=1/1,2,3,16;
 1/14=-1,18=20,19=15,26=4/3(-5);
 2/9=110,15=1/2;
 6/7=2,8=2,9=2,10=2,19=2,28=1/1;
 99/9=1/99;
 ------------------------------------------------------------
 Candidate Structure: Conf:150 OPT and FREQ calc in gas phase
 ------------------------------------------------------------
 Structure from the checkpoint file:  "conf-150.chk"
 Charge =  0 Multiplicity = 1
 Redundant internal coordinates found in file.
 O,0,-1.1375417553,-1.878698182,-0.7840343718
 C,0,-1.2957018391,-0.7370289833,-0.363771612
 N,0,-0.3734061724,-0.135528549,0.4549303386
 C,0,0.7224193224,-0.9058683419,1.0213966535
 C,0,1.1075742482,-0.2545726232,2.3409736559
 O,0,2.0994164602,-0.9208099903,2.958810739
 O,0,0.5894163686,0.7440232634,2.7945245313
 C,0,1.9388990327,-1.0327227298,0.0623617403
 C,0,2.6384709757,0.2539450211,-0.2323339158
 C,0,3.8842590656,0.7275128993,0.1124112487
 N,0,4.0967642319,1.9923173475,-0.389331969
 C,0,2.9903882554,2.29344406,-1.0334127601
 N,0,2.0767351743,1.2787696596,-0.9745337284
 C,0,-2.485437119,0.1296895076,-0.7594246876
 C,0,-3.7411423772,-0.7043244379,-1.0230002876
 N,0,-4.7959644539,0.1434223903,-1.5854467954
 H,0,-0.6195083568,0.7011168012,0.9711163327
 H,0,0.3691449188,-1.9243695438,1.2277248143
 H,0,2.3026805602,-0.4286651648,3.7724803672
 H,0,1.5600274186,-1.5073727831,-0.8492151685
 H,0,2.6572420864,-1.7233765388,0.5113269123
 H,0,4.6415064822,0.2149110439,0.6902740261
 H,0,2.7935363556,3.21862548,-1.5576502109
 H,0,1.1433422859,1.2756196872,-1.3563845668
 H,0,-2.2332654894,0.6665198104,-1.6829445607
 H,0,-2.6763688307,0.8954628234,0.0036438126
 H,0,-3.4849234459,-1.4773518558,-1.7521590196
 H,0,-4.0253225348,-1.2324094721,-0.0965366152
 H,0,-5.1659826485,0.7624388345,-0.8667480683
 H,0,-5.5769466599,-0.4351100334,-1.8845095148
 Recover connectivity data from disk.

 GradGradGradGradGradGradGradGradGradGradGradGradGradGradGradGradGradGrad
 Berny optimization.
 Initialization pass.
 Force constant matrix read from checkpoint file:
 "conf-150.chk"
                           ----------------------------
                           !    Initial Parameters    !
                           ! (Angstroms and Degrees)  !
 --------------------------                            --------------------------
 ! Name  Definition              Value          Derivative Info.                !
 --------------------------------------------------------------------------------
 ! R1    R(1,2)                  1.2268         D2E/DX2 =    0.795              !
 ! R2    R(2,3)                  1.3721         D2E/DX2 =    0.4314             !
 ! R3    R(2,14)                 1.5242         D2E/DX2 =    0.2715             !
 ! R4    R(3,4)                  1.4544         D2E/DX2 =    0.3419             !
 ! R5    R(3,17)                 1.0134         D2E/DX2 =    0.4586             !
 ! R6    R(4,5)                  1.5211         D2E/DX2 =    0.2829             !
 ! R7    R(4,8)                  1.5542         D2E/DX2 =    0.2489             !
 ! R8    R(4,18)                 1.0976         D2E/DX2 =    0.3302             !
 ! R9    R(5,6)                  1.3451         D2E/DX2 =    0.4225             !
 ! R10   R(5,7)                  1.213          D2E/DX2 =    0.8567             !
 ! R11   R(6,19)                 0.9724         D2E/DX2 =    0.5071             !
 ! R12   R(8,9)                  1.4939         D2E/DX2 =    0.318              !
 ! R13   R(8,20)                 1.0954         D2E/DX2 =    0.3361             !
 ! R14   R(8,21)                 1.093          D2E/DX2 =    0.343              !
 ! R15   R(9,10)                 1.3766         D2E/DX2 =    0.4075             !
 ! R16   R(9,13)                 1.3844         D2E/DX2 =    0.3604             !
 ! R17   R(10,11)                1.3772         D2E/DX2 =    0.3355             !
 ! R18   R(10,22)                1.0817         D2E/DX2 =    0.3714             !
 ! R19   R(11,12)                1.3151         D2E/DX2 =    0.4626             !
 ! R20   R(12,13)                1.3667         D2E/DX2 =    0.3615             !
 ! R21   R(12,23)                1.0815         D2E/DX2 =    0.3734             !
 ! R22   R(13,24)                1.0085         D2E/DX2 =    0.4783             !
 ! R23   R(14,15)                1.5303         D2E/DX2 =    0.2807             !
 ! R24   R(14,25)                1.0976         D2E/DX2 =    0.3322             !
 ! R25   R(14,26)                1.0978         D2E/DX2 =    0.3298             !
 ! R26   R(15,16)                1.4655         D2E/DX2 =    0.3307             !
 ! R27   R(15,27)                1.0931         D2E/DX2 =    0.3421             !
 ! R28   R(15,28)                1.1036         D2E/DX2 =    0.3125             !
 ! R29   R(16,29)                1.0181         D2E/DX2 =    0.4423             !
 ! R30   R(16,30)                1.0169         D2E/DX2 =    0.4474             !
 ! A1    A(1,2,3)              121.7152         D2E/DX2 =    0.2039             !
 ! A2    A(1,2,14)             122.7437         D2E/DX2 =    0.1706             !
 ! A3    A(3,2,14)             115.4851         D2E/DX2 =    0.1688             !
 ! A4    A(2,3,4)              120.4423         D2E/DX2 =    0.1455             !
 ! A5    A(2,3,17)             120.172          D2E/DX2 =    0.0864             !
 ! A6    A(4,3,17)             114.9532         D2E/DX2 =    0.0932             !
 ! A7    A(3,4,5)              107.5707         D2E/DX2 =    0.0942             !
 ! A8    A(3,4,8)              113.1183         D2E/DX2 =    0.0899             !
 ! A9    A(3,4,18)             108.7967         D2E/DX2 =    0.0303             !
 ! A10   A(5,4,8)              111.8424         D2E/DX2 =    0.0821             !
 ! A11   A(5,4,18)             108.4052         D2E/DX2 =    0.0236             !
 ! A12   A(8,4,18)             106.9881         D2E/DX2 =    0.0322             !
 ! A13   A(4,5,6)              111.9064         D2E/DX2 =    0.169              !
 ! A14   A(4,5,7)              124.6588         D2E/DX2 =    0.1778             !
 ! A15   A(6,5,7)              123.4347         D2E/DX2 =    0.2031             !
 ! A16   A(5,6,19)             106.7259         D2E/DX2 =    0.1743             !
 ! A17   A(4,8,9)              114.7048         D2E/DX2 =    0.1489             !
 ! A18   A(4,8,20)             106.1505         D2E/DX2 =    0.0598             !
 ! A19   A(4,8,21)             108.2111         D2E/DX2 =    0.06               !
 ! A20   A(9,8,20)             111.7787         D2E/DX2 =    0.05               !
 ! A21   A(9,8,21)             108.5119         D2E/DX2 =    0.0516             !
 ! A22   A(20,8,21)            107.1793         D2E/DX2 =    0.0199             !
 ! A23   A(8,9,10)             132.118          D2E/DX2 =    0.0966             !
 ! A24   A(8,9,13)             123.594          D2E/DX2 =    0.1063             !
 ! A25   A(10,9,13)            104.2877         D2E/DX2 =    0.1022             !
 ! A26   A(9,10,11)            111.3667         D2E/DX2 =    0.1146             !
 ! A27   A(9,10,22)            127.1765         D2E/DX2 =    0.0821             !
 ! A28   A(11,10,22)           121.4542         D2E/DX2 =    0.0897             !
 ! A29   A(10,11,12)           105.0049         D2E/DX2 =    0.131              !
 ! A30   A(11,12,13)           111.7963         D2E/DX2 =    0.1187             !
 ! A31   A(11,12,23)           125.9034         D2E/DX2 =    0.0895             !
 ! A32   A(13,12,23)           122.3002         D2E/DX2 =    0.0903             !
 ! A33   A(9,13,12)            107.5436         D2E/DX2 =    0.1028             !
 ! A34   A(9,13,24)            125.1847         D2E/DX2 =    0.0775             !
 ! A35   A(12,13,24)           127.211          D2E/DX2 =    0.0769             !
 ! A36   A(2,14,15)            112.0427         D2E/DX2 =    0.1396             !
 ! A37   A(2,14,25)            108.4938         D2E/DX2 =    0.0425             !
 ! A38   A(2,14,26)            110.6086         D2E/DX2 =    0.0543             !
 ! A39   A(15,14,25)           108.0691         D2E/DX2 =    0.052              !
 ! A40   A(15,14,26)           110.9268         D2E/DX2 =    0.0576             !
 ! A41   A(25,14,26)           106.478          D2E/DX2 =    0.0208             !
 ! A42   A(14,15,16)           109.9654         D2E/DX2 =    0.1521             !
 ! A43   A(14,15,27)           107.9368         D2E/DX2 =    0.056              !
 ! A44   A(14,15,28)           109.1163         D2E/DX2 =    0.0631             !
 ! A45   A(16,15,27)           108.771          D2E/DX2 =    0.0492             !
 ! A46   A(16,15,28)           114.4342         D2E/DX2 =    0.0575             !
 ! A47   A(27,15,28)           106.3761         D2E/DX2 =    0.0219             !
 ! A48   A(15,16,29)           110.0212         D2E/DX2 =    0.148              !
 ! A49   A(15,16,30)           109.6673         D2E/DX2 =    0.1433             !
 ! A50   A(29,16,30)           105.9251         D2E/DX2 =    0.0564             !
 ! D1    D(1,2,3,4)             -9.6655         D2E/DX2 =    0.0126             !
 ! D2    D(1,2,3,17)          -164.8524         D2E/DX2 =    0.0108             !
 ! D3    D(14,2,3,4)           172.9859         D2E/DX2 =    0.011              !
 ! D4    D(14,2,3,17)           17.799          D2E/DX2 =    0.0079             !
 ! D5    D(1,2,14,15)           31.6892         D2E/DX2 =    0.0136             !
 ! D6    D(1,2,14,25)          -87.5379         D2E/DX2 =    0.0153             !
 ! D7    D(1,2,14,26)          156.0183         D2E/DX2 =    0.0153             !
 ! D8    D(3,2,14,15)         -150.9924         D2E/DX2 =    0.0135             !
 ! D9    D(3,2,14,25)           89.7805         D2E/DX2 =    0.0141             !
 ! D10   D(3,2,14,26)          -26.6632         D2E/DX2 =    0.0157             !
 ! D11   D(2,3,4,5)           -151.5347         D2E/DX2 =    0.0137             !
 ! D12   D(2,3,4,8)             84.4424         D2E/DX2 =    0.0133             !
 ! D13   D(2,3,4,18)           -34.3009         D2E/DX2 =    0.0088             !
 ! D14   D(17,3,4,5)             4.8772         D2E/DX2 =    0.0142             !
 ! D15   D(17,3,4,8)          -119.1456         D2E/DX2 =    0.0131             !
 ! D16   D(17,3,4,18)          122.111          D2E/DX2 =    0.0103             !
 ! D17   D(3,4,5,6)            178.5164         D2E/DX2 =    0.0234             !
 ! D18   D(3,4,5,7)             -1.3606         D2E/DX2 =    0.0223             !
 ! D19   D(8,4,5,6)            -56.6899         D2E/DX2 =    0.0204             !
 ! D20   D(8,4,5,7)            123.4331         D2E/DX2 =    0.0193             !
 ! D21   D(18,4,5,6)            61.0279         D2E/DX2 =    0.0158             !
 ! D22   D(18,4,5,7)          -118.849          D2E/DX2 =    0.0145             !
 ! D23   D(3,4,8,9)             65.6652         D2E/DX2 =    0.0193             !
 ! D24   D(3,4,8,20)           -58.2805         D2E/DX2 =    0.0189             !
 ! D25   D(3,4,8,21)          -173.0512         D2E/DX2 =    0.019              !
 ! D26   D(5,4,8,9)            -55.9861         D2E/DX2 =    0.0182             !
 ! D27   D(5,4,8,20)          -179.9318         D2E/DX2 =    0.0186             !
 ! D28   D(5,4,8,21)            65.2975         D2E/DX2 =    0.0179             !
 ! D29   D(18,4,8,9)          -174.5493         D2E/DX2 =    0.0139             !
 ! D30   D(18,4,8,20)           61.5049         D2E/DX2 =    0.0132             !
 ! D31   D(18,4,8,21)          -53.2658         D2E/DX2 =    0.0132             !
 ! D32   D(4,5,6,19)           178.2789         D2E/DX2 =    0.0163             !
 ! D33   D(7,5,6,19)            -1.8424         D2E/DX2 =    0.0162             !
 ! D34   D(4,8,9,10)           111.3557         D2E/DX2 =    0.0112             !
 ! D35   D(4,8,9,13)           -68.4107         D2E/DX2 =    0.0119             !
 ! D36   D(20,8,9,10)         -127.7452         D2E/DX2 =    0.0129             !
 ! D37   D(20,8,9,13)           52.4884         D2E/DX2 =    0.0132             !
 ! D38   D(21,8,9,10)           -9.763          D2E/DX2 =    0.0128             !
 ! D39   D(21,8,9,13)          170.4706         D2E/DX2 =    0.0132             !
 ! D40   D(8,9,10,11)         -179.7822         D2E/DX2 =    0.0096             !
 ! D41   D(8,9,10,22)            0.8092         D2E/DX2 =    0.0071             !
 ! D42   D(13,9,10,11)           0.017          D2E/DX2 =    0.0142             !
 ! D43   D(13,9,10,22)        -179.3916         D2E/DX2 =    0.0096             !
 ! D44   D(8,9,13,12)          179.6562         D2E/DX2 =    0.008              !
 ! D45   D(8,9,13,24)            2.3228         D2E/DX2 =    0.0026             !
 ! D46   D(10,9,13,12)          -0.165          D2E/DX2 =    0.0123             !
 ! D47   D(10,9,13,24)        -177.4984         D2E/DX2 =    0.0045             !
 ! D48   D(9,10,11,12)           0.1416         D2E/DX2 =    0.0175             !
 ! D49   D(22,10,11,12)        179.5892         D2E/DX2 =    0.0099             !
 ! D50   D(10,11,12,13)         -0.2511         D2E/DX2 =    0.0184             !
 ! D51   D(10,11,12,23)        179.8618         D2E/DX2 =    0.0102             !
 ! D52   D(11,12,13,9)           0.2708         D2E/DX2 =    0.0172             !
 ! D53   D(11,12,13,24)        177.5342         D2E/DX2 =    0.0078             !
 ! D54   D(23,12,13,9)        -179.8374         D2E/DX2 =    0.0102             !
 ! D55   D(23,12,13,24)         -2.574          D2E/DX2 =    0.0059             !
 ! D56   D(2,14,15,16)        -171.7787         D2E/DX2 =    0.0148             !
 ! D57   D(2,14,15,27)         -53.2598         D2E/DX2 =    0.0142             !
 ! D58   D(2,14,15,28)          61.9438         D2E/DX2 =    0.0141             !
 ! D59   D(25,14,15,16)        -52.3021         D2E/DX2 =    0.0155             !
 ! D60   D(25,14,15,27)         66.2168         D2E/DX2 =    0.0161             !
 ! D61   D(25,14,15,28)       -178.5797         D2E/DX2 =    0.0146             !
 ! D62   D(26,14,15,16)         64.0694         D2E/DX2 =    0.0154             !
 ! D63   D(26,14,15,27)       -177.4117         D2E/DX2 =    0.0146             !
 ! D64   D(26,14,15,28)        -62.2081         D2E/DX2 =    0.0158             !
 ! D65   D(14,15,16,29)        -72.0866         D2E/DX2 =    0.0155             !
 ! D66   D(14,15,16,30)        171.7867         D2E/DX2 =    0.0154             !
 ! D67   D(27,15,16,29)        169.9093         D2E/DX2 =    0.0184             !
 ! D68   D(27,15,16,30)         53.7827         D2E/DX2 =    0.0175             !
 ! D69   D(28,15,16,29)         51.1268         D2E/DX2 =    0.0184             !
 ! D70   D(28,15,16,30)        -64.9999         D2E/DX2 =    0.0182             !
 --------------------------------------------------------------------------------
 Trust Radius=3.00D-01 FncErr=1.00D-07 GrdErr=1.00D-06
 Number of steps in this run=    160 maximum allowed number of steps=    180.
 GradGradGradGradGradGradGradGradGradGradGradGradGradGradGradGradGradGrad

                          Input orientation:                          
 ---------------------------------------------------------------------
 Center     Atomic      Atomic             Coordinates (Angstroms)
 Number     Number       Type             X           Y           Z
 ---------------------------------------------------------------------
      1          8           0       -1.137542   -1.878698   -0.784034
      2          6           0       -1.295702   -0.737029   -0.363772
      3          7           0       -0.373406   -0.135529    0.454930
      4          6           0        0.722419   -0.905868    1.021397
      5          6           0        1.107574   -0.254573    2.340974
      6          8           0        2.099416   -0.920810    2.958811
      7          8           0        0.589416    0.744023    2.794525
      8          6           0        1.938899   -1.032723    0.062362
      9          6           0        2.638471    0.253945   -0.232334
     10          6           0        3.884259    0.727513    0.112411
     11          7           0        4.096764    1.992317   -0.389332
     12          6           0        2.990388    2.293444   -1.033413
     13          7           0        2.076735    1.278770   -0.974534
     14          6           0       -2.485437    0.129690   -0.759425
     15          6           0       -3.741142   -0.704324   -1.023000
     16          7           0       -4.795964    0.143422   -1.585447
     17          1           0       -0.619508    0.701117    0.971116
     18          1           0        0.369145   -1.924370    1.227725
     19          1           0        2.302681   -0.428665    3.772480
     20          1           0        1.560027   -1.507373   -0.849215
     21          1           0        2.657242   -1.723377    0.511327
     22          1           0        4.641506    0.214911    0.690274
     23          1           0        2.793536    3.218625   -1.557650
     24          1           0        1.143342    1.275620   -1.356385
     25          1           0       -2.233265    0.666520   -1.682945
     26          1           0       -2.676369    0.895463    0.003644
     27          1           0       -3.484923   -1.477352   -1.752159
     28          1           0       -4.025323   -1.232409   -0.096537
     29          1           0       -5.165983    0.762439   -0.866748
     30          1           0       -5.576947   -0.435110   -1.884510
 ---------------------------------------------------------------------
                    Distance matrix (angstroms):
                    1          2          3          4          5
     1  O    0.000000
     2  C    1.226802   0.000000
     3  N    2.271030   1.372117   0.000000
     4  C    2.768652   2.453571   1.454352   0.000000
     5  C    4.176602   3.650226   2.400965   1.521123   0.000000
     6  O    5.040272   4.753962   3.605681   2.376956   1.345119
     7  O    4.761002   3.965100   2.678496   2.425658   1.213009
     8  C    3.300992   3.275922   2.511140   1.554240   2.547291
     9  C    4.371592   4.059190   3.113748   2.566761   3.037128
    10  C    5.728388   5.404038   4.357737   3.673067   3.693367
    11  N    6.522155   6.043896   5.022244   4.666459   4.630156
    12  C    5.874416   5.291763   4.407968   4.427361   4.628592
    13  N    4.509708   3.976155   3.169669   3.254313   3.779286
    14  C    2.418894   1.524209   2.450648   3.812355   4.761287
    15  C    2.866181   2.532949   3.721486   4.913610   5.918501
    16  N    4.256206   3.810449   4.878522   6.192673   7.101193
    17  H    3.162967   2.075434   1.013405   2.094206   2.402637
    18  H    2.513835   2.591207   2.085317   1.097597   2.138416
    19  H    5.890633   5.491086   4.272412   3.208334   1.872912
    20  H    2.723786   2.997378   2.705719   2.136020   3.457098
    21  H    4.012788   4.167067   3.421881   2.161488   2.811843
    22  H    6.320932   6.104723   5.032648   4.089625   3.928600
    23  H    6.483407   5.813297   5.032927   5.287008   5.486788
    24  H    3.934430   3.314358   2.751859   3.254214   4.001653
    25  H    2.913209   2.142240   2.944973   4.303712   5.310512
    26  H    3.268699   2.169393   2.563248   3.978992   4.593900
    27  H    2.570709   2.695995   4.043918   5.071581   6.272157
    28  H    3.038029   2.787050   3.852760   4.888502   5.765783
    29  H    4.817757   4.180964   5.051927   6.404812   7.119080
    30  H    4.796176   4.553335   5.713104   6.953267   7.910128
                    6          7          8          9         10
     6  O    0.000000
     7  O    2.253610   0.000000
     8  C    2.903051   3.527413   0.000000
     9  C    3.442969   3.687909   1.493908   0.000000
    10  C    3.742275   4.248528   2.623997   1.376628   0.000000
    11  N    4.866803   4.898640   3.743164   2.274468   1.377184
    12  C    5.202221   4.776869   3.656465   2.219263   2.136366
    13  N    4.506647   4.087037   2.537154   1.384440   2.180017
    14  C    5.995807   4.739482   4.647718   5.152446   6.456820
    15  C    7.072044   5.951886   5.792126   6.499454   7.841305
    16  N    8.326412   6.967582   7.032565   7.557378   8.863981
    17  H    3.738198   2.188186   3.221410   3.501812   4.584975
    18  H    2.645303   3.102209   2.148775   3.467948   4.542294
    19  H    0.972410   2.294966   3.776533   4.076426   4.151415
    20  H    3.890509   4.391777   1.095358   2.155417   3.364743
    21  H    2.635424   3.946765   1.092973   2.112625   2.769759
    22  H    3.591426   4.596440   3.042195   2.205647   1.081716
    23  H    6.165643   5.470213   4.629126   3.251129   3.191304
    24  H    4.935513   4.221312   2.823862   2.131365   3.157595
    25  H    6.545047   5.293512   4.831198   5.099834   6.375824
    26  H    5.902540   4.298523   5.002204   5.358615   6.563679
    27  H    7.327198   6.496698   5.736552   6.542417   7.914727
    28  H    6.851618   5.793128   5.969679   6.828897   8.151468
    29  H    8.381781   6.821281   7.386826   7.846690   9.103123
    30  H    9.089566   7.829926   7.786873   8.408185   9.739291
                   11         12         13         14         15
    11  N    0.000000
    12  C    1.315137   0.000000
    13  N    2.220840   1.366672   0.000000
    14  C    6.850673   5.894198   4.709572   0.000000
    15  C    8.313013   7.368869   6.146764   1.530309   0.000000
    16  N    9.161317   8.096581   6.992584   2.453780   1.465493
    17  H    5.075554   4.425494   3.374754   2.608254   3.961864
    18  H    5.643621   5.456520   4.245693   4.039376   4.842389
    19  H    5.138149   5.565917   5.049805   6.616343   7.720131
    20  H    4.346764   4.065227   2.836421   4.365068   5.364465
    21  H    4.085314   4.316486   3.399655   5.612113   6.658224
    22  H    2.149760   3.165057   3.237504   7.273391   8.605179
    23  H    2.137101   1.081451   2.148690   6.168164   7.640511
    24  H    3.189286   2.133508   1.008485   3.851955   5.281052
    25  H    6.595487   5.509567   4.410533   1.097573   2.142063
    26  H    6.872616   5.928067   4.867828   1.097787   2.178775
    27  H    8.448544   7.527626   6.255634   2.137072   1.093111
    28  H    8.743734   7.907565   6.656727   2.160088   1.103615
    29  H    9.356228   8.300490   7.261899   2.756304   2.050848
    30  H   10.085070   9.031534   7.895840   3.338000   2.045691
                   16         17         18         19         20
    16  N    0.000000
    17  H    4.928471   0.000000
    18  H    6.234425   2.817173   0.000000
    19  H    8.912095   4.202765   3.528664   0.000000
    20  H    6.608010   3.597417   2.430178   4.803667   0.000000
    21  H    7.964401   4.102032   2.406037   3.526629   1.761140
    22  H    9.708237   5.290893   4.808165   3.922282   3.851208
    23  H    8.188905   4.937751   6.331381   6.477188   4.935431
    24  H    6.050595   2.975728   4.185324   5.527559   2.859352
    25  H    2.617358   3.106356   4.685856   7.178851   4.450841
    26  H    2.753808   2.281326   4.327237   6.383446   4.944496
    27  H    2.091299   4.513597   4.892175   8.069557   5.125206
    28  H    2.168791   4.059307   4.641532   7.460491   5.642541
    29  H    1.018147   4.904277   6.499492   8.872548   7.098702
    30  H    1.016893   5.832821   6.874584   9.700005   7.290952
                   21         22         23         24         25
    21  H    0.000000
    22  H    2.779620   0.000000
    23  H    5.359349   4.182159   0.000000
    24  H    3.843724   4.189399   2.557131   0.000000
    25  H    5.868858   7.286879   5.638943   3.446611   0.000000
    26  H    5.963511   7.381457   6.144476   4.072394   1.758788
    27  H    6.550580   8.652635   7.842773   5.399660   2.483470
    28  H    6.728092   8.822003   8.273053   5.881541   3.055174
    29  H    8.323534   9.945398   8.358477   6.349069   3.045687
    30  H    8.671881  10.557880   9.139016   6.954696   3.526247
                   26         27         28         29         30
    26  H    0.000000
    27  H    3.060532   0.000000
    28  H    2.521419   1.758725   0.000000
    29  H    2.640730   2.937103   2.423582   0.000000
    30  H    3.707951   2.341014   2.498013   1.624455   0.000000
 Symmetry turned off by external request.
 Stoichiometry    C9H14N4O3
 Framework group  C1[X(C9H14N4O3)]
 Deg. of freedom    84
 Full point group                 C1      NOp   1
 Rotational constants (GHZ):      0.7947077      0.2797681      0.2397128
 Standard basis: 6-311G(2df,2pd) (5D, 7F)
   676 basis functions,  1006 primitive gaussians,   770 cartesian basis functions
    60 alpha electrons       60 beta electrons
       nuclear repulsion energy      1115.9554946991 Hartrees.
 NAtoms=   30 NActive=   30 NUniq=   30 SFac= 1.00D+00 NAtFMM=   60 NAOKFM=F Big=F
 Integral buffers will be    131072 words long.
 Raffenetti 2 integral format.
 Two-electron integral symmetry is turned off.
 One-electron integrals computed using PRISM.
 NBasis=   676 RedAO= T EigKep=  2.19D-04  NBF=   676
 NBsUse=   676 1.00D-06 EigRej= -1.00D+00 NBFU=   676
 Initial guess from the checkpoint file:  "conf-150.chk"
 B after Tr=     0.000000    0.000000    0.000000
         Rot=    1.000000    0.000000    0.000000    0.000000 Ang=   0.00 deg.
 Requested convergence on RMS density matrix=1.00D-08 within 128 cycles.
 Requested convergence on MAX density matrix=1.00D-06.
 Requested convergence on             energy=1.00D-06.
 No special actions if energy rises.
 SCF Done:  E(RB3LYP) =  -796.364607533     A.U. after   11 cycles
            NFock= 11  Conv=0.70D-08     -V/T= 2.0041

 **********************************************************************

            Population analysis using the SCF density.

 **********************************************************************

 Alpha  occ. eigenvalues --  -19.19175 -19.13522 -19.09732 -14.36585 -14.34982
 Alpha  occ. eigenvalues --  -14.29569 -14.28658 -10.32719 -10.28315 -10.24411
 Alpha  occ. eigenvalues --  -10.22054 -10.20411 -10.19996 -10.19805 -10.18848
 Alpha  occ. eigenvalues --  -10.17846  -1.13338  -1.05012  -1.04281  -1.01283
 Alpha  occ. eigenvalues --   -0.94151  -0.88958  -0.87010  -0.81367  -0.76870
 Alpha  occ. eigenvalues --   -0.74271  -0.68706  -0.65275  -0.61637  -0.61059
 Alpha  occ. eigenvalues --   -0.59961  -0.58945  -0.53872  -0.53672  -0.51532
 Alpha  occ. eigenvalues --   -0.50551  -0.49888  -0.48830  -0.47438  -0.46106
 Alpha  occ. eigenvalues --   -0.45515  -0.44416  -0.43853  -0.42761  -0.42336
 Alpha  occ. eigenvalues --   -0.40806  -0.40667  -0.40180  -0.39250  -0.38826
 Alpha  occ. eigenvalues --   -0.36488  -0.35533  -0.34925  -0.30924  -0.28523
 Alpha  occ. eigenvalues --   -0.28181  -0.27091  -0.26919  -0.25131  -0.22835
 Alpha virt. eigenvalues --   -0.02039   0.00037   0.01177   0.01978   0.02374
 Alpha virt. eigenvalues --    0.02990   0.05176   0.05341   0.07423   0.07725
 Alpha virt. eigenvalues --    0.08092   0.08715   0.09400   0.10139   0.10336
 Alpha virt. eigenvalues --    0.12095   0.13754   0.14419   0.16680   0.17304
 Alpha virt. eigenvalues --    0.18239   0.18791   0.19970   0.20618   0.21190
 Alpha virt. eigenvalues --    0.22604   0.23210   0.23859   0.25778   0.27089
 Alpha virt. eigenvalues --    0.28450   0.29653   0.30284   0.31045   0.31704
 Alpha virt. eigenvalues --    0.33025   0.33574   0.33838   0.34885   0.35229
 Alpha virt. eigenvalues --    0.36133   0.36494   0.36812   0.37645   0.38296
 Alpha virt. eigenvalues --    0.39577   0.40808   0.41143   0.41784   0.42344
 Alpha virt. eigenvalues --    0.42727   0.43438   0.44286   0.44661   0.45514
 Alpha virt. eigenvalues --    0.46246   0.46545   0.46855   0.47451   0.48158
 Alpha virt. eigenvalues --    0.48866   0.49472   0.49671   0.50517   0.50828
 Alpha virt. eigenvalues --    0.51357   0.52127   0.52606   0.53469   0.53664
 Alpha virt. eigenvalues --    0.54757   0.55594   0.56339   0.56974   0.57658
 Alpha virt. eigenvalues --    0.58142   0.59766   0.60048   0.60892   0.61074
 Alpha virt. eigenvalues --    0.61946   0.62764   0.64117   0.64483   0.65301
 Alpha virt. eigenvalues --    0.65457   0.66618   0.67710   0.69010   0.69590
 Alpha virt. eigenvalues --    0.69883   0.70589   0.71899   0.72981   0.74209
 Alpha virt. eigenvalues --    0.74837   0.75491   0.76411   0.77198   0.78652
 Alpha virt. eigenvalues --    0.79629   0.79948   0.80388   0.82019   0.83003
 Alpha virt. eigenvalues --    0.83671   0.84193   0.84787   0.86313   0.87285
 Alpha virt. eigenvalues --    0.89479   0.90262   0.91170   0.92346   0.93183
 Alpha virt. eigenvalues --    0.93555   0.94170   0.94993   0.95577   0.96699
 Alpha virt. eigenvalues --    0.98141   0.98163   0.99080   0.99538   1.00365
 Alpha virt. eigenvalues --    1.00645   1.01765   1.02501   1.04528   1.05076
 Alpha virt. eigenvalues --    1.06094   1.06699   1.06796   1.08829   1.08946
 Alpha virt. eigenvalues --    1.09988   1.11451   1.12133   1.12715   1.13489
 Alpha virt. eigenvalues --    1.15213   1.15716   1.16600   1.17065   1.17395
 Alpha virt. eigenvalues --    1.19671   1.20404   1.20550   1.21295   1.22713
 Alpha virt. eigenvalues --    1.22852   1.23418   1.23677   1.24536   1.25230
 Alpha virt. eigenvalues --    1.27065   1.27740   1.28664   1.29002   1.29747
 Alpha virt. eigenvalues --    1.30817   1.31401   1.31567   1.31875   1.32576
 Alpha virt. eigenvalues --    1.32785   1.33352   1.34510   1.35472   1.35516
 Alpha virt. eigenvalues --    1.36379   1.37119   1.37730   1.38527   1.39780
 Alpha virt. eigenvalues --    1.40437   1.41515   1.42476   1.43659   1.44653
 Alpha virt. eigenvalues --    1.45173   1.46328   1.48063   1.49551   1.50813
 Alpha virt. eigenvalues --    1.51875   1.52835   1.53487   1.55119   1.56191
 Alpha virt. eigenvalues --    1.57616   1.58218   1.59050   1.59237   1.61863
 Alpha virt. eigenvalues --    1.63591   1.64579   1.65621   1.66316   1.67579
 Alpha virt. eigenvalues --    1.67660   1.69576   1.70020   1.71569   1.72400
 Alpha virt. eigenvalues --    1.73306   1.75246   1.77379   1.78030   1.78954
 Alpha virt. eigenvalues --    1.81169   1.83169   1.85838   1.87538   1.88157
 Alpha virt. eigenvalues --    1.89510   1.90633   1.93099   1.99002   2.01185
 Alpha virt. eigenvalues --    2.02745   2.04218   2.05065   2.07213   2.08889
 Alpha virt. eigenvalues --    2.11069   2.12671   2.14699   2.17579   2.24882
 Alpha virt. eigenvalues --    2.26046   2.30226   2.35859   2.40987   2.43809
 Alpha virt. eigenvalues --    2.45276   2.49606   2.51106   2.51266   2.53694
 Alpha virt. eigenvalues --    2.54279   2.55639   2.58356   2.58664   2.59506
 Alpha virt. eigenvalues --    2.60928   2.61945   2.63301   2.63844   2.65199
 Alpha virt. eigenvalues --    2.67095   2.68105   2.68473   2.69600   2.70339
 Alpha virt. eigenvalues --    2.71669   2.72832   2.73701   2.74631   2.76537
 Alpha virt. eigenvalues --    2.78252   2.79111   2.79240   2.80921   2.82292
 Alpha virt. eigenvalues --    2.83424   2.84882   2.85664   2.87215   2.87893
 Alpha virt. eigenvalues --    2.88573   2.89078   2.90536   2.91121   2.91361
 Alpha virt. eigenvalues --    2.92445   2.93171   2.93528   2.94131   2.95825
 Alpha virt. eigenvalues --    2.96949   2.97548   2.98097   2.99050   2.99371
 Alpha virt. eigenvalues --    2.99863   3.01448   3.02000   3.03803   3.04691
 Alpha virt. eigenvalues --    3.05599   3.05745   3.06624   3.07253   3.08203
 Alpha virt. eigenvalues --    3.08768   3.09647   3.10101   3.10849   3.11599
 Alpha virt. eigenvalues --    3.11935   3.12556   3.13410   3.14345   3.14944
 Alpha virt. eigenvalues --    3.14971   3.16729   3.17914   3.18821   3.19493
 Alpha virt. eigenvalues --    3.19636   3.21090   3.21780   3.22237   3.23344
 Alpha virt. eigenvalues --    3.23722   3.24049   3.25107   3.25821   3.26326
 Alpha virt. eigenvalues --    3.28019   3.28860   3.29603   3.29757   3.30422
 Alpha virt. eigenvalues --    3.31073   3.31510   3.32230   3.32678   3.33358
 Alpha virt. eigenvalues --    3.33763   3.34997   3.35091   3.36263   3.37038
 Alpha virt. eigenvalues --    3.37399   3.38388   3.38684   3.39722   3.40780
 Alpha virt. eigenvalues --    3.41175   3.41772   3.43108   3.44692   3.45583
 Alpha virt. eigenvalues --    3.45858   3.46923   3.47895   3.49241   3.49987
 Alpha virt. eigenvalues --    3.50508   3.51164   3.52037   3.52731   3.53594
 Alpha virt. eigenvalues --    3.53936   3.54917   3.55397   3.55745   3.56726
 Alpha virt. eigenvalues --    3.57960   3.58984   3.60591   3.61258   3.61838
 Alpha virt. eigenvalues --    3.63005   3.63448   3.64476   3.65103   3.65417
 Alpha virt. eigenvalues --    3.66044   3.67146   3.67861   3.68355   3.69029
 Alpha virt. eigenvalues --    3.71510   3.71692   3.72832   3.74015   3.74737
 Alpha virt. eigenvalues --    3.75050   3.76241   3.76696   3.77995   3.78876
 Alpha virt. eigenvalues --    3.79549   3.80544   3.81157   3.82497   3.83276
 Alpha virt. eigenvalues --    3.84451   3.85118   3.86124   3.86426   3.87516
 Alpha virt. eigenvalues --    3.88638   3.89334   3.90138   3.90504   3.92099
 Alpha virt. eigenvalues --    3.92882   3.93161   3.95228   3.95974   3.96978
 Alpha virt. eigenvalues --    3.97192   3.97981   3.99125   3.99456   4.00885
 Alpha virt. eigenvalues --    4.01157   4.02614   4.02676   4.04051   4.05238
 Alpha virt. eigenvalues --    4.06163   4.06679   4.07946   4.08667   4.10339
 Alpha virt. eigenvalues --    4.10995   4.12609   4.13376   4.13598   4.13955
 Alpha virt. eigenvalues --    4.15416   4.17999   4.18615   4.19476   4.20537
 Alpha virt. eigenvalues --    4.22296   4.23943   4.24051   4.26172   4.27100
 Alpha virt. eigenvalues --    4.28367   4.28851   4.31088   4.32343   4.33868
 Alpha virt. eigenvalues --    4.34707   4.35744   4.37644   4.39421   4.40698
 Alpha virt. eigenvalues --    4.41018   4.41726   4.46698   4.47205   4.47606
 Alpha virt. eigenvalues --    4.49793   4.50623   4.51346   4.53908   4.54755
 Alpha virt. eigenvalues --    4.55470   4.57293   4.59060   4.59647   4.61271
 Alpha virt. eigenvalues --    4.63018   4.65662   4.66881   4.68336   4.68542
 Alpha virt. eigenvalues --    4.72343   4.73536   4.74209   4.77207   4.78814
 Alpha virt. eigenvalues --    4.81087   4.81516   4.82793   4.83619   4.86088
 Alpha virt. eigenvalues --    4.86537   4.88851   4.89859   4.90207   4.91726
 Alpha virt. eigenvalues --    4.93291   4.93614   4.95634   4.95831   4.96649
 Alpha virt. eigenvalues --    4.97132   4.97913   5.00004   5.01856   5.02313
 Alpha virt. eigenvalues --    5.02635   5.04167   5.04922   5.05743   5.06921
 Alpha virt. eigenvalues --    5.07378   5.08413   5.09033   5.09889   5.10854
 Alpha virt. eigenvalues --    5.11741   5.12984   5.13145   5.14212   5.14384
 Alpha virt. eigenvalues --    5.17149   5.18725   5.19674   5.20032   5.20194
 Alpha virt. eigenvalues --    5.21762   5.22290   5.23722   5.24910   5.25866
 Alpha virt. eigenvalues --    5.28245   5.29620   5.30272   5.30848   5.32405
 Alpha virt. eigenvalues --    5.32871   5.33643   5.36433   5.37725   5.38860
 Alpha virt. eigenvalues --    5.42162   5.43610   5.46026   5.46291   5.47074
 Alpha virt. eigenvalues --    5.49220   5.49625   5.52254   5.53535   5.54917
 Alpha virt. eigenvalues --    5.55599   5.59206   5.59940   5.61374   5.64476
 Alpha virt. eigenvalues --    5.65072   5.67524   5.69360   5.75198   5.75602
 Alpha virt. eigenvalues --    5.76858   5.77702   5.79782   5.82483   5.85228
 Alpha virt. eigenvalues --    5.85720   5.86701   5.90007   5.91899   5.95444
 Alpha virt. eigenvalues --    5.99133   6.02349   6.04189   6.08026   6.10019
 Alpha virt. eigenvalues --    6.12553   6.18017   6.18914   6.26517   6.27320
 Alpha virt. eigenvalues --    6.30163   6.32247   6.33937   6.36394   6.38801
 Alpha virt. eigenvalues --    6.41419   6.43582   6.47275   6.51629   6.51999
 Alpha virt. eigenvalues --    6.65666   6.69711   6.79001   6.86813   6.90759
 Alpha virt. eigenvalues --    6.92645   6.94584   6.96818   6.98994   7.03621
 Alpha virt. eigenvalues --    7.10602   7.14693   7.16614   7.16736   7.20001
 Alpha virt. eigenvalues --    7.23578   7.26291   7.27505   7.44532   7.48734
 Alpha virt. eigenvalues --    7.53001   7.57120   7.58534   7.66053   7.93875
 Alpha virt. eigenvalues --   24.43855  24.60072  24.67697  24.77583  24.92034
 Alpha virt. eigenvalues --   24.95385  25.02576  25.06039  25.07455  35.96871
 Alpha virt. eigenvalues --   36.20243  36.23762  36.42563  50.15770  50.19119
 Alpha virt. eigenvalues --   50.25964
          Condensed to atoms (all electrons):
               1          2          3          4          5          6
     1  O    7.882695   0.659541  -0.107651  -0.007946   0.000178   0.000001
     2  C    0.659541   4.479461   0.372073  -0.064747   0.003349  -0.000134
     3  N   -0.107651   0.372073   6.651915   0.255867  -0.029196   0.000771
     4  C   -0.007946  -0.064747   0.255867   5.163386   0.283160  -0.083100
     5  C    0.000178   0.003349  -0.029196   0.283160   4.192232   0.392777
     6  O    0.000001  -0.000134   0.000771  -0.083100   0.392777   7.785960
     7  O   -0.000007  -0.000906  -0.021437  -0.094444   0.695294  -0.079505
     8  C   -0.004681  -0.003282  -0.058697   0.306824  -0.064702  -0.000693
     9  C    0.000030   0.000359   0.004003  -0.085705   0.000335  -0.003824
    10  C   -0.000003   0.000011   0.000117  -0.006572   0.002389   0.003410
    11  N    0.000000   0.000003   0.000003  -0.000580  -0.000034   0.000008
    12  C    0.000001  -0.000017  -0.000422   0.000468   0.000209  -0.000003
    13  N    0.000040   0.000134  -0.006677   0.007971   0.000224   0.000041
    14  C   -0.067063   0.210690  -0.040059   0.003341   0.000132  -0.000001
    15  C   -0.001904  -0.052602   0.000579  -0.000364   0.000000   0.000000
    16  N    0.000360   0.000273   0.000023  -0.000001   0.000000   0.000000
    17  H    0.004029  -0.018916   0.322913  -0.034463  -0.014060   0.001820
    18  H    0.025481  -0.005817  -0.043264   0.386739  -0.009267   0.002429
    19  H    0.000001   0.000047  -0.000269   0.018580  -0.048102   0.312319
    20  H    0.016323   0.001535  -0.007645  -0.048731   0.003605   0.000026
    21  H   -0.000079   0.000140   0.004776  -0.031567   0.000896   0.011631
    22  H    0.000000   0.000001   0.000000  -0.000219   0.000319   0.001350
    23  H    0.000000   0.000001  -0.000017   0.000010   0.000006   0.000000
    24  H   -0.000415   0.000547   0.015786  -0.001997   0.000257  -0.000015
    25  H    0.000049   0.000412  -0.001916   0.000342  -0.000027   0.000000
    26  H    0.003693  -0.035129   0.000408  -0.000182  -0.000024  -0.000002
    27  H    0.022438  -0.010260   0.001402  -0.000009   0.000000   0.000000
    28  H    0.001147   0.024166  -0.000120   0.000170  -0.000004   0.000000
    29  H   -0.000001  -0.000750   0.000009   0.000000   0.000000   0.000000
    30  H    0.000014  -0.000810   0.000006  -0.000001   0.000000   0.000000
               7          8          9         10         11         12
     1  O   -0.000007  -0.004681   0.000030  -0.000003   0.000000   0.000001
     2  C   -0.000906  -0.003282   0.000359   0.000011   0.000003  -0.000017
     3  N   -0.021437  -0.058697   0.004003   0.000117   0.000003  -0.000422
     4  C   -0.094444   0.306824  -0.085705  -0.006572  -0.000580   0.000468
     5  C    0.695294  -0.064702   0.000335   0.002389  -0.000034   0.000209
     6  O   -0.079505  -0.000693  -0.003824   0.003410   0.000008  -0.000003
     7  O    7.827469  -0.001622   0.002502  -0.000681  -0.000004   0.000077
     8  C   -0.001622   4.883299   0.287111  -0.037665   0.010440  -0.000031
     9  C    0.002502   0.287111   5.198248   0.501891  -0.049412  -0.124543
    10  C   -0.000681  -0.037665   0.501891   4.704691   0.470859  -0.156863
    11  N   -0.000004   0.010440  -0.049412   0.470859   6.510763   0.581010
    12  C    0.000077  -0.000031  -0.124543  -0.156863   0.581010   4.580107
    13  N   -0.000425  -0.053012   0.338340  -0.033349  -0.136532   0.477664
    14  C   -0.000287  -0.001172   0.000055   0.000002   0.000000  -0.000005
    15  C   -0.000002  -0.000026   0.000002   0.000000   0.000000   0.000000
    16  N    0.000000   0.000000   0.000000   0.000000   0.000000   0.000000
    17  H    0.048082   0.002865   0.002000  -0.000360  -0.000027   0.000280
    18  H    0.000930  -0.061189   0.008481   0.000016   0.000003   0.000003
    19  H    0.011954  -0.001020   0.000252   0.000498  -0.000011  -0.000013
    20  H   -0.000318   0.397333  -0.035284   0.002834  -0.000523   0.000476
    21  H    0.000315   0.387371  -0.030324  -0.006180   0.000483  -0.000364
    22  H   -0.000054  -0.001524  -0.054731   0.432044  -0.020447   0.006387
    23  H    0.000003  -0.000242   0.006015   0.003465  -0.017023   0.422394
    24  H   -0.000076   0.002428  -0.028545   0.003390   0.006491  -0.025206
    25  H    0.000000   0.000257  -0.000051  -0.000002   0.000000   0.000005
    26  H   -0.000286   0.000121  -0.000013   0.000001   0.000000  -0.000003
    27  H    0.000000   0.000002   0.000000   0.000000   0.000000   0.000000
    28  H    0.000000   0.000007  -0.000001   0.000000   0.000000   0.000000
    29  H    0.000000   0.000000   0.000000   0.000000   0.000000   0.000000
    30  H    0.000000   0.000000   0.000000   0.000000   0.000000   0.000000
              13         14         15         16         17         18
     1  O    0.000040  -0.067063  -0.001904   0.000360   0.004029   0.025481
     2  C    0.000134   0.210690  -0.052602   0.000273  -0.018916  -0.005817
     3  N   -0.006677  -0.040059   0.000579   0.000023   0.322913  -0.043264
     4  C    0.007971   0.003341  -0.000364  -0.000001  -0.034463   0.386739
     5  C    0.000224   0.000132   0.000000   0.000000  -0.014060  -0.009267
     6  O    0.000041  -0.000001   0.000000   0.000000   0.001820   0.002429
     7  O   -0.000425  -0.000287  -0.000002   0.000000   0.048082   0.000930
     8  C   -0.053012  -0.001172  -0.000026   0.000000   0.002865  -0.061189
     9  C    0.338340   0.000055   0.000002   0.000000   0.002000   0.008481
    10  C   -0.033349   0.000002   0.000000   0.000000  -0.000360   0.000016
    11  N   -0.136532   0.000000   0.000000   0.000000  -0.000027   0.000003
    12  C    0.477664  -0.000005   0.000000   0.000000   0.000280   0.000003
    13  N    6.287753  -0.000121   0.000000   0.000000   0.001880  -0.000269
    14  C   -0.000121   5.093051   0.298783  -0.039807  -0.005993   0.001942
    15  C    0.000000   0.298783   4.593366   0.311797  -0.000737   0.000282
    16  N    0.000000  -0.039807   0.311797   6.399955  -0.000051   0.000000
    17  H    0.001880  -0.005993  -0.000737  -0.000051   0.580844   0.004617
    18  H   -0.000269   0.001942   0.000282   0.000000   0.004617   0.670295
    19  H    0.000020   0.000002   0.000000   0.000000  -0.000584  -0.000325
    20  H    0.001144   0.000721  -0.000035   0.000000  -0.000417  -0.004015
    21  H    0.002883   0.000014   0.000001   0.000000  -0.000575  -0.000762
    22  H    0.004678   0.000000   0.000000   0.000000  -0.000008  -0.000007
    23  H   -0.038183  -0.000001   0.000000   0.000000   0.000001   0.000000
    24  H    0.376602   0.001290   0.000066  -0.000002  -0.000792   0.000418
    25  H    0.000077   0.314480  -0.025989   0.020311   0.000795  -0.000110
    26  H   -0.000036   0.391269  -0.034987   0.000125  -0.000555  -0.000622
    27  H    0.000000  -0.021475   0.375699  -0.023049  -0.000115  -0.000139
    28  H    0.000000  -0.094326   0.417246  -0.056367   0.000012   0.000018
    29  H    0.000000   0.000839  -0.050320   0.359668   0.000016   0.000000
    30  H    0.000000   0.006056  -0.033770   0.357597   0.000000   0.000000
              19         20         21         22         23         24
     1  O    0.000001   0.016323  -0.000079   0.000000   0.000000  -0.000415
     2  C    0.000047   0.001535   0.000140   0.000001   0.000001   0.000547
     3  N   -0.000269  -0.007645   0.004776   0.000000  -0.000017   0.015786
     4  C    0.018580  -0.048731  -0.031567  -0.000219   0.000010  -0.001997
     5  C   -0.048102   0.003605   0.000896   0.000319   0.000006   0.000257
     6  O    0.312319   0.000026   0.011631   0.001350   0.000000  -0.000015
     7  O    0.011954  -0.000318   0.000315  -0.000054   0.000003  -0.000076
     8  C   -0.001020   0.397333   0.387371  -0.001524  -0.000242   0.002428
     9  C    0.000252  -0.035284  -0.030324  -0.054731   0.006015  -0.028545
    10  C    0.000498   0.002834  -0.006180   0.432044   0.003465   0.003390
    11  N   -0.000011  -0.000523   0.000483  -0.020447  -0.017023   0.006491
    12  C   -0.000013   0.000476  -0.000364   0.006387   0.422394  -0.025206
    13  N    0.000020   0.001144   0.002883   0.004678  -0.038183   0.376602
    14  C    0.000002   0.000721   0.000014   0.000000  -0.000001   0.001290
    15  C    0.000000  -0.000035   0.000001   0.000000   0.000000   0.000066
    16  N    0.000000   0.000000   0.000000   0.000000   0.000000  -0.000002
    17  H   -0.000584  -0.000417  -0.000575  -0.000008   0.000001  -0.000792
    18  H   -0.000325  -0.004015  -0.000762  -0.000007   0.000000   0.000418
    19  H    0.478783   0.000108  -0.000505   0.000098   0.000000   0.000010
    20  H    0.000108   0.671861  -0.036514   0.000084  -0.000010   0.000365
    21  H   -0.000505  -0.036514   0.675824   0.001985   0.000021  -0.000005
    22  H    0.000098   0.000084   0.001985   0.626003  -0.000444  -0.000477
    23  H    0.000000  -0.000010   0.000021  -0.000444   0.608580  -0.001601
    24  H    0.000010   0.000365  -0.000005  -0.000477  -0.001601   0.549731
    25  H    0.000000  -0.000104  -0.000005   0.000000   0.000002  -0.000290
    26  H    0.000001  -0.000038   0.000002   0.000000   0.000000  -0.000055
    27  H    0.000000  -0.000022   0.000000   0.000000   0.000000  -0.000007
    28  H    0.000000  -0.000005   0.000000   0.000000   0.000000  -0.000002
    29  H    0.000000   0.000000   0.000000   0.000000   0.000000   0.000001
    30  H    0.000000   0.000000   0.000000   0.000000   0.000000   0.000000
              25         26         27         28         29         30
     1  O    0.000049   0.003693   0.022438   0.001147  -0.000001   0.000014
     2  C    0.000412  -0.035129  -0.010260   0.024166  -0.000750  -0.000810
     3  N   -0.001916   0.000408   0.001402  -0.000120   0.000009   0.000006
     4  C    0.000342  -0.000182  -0.000009   0.000170   0.000000  -0.000001
     5  C   -0.000027  -0.000024   0.000000  -0.000004   0.000000   0.000000
     6  O    0.000000  -0.000002   0.000000   0.000000   0.000000   0.000000
     7  O    0.000000  -0.000286   0.000000   0.000000   0.000000   0.000000
     8  C    0.000257   0.000121   0.000002   0.000007   0.000000   0.000000
     9  C   -0.000051  -0.000013   0.000000  -0.000001   0.000000   0.000000
    10  C   -0.000002   0.000001   0.000000   0.000000   0.000000   0.000000
    11  N    0.000000   0.000000   0.000000   0.000000   0.000000   0.000000
    12  C    0.000005  -0.000003   0.000000   0.000000   0.000000   0.000000
    13  N    0.000077  -0.000036   0.000000   0.000000   0.000000   0.000000
    14  C    0.314480   0.391269  -0.021475  -0.094326   0.000839   0.006056
    15  C   -0.025989  -0.034987   0.375699   0.417246  -0.050320  -0.033770
    16  N    0.020311   0.000125  -0.023049  -0.056367   0.359668   0.357597
    17  H    0.000795  -0.000555  -0.000115   0.000012   0.000016   0.000000
    18  H   -0.000110  -0.000622  -0.000139   0.000018   0.000000   0.000000
    19  H    0.000000   0.000001   0.000000   0.000000   0.000000   0.000000
    20  H   -0.000104  -0.000038  -0.000022  -0.000005   0.000000   0.000000
    21  H   -0.000005   0.000002   0.000000   0.000000   0.000000   0.000000
    22  H    0.000000   0.000000   0.000000   0.000000   0.000000   0.000000
    23  H    0.000002   0.000000   0.000000   0.000000   0.000000   0.000000
    24  H   -0.000290  -0.000055  -0.000007  -0.000002   0.000001   0.000000
    25  H    0.721093  -0.046893  -0.009801   0.014568  -0.003003  -0.000666
    26  H   -0.046893   0.720711   0.009618  -0.010421   0.003510  -0.000196
    27  H   -0.009801   0.009618   0.692921  -0.057602   0.008558  -0.007760
    28  H    0.014568  -0.010421  -0.057602   0.791773  -0.010885  -0.003725
    29  H   -0.003003   0.003510   0.008558  -0.010885   0.645904  -0.048161
    30  H   -0.000666  -0.000196  -0.007760  -0.003725  -0.048161   0.643321
 Mulliken charges:
               1
     1  O   -0.426270
     2  C    0.440626
     3  N   -0.313282
     4  C    0.033769
     5  C    0.590057
     6  O   -0.345266
     7  O   -0.386574
     8  C    0.011501
     9  C    0.062806
    10  C    0.116059
    11  N   -0.355472
    12  C    0.238387
    13  N   -0.230845
    14  C   -0.052355
    15  C    0.202917
    16  N   -0.330832
    17  H    0.107499
    18  H    0.024132
    19  H    0.228154
    20  H    0.037247
    21  H    0.020539
    22  H    0.004963
    23  H    0.017023
    24  H    0.102103
    25  H    0.016466
    26  H   -0.000016
    27  H    0.019600
    28  H   -0.015648
    29  H    0.094616
    30  H    0.088097
 Sum of Mulliken charges =   0.00000
 Mulliken charges with hydrogens summed into heavy atoms:
               1
     1  O   -0.426270
     2  C    0.440626
     3  N   -0.205783
     4  C    0.057902
     5  C    0.590057
     6  O   -0.117113
     7  O   -0.386574
     8  C    0.069287
     9  C    0.062806
    10  C    0.121021
    11  N   -0.355472
    12  C    0.255410
    13  N   -0.128742
    14  C   -0.035905
    15  C    0.206868
    16  N   -0.148119
 Electronic spatial extent (au):  <R**2>=           4733.4956
 Charge=              0.0000 electrons
 Dipole moment (field-independent basis, Debye):
    X=             -3.1752    Y=             -0.3594    Z=              1.5470  Tot=              3.5502
 Quadrupole moment (field-independent basis, Debye-Ang):
   XX=            -98.6248   YY=           -100.6770   ZZ=            -90.2836
   XY=            -10.6078   XZ=              3.0015   YZ=             -6.6023
 Traceless Quadrupole moment (field-independent basis, Debye-Ang):
   XX=             -2.0963   YY=             -4.1485   ZZ=              6.2448
   XY=            -10.6078   XZ=              3.0015   YZ=             -6.6023
 Octapole moment (field-independent basis, Debye-Ang**2):
  XXX=           -271.0587  YYY=             -2.6581  ZZZ=              0.4876  XYY=            -53.4884
  XXY=            -67.4418  XXZ=             21.6687  XZZ=             -2.5353  YZZ=            -13.3198
  YYZ=            -19.4362  XYZ=            -12.0305
 Hexadecapole moment (field-independent basis, Debye-Ang**3):
 XXXX=          -4080.9375 YYYY=           -836.7557 ZZZZ=          -1030.1580 XXXY=           -561.4061
 XXXZ=           -218.9402 YYYX=           -408.3512 YYYZ=             42.8039 ZZZX=           -266.4619
 ZZZY=             54.6742 XXYY=           -938.3416 XXZZ=           -853.1907 YYZZ=           -341.2401
 XXYZ=             87.0445 YYXZ=           -154.3264 ZZXY=            -88.5648
 N-N= 1.115955494699D+03 E-N=-4.093242245270D+03  KE= 7.931462438654D+02
 Calling FoFJK, ICntrl=      2127 FMM=F ISym2X=0 I1Cent= 0 IOpClX= 0 NMat=1 NMatS=1 NMatT=0.
 -------------------------------------------------------------------
 Center     Atomic                   Forces (Hartrees/Bohr)
 Number     Number              X              Y              Z
 -------------------------------------------------------------------
      1        8          -0.001640912    0.011733114    0.004600021
      2        6           0.002607526   -0.006429130   -0.002202631
      3        7          -0.002116382   -0.002048154   -0.000321135
      4        6          -0.000202792    0.000226734    0.000411897
      5        6          -0.004218421    0.008442753    0.004493167
      6        8          -0.002511933    0.004776773    0.001993547
      7        8           0.006579271   -0.012284897   -0.005222148
      8        6           0.000740696   -0.000661665   -0.000193470
      9        6           0.002320538    0.002916226   -0.000202802
     10        6          -0.002109712   -0.000918476   -0.000692024
     11        7          -0.007178960   -0.002327719   -0.002149915
     12        6           0.001635004   -0.001358338    0.001310935
     13        7           0.002534069    0.000151112    0.001282832
     14        6          -0.000333939   -0.000061993   -0.000117513
     15        6           0.002059682   -0.001780995    0.000210390
     16        7          -0.002896023   -0.001204490    0.002913732
     17        1           0.000395987   -0.002641669   -0.001987322
     18        1           0.001000556    0.002538769   -0.000367341
     19        1          -0.000399362   -0.002296538   -0.003051139
     20        1           0.001129530    0.001318064    0.002146524
     21        1          -0.001815681    0.001776580   -0.001210093
     22        1          -0.002128365    0.001292857   -0.001556245
     23        1           0.000508349   -0.002386009    0.001366313
     24        1           0.003112310    0.000399230    0.000877347
     25        1          -0.000299328   -0.001383739    0.002200282
     26        1           0.000603945   -0.002176805   -0.001761577
     27        1          -0.000918844    0.001980933    0.001839167
     28        1           0.000417248    0.001846333   -0.002618942
     29        1           0.000779426   -0.001700276   -0.002692244
     30        1           0.002346517    0.002261418    0.000700386
 -------------------------------------------------------------------
 Cartesian Forces:  Max     0.012284897 RMS     0.003057665

 GradGradGradGradGradGradGradGradGradGradGradGradGradGradGradGradGradGrad
 Berny optimization.
 FormGI is forming the generalized inverse of G from B-inverse, IUseBI=4.
 Internal  Forces:  Max     0.014876398 RMS     0.002202186
 Search for a local minimum.
 Step number   1 out of a maximum of  160
 All quantities printed in internal units (Hartrees-Bohrs-Radians)
 Mixed Optimization -- RFO/linear search
 Second derivative matrix not updated -- first step.
 ITU=  0
     Eigenvalues ---    0.00061   0.00170   0.00246   0.00267   0.00331
     Eigenvalues ---    0.00376   0.00506   0.00568   0.00888   0.00968
     Eigenvalues ---    0.01805   0.01965   0.02065   0.02492   0.03191
     Eigenvalues ---    0.03439   0.04005   0.04041   0.04252   0.04414
     Eigenvalues ---    0.04441   0.04596   0.04898   0.05089   0.05161
     Eigenvalues ---    0.05201   0.05987   0.06123   0.07528   0.08114
     Eigenvalues ---    0.08361   0.09940   0.10629   0.10805   0.11031
     Eigenvalues ---    0.11537   0.11821   0.13495   0.14992   0.15053
     Eigenvalues ---    0.15477   0.16744   0.17617   0.18532   0.18889
     Eigenvalues ---    0.20320   0.21789   0.21903   0.22221   0.23114
     Eigenvalues ---    0.23319   0.24154   0.24356   0.25112   0.26447
     Eigenvalues ---    0.29055   0.30974   0.32593   0.32752   0.32903
     Eigenvalues ---    0.33217   0.33688   0.33864   0.34486   0.34555
     Eigenvalues ---    0.34763   0.36100   0.37047   0.37203   0.37390
     Eigenvalues ---    0.37821   0.40681   0.43277   0.43745   0.44329
     Eigenvalues ---    0.44854   0.44923   0.46084   0.47328   0.48094
     Eigenvalues ---    0.51328   0.57723   0.82541   0.88055
 RFO step:  Lambda=-1.30195317D-03 EMin= 6.07909974D-04
 Linear search not attempted -- first point.
 Iteration  1 RMS(Cart)=  0.02138235 RMS(Int)=  0.00021574
 Iteration  2 RMS(Cart)=  0.00034813 RMS(Int)=  0.00002482
 Iteration  3 RMS(Cart)=  0.00000006 RMS(Int)=  0.00002482
 Variable       Old X    -DE/DX   Delta X   Delta X   Delta X     New X
                                 (Linear)    (Quad)   (Total)
    R1        2.31832  -0.01271   0.00000  -0.01445  -0.01445   2.30387
    R2        2.59293  -0.00501   0.00000  -0.00958  -0.00958   2.58335
    R3        2.88034  -0.00281   0.00000  -0.00713  -0.00713   2.87321
    R4        2.74833  -0.00191   0.00000  -0.00751  -0.00751   2.74082
    R5        1.91506  -0.00329   0.00000  -0.00781  -0.00781   1.90725
    R6        2.87451  -0.00227   0.00000  -0.00544  -0.00544   2.86907
    R7        2.93709  -0.00160   0.00000  -0.00559  -0.00559   2.93150
    R8        2.07416  -0.00275   0.00000  -0.00795  -0.00795   2.06621
    R9        2.54191  -0.00386   0.00000  -0.00528  -0.00528   2.53663
   R10        2.29225  -0.01488   0.00000  -0.01709  -0.01709   2.27516
   R11        1.83759  -0.00380   0.00000  -0.00808  -0.00808   1.82951
   R12        2.82308  -0.00258   0.00000  -0.00713  -0.00713   2.81595
   R13        2.06993  -0.00275   0.00000  -0.00773  -0.00773   2.06220
   R14        2.06542  -0.00281   0.00000  -0.00795  -0.00795   2.05747
   R15        2.60145  -0.00627   0.00000  -0.01064  -0.01064   2.59081
   R16        2.61621  -0.00363   0.00000  -0.00786  -0.00785   2.60836
   R17        2.60250  -0.00327   0.00000  -0.00643  -0.00644   2.59606
   R18        2.04415  -0.00293   0.00000  -0.00779  -0.00779   2.03636
   R19        2.48525  -0.00656   0.00000  -0.01122  -0.01123   2.47402
   R20        2.58264  -0.00475   0.00000  -0.00780  -0.00779   2.57484
   R21        2.04365  -0.00280   0.00000  -0.00718  -0.00718   2.03646
   R22        1.90576  -0.00321   0.00000  -0.00666  -0.00666   1.89910
   R23        2.89187  -0.00229   0.00000  -0.00854  -0.00854   2.88332
   R24        2.07411  -0.00260   0.00000  -0.00742  -0.00742   2.06669
   R25        2.07452  -0.00285   0.00000  -0.00821  -0.00821   2.06631
   R26        2.76938  -0.00089   0.00000  -0.00316  -0.00316   2.76622
   R27        2.06568  -0.00284   0.00000  -0.00819  -0.00819   2.05749
   R28        2.08553  -0.00319   0.00000  -0.00966  -0.00966   2.07588
   R29        1.92402  -0.00322   0.00000  -0.00820  -0.00820   1.91582
   R30        1.92165  -0.00329   0.00000  -0.00827  -0.00827   1.91338
    A1        2.12433  -0.00039   0.00000   0.00105   0.00104   2.12538
    A2        2.14228  -0.00008   0.00000  -0.00048  -0.00048   2.14180
    A3        2.01560   0.00048   0.00000  -0.00043  -0.00043   2.01517
    A4        2.10212   0.00097   0.00000   0.00787   0.00779   2.10991
    A5        2.09740  -0.00097   0.00000  -0.00461  -0.00472   2.09268
    A6        2.00631   0.00005   0.00000   0.00523   0.00516   2.01147
    A7        1.87746   0.00002   0.00000   0.00314   0.00313   1.88059
    A8        1.97429   0.00035   0.00000   0.00328   0.00327   1.97756
    A9        1.89886  -0.00014   0.00000  -0.00155  -0.00154   1.89732
   A10        1.95202  -0.00008   0.00000   0.00053   0.00051   1.95253
   A11        1.89203  -0.00013   0.00000  -0.00367  -0.00367   1.88836
   A12        1.86729  -0.00006   0.00000  -0.00216  -0.00216   1.86514
   A13        1.95314   0.00055   0.00000  -0.00177  -0.00177   1.95136
   A14        2.17571   0.00019   0.00000   0.00195   0.00195   2.17766
   A15        2.15434  -0.00074   0.00000  -0.00018  -0.00018   2.15416
   A16        1.86272   0.00103   0.00000   0.00865   0.00865   1.87137
   A17        2.00198   0.00069   0.00000   0.00379   0.00379   2.00576
   A18        1.85268   0.00007   0.00000   0.00252   0.00252   1.85519
   A19        1.88864  -0.00026   0.00000  -0.00119  -0.00119   1.88745
   A20        1.95091  -0.00034   0.00000  -0.00257  -0.00258   1.94832
   A21        1.89389  -0.00026   0.00000  -0.00127  -0.00127   1.89262
   A22        1.87063   0.00007   0.00000  -0.00154  -0.00154   1.86909
   A23        2.30589  -0.00064   0.00000  -0.00480  -0.00481   2.30108
   A24        2.15712   0.00081   0.00000   0.00399   0.00398   2.16110
   A25        1.82016  -0.00018   0.00000   0.00082   0.00084   1.82100
   A26        1.94372  -0.00066   0.00000  -0.00279  -0.00279   1.94093
   A27        2.21965   0.00021   0.00000   0.00044   0.00045   2.22009
   A28        2.11977   0.00046   0.00000   0.00235   0.00235   2.12213
   A29        1.83268   0.00116   0.00000   0.00372   0.00372   1.83640
   A30        1.95121  -0.00076   0.00000  -0.00281  -0.00279   1.94842
   A31        2.19743   0.00038   0.00000   0.00182   0.00181   2.19924
   A32        2.13454   0.00039   0.00000   0.00099   0.00098   2.13553
   A33        1.87699   0.00044   0.00000   0.00106   0.00103   1.87802
   A34        2.18488   0.00026   0.00000   0.00553   0.00547   2.19036
   A35        2.22025  -0.00070   0.00000  -0.00580  -0.00587   2.21438
   A36        1.95551   0.00093   0.00000   0.00553   0.00553   1.96104
   A37        1.89357  -0.00047   0.00000  -0.00343  -0.00344   1.89014
   A38        1.93048  -0.00043   0.00000  -0.00230  -0.00230   1.92818
   A39        1.88616  -0.00004   0.00000   0.00150   0.00151   1.88767
   A40        1.93604  -0.00025   0.00000  -0.00194  -0.00194   1.93410
   A41        1.85839   0.00022   0.00000   0.00042   0.00042   1.85881
   A42        1.91926   0.00001   0.00000   0.00014   0.00014   1.91940
   A43        1.88385   0.00020   0.00000   0.00457   0.00457   1.88842
   A44        1.90444   0.00016   0.00000   0.00098   0.00097   1.90541
   A45        1.89841  -0.00007   0.00000  -0.00161  -0.00161   1.89680
   A46        1.99725  -0.00035   0.00000  -0.00518  -0.00519   1.99207
   A47        1.85661   0.00008   0.00000   0.00170   0.00169   1.85830
   A48        1.92023   0.00097   0.00000   0.01027   0.01021   1.93044
   A49        1.91406   0.00070   0.00000   0.00874   0.00868   1.92273
   A50        1.84874  -0.00050   0.00000   0.00439   0.00426   1.85300
    D1       -0.16869   0.00019   0.00000   0.01008   0.01004  -0.15865
    D2       -2.87722   0.00003   0.00000  -0.01375  -0.01372  -2.89094
    D3        3.01917   0.00005   0.00000   0.00679   0.00676   3.02593
    D4        0.31065  -0.00011   0.00000  -0.01704  -0.01701   0.29364
    D5        0.55308  -0.00002   0.00000  -0.00790  -0.00790   0.54518
    D6       -1.52782  -0.00024   0.00000  -0.01090  -0.01089  -1.53872
    D7        2.72303   0.00002   0.00000  -0.00811  -0.00811   2.71493
    D8       -2.63531   0.00012   0.00000  -0.00453  -0.00453  -2.63985
    D9        1.56697  -0.00010   0.00000  -0.00753  -0.00753   1.55944
   D10       -0.46536   0.00016   0.00000  -0.00474  -0.00474  -0.47010
   D11       -2.64478   0.00029   0.00000   0.01275   0.01272  -2.63206
   D12        1.47380   0.00014   0.00000   0.00759   0.00756   1.48135
   D13       -0.59866   0.00009   0.00000   0.00930   0.00927  -0.58939
   D14        0.08512   0.00018   0.00000   0.03302   0.03306   0.11818
   D15       -2.07948   0.00003   0.00000   0.02787   0.02789  -2.05159
   D16        2.13124  -0.00003   0.00000   0.02958   0.02961   2.16085
   D17        3.11570  -0.00026   0.00000  -0.01125  -0.01125   3.10445
   D18       -0.02375  -0.00020   0.00000  -0.01106  -0.01106  -0.03481
   D19       -0.98943   0.00015   0.00000  -0.00453  -0.00453  -0.99396
   D20        2.15431   0.00021   0.00000  -0.00434  -0.00434   2.14997
   D21        1.06514  -0.00004   0.00000  -0.00917  -0.00917   1.05597
   D22       -2.07431   0.00002   0.00000  -0.00898  -0.00898  -2.08329
   D23        1.14607   0.00017   0.00000   0.00622   0.00623   1.15230
   D24       -1.01719   0.00011   0.00000   0.00514   0.00514  -1.01205
   D25       -3.02031   0.00011   0.00000   0.00623   0.00623  -3.01408
   D26       -0.97714  -0.00006   0.00000  -0.00069  -0.00069  -0.97783
   D27       -3.14040  -0.00013   0.00000  -0.00177  -0.00177   3.14101
   D28        1.13966  -0.00012   0.00000  -0.00069  -0.00069   1.13897
   D29       -3.04646   0.00018   0.00000   0.00481   0.00482  -3.04164
   D30        1.07346   0.00011   0.00000   0.00374   0.00373   1.07720
   D31       -0.92966   0.00011   0.00000   0.00482   0.00482  -0.92484
   D32        3.11155   0.00003   0.00000   0.00006   0.00006   3.11161
   D33       -0.03216  -0.00003   0.00000  -0.00013  -0.00013  -0.03228
   D34        1.94352  -0.00016   0.00000  -0.02527  -0.02527   1.91826
   D35       -1.19399  -0.00027   0.00000  -0.02883  -0.02883  -1.22283
   D36       -2.22957   0.00018   0.00000  -0.02112  -0.02112  -2.25070
   D37        0.91610   0.00007   0.00000  -0.02468  -0.02469   0.89140
   D38       -0.17040  -0.00010   0.00000  -0.02533  -0.02533  -0.19572
   D39        2.97527  -0.00021   0.00000  -0.02889  -0.02889   2.94638
   D40       -3.13779  -0.00005   0.00000  -0.00297  -0.00298  -3.14077
   D41        0.01412  -0.00006   0.00000  -0.00381  -0.00381   0.01031
   D42        0.00030   0.00005   0.00000   0.00010   0.00009   0.00038
   D43       -3.13097   0.00004   0.00000  -0.00075  -0.00075  -3.13172
   D44        3.13559   0.00005   0.00000   0.00370   0.00373   3.13932
   D45        0.04054  -0.00001   0.00000  -0.01337  -0.01342   0.02712
   D46       -0.00288  -0.00003   0.00000   0.00099   0.00100  -0.00188
   D47       -3.09793  -0.00009   0.00000  -0.01608  -0.01615  -3.11408
   D48        0.00247  -0.00004   0.00000  -0.00117  -0.00116   0.00131
   D49        3.13442  -0.00003   0.00000  -0.00039  -0.00039   3.13403
   D50       -0.00438   0.00002   0.00000   0.00183   0.00183  -0.00256
   D51        3.13918   0.00004   0.00000   0.00110   0.00107   3.14025
   D52        0.00473   0.00001   0.00000  -0.00185  -0.00184   0.00288
   D53        3.09856   0.00010   0.00000   0.01607   0.01601   3.11456
   D54       -3.13875  -0.00002   0.00000  -0.00114  -0.00112  -3.13987
   D55       -0.04492   0.00008   0.00000   0.01678   0.01673  -0.02820
   D56       -2.99810  -0.00012   0.00000   0.00033   0.00033  -2.99778
   D57       -0.92956  -0.00008   0.00000   0.00117   0.00117  -0.92839
   D58        1.08112   0.00021   0.00000   0.00613   0.00613   1.08726
   D59       -0.91284  -0.00016   0.00000   0.00041   0.00041  -0.91244
   D60        1.15570  -0.00012   0.00000   0.00125   0.00125   1.15695
   D61       -3.11680   0.00017   0.00000   0.00621   0.00621  -3.11059
   D62        1.11822  -0.00006   0.00000   0.00072   0.00072   1.11894
   D63       -3.09642  -0.00002   0.00000   0.00156   0.00156  -3.09486
   D64       -1.08574   0.00027   0.00000   0.00652   0.00653  -1.07921
   D65       -1.25815   0.00023   0.00000  -0.00071  -0.00068  -1.25882
   D66        2.99824  -0.00013   0.00000  -0.01702  -0.01706   2.98118
   D67        2.96548   0.00002   0.00000  -0.00538  -0.00534   2.96014
   D68        0.93868  -0.00035   0.00000  -0.02169  -0.02172   0.91696
   D69        0.89233   0.00019   0.00000  -0.00310  -0.00306   0.88927
   D70       -1.13446  -0.00018   0.00000  -0.01941  -0.01945  -1.15391
         Item               Value     Threshold  Converged?
 Maximum Force            0.014876     0.000450     NO 
 RMS     Force            0.002202     0.000300     NO 
 Maximum Displacement     0.107420     0.001800     NO 
 RMS     Displacement     0.021303     0.001200     NO 
 Predicted change in Energy=-6.600273D-04
 GradGradGradGradGradGradGradGradGradGradGradGradGradGradGradGradGradGrad

                          Input orientation:                          
 ---------------------------------------------------------------------
 Center     Atomic      Atomic             Coordinates (Angstroms)
 Number     Number       Type             X           Y           Z
 ---------------------------------------------------------------------
      1          8           0       -1.150609   -1.886526   -0.768347
      2          6           0       -1.300391   -0.748574   -0.357280
      3          7           0       -0.376511   -0.147987    0.451770
      4          6           0        0.725297   -0.905352    1.013923
      5          6           0        1.103403   -0.260734    2.335501
      6          8           0        2.091609   -0.928598    2.951333
      7          8           0        0.587188    0.727447    2.789982
      8          6           0        1.941731   -1.020458    0.058142
      9          6           0        2.636574    0.265538   -0.231530
     10          6           0        3.866730    0.744090    0.139060
     11          7           0        4.084827    2.001316   -0.369936
     12          6           0        3.000688    2.292082   -1.043799
     13          7           0        2.092272    1.277666   -0.996068
     14          6           0       -2.486411    0.117746   -0.750446
     15          6           0       -3.744583   -0.704790   -1.012108
     16          7           0       -4.792950    0.149509   -1.572348
     17          1           0       -0.616983    0.696275    0.949797
     18          1           0        0.383453   -1.924010    1.216366
     19          1           0        2.297066   -0.448814    3.766736
     20          1           0        1.571160   -1.491745   -0.853688
     21          1           0        2.659571   -1.706894    0.504148
     22          1           0        4.607286    0.241962    0.739603
     23          1           0        2.815399    3.207378   -1.581599
     24          1           0        1.178048    1.266729   -1.413229
     25          1           0       -2.231363    0.652231   -1.669868
     26          1           0       -2.672089    0.880374    0.010827
     27          1           0       -3.500165   -1.478457   -1.738150
     28          1           0       -4.034336   -1.224513   -0.088719
     29          1           0       -5.163190    0.771836   -0.862817
     30          1           0       -5.572409   -0.415119   -1.886718
 ---------------------------------------------------------------------
                    Distance matrix (angstroms):
                    1          2          3          4          5
     1  O    0.000000
     2  C    1.219158   0.000000
     3  N    2.260627   1.367049   0.000000
     4  C    2.767347   2.451160   1.450378   0.000000
     5  C    4.166251   3.642429   2.398187   1.518244   0.000000
     6  O    5.026492   4.741834   3.598441   2.370845   1.342327
     7  O    4.744944   3.955610   2.676254   2.416504   1.203965
     8  C    3.315980   3.279916   2.508065   1.551283   2.542899
     9  C    4.388885   4.067423   3.117143   2.564200   3.035988
    10  C    5.737353   5.401253   4.347261   3.654401   3.670149
    11  N    6.533287   6.046704   5.019785   4.652981   4.617916
    12  C    5.896601   5.311890   4.426752   4.431163   4.640713
    13  N    4.536545   4.002981   3.197438   3.267147   3.800511
    14  C    2.408691   1.520438   2.442871   3.804575   4.749009
    15  C    2.860878   2.530769   3.714416   4.911706   5.908185
    16  N    4.249529   3.805379   4.867288   6.184866   7.085659
    17  H    3.147640   2.064724   1.009275   2.090702   2.407440
    18  H    2.508752   2.587150   2.077597   1.093391   2.130089
    19  H    5.875411   5.480790   4.269369   3.202634   1.873136
    20  H    2.751574   3.007412   2.702467   2.132443   3.450378
    21  H    4.021067   4.164341   3.413316   2.154938   2.804798
    22  H    6.321213   6.089742   5.007308   4.057268   3.882884
    23  H    6.506801   5.838513   5.057801   5.293374   5.504761
    24  H    3.972597   3.364391   2.810035   3.288462   4.048665
    25  H    2.902767   2.133506   2.929535   4.286098   5.291233
    26  H    3.252345   2.161141   2.553749   3.967020   4.578272
    27  H    2.574383   2.697876   4.040188   5.075124   6.266604
    28  H    3.035793   2.788028   3.851068   4.896099   5.762125
    29  H    4.814210   4.181917   5.048417   6.403857   7.110952
    30  H    4.792505   4.549782   5.704143   6.950910   7.900471
                    6          7          8          9         10
     6  O    0.000000
     7  O    2.243168   0.000000
     8  C    2.898527   3.514670   0.000000
     9  C    3.442901   3.680065   1.490135   0.000000
    10  C    3.722609   4.216996   2.612623   1.370997   0.000000
    11  N    4.856763   4.882756   3.729240   2.264844   1.373776
    12  C    5.211553   4.792800   3.648093   2.213422   2.132009
    13  N    4.522120   4.111227   2.532863   1.380284   2.172997
    14  C    5.979654   4.727936   4.643033   5.151319   6.445613
    15  C    7.058335   5.938976   5.794760   6.501539   7.833041
    16  N    8.308017   6.950526   7.027321   7.550435   8.847174
    17  H    3.739362   2.199381   3.207684   3.488080   4.556672
    18  H    2.630352   3.089984   2.141523   3.459347   4.518026
    19  H    0.968136   2.293757   3.769179   4.075745   4.128788
    20  H    3.881519   4.378281   1.091269   2.147145   3.354720
    21  H    2.630026   3.930117   1.088766   2.105289   2.756419
    22  H    3.548323   4.538825   3.027091   2.197126   1.077593
    23  H    6.178806   5.497790   4.618078   3.241772   3.183355
    24  H    4.970257   4.278658   2.824777   2.127461   3.148295
    25  H    6.522469   5.276376   4.816494   5.090693   6.361398
    26  H    5.883176   4.286020   4.990263   5.349641   6.541495
    27  H    7.318574   6.486636   5.748970   6.555226   7.920528
    28  H    6.845194   5.784078   5.981353   6.836790   8.145804
    29  H    8.370861   6.812618   7.385146   7.841631   9.085372
    30  H    9.077861   7.817776   7.785320   8.401806   9.723419
                   11         12         13         14         15
    11  N    0.000000
    12  C    1.309196   0.000000
    13  N    2.210427   1.362548   0.000000
    14  C    6.846444   5.909488   4.729703   0.000000
    15  C    8.308734   7.381120   6.164355   1.525788   0.000000
    16  N    9.148219   8.100048   7.000794   2.448806   1.463819
    17  H    5.054884   4.428156   3.385922   2.592351   3.948916
    18  H    5.623585   5.452861   4.250371   4.034010   4.846987
    19  H    5.129452   5.581114   5.070204   6.603603   7.707425
    20  H    4.330590   4.049325   2.821607   4.366348   5.376013
    21  H    4.067702   4.301663   3.388226   5.602182   6.657059
    22  H    2.144613   3.156686   3.226535   7.249566   8.585951
    23  H    2.129357   1.077649   2.142323   6.192401   7.659161
    24  H    3.174499   2.123640   1.004962   3.897140   5.317902
    25  H    6.588180   5.518644   4.420294   1.093646   2.136350
    26  H    6.859840   5.940164   4.885776   1.093442   2.170112
    27  H    8.456532   7.547197   6.278714   2.133335   1.088779
    28  H    8.741045   7.922764   6.679784   2.153047   1.098506
    29  H    9.342397   8.306191   7.274294   2.757827   2.053085
    30  H   10.069856   9.029809   7.899754   3.331433   2.046900
                   16         17         18         19         20
    16  N    0.000000
    17  H    4.909060   0.000000
    18  H    6.234706   2.817414   0.000000
    19  H    8.895624   4.211657   3.513190   0.000000
    20  H    6.611510   3.581614   2.425412   4.791969   0.000000
    21  H    7.956012   4.087741   2.394808   3.515487   1.753467
    22  H    9.680811   5.248196   4.770692   3.870119   3.842184
    23  H    8.199855   4.949227   6.330412   6.499315   4.915256
    24  H    6.076702   3.021828   4.210340   5.570217   2.841971
    25  H    2.612272   3.077468   4.669543   7.160700   4.440941
    26  H    2.745662   2.266940   4.319054   6.369152   4.937559
    27  H    2.085439   4.501917   4.900018   8.060510   5.147891
    28  H    2.159765   4.055397   4.659336   7.453382   5.663760
    29  H    1.013807   4.894822   6.508136   8.864433   7.104601
    30  H    1.012517   5.816981   6.883181   9.689753   7.297729
                   21         22         23         24         25
    21  H    0.000000
[...]
 1,0.00120538,-0.01530477,0.01133926,-0.01697831,-0.01703716,-0.0625685
 3,0.02017447,-0.00002271,-0.00000147,0.00005024,-0.00007902,-0.0000665
 2,-0.00001996,0.00008138,-0.00005516,0.00006102,0.00012805,0.00039377,
 -0.00008588,-0.00002578,0.00001472,0.00002228,0.00003572,0.00002563,-0
 .00001886,-0.00034291,-0.00087466,-0.00022376,-0.00002885,0.00001399,-
 0.00039037,0.00060989,0.00117457,0.00080558,0.00083414,-0.00059225,-0.
 00001149,0.01290949,0.05028175,-0.00006833,-0.00143421,-0.00114319,0.0
 0230244,0.00210366,0.00251040,-0.00266193,-0.00245820,0.00077279,-0.00
 081659,0.00129781,-0.00088702,-0.00059208,0.00056263,-0.00037224,0.000
 43436,-0.00018437,0.00026013,0.00021883,-0.00039269,0.00024446,0.00102
 640,-0.00019472,-0.00051487,-0.01042391,-0.00899925,-0.00740957,-0.002
 20881,0.00378398,-0.00062568,-0.00006474,0.00292757,0.00531666,0.00647
 307,-0.00520685,-0.00273919,-0.16919557,0.02049270,-0.09486550,-0.0001
 0678,-0.00006313,0.00003350,0.00016236,0.00010296,0.00001700,-0.000107
 04,0.00002882,-0.00012444,0.00083970,0.00037161,-0.00106020,0.00016465
 ,-0.00011245,-0.00004476,-0.00005324,0.00002233,-0.00003803,-0.0001114
 2,-0.00010615,0.00003426,0.00000223,-0.00019405,-0.00001095,-0.0011216
 6,0.00018967,0.00129380,0.00028394,-0.00038571,-0.00101082,0.17569264,
 -0.01220097,0.10040774,-0.00208779,-0.00046993,0.00239285,0.00804852,0
 .01364797,-0.02414053,-0.00231857,-0.00073708,0.00090232,-0.00050960,-
 0.00048212,0.00103472,0.00012948,-0.00001293,0.00026171,-0.00005474,0.
 00002202,-0.00007339,-0.00004410,-0.00006037,-0.00012335,-0.00021849,0
 .00014628,-0.00030195,-0.00000880,0.00019160,-0.00009570,0.00007131,0.
 00001630,0.00003176,0.00009858,-0.00005792,0.00007385,-0.00012502,-0.0
 0018069,0.00002302,0.00000399,0.00003074,-0.00000633,-0.05673318,-0.02
 692962,0.04772549,-0.00988073,-0.01682904,0.02385220,0.00264421,0.0010
 4446,0.00056126,0.00006142,0.00048504,-0.00037622,0.00000605,0.0000537
 2,0.00002896,0.00001515,0.00000206,0.00000771,0.00007112,0.00000556,-0
 .00004949,-0.00012301,0.00002146,0.00006888,0.00001330,0.00000169,0.00
 000722,-0.00000703,-0.00001085,0.00000164,-0.00024718,-0.00000628,-0.0
 0010324,0.06575767,0.00295460,0.00019416,-0.00234284,-0.00548831,-0.01
 134754,0.01607134,0.00007301,0.00027710,-0.00078666,0.00044360,0.00004
 944,-0.00018629,0.00003695,0.00001487,-0.00005459,-0.00002010,0.000005
 78,-0.00001143,-0.00002888,0.00002126,0.00002267,0.00004619,-0.0000165
 0,0.00006936,0.00004253,-0.00004896,0.00005096,-0.00001672,-0.00000736
 ,-0.00000841,-0.00004283,-0.00000152,-0.00002188,0.00004118,0.00006684
 ,-0.00002360,0.00001743,-0.00002629,-0.00006455,-0.03055507,-0.1105761
 0,0.10858766,-0.00803279,-0.01250444,0.01686723,0.00206901,0.00150209,
 -0.00061911,0.00007116,0.00010396,-0.00007053,-0.00007982,-0.00001443,
 -0.00008611,-0.00000448,-0.00000390,0.00000674,-0.00004653,-0.00002216
 ,0.00005086,0.00001577,0.00000399,-0.00001139,-0.00000541,-0.00000005,
 0.00000249,-0.00000562,0.00000070,0.00000648,0.00008394,0.00012215,0.0
 0011185,0.03558125,0.12169950,-0.00011507,-0.00088069,0.00014155,0.000
 74883,0.00373253,-0.00708663,-0.00134885,0.00000410,0.00100153,-0.0005
 2430,-0.00023932,0.00033943,0.00007395,0.00000029,0.00001720,-0.000037
 50,0.00000909,-0.00001976,-0.00006674,-0.00002143,0.00002263,-0.000080
 63,0.00012811,-0.00016081,-0.00003510,0.00016852,-0.00010070,0.0000519
 5,0.00001986,0.00002553,0.00010860,-0.00003938,0.00006470,-0.00013364,
 -0.00014698,0.00000248,0.00006112,-0.00005247,0.00001943,0.05317469,0.
 10743126,-0.22019514,-0.00164928,-0.00254746,0.00509427,0.00011625,-0.
 00104286,0.00047701,0.00041709,0.00054812,-0.00047965,0.00008279,-0.00
 003779,0.00002391,0.00001177,0.00000901,-0.00000860,-0.00000483,-0.000
 00586,-0.00002073,-0.00006090,-0.00001113,0.00004273,0.00001340,-0.000
 00058,0.00000457,-0.00001416,-0.00000930,0.00000984,-0.00029906,0.0000
 7232,-0.00000162,-0.05500639,-0.11830261,0.23857433,-0.00364632,0.0050
 6665,-0.00337220,-0.00102993,0.01458614,0.02338724,-0.00021685,-0.0010
 1032,-0.00127915,0.00023314,-0.00024809,-0.00009851,-0.00011698,0.0003
 5104,0.00016941,0.00007057,-0.00011384,-0.00001016,0.00011238,-0.00022
 804,-0.00012903,0.00006778,-0.00003571,0.00005639,0.00000133,0.0000400
 3,-0.00003280,0.00001288,-0.00000630,0.00000264,-0.00000039,-0.0000332
 1,0.00001057,-0.00002866,-0.00002003,-0.00000428,0.00003192,-0.0000283
 5,-0.00002459,-0.06046917,0.03192879,0.03405639,0.00519987,-0.01983424
 ,-0.02201180,0.00219797,-0.00004177,0.00085279,-0.00159230,0.00055871,
 -0.00093432,0.00013700,-0.00004537,0.00014132,-0.00001793,0.00000938,-
 0.00000550,0.00007278,0.00000199,-0.00004684,0.00001459,-0.00000304,-0
 .00001601,-0.00000068,0.00000217,0.00000475,-0.00000667,-0.00000293,0.
 00000877,-0.00000845,0.00009186,0.00005385,-0.00179485,0.00493154,0.00
 554235,0.06476379,0.00463299,-0.00227401,0.00205916,0.00010255,-0.0150
 2186,-0.01617712,-0.00141230,0.00110992,0.00043248,-0.00005729,-0.0002
 0326,0.00079788,0.00022440,-0.00025534,-0.00010205,-0.00009015,0.00008
 964,-0.00002165,-0.00019072,0.00013351,0.00009277,-0.00015719,0.000142
 61,-0.00015297,0.00001046,0.00001261,0.00001613,-0.00000357,0.00000404
 ,0.00000779,-0.00000203,-0.00000463,-0.00000148,0.00000281,0.00000719,
 -0.00000172,-0.00000330,-0.00000230,0.00000823,0.03334307,-0.15587702,
 -0.12060593,0.00377071,-0.01312457,-0.01375612,0.00033752,0.00107502,0
 .00105449,0.00088691,0.00101418,0.00024063,-0.00000808,0.00005125,-0.0
 0007919,0.00002622,-0.00000258,0.00000738,-0.00005266,-0.00002183,0.00
 003676,-0.00006459,0.00000106,0.00004283,0.00000361,-0.00000152,-0.000
 00182,-0.00000156,-0.00000116,0.00000108,0.00001737,0.00000755,-0.0000
 2231,-0.00336353,0.01163424,0.01148752,-0.03480231,0.17195204,-0.00132
 693,0.00264514,0.00032248,-0.00303991,0.00610744,0.00538868,0.00000003
 ,0.00041900,-0.00009745,0.00020211,0.00002677,0.00050920,0.00010586,-0
 .00012951,-0.00009440,-0.00002147,0.00003753,0.00003119,-0.00000223,0.
 00011122,0.00003980,-0.00003651,0.00000489,-0.00005202,-0.00000905,-0.
 00000907,0.00000141,-0.00000775,0.00000476,-0.00000323,0.00000444,0.00
 002724,0.00000175,0.00000683,-0.00000480,0.00001188,-0.00002416,0.0000
 2763,0.00004150,0.03610301,-0.12254077,-0.17839984,0.00122223,-0.00424
 970,-0.00467348,0.00007108,0.00063704,0.00043592,-0.00025058,0.0003475
 8,0.00054933,-0.00000283,0.00004646,-0.00000736,0.00000228,-0.00001025
 ,0.00000600,-0.00000197,0.00002405,0.00001373,-0.00000364,0.00000105,0
 .00002415,-0.00000039,-0.00000068,-0.00000451,0.00001133,0.00000154,-0
 .00001545,-0.00000239,-0.00009542,-0.00008205,0.00591021,-0.01824075,-
 0.01973688,-0.03597829,0.13458249,0.19359047,-0.00104001,0.00148628,0.
 00087018,0.00063124,-0.00218710,-0.00167589,0.00052928,0.00095575,0.00
 061544,-0.00014615,0.00022205,0.00003466,0.00002402,-0.00010365,-0.000
 12558,0.00000930,0.00002610,0.00004798,-0.00002444,0.00008024,0.000089
 23,-0.00001568,-0.00001490,-0.00002275,-0.00001617,-0.00001663,0.00000
 621,-0.00000980,0.00000428,-0.00000450,0.00001588,0.00002704,-0.000002
 85,0.00000077,-0.00000282,0.00000132,0.00001125,0.00001059,0.00001288,
 0.00559703,-0.02023760,-0.02060367,-0.06125840,0.03845936,0.04299228,-
 0.00994611,0.02214312,0.01579434,0.00044126,-0.00012736,0.00021357,-0.
 00006616,-0.00001541,-0.00006429,0.00000133,-0.00000171,-0.00000246,-0
 .00004063,0.00000568,0.00002525,0.00000679,0.00000082,0.00000635,-0.00
 000075,-0.00000118,-0.00000081,0.00000304,0.00000230,-0.00000379,0.000
 00353,-0.00004355,-0.00000726,0.00142454,0.00048434,0.00034854,-0.0051
 4558,-0.00302846,-0.00144871,0.07320176,0.00147307,0.00073667,0.001517
 71,0.00096579,-0.00139674,-0.00031223,-0.00013151,-0.00004529,-0.00021
 859,0.00004109,0.00000420,0.00004417,0.00005060,-0.00003426,0.00000204
 ,-0.00003481,0.00001895,-0.00002051,-0.00003720,0.00003708,-0.00000390
 ,-0.00000678,0.00000391,-0.00002070,-0.00000044,0.00000779,0.00000243,
 0.00000274,0.00000352,0.00000337,0.00000210,-0.00000353,0.00000645,-0.
 00000576,-0.00000581,0.00000200,-0.00001125,0.00000974,0.00001668,0.00
 055093,-0.01377165,-0.01456874,0.03979341,-0.16734444,-0.12058711,0.00
 745107,-0.01621261,-0.01202737,0.00005186,0.00008039,0.00009071,-0.000
 02389,0.00002071,-0.00001079,0.00000315,-0.00000243,0.00000345,-0.0000
 0534,0.00000357,0.00000176,-0.00000683,0.00000144,0.00000907,0.0000017
 4,-0.00000065,-0.00000152,0.00000158,-0.00000246,-0.00000425,0.0000055
 7,-0.00001669,-0.00004397,0.00064837,0.00037284,0.00011551,-0.00266886
 ,-0.00123927,-0.00019511,-0.04731789,0.18753585,0.00122280,0.00197983,
 0.00099482,0.00067703,-0.00351996,-0.00094457,0.00009914,0.00074834,0.
 00035407,-0.00005631,0.00003890,-0.00002423,0.00002753,-0.00006333,-0.
 00009600,-0.00000959,0.00002250,0.00001515,-0.00003012,0.00006076,0.00
 008035,-0.00000175,-0.00001486,-0.00001289,-0.00000498,-0.00002339,0.0
 0001842,-0.00000998,0.00000168,-0.00000352,-0.00000341,0.00001851,-0.0
 0000874,0.00001434,0.00001329,-0.00000025,0.00000115,0.00000323,-0.000
 00032,-0.00027733,-0.00415804,-0.00533514,0.04443541,-0.12650294,-0.18
 173104,-0.00432939,0.01231593,0.01176339,0.00011184,0.00003043,0.00014
 502,-0.00001795,-0.00000350,-0.00004505,0.00000363,-0.00000198,-0.0000
 0217,-0.00003271,-0.00000301,0.00002606,0.00000340,0.00000154,0.000000
 04,-0.00000129,-0.00000077,-0.00000164,0.00000287,0.00000265,-0.000001
 96,0.00001783,-0.00002156,0.00001429,-0.00036134,0.00033185,0.00095236
 ,-0.00138697,-0.00030086,0.00124997,-0.04419648,0.13359930,0.19087952,
 0.00019263,0.00147944,-0.00028702,0.00142176,-0.00273330,0.00106393,-0
 .00046939,0.00035657,-0.00049387,0.00009915,-0.00014838,0.00001081,0.0
 0000369,0.00002617,0.00009426,-0.00004080,0.00001222,-0.00007139,-0.00
 000522,0.00000839,-0.00007098,-0.00002727,0.00002836,-0.00001391,0.000
 03774,-0.00005415,0.00004505,-0.00001748,-0.00001000,-0.00000678,-0.00
 006070,-0.00000275,-0.00002878,0.00006383,0.00007012,-0.00000188,-0.00
 003945,0.00000369,-0.00001433,-0.01086139,-0.01322040,0.02239906,-0.07
 308357,-0.03458969,0.06099699,0.00239140,0.01969690,-0.02682190,-0.000
 00167,-0.00001663,0.00018705,-0.00005139,0.00005143,-0.00000214,-0.000
 00722,-0.00000726,0.00000925,0.00000662,-0.00001320,-0.00000176,-0.000
 02028,0.00000512,0.00000066,-0.00000454,0.00000126,-0.00000190,0.00000
 443,0.00000333,-0.00000142,0.00010460,0.00000329,0.00000934,-0.0045993
 5,-0.00306085,-0.00145925,0.00136615,0.00049467,-0.00057347,-0.0013083
 4,-0.00347797,0.00597149,0.08212104,-0.00015526,0.00071732,0.00021461,
 0.00067534,-0.00122528,0.00024237,-0.00023951,0.00029530,-0.00036331,0
 .00003087,-0.00006913,-0.00005341,-0.00006000,0.00007190,0.00007315,0.
 00000495,-0.00001232,-0.00003746,0.00004399,-0.00001759,-0.00006671,-0
 .00001614,0.00000419,-0.00000448,0.00001999,-0.00003997,0.00002422,-0.
 00001394,-0.00000722,-0.00000798,-0.00003292,0.00001041,-0.00002333,0.
 00004076,0.00003873,0.00000316,-0.00002051,0.00000293,-0.00000887,-0.0
 0983529,-0.00883478,0.01485182,-0.03532492,-0.10228537,0.08639082,0.00
 453976,-0.01329573,0.02006102,-0.00007133,-0.00005809,0.00014167,-0.00
 003281,0.00003306,-0.00000159,-0.00001690,-0.00000575,0.00000332,0.000
 00623,-0.00000461,-0.00000591,-0.00000923,0.00000311,-0.00000090,-0.00
 000495,0.00000141,-0.00000063,0.00000442,0.00000412,-0.00000078,0.0000
 6277,-0.00001248,0.00001416,-0.00281712,-0.00138591,-0.00039816,0.0009
 9792,0.00036083,0.00033191,0.00632187,0.01137688,-0.01699596,0.0365310
 2,0.11337241,-0.00012581,-0.00099729,0.00059165,0.00019394,0.00134357,
 0.00049944,0.00036383,-0.00031233,-0.00008663,0.00003037,0.00009391,0.
 00000743,0.00002629,-0.00000095,-0.00002266,0.00000051,-0.00001134,0.0
 0002722,-0.00001714,-0.00001846,0.00001838,0.00001210,-0.00001978,0.00
 000965,-0.00000930,0.00001556,-0.00000153,0.00000463,0.00000354,0.0000
 0450,0.00000633,-0.00001579,0.00001179,-0.00001614,-0.00000805,-0.0000
 0443,0.00000414,0.00000369,0.00000575,-0.00236824,-0.00435492,0.005567
 71,0.06323064,0.08690260,-0.21023282,-0.00606066,0.01168973,-0.0085567
 7,-0.00002371,0.00002743,-0.00010621,0.00001596,-0.00002578,-0.0000044
 3,0.00001301,0.00000855,-0.00000207,-0.00000441,0.00000468,-0.00000348
 ,0.00001099,-0.00000134,-0.00000241,0.00000332,-0.00000104,-0.00000007
 ,-0.00000255,-0.00000403,-0.00000001,0.00000378,0.00000782,-0.00001715
 ,-0.00206359,-0.00105691,0.00105200,0.00050424,0.00050901,0.00097592,0
 .00851991,0.01087986,-0.01975877,-0.06086820,-0.10400537,0.22842193,-0
 .00013403,-0.00102611,-0.00033500,-0.00051134,0.00117683,-0.00043927,0
 .00004898,-0.00017030,0.00000367,-0.00005334,0.00002971,-0.00002984,-0
 .00007370,0.00006886,-0.00001487,0.00005412,-0.00003844,0.00003898,0.0
 0005097,-0.00005609,0.00000120,0.00000715,-0.00000618,0.00001625,-0.00
 000856,0.00001342,-0.00001924,0.00000228,0.00000032,-0.00000062,0.0000
 2292,-0.00000097,0.00000623,-0.00002332,-0.00001699,-0.00000422,0.0000
 2511,-0.00000709,-0.00000171,0.00092334,0.00103966,0.00157226,-0.01049
 965,0.01480693,0.02417412,-0.10954995,0.09929944,0.09248817,-0.0000871
 2,0.00000238,-0.00005640,0.00001218,-0.00001256,0.00000410,-0.00000681
 ,0.00000650,-0.00001031,-0.00000241,0.00000483,-0.00000129,0.00001017,
 -0.00000125,-0.00000084,0.00000009,-0.00000046,0.00000299,-0.00000546,
 -0.00000115,0.00000488,-0.00002628,0.00001613,0.00001605,-0.00009254,0
 .00009354,0.00009197,-0.00051142,-0.00061535,-0.00085592,-0.00353908,0
 .00272507,-0.00279535,0.00148661,-0.00053468,-0.00105023,0.11147230,0.
 00009192,0.00001803,0.00009845,0.00020140,-0.00025375,0.00002203,-0.00
 007514,-0.00001395,0.00002635,0.00001260,-0.00000288,-0.00001635,0.000
 00613,0.00003348,0.00000533,-0.00000260,-0.00001483,0.00000295,-0.0000
 0894,-0.00003129,0.00000212,0.00000742,0.00000269,-0.00000419,0.000000
 02,0.00001374,-0.00000225,0.00000365,0.00000101,0.00000369,0.00000461,
 -0.00001784,0.00000634,-0.00001150,-0.00000104,-0.00000622,0.00000615,
 -0.00000547,0.00000180,-0.00046506,0.00121131,0.00052745,0.01155101,-0
 .01750294,-0.01680770,0.07345931,-0.14741549,-0.14646681,-0.00000539,0
 .00006154,-0.00003439,0.00000618,-0.00000822,-0.00000433,0.00000611,0.
 00000722,-0.00000364,-0.00000135,-0.00000156,-0.00000059,-0.00000049,-
 0.00000100,0.00000197,0.00000227,-0.00000076,0.00000126,-0.00000499,-0
 .00000232,0.00000411,-0.00000122,0.00002356,-0.00000552,-0.00005085,-0
 .00005840,0.00029604,0.00049405,0.00037278,-0.00025070,0.00316714,-0.0
 0109775,0.00294362,-0.00181873,0.00087729,-0.00096941,-0.09579849,0.17
 846327,-0.00024810,0.00003022,-0.00010387,0.00007166,0.00015924,0.0000
 4441,0.00007918,-0.00003918,-0.00003790,-0.00003174,0.00002750,0.00000
 089,-0.00003941,0.00000760,-0.00001574,0.00003016,-0.00000708,0.000019
 47,0.00003379,0.00000085,0.00000049,-0.00000383,-0.00000980,0.00001112
 ,-0.00000584,-0.00000703,-0.00000550,-0.00000363,-0.00000018,-0.000004
 17,0.00000691,0.00001804,-0.00000363,0.00000003,-0.00000776,0.00000473
 ,0.00000693,0.00000346,0.00000008,0.00069374,0.00027312,0.00090395,-0.
 00866187,0.01588878,0.00893216,0.09013277,-0.19186736,-0.23901955,-0.0
 0004151,-0.00003983,0.00000768,-0.00000095,0.00000093,0.00000421,-0.00
 000927,-0.00000281,-0.00000186,-0.00000081,0.00000421,-0.00000070,0.00
 000584,0.00000115,-0.00000292,-0.00000217,0.00000036,-0.00000005,0.000
 00286,0.00000170,-0.00000208,-0.00000608,-0.00001970,0.00001001,0.0000
 6548,-0.00012380,-0.00028786,0.00032051,-0.00033551,-0.00010413,-0.002
 30061,0.00198947,0.00044795,-0.00016829,0.00034181,0.00189809,-0.08959
 708,0.17857140,0.24057853,0.00010835,0.00074817,0.00024343,-0.00032808
 ,-0.00270383,-0.00060734,-0.00089387,0.00060773,-0.00028837,0.00007581
 ,-0.00024989,-0.00009096,0.00002871,0.00007567,0.00014034,-0.00007933,
 0.00000612,-0.00010802,-0.00003659,-0.00001802,-0.00008057,-0.00001047
 ,0.00002910,-0.00004508,0.00001999,0.00000845,0.00001958,0.00000423,-0
 .00000126,0.00000706,-0.00002724,-0.00002625,-0.00000030,0.00001266,0.
 00001750,-0.00000074,-0.00003150,0.00000201,0.00000417,-0.00449865,0.0
 0574470,-0.00207503,-0.02045077,-0.01944604,-0.00502655,-0.26405728,-0
 .14795223,-0.11722377,0.00002711,0.00007460,0.00008497,-0.00001197,0.0
 0002253,0.00000253,0.00000092,-0.00000060,0.00000589,0.00001538,-0.000
 01247,-0.00000568,-0.00002883,0.00000082,0.00000971,0.00000195,0.00000
 015,-0.00000209,0.00000017,-0.00000321,-0.00000130,0.00003319,0.000017
 34,-0.00003726,0.00049964,0.00040133,-0.00000761,0.00030402,-0.0000001
 9,-0.00005322,0.00065627,-0.00003963,0.00092650,0.00129842,-0.00009438
 ,-0.00033402,0.01100882,0.00922477,0.00967132,0.27635892,-0.00017933,-
 0.00000441,-0.00000809,0.00076767,0.00091073,0.00006023,0.00017985,-0.
 00024439,0.00008799,0.00002070,0.00001582,0.00008993,0.00003417,-0.000
 03787,-0.00000082,-0.00000863,0.00001020,0.00000550,-0.00001574,0.0000
 1228,0.00000189,-0.00000738,0.00000644,0.00000034,0.00000264,-0.000002
 59,0.00000304,0.00000055,0.,0.00000028,-0.00000815,-0.00000491,0.00000
 078,0.00000667,0.00000610,0.00000043,-0.00000744,0.00000141,0.00000149
 ,0.00214335,-0.00202018,0.00128465,0.02225445,0.01093371,0.01337395,-0
 .15805565,-0.17048961,-0.10393577,0.00001992,-0.00000598,-0.00002566,0
 .00000654,0.00000055,0.00000666,0.00000720,0.00000023,0.00000433,0.000
 00313,-0.00000029,-0.00000447,-0.00000068,0.00000007,-0.00000038,0.000
 00070,0.00000017,-0.00000053,0.00000158,-0.00000007,-0.00000160,0.0000
 0985,-0.00000064,-0.00000518,0.00010980,-0.00005538,-0.00028625,0.0000
 6214,0.00006089,0.00034302,-0.00029869,0.00096007,-0.00050222,0.000381
 29,0.00008434,0.00031283,-0.02099752,-0.01465644,-0.00485980,0.1535670
 1,0.17451977,0.00025058,0.00000786,-0.00014611,-0.00034673,-0.00029417
 ,0.00056958,0.00027106,-0.00001975,0.00008445,-0.00003568,0.00005512,-
 0.00002370,-0.00006741,0.00002022,-0.00005648,0.00006000,-0.00001850,0
 .00004634,0.00004956,-0.00001103,0.00002483,0.00000855,-0.00001757,0.0
 0002794,-0.00001150,-0.00000432,-0.00001613,-0.00000302,-0.00000029,-0
 .00000626,0.00002352,0.00002162,-0.00000427,-0.00001082,-0.00001575,0.
 00000141,0.00002516,-0.00000458,-0.00000765,0.00029015,0.00176912,0.00
 000537,-0.01322637,-0.00497765,-0.00838357,-0.07979336,-0.07159509,-0.
 06282469,-0.00004870,-0.00004557,-0.00002529,-0.00000296,-0.00000683,-
 0.00000267,-0.00001291,-0.00000087,-0.00000421,-0.00001246,0.00000701,
 0.00000710,0.00001610,-0.00000003,-0.00000314,-0.00000291,0.00000055,0
 .00000273,-0.00000163,0.00000343,0.00000358,-0.00003432,-0.00000926,0.
 00003225,-0.00024778,-0.00016801,0.00023289,0.00021920,0.00018210,0.00
 007740,0.00088155,-0.00026919,0.00102486,0.00009936,-0.00071917,-0.000
 29204,-0.02320864,-0.01794280,-0.01327380,0.11487239,0.09405342,0.0829
 2929\\0.00000014,-0.00000018,0.00000013,-0.00000012,0.00000016,-0.0000
 0054,-0.00000004,0.00000013,0.00000015,0.00000025,0.00000021,0.0000002
 9,-0.00000071,0.00000045,0.00000039,-0.00000049,0.00000022,0.00000063,
 -0.00000054,0.00000029,-0.00000007,0.00000008,-0.00000016,0.00000029,-
 0.00000003,0.00000014,0.00000081,0.00000017,-0.00000008,0.00000035,0.0
 0000028,-0.00000010,0.00000061,0.00000030,-0.00000016,0.00000030,0.000
 00036,0.00000002,0.00000030,0.00000028,-0.00000010,-0.00000058,0.00000
 016,-0.00000005,-0.00000083,0.00000034,-0.00000013,-0.00000087,-0.0000
 0035,0.00000042,-0.00000009,-0.00000021,0.00000004,0.00000032,-0.00000
 074,0.00000050,0.00000060,0.00000007,-0.00000022,0.00000047,-0.0000002
 1,-0.00000014,0.00000071,-0.00000009,0.00000004,0.00000084,0.00000033,
 -0.00000017,0.00000003,-0.00000020,-0.00000080,-0.00000020,0.00000039,
 -0.00000007,-0.00000053,0.00000003,0.00000013,-0.00000057,0.00000022,-
 0.00000030,-0.00000030,-0.00000010,0.00000011,-0.00000047,0.00000003,-
 0.00000002,-0.00000092,0.00000038,-0.00000018,-0.00000123\\\@


 OLD AGE AND TREACHERY WILL ALWAYS PREVAIL OVER YOUTH AND SKILL.
 Job cpu time:       0 days 13 hours 50 minutes 34.2 seconds.
 File lengths (MBytes):  RWF=    973 Int=      0 D2E=      0 Chk=     36 Scr=      1
 Normal termination of Gaussian 09 at Thu Jul 29 06:23:29 2021.
