 Entering Gaussian System, Link 0=g09
 Input=opt_freq-conf-490.com
 Output=opt_freq-conf-490.log
 Initial command:
 /aerosol/software/g09/l1.exe "/scratch/nicole/10715/Gau-86415.inp" -scrdir="/scratch/nicole/10715/"
 Entering Link 1 = /aerosol/software/g09/l1.exe PID=     86418.
  
 Copyright (c) 1988,1990,1992,1993,1995,1998,2003,2009,2013,
            Gaussian, Inc.  All Rights Reserved.
  
 This is part of the Gaussian(R) 09 program.  It is based on
 the Gaussian(R) 03 system (copyright 2003, Gaussian, Inc.),
 the Gaussian(R) 98 system (copyright 1998, Gaussian, Inc.),
 the Gaussian(R) 94 system (copyright 1995, Gaussian, Inc.),
 the Gaussian 92(TM) system (copyright 1992, Gaussian, Inc.),
 the Gaussian 90(TM) system (copyright 1990, Gaussian, Inc.),
 the Gaussian 88(TM) system (copyright 1988, Gaussian, Inc.),
 the Gaussian 86(TM) system (copyright 1986, Carnegie Mellon
 University), and the Gaussian 82(TM) system (copyright 1983,
 Carnegie Mellon University). Gaussian is a federally registered
 trademark of Gaussian, Inc.
  
 This software contains proprietary and confidential information,
 including trade secrets, belonging to Gaussian, Inc.
  
 This software is provided under written license and may be
 used, copied, transmitted, or stored only in accord with that
 written license.
  
 The following legend is applicable only to US Government
 contracts under FAR:
  
                    RESTRICTED RIGHTS LEGEND
  
 Use, reproduction and disclosure by the US Government is
 subject to restrictions as set forth in subparagraphs (a)
 and (c) of the Commercial Computer Software - Restricted
 Rights clause in FAR 52.227-19.
  
 Gaussian, Inc.
 340 Quinnipiac St., Bldg. 40, Wallingford CT 06492
  
  
 ---------------------------------------------------------------
 Warning -- This program may not be used in any manner that
 competes with the business of Gaussian, Inc. or will provide
 assistance to any competitor of Gaussian, Inc.  The licensee
 of this program is prohibited from giving any competitor of
 Gaussian, Inc. access to this program.  By using this program,
 the user acknowledges that Gaussian, Inc. is engaged in the
 business of creating and licensing software in the field of
 computational chemistry and represents and warrants to the
 licensee that it is not a competitor of Gaussian, Inc. and that
 it will not use this program in any manner prohibited above.
 ---------------------------------------------------------------
  

 Cite this work as:
 Gaussian 09, Revision D.01,
 M. J. Frisch, G. W. Trucks, H. B. Schlegel, G. E. Scuseria, 
 M. A. Robb, J. R. Cheeseman, G. Scalmani, V. Barone, B. Mennucci, 
 G. A. Petersson, H. Nakatsuji, M. Caricato, X. Li, H. P. Hratchian, 
 A. F. Izmaylov, J. Bloino, G. Zheng, J. L. Sonnenberg, M. Hada, 
 M. Ehara, K. Toyota, R. Fukuda, J. Hasegawa, M. Ishida, T. Nakajima, 
 Y. Honda, O. Kitao, H. Nakai, T. Vreven, J. A. Montgomery, Jr., 
 J. E. Peralta, F. Ogliaro, M. Bearpark, J. J. Heyd, E. Brothers, 
 K. N. Kudin, V. N. Staroverov, T. Keith, R. Kobayashi, J. Normand, 
 K. Raghavachari, A. Rendell, J. C. Burant, S. S. Iyengar, J. Tomasi, 
 M. Cossi, N. Rega, J. M. Millam, M. Klene, J. E. Knox, J. B. Cross, 
 V. Bakken, C. Adamo, J. Jaramillo, R. Gomperts, R. E. Stratmann, 
 O. Yazyev, A. J. Austin, R. Cammi, C. Pomelli, J. W. Ochterski, 
 R. L. Martin, K. Morokuma, V. G. Zakrzewski, G. A. Voth, 
 P. Salvador, J. J. Dannenberg, S. Dapprich, A. D. Daniels, 
 O. Farkas, J. B. Foresman, J. V. Ortiz, J. Cioslowski, 
 and D. J. Fox, Gaussian, Inc., Wallingford CT, 2013.
 
 ******************************************
 Gaussian 09:  ES64L-G09RevD.01 24-Apr-2013
                29-Jul-2021 
 ******************************************
 %mem=2gb
 %nproc=4
 Will use up to    4 processors via shared memory.
 %chk=conf-490.chk
 ----------------------------------------------------------------------
 # B3LYP/6-311G(2df,2pd) guess=read geom=checkpoint opt=readfc freq=nor
 aman nosymm integral(ultrafinegrid)
 ----------------------------------------------------------------------
 1/10=3,14=-1,18=20,19=15,26=4,29=2,38=1/1,3;
 2/9=110,12=2,15=1,40=1/2;
 3/5=4,6=6,7=404,11=2,14=-4,16=1,25=1,30=1,71=1,74=-5,75=-5,116=-2/1,2,3;
 4/5=1/1;
 5/5=2,38=6/2;
 6/7=2,8=2,9=2,10=2,28=1/1;
 7/30=1/1,2,3,16;
 1/14=-1,18=20,19=15,26=4/3(2);
 2/9=110,15=1/2;
 99//99;
 2/9=110,15=1/2;
 3/5=4,6=6,7=404,11=2,14=-2,16=1,25=1,30=1,71=1,74=-5,75=-5/1,2,3;
 4/5=5,16=3,69=1/1;
 5/5=2,38=5/2;
 7/30=1/1,2,3,16;
 1/14=-1,18=20,19=15,26=4/3(-5);
 2/9=110,15=1/2;
 6/7=2,8=2,9=2,10=2,19=2,28=1/1;
 99/9=1/99;
 ------------------------------------------------------------
 Candidate Structure: Conf:490 OPT and FREQ calc in gas phase
 ------------------------------------------------------------
 Structure from the checkpoint file:  "conf-490.chk"
 Charge =  0 Multiplicity = 1
 Redundant internal coordinates found in file.
 O,0,0.8698950808,0.5000428548,-2.3334619343
 C,0,1.5668140585,0.1456466656,-1.3827698697
 N,0,1.0802509264,0.0390923457,-0.1164266313
 C,0,-0.27585961,0.4330572718,0.1819096255
 C,0,-0.3873052049,0.7078785317,1.6853063178
 O,0,-1.5328602862,1.2916223847,2.0917805487
 O,0,0.4755215204,0.4178360796,2.4804678711
 C,0,-1.2993400582,-0.6469064839,-0.2977719621
 C,0,-2.73633002,-0.2639376572,-0.1141377012
 C,0,-3.5072515054,0.7542926232,-0.641310465
 N,0,-4.7927611001,0.7171844021,-0.1430018078
 C,0,-4.8125286074,-0.3087107073,0.6780222607
 N,0,-3.5980695296,-0.9337577731,0.7361427378
 C,0,3.0385999664,-0.2315656526,-1.569090866
 C,0,3.9943824177,0.1735662122,-0.4376220711
 N,0,3.699586475,-0.5693459522,0.7968244347
 H,0,1.719310383,-0.2135527369,0.6438132617
 H,0,-0.5048684279,1.3549759766,-0.368689312
 H,0,-2.1415344815,1.4069186746,1.3389961091
 H,0,-1.081269545,-0.8003086058,-1.3581942784
 H,0,-1.0830259755,-1.5867201208,0.2224357103
 H,0,-3.2089304207,1.4923996652,-1.3738834675
 H,0,-5.6635130323,-0.6442788286,1.2544289842
 H,0,-3.3589340247,-1.728453624,1.310413086
 H,0,3.094686895,-1.3185008,-1.7238665122
 H,0,3.3501755878,0.2313633955,-2.5087488709
 H,0,5.0302562823,0.0445269941,-0.7889822048
 H,0,3.8670292292,1.2399268065,-0.2204846945
 H,0,4.1921097516,-0.1684745612,1.5896853112
 H,0,4.0055743655,-1.5359341204,0.71282574
 Recover connectivity data from disk.

 GradGradGradGradGradGradGradGradGradGradGradGradGradGradGradGradGradGrad
 Berny optimization.
 Initialization pass.
 Force constant matrix read from checkpoint file:
 "conf-490.chk"
                           ----------------------------
                           !    Initial Parameters    !
                           ! (Angstroms and Degrees)  !
 --------------------------                            --------------------------
 ! Name  Definition              Value          Derivative Info.                !
 --------------------------------------------------------------------------------
 ! R1    R(1,2)                  1.2309         D2E/DX2 =    0.7777             !
 ! R2    R(2,3)                  1.3608         D2E/DX2 =    0.4642             !
 ! R3    R(2,14)                 1.5307         D2E/DX2 =    0.2754             !
 ! R4    R(3,4)                  1.4433         D2E/DX2 =    0.358              !
 ! R5    R(3,17)                 1.0248         D2E/DX2 =    0.4077             !
 ! R6    R(4,5)                  1.5324         D2E/DX2 =    0.2678             !
 ! R7    R(4,8)                  1.5633         D2E/DX2 =    0.2447             !
 ! R8    R(4,18)                 1.098          D2E/DX2 =    0.3281             !
 ! R9    R(5,6)                  1.3484         D2E/DX2 =    0.4214             !
 ! R10   R(5,7)                  1.2087         D2E/DX2 =    0.8758             !
 ! R11   R(6,19)                 0.9749         D2E/DX2 =    0.4814             !
 ! R12   R(8,9)                  1.4984         D2E/DX2 =    0.3098             !
 ! R13   R(8,20)                 1.0934         D2E/DX2 =    0.3407             !
 ! R14   R(8,21)                 1.0957         D2E/DX2 =    0.3346             !
 ! R15   R(9,10)                 1.3817         D2E/DX2 =    0.3967             !
 ! R16   R(9,13)                 1.3836         D2E/DX2 =    0.3609             !
 ! R17   R(10,11)                1.3792         D2E/DX2 =    0.3325             !
 ! R18   R(10,22)                1.0819         D2E/DX2 =    0.3716             !
 ! R19   R(11,12)                1.3141         D2E/DX2 =    0.4653             !
 ! R20   R(12,13)                1.3671         D2E/DX2 =    0.3598             !
 ! R21   R(12,23)                1.0812         D2E/DX2 =    0.3744             !
 ! R22   R(13,24)                1.0092         D2E/DX2 =    0.4757             !
 ! R23   R(14,15)                1.5355         D2E/DX2 =    0.2824             !
 ! R24   R(14,25)                1.0993         D2E/DX2 =    0.3276             !
 ! R25   R(14,26)                1.0929         D2E/DX2 =    0.3436             !
 ! R26   R(15,16)                1.4706         D2E/DX2 =    0.3221             !
 ! R27   R(15,27)                1.1014         D2E/DX2 =    0.3172             !
 ! R28   R(15,28)                1.0957         D2E/DX2 =    0.3351             !
 ! R29   R(16,29)                1.0158         D2E/DX2 =    0.4522             !
 ! R30   R(16,30)                1.0173         D2E/DX2 =    0.4462             !
 ! A1    A(1,2,3)              122.6057         D2E/DX2 =    0.2092             !
 ! A2    A(1,2,14)             121.4209         D2E/DX2 =    0.1826             !
 ! A3    A(3,2,14)             115.9615         D2E/DX2 =    0.2163             !
 ! A4    A(2,3,4)              120.4596         D2E/DX2 =    0.1508             !
 ! A5    A(2,3,17)             119.1236         D2E/DX2 =    0.1114             !
 ! A6    A(4,3,17)             119.991          D2E/DX2 =    0.0951             !
 ! A7    A(3,4,5)              108.6674         D2E/DX2 =    0.0918             !
 ! A8    A(3,4,8)              111.2929         D2E/DX2 =    0.0948             !
 ! A9    A(3,4,18)             108.7538         D2E/DX2 =    0.0294             !
 ! A10   A(5,4,8)              112.1676         D2E/DX2 =    0.0996             !
 ! A11   A(5,4,18)             109.0403         D2E/DX2 =    0.0243             !
 ! A12   A(8,4,18)             106.8358         D2E/DX2 =    0.0318             !
 ! A13   A(4,5,6)              115.7959         D2E/DX2 =    0.1957             !
 ! A14   A(4,5,7)              123.4007         D2E/DX2 =    0.1847             !
 ! A15   A(6,5,7)              120.7993         D2E/DX2 =    0.2025             !
 ! A16   A(5,6,19)             110.4162         D2E/DX2 =    0.1987             !
 ! A17   A(4,8,9)              114.4361         D2E/DX2 =    0.1742             !
 ! A18   A(4,8,20)             105.3031         D2E/DX2 =    0.061              !
 ! A19   A(4,8,21)             108.5176         D2E/DX2 =    0.0629             !
 ! A20   A(9,8,20)             110.2408         D2E/DX2 =    0.0529             !
 ! A21   A(9,8,21)             110.5083         D2E/DX2 =    0.054              !
 ! A22   A(20,8,21)            107.5009         D2E/DX2 =    0.0204             !
 ! A23   A(8,9,10)             132.584          D2E/DX2 =    0.0951             !
 ! A24   A(8,9,13)             123.2904         D2E/DX2 =    0.1049             !
 ! A25   A(10,9,13)            104.1075         D2E/DX2 =    0.1021             !
 ! A26   A(9,10,11)            111.2461         D2E/DX2 =    0.1141             !
 ! A27   A(9,10,22)            127.3935         D2E/DX2 =    0.0821             !
 ! A28   A(11,10,22)           121.3331         D2E/DX2 =    0.0896             !
 ! A29   A(10,11,12)           105.1147         D2E/DX2 =    0.131              !
 ! A30   A(11,12,13)           111.7232         D2E/DX2 =    0.1184             !
 ! A31   A(11,12,23)           125.9584         D2E/DX2 =    0.0894             !
 ! A32   A(13,12,23)           122.3181         D2E/DX2 =    0.0902             !
 ! A33   A(9,13,12)            107.8079         D2E/DX2 =    0.1029             !
 ! A34   A(9,13,24)            125.6858         D2E/DX2 =    0.0783             !
 ! A35   A(12,13,24)           126.4918         D2E/DX2 =    0.0789             !
 ! A36   A(2,14,15)            116.3443         D2E/DX2 =    0.2143             !
 ! A37   A(2,14,25)            108.0495         D2E/DX2 =    0.0543             !
 ! A38   A(2,14,26)            105.9259         D2E/DX2 =    0.0668             !
 ! A39   A(15,14,25)           109.4417         D2E/DX2 =    0.0617             !
 ! A40   A(15,14,26)           110.1416         D2E/DX2 =    0.0639             !
 ! A41   A(25,14,26)           106.4524         D2E/DX2 =    0.0216             !
 ! A42   A(14,15,16)           111.129          D2E/DX2 =    0.1935             !
 ! A43   A(14,15,27)           108.6282         D2E/DX2 =    0.0647             !
 ! A44   A(14,15,28)           109.2967         D2E/DX2 =    0.0587             !
 ! A45   A(16,15,27)           113.3983         D2E/DX2 =    0.0678             !
 ! A46   A(16,15,28)           107.5782         D2E/DX2 =    0.0556             !
 ! A47   A(27,15,28)           106.652          D2E/DX2 =    0.0223             !
 ! A48   A(15,16,29)           111.0156         D2E/DX2 =    0.1376             !
 ! A49   A(15,16,30)           110.5101         D2E/DX2 =    0.1407             !
 ! A50   A(29,16,30)           107.0709         D2E/DX2 =    0.0581             !
 ! D1    D(1,2,3,4)             -4.3219         D2E/DX2 =    0.0136             !
 ! D2    D(1,2,3,17)          -176.8334         D2E/DX2 =    0.0167             !
 ! D3    D(14,2,3,4)           176.9153         D2E/DX2 =    0.011              !
 ! D4    D(14,2,3,17)            4.4039         D2E/DX2 =    0.0118             !
 ! D5    D(1,2,14,15)          143.436          D2E/DX2 =    0.0171             !
 ! D6    D(1,2,14,25)          -93.0585         D2E/DX2 =    0.0144             !
 ! D7    D(1,2,14,26)           20.6919         D2E/DX2 =    0.0159             !
 ! D8    D(3,2,14,15)          -37.7854         D2E/DX2 =    0.0187             !
 ! D9    D(3,2,14,25)           85.7201         D2E/DX2 =    0.016              !
 ! D10   D(3,2,14,26)         -160.5294         D2E/DX2 =    0.0163             !
 ! D11   D(2,3,4,5)           -159.0616         D2E/DX2 =    0.0143             !
 ! D12   D(2,3,4,8)             76.9433         D2E/DX2 =    0.0159             !
 ! D13   D(2,3,4,18)           -40.483          D2E/DX2 =    0.0087             !
 ! D14   D(17,3,4,5)            13.3849         D2E/DX2 =    0.0145             !
 ! D15   D(17,3,4,8)          -110.6102         D2E/DX2 =    0.015              !
 ! D16   D(17,3,4,18)          131.9635         D2E/DX2 =    0.0097             !
 ! D17   D(3,4,5,6)            169.754          D2E/DX2 =    0.0221             !
 ! D18   D(3,4,5,7)            -10.9832         D2E/DX2 =    0.0205             !
 ! D19   D(8,4,5,6)            -66.7729         D2E/DX2 =    0.0267             !
 ! D20   D(8,4,5,7)            112.4899         D2E/DX2 =    0.022              !
 ! D21   D(18,4,5,6)            51.3562         D2E/DX2 =    0.0165             !
 ! D22   D(18,4,5,7)          -129.3811         D2E/DX2 =    0.0149             !
 ! D23   D(3,4,8,9)           -175.7109         D2E/DX2 =    0.019              !
 ! D24   D(3,4,8,20)           -54.4922         D2E/DX2 =    0.0196             !
 ! D25   D(3,4,8,21)            60.3705         D2E/DX2 =    0.0186             !
 ! D26   D(5,4,8,9)             62.3014         D2E/DX2 =    0.0234             !
 ! D27   D(5,4,8,20)          -176.4799         D2E/DX2 =    0.0218             !
 ! D28   D(5,4,8,21)           -61.6172         D2E/DX2 =    0.0193             !
 ! D29   D(18,4,8,9)           -57.127          D2E/DX2 =    0.0129             !
 ! D30   D(18,4,8,20)           64.0917         D2E/DX2 =    0.0138             !
 ! D31   D(18,4,8,21)          178.9544         D2E/DX2 =    0.0144             !
 ! D32   D(4,5,6,19)             2.8601         D2E/DX2 =    0.0131             !
 ! D33   D(7,5,6,19)          -176.4234         D2E/DX2 =    0.02               !
 ! D34   D(4,8,9,10)            62.7755         D2E/DX2 =    0.0116             !
 ! D35   D(4,8,9,13)          -115.4129         D2E/DX2 =    0.0116             !
 ! D36   D(20,8,9,10)          -55.6828         D2E/DX2 =    0.0136             !
 ! D37   D(20,8,9,13)          126.1288         D2E/DX2 =    0.0138             !
 ! D38   D(21,8,9,10)         -174.3766         D2E/DX2 =    0.0135             !
 ! D39   D(21,8,9,13)            7.4351         D2E/DX2 =    0.0128             !
 ! D40   D(8,9,10,11)         -178.5749         D2E/DX2 =    0.0092             !
 ! D41   D(8,9,10,22)            3.3235         D2E/DX2 =    0.0072             !
 ! D42   D(13,9,10,11)          -0.1363         D2E/DX2 =    0.0139             !
 ! D43   D(13,9,10,22)        -178.2379         D2E/DX2 =    0.0099             !
 ! D44   D(8,9,13,12)          178.8612         D2E/DX2 =    0.0079             !
 ! D45   D(8,9,13,24)            0.1741         D2E/DX2 =    0.0026             !
 ! D46   D(10,9,13,12)           0.2365         D2E/DX2 =    0.0123             !
 ! D47   D(10,9,13,24)        -178.4507         D2E/DX2 =    0.0045             !
 ! D48   D(9,10,11,12)          -0.0208         D2E/DX2 =    0.0173             !
 ! D49   D(22,10,11,12)        178.2135         D2E/DX2 =    0.0101             !
 ! D50   D(10,11,12,13)          0.1782         D2E/DX2 =    0.0184             !
 ! D51   D(10,11,12,23)       -179.9914         D2E/DX2 =    0.0102             !
 ! D52   D(11,12,13,9)          -0.2706         D2E/DX2 =    0.0173             !
 ! D53   D(11,12,13,24)        178.4029         D2E/DX2 =    0.0078             !
 ! D54   D(23,12,13,9)         179.8918         D2E/DX2 =    0.0102             !
 ! D55   D(23,12,13,24)         -1.4346         D2E/DX2 =    0.0061             !
 ! D56   D(2,14,15,16)          66.7185         D2E/DX2 =    0.0233             !
 ! D57   D(2,14,15,27)        -167.8628         D2E/DX2 =    0.0173             !
 ! D58   D(2,14,15,28)         -51.8595         D2E/DX2 =    0.0155             !
 ! D59   D(25,14,15,16)        -56.0634         D2E/DX2 =    0.0167             !
 ! D60   D(25,14,15,27)         69.3553         D2E/DX2 =    0.0157             !
 ! D61   D(25,14,15,28)       -174.6414         D2E/DX2 =    0.0172             !
 ! D62   D(26,14,15,16)       -172.7666         D2E/DX2 =    0.0208             !
 ! D63   D(26,14,15,27)        -47.348          D2E/DX2 =    0.016              !
 ! D64   D(26,14,15,28)         68.6554         D2E/DX2 =    0.0158             !
 ! D65   D(14,15,16,29)       -168.0184         D2E/DX2 =    0.0155             !
 ! D66   D(14,15,16,30)         73.3308         D2E/DX2 =    0.0159             !
 ! D67   D(27,15,16,29)         69.2741         D2E/DX2 =    0.0186             !
 ! D68   D(27,15,16,30)        -49.3767         D2E/DX2 =    0.0185             !
 ! D69   D(28,15,16,29)        -48.4108         D2E/DX2 =    0.0176             !
 ! D70   D(28,15,16,30)       -167.0616         D2E/DX2 =    0.019              !
 --------------------------------------------------------------------------------
 Trust Radius=3.00D-01 FncErr=1.00D-07 GrdErr=1.00D-06
 Number of steps in this run=    160 maximum allowed number of steps=    180.
 GradGradGradGradGradGradGradGradGradGradGradGradGradGradGradGradGradGrad

                          Input orientation:                          
 ---------------------------------------------------------------------
 Center     Atomic      Atomic             Coordinates (Angstroms)
 Number     Number       Type             X           Y           Z
 ---------------------------------------------------------------------
      1          8           0        0.869895    0.500043   -2.333462
      2          6           0        1.566814    0.145647   -1.382770
      3          7           0        1.080251    0.039092   -0.116427
      4          6           0       -0.275860    0.433057    0.181910
      5          6           0       -0.387305    0.707879    1.685306
      6          8           0       -1.532860    1.291622    2.091781
      7          8           0        0.475522    0.417836    2.480468
      8          6           0       -1.299340   -0.646906   -0.297772
      9          6           0       -2.736330   -0.263938   -0.114138
     10          6           0       -3.507252    0.754293   -0.641310
     11          7           0       -4.792761    0.717184   -0.143002
     12          6           0       -4.812529   -0.308711    0.678022
     13          7           0       -3.598070   -0.933758    0.736143
     14          6           0        3.038600   -0.231566   -1.569091
     15          6           0        3.994382    0.173566   -0.437622
     16          7           0        3.699586   -0.569346    0.796824
     17          1           0        1.719310   -0.213553    0.643813
     18          1           0       -0.504868    1.354976   -0.368689
     19          1           0       -2.141534    1.406919    1.338996
     20          1           0       -1.081270   -0.800309   -1.358194
     21          1           0       -1.083026   -1.586720    0.222436
     22          1           0       -3.208930    1.492400   -1.373883
     23          1           0       -5.663513   -0.644279    1.254429
     24          1           0       -3.358934   -1.728454    1.310413
     25          1           0        3.094687   -1.318501   -1.723867
     26          1           0        3.350176    0.231363   -2.508749
     27          1           0        5.030256    0.044527   -0.788982
     28          1           0        3.867029    1.239927   -0.220485
     29          1           0        4.192110   -0.168475    1.589685
     30          1           0        4.005574   -1.535934    0.712826
 ---------------------------------------------------------------------
                    Distance matrix (angstroms):
                    1          2          3          4          5
     1  O    0.000000
     2  C    1.230897   0.000000
     3  N    2.274197   1.360780   0.000000
     4  C    2.764839   2.434394   1.443346   0.000000
     5  C    4.215951   3.680731   2.418106   1.532367   0.000000
     6  O    5.097313   4.795179   3.643262   2.442292   1.348434
     7  O    4.830757   4.023632   2.693140   2.418300   1.208667
     8  C    3.188277   3.165470   2.483130   1.563307   2.569017
     9  C    4.302781   4.504912   3.828593   2.574366   3.114537
    10  C    4.699727   5.163947   4.672493   3.350041   3.892218
    11  N    6.075438   6.504451   5.912088   4.537477   4.769784
    12  C    6.481748   6.719324   5.956254   4.623604   4.650879
    13  N    5.607224   5.686029   4.853864   3.634892   3.728926
    14  C    2.413047   1.530738   2.453288   3.807016   4.817726
    15  C    3.669226   2.605220   2.934862   4.322745   4.898112
    16  N    4.353095   3.132182   2.839920   4.145733   4.373029
    17  H    3.177246   2.063812   1.024788   2.147595   2.524197
    18  H    2.545823   2.604363   2.075522   1.097970   2.156723
    19  H    4.835088   4.769766   3.790660   2.401666   1.919872
    20  H    2.539509   2.812078   2.630352   2.131149   3.466859
    21  H    3.834200   3.549568   2.727244   2.175468   2.808772
    22  H    4.306086   4.962011   4.700040   3.485054   4.235054
    23  H    7.541078   7.736694   6.915533   5.598014   5.463731
    24  H    6.010575   5.918486   4.986627   3.930776   3.860937
    25  H    2.937415   2.143472   2.912881   4.249767   5.277589
    26  H    2.500941   2.110818   3.303442   4.519785   5.637901
    27  H    4.461112   3.515429   4.006857   5.408184   5.992671
    28  H    3.740978   2.799883   3.036275   4.239869   4.691959
    29  H    5.184121   3.978233   3.554936   4.722968   4.663494
    30  H    4.822609   3.628607   3.424308   4.742307   5.027704
                    6          7          8          9         10
     6  O    0.000000
     7  O    2.224450   0.000000
     8  C    3.085837   3.464452   0.000000
     9  C    2.955365   4.184828   1.498441   0.000000
    10  C    3.414195   5.071606   2.637470   1.381674   0.000000
    11  N    3.993893   5.892962   3.753490   2.278671   1.379211
    12  C    3.913567   5.633840   3.661836   2.222639   2.138776
    13  N    3.324930   4.632885   2.536813   1.383557   2.180628
    14  C    6.051473   4.836323   4.539436   5.955481   6.684375
    15  C    6.180480   4.577914   5.358753   6.752669   7.526835
    16  N    5.702509   3.768790   5.117951   6.507238   7.467179
    17  H    3.865071   2.306288   3.191650   4.519929   5.468566
    18  H    2.667338   3.155486   2.154936   2.768591   3.073995
    19  H    0.974916   3.021626   2.757988   2.292845   2.492532
    20  H    4.059857   4.317731   1.093427   2.138830   2.969191
    21  H    3.461453   3.397944   1.095745   2.143933   3.478975
    22  H    3.854912   5.439292   3.062872   2.212472   1.081878
    23  H    4.638013   6.349725   4.631991   3.253619   3.193633
    24  H    3.614684   4.547377   2.828061   2.135834   3.161527
    25  H    6.541108   5.248935   4.668218   6.140366   7.003855
    26  H    6.792132   5.761136   5.222813   6.559347   7.126366
    27  H    7.275200   5.619099   6.386169   7.801950   8.568233
    28  H    5.874355   4.412856   5.500680   6.773276   7.402226
    29  H    5.929525   3.866559   5.826441   7.135503   8.069015
    30  H    6.369525   4.404889   5.473006   6.910508   7.970030
                   11         12         13         14         15
    11  N    0.000000
    12  C    1.314128   0.000000
    13  N    2.219413   1.367104   0.000000
    14  C    8.016488   8.166743   7.060634   0.000000
    15  C    8.808871   8.890384   7.762037   1.535537   0.000000
    16  N    8.640509   8.516933   7.307001   2.479628   1.470606
    17  H    6.625136   6.532622   5.366726   2.576392   2.548591
    18  H    4.340937   4.734912   4.003355   4.063772   4.652283
    19  H    3.114651   3.242604   2.822002   6.162418   6.505921
    20  H    4.189827   4.279035   3.276940   4.164285   5.249584
    21  H    4.382198   3.968634   2.648716   4.694019   5.414274
    22  H    2.150476   3.166361   3.238808   6.483965   7.382657
    23  H    2.136493   1.081215   2.149064   9.158022   9.839047
    24  H    3.185815   2.128033   1.009214   7.173608   7.793880
    25  H    8.297890   8.325431   7.140915   1.099331   2.165673
    26  H    8.493539   8.779347   7.756606   1.092859   2.169772
    27  H    9.867190   9.957776   8.816522   2.156732   1.101426
    28  H    8.675899   8.862298   7.833756   2.161093   1.095670
    29  H    9.193177   9.051757   7.874077   3.363396   2.065445
    30  H    9.122483   8.903158   7.627487   2.800636   2.060594
                   16         17         18         19         20
    16  N    0.000000
    17  H    2.017794   0.000000
    18  H    4.768530   2.903862   0.000000
    19  H    6.190175   4.244447   2.365917   0.000000
    20  H    5.249194   3.492215   2.440617   3.642918   0.000000
    21  H    4.923246   3.149006   3.055695   3.365861   1.765457
    22  H    7.529301   5.591863   2.888123   2.916566   3.127890
    23  H    9.374575   7.420543   5.765687   4.076628   5.277035
    24  H    7.171472   5.341147   4.524667   3.363545   3.629142
    25  H    2.698336   2.952707   4.684099   6.650342   4.223843
    26  H    3.419070   3.577194   4.550135   6.807786   4.693168
    27  H    2.159237   3.616887   5.703642   7.603880   6.195845
    28  H    2.082408   2.733553   4.375922   6.209888   5.471984
    29  H    1.015827   2.647913   5.312037   6.531444   6.074351
    30  H    1.017338   2.642056   5.465449   6.843933   5.541322
                   21         22         23         24         25
    21  H    0.000000
    22  H    4.068007   0.000000
    23  H    4.788953   4.183109   0.000000
    24  H    2.526567   4.195455   2.547480   0.000000
    25  H    4.616635   6.910806   9.275284   7.143118   0.000000
    26  H    5.515258   6.774954   9.806877   7.964862   1.755960
    27  H    6.407508   8.385860  10.909019   8.827765   2.545247
    28  H    5.717443   7.173791   9.826334   7.960495   3.066304
    29  H    5.630972   8.143503   9.872795   7.715555   3.675122
    30  H    5.112428   8.097792   9.725206   7.391222   2.610453
                   26         27         28         29         30
    26  H    0.000000
    27  H    2.411468   0.000000
    28  H    2.553525   1.762177   0.000000
    29  H    4.203081   2.530992   2.316460   0.000000
    30  H    3.732483   2.408995   2.931837   1.635122   0.000000
 Symmetry turned off by external request.
 Stoichiometry    C9H14N4O3
 Framework group  C1[X(C9H14N4O3)]
 Deg. of freedom    84
 Full point group                 C1      NOp   1
 Rotational constants (GHZ):      1.0885050      0.2708301      0.2354884
 Standard basis: 6-311G(2df,2pd) (5D, 7F)
   676 basis functions,  1006 primitive gaussians,   770 cartesian basis functions
    60 alpha electrons       60 beta electrons
       nuclear repulsion energy      1125.1355492679 Hartrees.
 NAtoms=   30 NActive=   30 NUniq=   30 SFac= 1.00D+00 NAtFMM=   60 NAOKFM=F Big=F
 Integral buffers will be    131072 words long.
 Raffenetti 2 integral format.
 Two-electron integral symmetry is turned off.
 One-electron integrals computed using PRISM.
 NBasis=   676 RedAO= T EigKep=  1.97D-04  NBF=   676
 NBsUse=   676 1.00D-06 EigRej= -1.00D+00 NBFU=   676
 Initial guess from the checkpoint file:  "conf-490.chk"
 B after Tr=     0.000000    0.000000    0.000000
         Rot=    1.000000    0.000000    0.000000    0.000000 Ang=   0.00 deg.
 Requested convergence on RMS density matrix=1.00D-08 within 128 cycles.
 Requested convergence on MAX density matrix=1.00D-06.
 Requested convergence on             energy=1.00D-06.
 No special actions if energy rises.
 SCF Done:  E(RB3LYP) =  -796.362651982     A.U. after   11 cycles
            NFock= 11  Conv=0.59D-08     -V/T= 2.0041

 **********************************************************************

            Population analysis using the SCF density.

 **********************************************************************

 Alpha  occ. eigenvalues --  -19.16893 -19.11205 -19.07942 -14.38028 -14.32740
 Alpha  occ. eigenvalues --  -14.31509 -14.29997 -10.30835 -10.26718 -10.23666
 Alpha  occ. eigenvalues --  -10.23275 -10.22013 -10.21442 -10.20233 -10.19230
 Alpha  occ. eigenvalues --  -10.18414  -1.10767  -1.03222  -1.02773  -1.02460
 Alpha  occ. eigenvalues --   -0.92677  -0.90338  -0.88347  -0.81033  -0.76992
 Alpha  occ. eigenvalues --   -0.73881  -0.68182  -0.64235  -0.62782  -0.62057
 Alpha  occ. eigenvalues --   -0.60357  -0.57826  -0.56461  -0.54258  -0.51880
 Alpha  occ. eigenvalues --   -0.49957  -0.47964  -0.47642  -0.46443  -0.46207
 Alpha  occ. eigenvalues --   -0.45126  -0.44303  -0.43575  -0.43263  -0.41898
 Alpha  occ. eigenvalues --   -0.41469  -0.40409  -0.39769  -0.39371  -0.38219
 Alpha  occ. eigenvalues --   -0.37532  -0.35129  -0.32922  -0.29844  -0.28744
 Alpha  occ. eigenvalues --   -0.28179  -0.27106  -0.26406  -0.25263  -0.23917
 Alpha virt. eigenvalues --   -0.00987   0.00805   0.01026   0.02203   0.02788
 Alpha virt. eigenvalues --    0.03442   0.05255   0.05952   0.06120   0.06696
 Alpha virt. eigenvalues --    0.08108   0.08883   0.09330   0.10391   0.11274
 Alpha virt. eigenvalues --    0.12238   0.12448   0.14309   0.17303   0.17736
 Alpha virt. eigenvalues --    0.18267   0.18528   0.20038   0.20740   0.21050
 Alpha virt. eigenvalues --    0.22502   0.24632   0.24882   0.26750   0.27608
 Alpha virt. eigenvalues --    0.28214   0.28821   0.29607   0.31075   0.31892
 Alpha virt. eigenvalues --    0.32431   0.32802   0.33645   0.33819   0.34453
 Alpha virt. eigenvalues --    0.35256   0.37081   0.37350   0.37988   0.39341
 Alpha virt. eigenvalues --    0.39633   0.40273   0.41098   0.41478   0.42990
 Alpha virt. eigenvalues --    0.43187   0.44370   0.44617   0.44651   0.45316
 Alpha virt. eigenvalues --    0.45635   0.46398   0.47038   0.47880   0.48097
 Alpha virt. eigenvalues --    0.48267   0.48518   0.48963   0.49588   0.50654
 Alpha virt. eigenvalues --    0.51125   0.51411   0.52131   0.52875   0.54111
 Alpha virt. eigenvalues --    0.54442   0.55131   0.55891   0.56440   0.56850
 Alpha virt. eigenvalues --    0.58259   0.59984   0.60340   0.61303   0.61883
 Alpha virt. eigenvalues --    0.62810   0.63616   0.65600   0.65972   0.66480
 Alpha virt. eigenvalues --    0.67434   0.68029   0.68613   0.69148   0.70321
 Alpha virt. eigenvalues --    0.71127   0.72171   0.74377   0.74902   0.76040
 Alpha virt. eigenvalues --    0.76351   0.77331   0.78757   0.79015   0.79569
 Alpha virt. eigenvalues --    0.80395   0.82234   0.82430   0.83381   0.84085
 Alpha virt. eigenvalues --    0.84161   0.86196   0.86331   0.88011   0.89082
 Alpha virt. eigenvalues --    0.90983   0.91526   0.92985   0.93457   0.93525
 Alpha virt. eigenvalues --    0.94195   0.95578   0.95723   0.96496   0.96724
 Alpha virt. eigenvalues --    0.97804   0.98599   1.00539   1.01624   1.01889
 Alpha virt. eigenvalues --    1.02235   1.02850   1.03820   1.05130   1.06131
 Alpha virt. eigenvalues --    1.07166   1.08099   1.08365   1.08527   1.09038
 Alpha virt. eigenvalues --    1.10216   1.10710   1.13305   1.13673   1.14527
 Alpha virt. eigenvalues --    1.15167   1.15967   1.16898   1.17034   1.17068
 Alpha virt. eigenvalues --    1.18414   1.20085   1.20902   1.21971   1.22565
 Alpha virt. eigenvalues --    1.24591   1.24666   1.25349   1.25534   1.26955
 Alpha virt. eigenvalues --    1.27418   1.28319   1.29024   1.29324   1.30277
 Alpha virt. eigenvalues --    1.30457   1.31187   1.31856   1.31952   1.32553
 Alpha virt. eigenvalues --    1.33913   1.34810   1.35094   1.36546   1.36882
 Alpha virt. eigenvalues --    1.37759   1.38195   1.39272   1.40470   1.40691
 Alpha virt. eigenvalues --    1.41586   1.42305   1.43881   1.44248   1.45037
 Alpha virt. eigenvalues --    1.46010   1.47632   1.48277   1.50221   1.50937
 Alpha virt. eigenvalues --    1.52764   1.53708   1.54660   1.56236   1.58131
 Alpha virt. eigenvalues --    1.58912   1.59134   1.60208   1.61067   1.62029
 Alpha virt. eigenvalues --    1.63073   1.64285   1.66028   1.66172   1.67047
 Alpha virt. eigenvalues --    1.69001   1.69894   1.72168   1.73453   1.74933
 Alpha virt. eigenvalues --    1.76987   1.77754   1.79535   1.81171   1.81345
 Alpha virt. eigenvalues --    1.83068   1.84664   1.85814   1.86973   1.90325
 Alpha virt. eigenvalues --    1.91430   1.92479   1.93846   1.97439   2.02255
 Alpha virt. eigenvalues --    2.05472   2.06400   2.08605   2.10965   2.12933
 Alpha virt. eigenvalues --    2.14787   2.17286   2.19818   2.20446   2.27609
 Alpha virt. eigenvalues --    2.30344   2.31101   2.36351   2.42394   2.44216
 Alpha virt. eigenvalues --    2.45540   2.46617   2.47989   2.50184   2.53634
 Alpha virt. eigenvalues --    2.55949   2.57157   2.58550   2.59792   2.60540
 Alpha virt. eigenvalues --    2.61661   2.62936   2.63994   2.64991   2.66155
 Alpha virt. eigenvalues --    2.66578   2.67790   2.68761   2.69245   2.71877
 Alpha virt. eigenvalues --    2.72301   2.73829   2.75336   2.76551   2.77879
 Alpha virt. eigenvalues --    2.79103   2.80370   2.81046   2.83189   2.83597
 Alpha virt. eigenvalues --    2.83796   2.84777   2.85420   2.86236   2.87067
 Alpha virt. eigenvalues --    2.88567   2.89723   2.90103   2.91422   2.91956
 Alpha virt. eigenvalues --    2.92613   2.93535   2.94313   2.94967   2.95727
 Alpha virt. eigenvalues --    2.96123   2.97682   2.98624   2.99376   3.00678
 Alpha virt. eigenvalues --    3.01727   3.02412   3.02737   3.03121   3.04499
 Alpha virt. eigenvalues --    3.05568   3.06029   3.06383   3.07293   3.07523
 Alpha virt. eigenvalues --    3.07976   3.09068   3.10542   3.10918   3.11142
 Alpha virt. eigenvalues --    3.12351   3.13152   3.13618   3.14644   3.15964
 Alpha virt. eigenvalues --    3.16655   3.17850   3.18580   3.18680   3.19741
 Alpha virt. eigenvalues --    3.20182   3.21826   3.22247   3.22942   3.23036
 Alpha virt. eigenvalues --    3.23661   3.24676   3.25319   3.26303   3.26561
 Alpha virt. eigenvalues --    3.27465   3.28108   3.28710   3.29608   3.30288
 Alpha virt. eigenvalues --    3.31003   3.31667   3.32742   3.33156   3.34366
 Alpha virt. eigenvalues --    3.35232   3.35268   3.36209   3.37058   3.37376
 Alpha virt. eigenvalues --    3.38562   3.39087   3.39746   3.40190   3.41797
 Alpha virt. eigenvalues --    3.43179   3.43952   3.44566   3.44628   3.44930
 Alpha virt. eigenvalues --    3.45466   3.46846   3.47483   3.47693   3.49698
 Alpha virt. eigenvalues --    3.50302   3.51183   3.51448   3.52396   3.52850
 Alpha virt. eigenvalues --    3.54423   3.54776   3.55512   3.56739   3.57798
 Alpha virt. eigenvalues --    3.59051   3.60837   3.61043   3.61673   3.62806
 Alpha virt. eigenvalues --    3.64093   3.64703   3.65387   3.66501   3.67461
 Alpha virt. eigenvalues --    3.67622   3.68092   3.68836   3.70203   3.71794
 Alpha virt. eigenvalues --    3.72733   3.74370   3.75255   3.75493   3.77273
 Alpha virt. eigenvalues --    3.77775   3.79632   3.79680   3.80922   3.80943
 Alpha virt. eigenvalues --    3.81815   3.83004   3.83894   3.84923   3.85396
 Alpha virt. eigenvalues --    3.85900   3.86532   3.87408   3.87790   3.89516
 Alpha virt. eigenvalues --    3.90812   3.90949   3.91552   3.92908   3.93652
 Alpha virt. eigenvalues --    3.93897   3.94629   3.95814   3.96533   3.96876
 Alpha virt. eigenvalues --    3.97791   3.99025   4.00419   4.00511   4.01402
 Alpha virt. eigenvalues --    4.02624   4.02710   4.04708   4.05576   4.05999
 Alpha virt. eigenvalues --    4.07353   4.08001   4.08385   4.09007   4.09806
 Alpha virt. eigenvalues --    4.10737   4.12517   4.13713   4.15464   4.17267
 Alpha virt. eigenvalues --    4.18739   4.19601   4.20793   4.21439   4.22043
 Alpha virt. eigenvalues --    4.24631   4.24916   4.26133   4.26646   4.28188
 Alpha virt. eigenvalues --    4.29501   4.30289   4.31881   4.32744   4.33622
 Alpha virt. eigenvalues --    4.34402   4.36915   4.37978   4.38553   4.41346
 Alpha virt. eigenvalues --    4.43239   4.43693   4.45755   4.47112   4.47390
 Alpha virt. eigenvalues --    4.48813   4.49878   4.51737   4.53601   4.55240
 Alpha virt. eigenvalues --    4.55758   4.56674   4.59084   4.59682   4.63129
 Alpha virt. eigenvalues --    4.64763   4.67084   4.68346   4.70489   4.70971
 Alpha virt. eigenvalues --    4.72872   4.74094   4.74582   4.77743   4.78732
 Alpha virt. eigenvalues --    4.79609   4.81277   4.81580   4.84719   4.85454
 Alpha virt. eigenvalues --    4.85984   4.88006   4.89088   4.90117   4.90955
 Alpha virt. eigenvalues --    4.92478   4.93354   4.94705   4.95051   4.95677
 Alpha virt. eigenvalues --    4.96335   4.98675   4.99883   5.01892   5.02745
 Alpha virt. eigenvalues --    5.03580   5.03760   5.05285   5.06294   5.07393
 Alpha virt. eigenvalues --    5.08221   5.08862   5.09734   5.10727   5.12276
 Alpha virt. eigenvalues --    5.12518   5.12970   5.14875   5.16046   5.16289
 Alpha virt. eigenvalues --    5.17877   5.18287   5.18461   5.19374   5.21612
 Alpha virt. eigenvalues --    5.23240   5.23906   5.24216   5.25645   5.27037
 Alpha virt. eigenvalues --    5.27934   5.28159   5.30377   5.31187   5.31552
 Alpha virt. eigenvalues --    5.34240   5.36044   5.36936   5.38557   5.41523
 Alpha virt. eigenvalues --    5.42436   5.43435   5.45539   5.47602   5.50461
 Alpha virt. eigenvalues --    5.52170   5.52655   5.54256   5.56175   5.57067
 Alpha virt. eigenvalues --    5.57628   5.58139   5.59154   5.63636   5.65109
 Alpha virt. eigenvalues --    5.67044   5.68134   5.70425   5.73059   5.76736
 Alpha virt. eigenvalues --    5.76990   5.80124   5.81003   5.82548   5.83312
 Alpha virt. eigenvalues --    5.83621   5.87264   5.90421   5.91676   5.96250
 Alpha virt. eigenvalues --    6.00977   6.01543   6.06678   6.08704   6.10663
 Alpha virt. eigenvalues --    6.15319   6.18932   6.22580   6.28711   6.31231
 Alpha virt. eigenvalues --    6.32967   6.33993   6.34535   6.36644   6.38410
 Alpha virt. eigenvalues --    6.40906   6.45887   6.50095   6.52149   6.58176
 Alpha virt. eigenvalues --    6.66056   6.68430   6.83808   6.87643   6.91460
 Alpha virt. eigenvalues --    6.92969   6.96726   6.99559   7.00505   7.04441
 Alpha virt. eigenvalues --    7.09974   7.14406   7.16494   7.20957   7.26372
 Alpha virt. eigenvalues --    7.27223   7.29514   7.36088   7.40846   7.50933
 Alpha virt. eigenvalues --    7.52528   7.56100   7.58590   7.75069   7.94578
 Alpha virt. eigenvalues --   24.41581  24.58564  24.71963  24.79587  24.91919
 Alpha virt. eigenvalues --   24.93773  25.00811  25.03718  25.05302  35.96369
 Alpha virt. eigenvalues --   36.20798  36.22788  36.39989  50.17903  50.21686
 Alpha virt. eigenvalues --   50.27733
          Condensed to atoms (all electrons):
               1          2          3          4          5          6
     1  O    7.879264   0.691638  -0.126197  -0.014732   0.000339  -0.000001
     2  C    0.691638   4.387535   0.319158  -0.056100   0.000498  -0.000150
     3  N   -0.126197   0.319158   6.815522   0.273478  -0.014470   0.002744
     4  C   -0.014732  -0.056100   0.273478   5.307273   0.179765  -0.118727
     5  C    0.000339   0.000498  -0.014470   0.179765   4.282339   0.402777
     6  O   -0.000001  -0.000150   0.002744  -0.118727   0.402777   7.789947
     7  O   -0.000007  -0.001645  -0.018313  -0.126063   0.744327  -0.066896
     8  C   -0.005103  -0.002851  -0.049879   0.290921  -0.044765   0.011149
     9  C   -0.001428   0.000664   0.004760  -0.046667  -0.009183  -0.014919
    10  C   -0.000024   0.000005   0.000117  -0.001434  -0.000698  -0.001072
    11  N    0.000000   0.000000  -0.000001   0.000156  -0.000251  -0.000265
    12  C    0.000000   0.000000   0.000000  -0.000202   0.000284   0.002893
    13  N    0.000000  -0.000001   0.000001  -0.001491   0.004170   0.000263
    14  C   -0.058583   0.378183  -0.069754   0.001274  -0.000004   0.000000
    15  C    0.001969  -0.059155   0.017683   0.000465   0.000061   0.000000
    16  N   -0.000011   0.004120  -0.053814  -0.000338  -0.000626  -0.000001
    17  H    0.003069  -0.011497   0.263996  -0.053695  -0.002341   0.001539
    18  H    0.026497  -0.002761  -0.042718   0.361698  -0.015125   0.000667
    19  H   -0.000063   0.000130  -0.000255   0.009301  -0.043503   0.303500
    20  H    0.022771   0.001639  -0.010169  -0.038186   0.002409  -0.000022
    21  H   -0.000145   0.001522   0.013611  -0.041538   0.000469  -0.000864
    22  H    0.000268   0.000006  -0.000031   0.000005   0.000060   0.000032
    23  H    0.000000   0.000000   0.000000   0.000006   0.000004   0.000058
    24  H    0.000000   0.000002  -0.000050   0.000092   0.000095   0.000513
    25  H    0.001632  -0.031204   0.003680   0.000266  -0.000025   0.000000
    26  H    0.012808  -0.039784   0.008137  -0.000293  -0.000015   0.000000
    27  H   -0.000278   0.005979  -0.000950   0.000011  -0.000003   0.000000
    28  H    0.000373  -0.003345   0.007054   0.000395   0.000121   0.000000
    29  H    0.000006  -0.000049   0.001648  -0.000042   0.000094   0.000001
    30  H    0.000009  -0.000716   0.002630   0.000085   0.000005   0.000000
               7          8          9         10         11         12
     1  O   -0.000007  -0.005103  -0.001428  -0.000024   0.000000   0.000000
     2  C   -0.001645  -0.002851   0.000664   0.000005   0.000000   0.000000
     3  N   -0.018313  -0.049879   0.004760   0.000117  -0.000001   0.000000
     4  C   -0.126063   0.290921  -0.046667  -0.001434   0.000156  -0.000202
     5  C    0.744327  -0.044765  -0.009183  -0.000698  -0.000251   0.000284
     6  O   -0.066896   0.011149  -0.014919  -0.001072  -0.000265   0.002893
     7  O    7.778570   0.000844  -0.000375   0.000002   0.000000  -0.000002
     8  C    0.000844   4.974745   0.185405  -0.051548   0.009109  -0.000983
     9  C   -0.000375   0.185405   5.384806   0.484915  -0.057939  -0.134999
    10  C    0.000002  -0.051548   0.484915   4.763615   0.460429  -0.155202
    11  N    0.000000   0.009109  -0.057939   0.460429   6.524112   0.571107
    12  C   -0.000002  -0.000983  -0.134999  -0.155202   0.571107   4.609479
    13  N    0.000004  -0.030679   0.309612  -0.048842  -0.126649   0.465320
    14  C    0.000019  -0.001106   0.000012   0.000000   0.000000   0.000000
    15  C   -0.000230   0.000184  -0.000003   0.000000   0.000000   0.000000
    16  N   -0.000552  -0.000130  -0.000001   0.000000   0.000000   0.000000
    17  H    0.041574  -0.000621  -0.000061  -0.000013   0.000000  -0.000001
    18  H    0.002325  -0.087088   0.016515   0.001488  -0.000176  -0.000110
    19  H    0.004340  -0.009221   0.008684   0.024392   0.001155  -0.001760
    20  H   -0.000276   0.423020  -0.046616  -0.001999   0.000164  -0.000230
    21  H    0.002336   0.352445  -0.020876   0.004537  -0.000484   0.000063
    22  H    0.000000  -0.000515  -0.054397   0.431846  -0.018846   0.006038
    23  H    0.000000  -0.000187   0.005627   0.003489  -0.017995   0.424953
    24  H   -0.000034   0.005564  -0.028630   0.002828   0.007226  -0.026347
    25  H   -0.000005   0.000232   0.000003   0.000000   0.000000   0.000000
    26  H    0.000001  -0.000017   0.000005   0.000000   0.000000   0.000000
    27  H   -0.000006  -0.000003   0.000000   0.000000   0.000000   0.000000
    28  H    0.000117   0.000057  -0.000001   0.000000   0.000000   0.000000
    29  H    0.000466   0.000009   0.000000   0.000000   0.000000   0.000000
    30  H   -0.000031   0.000004   0.000001   0.000000   0.000000   0.000000
              13         14         15         16         17         18
     1  O    0.000000  -0.058583   0.001969  -0.000011   0.003069   0.026497
     2  C   -0.000001   0.378183  -0.059155   0.004120  -0.011497  -0.002761
     3  N    0.000001  -0.069754   0.017683  -0.053814   0.263996  -0.042718
     4  C   -0.001491   0.001274   0.000465  -0.000338  -0.053695   0.361698
     5  C    0.004170  -0.000004   0.000061  -0.000626  -0.002341  -0.015125
     6  O    0.000263   0.000000   0.000000  -0.000001   0.001539   0.000667
     7  O    0.000004   0.000019  -0.000230  -0.000552   0.041574   0.002325
     8  C   -0.030679  -0.001106   0.000184  -0.000130  -0.000621  -0.087088
     9  C    0.309612   0.000012  -0.000003  -0.000001  -0.000061   0.016515
    10  C   -0.048842   0.000000   0.000000   0.000000  -0.000013   0.001488
    11  N   -0.126649   0.000000   0.000000   0.000000   0.000000  -0.000176
    12  C    0.465320   0.000000   0.000000   0.000000  -0.000001  -0.000110
    13  N    6.307660   0.000000   0.000000   0.000000   0.000005  -0.000016
    14  C    0.000000   4.901805   0.264801  -0.044218  -0.012505   0.003104
    15  C    0.000000   0.264801   4.741979   0.257533  -0.023991  -0.001005
    16  N    0.000000  -0.044218   0.257533   6.380401   0.111883  -0.000082
    17  H    0.000005  -0.012505  -0.023991   0.111883   0.573246   0.006092
    18  H   -0.000016   0.003104  -0.001005  -0.000082   0.006092   0.697727
    19  H   -0.002031  -0.000004   0.000002  -0.000001  -0.000560   0.002553
    20  H    0.001757   0.000589   0.000061   0.000005  -0.000930  -0.007811
    21  H   -0.004421   0.000278  -0.000099  -0.000053   0.002038   0.011799
    22  H    0.004747   0.000001   0.000000   0.000000   0.000001   0.001377
    23  H   -0.037679   0.000000   0.000000   0.000000   0.000000  -0.000004
    24  H    0.379674   0.000000   0.000000   0.000000  -0.000003  -0.000019
    25  H    0.000000   0.371387  -0.037905  -0.004310  -0.000550  -0.000059
    26  H    0.000000   0.367801  -0.022520   0.004532   0.000813  -0.000082
    27  H    0.000000  -0.047341   0.413490  -0.031404   0.003718  -0.000003
    28  H    0.000000  -0.040663   0.396709  -0.038080  -0.004997  -0.000248
    29  H    0.000000   0.005962  -0.020929   0.347641  -0.007530  -0.000004
    30  H    0.000000   0.001222  -0.039680   0.334042  -0.007753   0.000017
              19         20         21         22         23         24
     1  O   -0.000063   0.022771  -0.000145   0.000268   0.000000   0.000000
     2  C    0.000130   0.001639   0.001522   0.000006   0.000000   0.000002
     3  N   -0.000255  -0.010169   0.013611  -0.000031   0.000000  -0.000050
     4  C    0.009301  -0.038186  -0.041538   0.000005   0.000006   0.000092
     5  C   -0.043503   0.002409   0.000469   0.000060   0.000004   0.000095
     6  O    0.303500  -0.000022  -0.000864   0.000032   0.000058   0.000513
     7  O    0.004340  -0.000276   0.002336   0.000000   0.000000  -0.000034
     8  C   -0.009221   0.423020   0.352445  -0.000515  -0.000187   0.005564
     9  C    0.008684  -0.046616  -0.020876  -0.054397   0.005627  -0.028630
    10  C    0.024392  -0.001999   0.004537   0.431846   0.003489   0.002828
    11  N    0.001155   0.000164  -0.000484  -0.018846  -0.017995   0.007226
    12  C   -0.001760  -0.000230   0.000063   0.006038   0.424953  -0.026347
    13  N   -0.002031   0.001757  -0.004421   0.004747  -0.037679   0.379674
    14  C   -0.000004   0.000589   0.000278   0.000001   0.000000   0.000000
    15  C    0.000002   0.000061  -0.000099   0.000000   0.000000   0.000000
    16  N   -0.000001   0.000005  -0.000053   0.000000   0.000000   0.000000
    17  H   -0.000560  -0.000930   0.002038   0.000001   0.000000  -0.000003
    18  H    0.002553  -0.007811   0.011799   0.001377  -0.000004  -0.000019
    19  H    0.476141   0.000358   0.000233  -0.000022  -0.000022  -0.000264
    20  H    0.000358   0.646913  -0.042102   0.000510   0.000015  -0.000069
    21  H    0.000233  -0.042102   0.709805  -0.000016  -0.000047   0.002839
    22  H   -0.000022   0.000510  -0.000016   0.599725  -0.000399  -0.000439
    23  H   -0.000022   0.000015  -0.000047  -0.000399   0.598890  -0.001302
    24  H   -0.000264  -0.000069   0.002839  -0.000439  -0.001302   0.547536
    25  H    0.000000  -0.000401  -0.000024   0.000000   0.000000   0.000000
    26  H    0.000000  -0.000053   0.000006   0.000000   0.000000   0.000000
    27  H    0.000000   0.000007  -0.000003   0.000000   0.000000   0.000000
    28  H   -0.000001  -0.000007  -0.000013   0.000000   0.000000   0.000000
    29  H    0.000000  -0.000001   0.000001   0.000000   0.000000   0.000000
    30  H    0.000000  -0.000005   0.000022   0.000000   0.000000   0.000000
              25         26         27         28         29         30
     1  O    0.001632   0.012808  -0.000278   0.000373   0.000006   0.000009
     2  C   -0.031204  -0.039784   0.005979  -0.003345  -0.000049  -0.000716
     3  N    0.003680   0.008137  -0.000950   0.007054   0.001648   0.002630
     4  C    0.000266  -0.000293   0.000011   0.000395  -0.000042   0.000085
     5  C   -0.000025  -0.000015  -0.000003   0.000121   0.000094   0.000005
     6  O    0.000000   0.000000   0.000000   0.000000   0.000001   0.000000
     7  O   -0.000005   0.000001  -0.000006   0.000117   0.000466  -0.000031
     8  C    0.000232  -0.000017  -0.000003   0.000057   0.000009   0.000004
     9  C    0.000003   0.000005   0.000000  -0.000001   0.000000   0.000001
    10  C    0.000000   0.000000   0.000000   0.000000   0.000000   0.000000
    11  N    0.000000   0.000000   0.000000   0.000000   0.000000   0.000000
    12  C    0.000000   0.000000   0.000000   0.000000   0.000000   0.000000
    13  N    0.000000   0.000000   0.000000   0.000000   0.000000   0.000000
    14  C    0.371387   0.367801  -0.047341  -0.040663   0.005962   0.001222
    15  C   -0.037905  -0.022520   0.413490   0.396709  -0.020929  -0.039680
    16  N   -0.004310   0.004532  -0.031404  -0.038080   0.347641   0.334042
    17  H   -0.000550   0.000813   0.003718  -0.004997  -0.007530  -0.007753
    18  H   -0.000059  -0.000082  -0.000003  -0.000248  -0.000004   0.000017
    19  H    0.000000   0.000000   0.000000  -0.000001   0.000000   0.000000
    20  H   -0.000401  -0.000053   0.000007  -0.000007  -0.000001  -0.000005
    21  H   -0.000024   0.000006  -0.000003  -0.000013   0.000001   0.000022
    22  H    0.000000   0.000000   0.000000   0.000000   0.000000   0.000000
    23  H    0.000000   0.000000   0.000000   0.000000   0.000000   0.000000
    24  H    0.000000   0.000000   0.000000   0.000000   0.000000   0.000000
    25  H    0.714464  -0.034688  -0.006065   0.009125  -0.000012   0.004198
    26  H   -0.034688   0.695812  -0.004122  -0.002397  -0.000676  -0.000596
    27  H   -0.006065  -0.004122   0.744671  -0.058215  -0.004173  -0.012931
    28  H    0.009125  -0.002397  -0.058215   0.704596  -0.006691   0.010680
    29  H   -0.000012  -0.000676  -0.004173  -0.006691   0.627571  -0.035196
    30  H    0.004198  -0.000596  -0.012931   0.010680  -0.035196   0.647586
 Mulliken charges:
               1
     1  O   -0.434070
     2  C    0.418177
     3  N   -0.347618
     4  C    0.074317
     5  C    0.513190
     6  O   -0.313166
     7  O   -0.360488
     8  C    0.031009
     9  C    0.015086
    10  C    0.083168
    11  N   -0.350852
    12  C    0.239697
    13  N   -0.221403
    14  C   -0.022260
    15  C    0.110582
    16  N   -0.266537
    17  H    0.119073
    18  H    0.025453
    19  H    0.226920
    20  H    0.048661
    21  H    0.008683
    22  H    0.030050
    23  H    0.024594
    24  H    0.110790
    25  H    0.010259
    26  H    0.015327
    27  H   -0.002376
    28  H    0.025429
    29  H    0.091904
    30  H    0.096404
 Sum of Mulliken charges =   0.00000
 Mulliken charges with hydrogens summed into heavy atoms:
               1
     1  O   -0.434070
     2  C    0.418177
     3  N   -0.228545
     4  C    0.099769
     5  C    0.513190
     6  O   -0.086246
     7  O   -0.360488
     8  C    0.088353
     9  C    0.015086
    10  C    0.113218
    11  N   -0.350852
    12  C    0.264291
    13  N   -0.110614
    14  C    0.003326
    15  C    0.133635
    16  N   -0.078230
 Electronic spatial extent (au):  <R**2>=           4649.5334
 Charge=              0.0000 electrons
 Dipole moment (field-independent basis, Debye):
    X=              3.0810    Y=             -3.7181    Z=              1.1913  Tot=              4.9735
 Quadrupole moment (field-independent basis, Debye-Ang):
   XX=            -82.8953   YY=            -88.4396   ZZ=           -109.8888
   XY=              8.3024   XZ=             -6.2783   YZ=             -3.7579
 Traceless Quadrupole moment (field-independent basis, Debye-Ang):
   XX=             10.8460   YY=              5.3016   ZZ=            -16.1476
   XY=              8.3024   XZ=             -6.2783   YZ=             -3.7579
 Octapole moment (field-independent basis, Debye-Ang**2):
  XXX=            252.0707  YYY=            -40.7588  ZZZ=            -28.3401  XYY=             40.1568
  XXY=            -75.1622  XXZ=             40.2196  XZZ=             32.8577  YZZ=            -28.4786
  YYZ=             -3.5351  XYZ=             15.5491
 Hexadecapole moment (field-independent basis, Debye-Ang**3):
 XXXX=          -4750.9410 YYYY=           -326.7119 ZZZZ=          -1150.4845 XXXY=            302.5095
 XXXZ=             54.3904 YYYX=             69.7747 YYYZ=            -45.1080 ZZZX=            253.6967
 ZZZY=            -47.5342 XXYY=           -816.6924 XXZZ=           -883.6454 YYZZ=           -223.7201
 XXYZ=            -63.7320 YYXZ=             69.1742 ZZXY=             34.8915
 N-N= 1.125135549268D+03 E-N=-4.111795690806D+03  KE= 7.931339673799D+02
 Calling FoFJK, ICntrl=      2127 FMM=F ISym2X=0 I1Cent= 0 IOpClX= 0 NMat=1 NMatS=1 NMatT=0.
 -------------------------------------------------------------------
 Center     Atomic                   Forces (Hartrees/Bohr)
 Number     Number              X              Y              Z
 -------------------------------------------------------------------
      1        8           0.007145414   -0.003006078    0.009608078
      2        6          -0.005465359    0.001096926   -0.004674974
      3        7           0.001205767    0.000503339   -0.002585086
      4        6          -0.000209832    0.000502026    0.000813781
      5        6           0.007751881   -0.002437341    0.007845824
      6        8           0.001255496   -0.001230448   -0.004036099
      7        8          -0.010906500    0.003826747   -0.009520696
      8        6          -0.000273760   -0.000037952   -0.000414955
      9        6          -0.003621287    0.001637149   -0.000380520
     10        6           0.001310484   -0.002138267    0.000750009
     11        7           0.004217725   -0.005724117    0.003126199
     12        6           0.001098123    0.001680826   -0.001546726
     13        7          -0.000803583    0.002114647   -0.001430618
     14        6           0.000336706    0.000341801   -0.000926742
     15        6           0.000386150    0.001519580   -0.001451738
     16        7           0.004625137   -0.001380060    0.000963009
     17        1          -0.003015558    0.000962116   -0.002992260
     18        1           0.000420087   -0.002295104    0.001600973
     19        1           0.002205205   -0.000252419    0.003200126
     20        1          -0.000809238    0.000185620    0.002641442
     21        1          -0.000574055    0.002343799   -0.001149565
     22        1          -0.000663246   -0.002079377    0.002018489
     23        1           0.002163528    0.000848283   -0.001497181
     24        1          -0.000826646    0.002490328   -0.001743908
     25        1          -0.000455030    0.002674161    0.000504269
     26        1          -0.000851390   -0.001108165    0.002238595
     27        1          -0.003022753    0.000070157    0.001149189
     28        1           0.000208358   -0.002632969   -0.000501250
     29        1          -0.001722919   -0.001500606   -0.002264822
     30        1          -0.001108904    0.003025399    0.000657161
 -------------------------------------------------------------------
 Cartesian Forces:  Max     0.010906500 RMS     0.003072320

 GradGradGradGradGradGradGradGradGradGradGradGradGradGradGradGradGradGrad
 Berny optimization.
 FormGI is forming the generalized inverse of G from B-inverse, IUseBI=4.
 Internal  Forces:  Max     0.014967732 RMS     0.002242275
 Search for a local minimum.
 Step number   1 out of a maximum of  160
 All quantities printed in internal units (Hartrees-Bohrs-Radians)
 Mixed Optimization -- RFO/linear search
 Second derivative matrix not updated -- first step.
 ITU=  0
     Eigenvalues ---    0.00092   0.00152   0.00315   0.00375   0.00470
     Eigenvalues ---    0.00521   0.00550   0.00660   0.00891   0.01256
     Eigenvalues ---    0.01986   0.02148   0.02536   0.02979   0.03150
     Eigenvalues ---    0.03551   0.04033   0.04124   0.04259   0.04399
     Eigenvalues ---    0.04589   0.04964   0.05097   0.05135   0.05461
     Eigenvalues ---    0.05572   0.06070   0.06108   0.07876   0.07977
     Eigenvalues ---    0.08384   0.10202   0.11065   0.11212   0.11491
     Eigenvalues ---    0.11861   0.12293   0.13407   0.14815   0.14992
     Eigenvalues ---    0.16776   0.16963   0.17919   0.18998   0.20843
     Eigenvalues ---    0.21467   0.21984   0.22374   0.23071   0.23197
     Eigenvalues ---    0.23853   0.24354   0.25089   0.26599   0.30146
     Eigenvalues ---    0.31118   0.31331   0.32420   0.32907   0.33055
     Eigenvalues ---    0.33374   0.33472   0.34269   0.34422   0.34514
     Eigenvalues ---    0.35488   0.37197   0.37368   0.37769   0.39691
     Eigenvalues ---    0.40229   0.40391   0.43979   0.44684   0.44987
     Eigenvalues ---    0.45343   0.46662   0.47142   0.47850   0.48845
     Eigenvalues ---    0.53032   0.57656   0.81062   0.89789
 RFO step:  Lambda=-1.42483456D-03 EMin= 9.20437366D-04
 Linear search not attempted -- first point.
 Iteration  1 RMS(Cart)=  0.03617937 RMS(Int)=  0.00043178
 Iteration  2 RMS(Cart)=  0.00062724 RMS(Int)=  0.00000700
 Iteration  3 RMS(Cart)=  0.00000014 RMS(Int)=  0.00000700
 Variable       Old X    -DE/DX   Delta X   Delta X   Delta X     New X
                                 (Linear)    (Quad)   (Total)
    R1        2.32606  -0.01233   0.00000  -0.01504  -0.01504   2.31102
    R2        2.57150  -0.00498   0.00000  -0.00718  -0.00718   2.56432
    R3        2.89268  -0.00184   0.00000  -0.00752  -0.00752   2.88515
    R4        2.72753  -0.00173   0.00000  -0.00450  -0.00450   2.72303
    R5        1.93657  -0.00434   0.00000  -0.01248  -0.01248   1.92409
    R6        2.89575  -0.00250   0.00000  -0.00795  -0.00795   2.88781
    R7        2.95422  -0.00182   0.00000  -0.00725  -0.00725   2.94697
    R8        2.07486  -0.00282   0.00000  -0.00873  -0.00873   2.06613
    R9        2.54817  -0.00383   0.00000  -0.00469  -0.00469   2.54348
   R10        2.28405  -0.01497   0.00000  -0.01669  -0.01669   2.26736
   R11        1.84232  -0.00388   0.00000  -0.00936  -0.00936   1.83296
   R12        2.83164  -0.00314   0.00000  -0.00874  -0.00874   2.82290
   R13        2.06628  -0.00275   0.00000  -0.00761  -0.00761   2.05867
   R14        2.07066  -0.00267   0.00000  -0.00738  -0.00738   2.06328
   R15        2.61099  -0.00664   0.00000  -0.01242  -0.01242   2.59857
   R16        2.61454  -0.00400   0.00000  -0.00812  -0.00812   2.60643
   R17        2.60633  -0.00340   0.00000  -0.00685  -0.00685   2.59949
   R18        2.04445  -0.00297   0.00000  -0.00785  -0.00785   2.03660
   R19        2.48334  -0.00634   0.00000  -0.01042  -0.01042   2.47292
   R20        2.58345  -0.00482   0.00000  -0.00829  -0.00829   2.57516
   R21        2.04320  -0.00276   0.00000  -0.00712  -0.00712   2.03608
   R22        1.90714  -0.00315   0.00000  -0.00651  -0.00651   1.90063
   R23        2.90174  -0.00170   0.00000  -0.00789  -0.00789   2.89385
   R24        2.07744  -0.00274   0.00000  -0.00788  -0.00788   2.06956
   R25        2.06520  -0.00264   0.00000  -0.00751  -0.00751   2.05769
   R26        2.77904  -0.00097   0.00000  -0.00426  -0.00426   2.77478
   R27        2.08139  -0.00322   0.00000  -0.00925  -0.00925   2.07215
   R28        2.07052  -0.00269   0.00000  -0.00778  -0.00778   2.06274
   R29        1.91964  -0.00320   0.00000  -0.00768  -0.00768   1.91196
   R30        1.92249  -0.00326   0.00000  -0.00795  -0.00795   1.91454
    A1        2.13987  -0.00138   0.00000  -0.00247  -0.00248   2.13739
    A2        2.11920  -0.00143   0.00000  -0.00210  -0.00210   2.11709
    A3        2.02391   0.00282   0.00000   0.00472   0.00471   2.02862
    A4        2.10242   0.00087   0.00000   0.00433   0.00433   2.10675
    A5        2.07910  -0.00011   0.00000   0.00254   0.00254   2.08164
    A6        2.09424  -0.00077   0.00000  -0.00728  -0.00728   2.08696
    A7        1.89660  -0.00015   0.00000   0.00204   0.00204   1.89865
    A8        1.94243  -0.00022   0.00000  -0.00018  -0.00018   1.94224
    A9        1.89811   0.00011   0.00000  -0.00256  -0.00256   1.89555
   A10        1.95769   0.00041   0.00000   0.00060   0.00060   1.95830
   A11        1.90311  -0.00025   0.00000  -0.00129  -0.00129   1.90182
   A12        1.86464   0.00008   0.00000   0.00119   0.00119   1.86583
   A13        2.02102   0.00072   0.00000  -0.00119  -0.00119   2.01983
   A14        2.15375   0.00016   0.00000   0.00307   0.00307   2.15681
   A15        2.10834  -0.00087   0.00000  -0.00188  -0.00188   2.10647
   A16        1.92713   0.00066   0.00000   0.00682   0.00682   1.93395
   A17        1.99729   0.00066   0.00000   0.00339   0.00339   2.00068
   A18        1.83789   0.00020   0.00000   0.00383   0.00383   1.84172
   A19        1.89399  -0.00036   0.00000  -0.00174  -0.00174   1.89225
   A20        1.92406  -0.00047   0.00000  -0.00276  -0.00277   1.92129
   A21        1.92873  -0.00011   0.00000  -0.00034  -0.00034   1.92839
   A22        1.87624   0.00007   0.00000  -0.00258  -0.00259   1.87366
   A23        2.31403  -0.00020   0.00000  -0.00258  -0.00258   2.31144
   A24        2.15182   0.00004   0.00000   0.00035   0.00035   2.15217
   A25        1.81702   0.00016   0.00000   0.00213   0.00213   1.81915
   A26        1.94161  -0.00078   0.00000  -0.00332  -0.00332   1.93829
   A27        2.22344   0.00022   0.00000   0.00058   0.00057   2.22401
   A28        2.11766   0.00056   0.00000   0.00283   0.00283   2.12049
   A29        1.83460   0.00112   0.00000   0.00388   0.00388   1.83848
   A30        1.94994  -0.00080   0.00000  -0.00297  -0.00298   1.94696
   A31        2.19839   0.00039   0.00000   0.00151   0.00151   2.19990
   A32        2.13485   0.00041   0.00000   0.00147   0.00147   2.13632
   A33        1.88160   0.00030   0.00000   0.00029   0.00029   1.88189
   A34        2.19363  -0.00006   0.00000   0.00024   0.00024   2.19387
   A35        2.20770  -0.00024   0.00000  -0.00057  -0.00058   2.20712
   A36        2.03059   0.00265   0.00000   0.00552   0.00552   2.03611
   A37        1.88582  -0.00082   0.00000  -0.00250  -0.00251   1.88331
   A38        1.84876  -0.00115   0.00000  -0.00376  -0.00376   1.84500
   A39        1.91012  -0.00054   0.00000  -0.00016  -0.00016   1.90996
   A40        1.92233  -0.00068   0.00000   0.00009   0.00010   1.92243
   A41        1.85794   0.00037   0.00000   0.00033   0.00033   1.85827
   A42        1.93957   0.00178   0.00000   0.00359   0.00359   1.94315
   A43        1.89592  -0.00051   0.00000  -0.00220  -0.00220   1.89372
   A44        1.90759  -0.00046   0.00000   0.00088   0.00087   1.90846
   A45        1.97917  -0.00104   0.00000  -0.00359  -0.00358   1.97559
   A46        1.87759  -0.00017   0.00000   0.00030   0.00029   1.87789
   A47        1.86143   0.00034   0.00000   0.00110   0.00110   1.86253
   A48        1.93759   0.00052   0.00000   0.00560   0.00557   1.94316
   A49        1.92877   0.00060   0.00000   0.00647   0.00644   1.93521
   A50        1.86874  -0.00039   0.00000   0.00275   0.00270   1.87143
    D1       -0.07543   0.00016   0.00000  -0.00013  -0.00014  -0.07557
    D2       -3.08632   0.00030   0.00000   0.00399   0.00399  -3.08233
    D3        3.08776  -0.00020   0.00000  -0.00810  -0.00810   3.07965
    D4        0.07686  -0.00005   0.00000  -0.00398  -0.00397   0.07289
    D5        2.50343  -0.00042   0.00000  -0.01085  -0.01085   2.49258
    D6       -1.62418   0.00011   0.00000  -0.00912  -0.00913  -1.63331
    D7        0.36114  -0.00039   0.00000  -0.01169  -0.01169   0.34945
    D8       -0.65948  -0.00007   0.00000  -0.00299  -0.00299  -0.66247
    D9        1.49610   0.00046   0.00000  -0.00127  -0.00127   1.49483
   D10       -2.80177  -0.00004   0.00000  -0.00384  -0.00383  -2.80560
   D11       -2.77615   0.00048   0.00000   0.04458   0.04458  -2.73157
   D12        1.34291   0.00021   0.00000   0.04251   0.04251   1.38542
   D13       -0.70656   0.00016   0.00000   0.04274   0.04273  -0.66383
   D14        0.23361   0.00038   0.00000   0.04117   0.04118   0.27479
   D15       -1.93051   0.00011   0.00000   0.03911   0.03911  -1.89140
   D16        2.30320   0.00006   0.00000   0.03933   0.03933   2.34253
   D17        2.96277  -0.00015   0.00000  -0.01715  -0.01715   2.94561
   D18       -0.19169   0.00001   0.00000  -0.01739  -0.01739  -0.20908
   D19       -1.16541  -0.00025   0.00000  -0.01552  -0.01552  -1.18093
   D20        1.96332  -0.00009   0.00000  -0.01576  -0.01576   1.94756
   D21        0.89633  -0.00005   0.00000  -0.01451  -0.01451   0.88182
   D22       -2.25813   0.00010   0.00000  -0.01475  -0.01475  -2.27288
   D23       -3.06673   0.00009   0.00000   0.00657   0.00657  -3.06016
   D24       -0.95107   0.00003   0.00000   0.00782   0.00782  -0.94325
   D25        1.05366   0.00005   0.00000   0.00595   0.00595   1.05962
   D26        1.08736   0.00014   0.00000   0.00363   0.00363   1.09099
   D27       -3.08016   0.00008   0.00000   0.00487   0.00488  -3.07528
   D28       -1.07542   0.00010   0.00000   0.00301   0.00301  -1.07241
   D29       -0.99705   0.00015   0.00000   0.00410   0.00410  -0.99296
   D30        1.11861   0.00010   0.00000   0.00535   0.00535   1.12396
   D31        3.12334   0.00011   0.00000   0.00348   0.00348   3.12683
   D32        0.04992   0.00003   0.00000  -0.00678  -0.00678   0.04313
   D33       -3.07917  -0.00014   0.00000  -0.00659  -0.00659  -3.08576
   D34        1.09564   0.00021   0.00000   0.02194   0.02194   1.11758
   D35       -2.01433   0.00021   0.00000   0.02670   0.02669  -1.98764
   D36       -0.97185  -0.00014   0.00000   0.01674   0.01674  -0.95510
   D37        2.20136  -0.00014   0.00000   0.02149   0.02149   2.22286
   D38       -3.04345   0.00013   0.00000   0.02188   0.02188  -3.02156
   D39        0.12977   0.00013   0.00000   0.02664   0.02663   0.15640
   D40       -3.11672   0.00008   0.00000   0.00528   0.00528  -3.11144
   D41        0.05801   0.00000   0.00000   0.00216   0.00216   0.06017
   D42       -0.00238   0.00008   0.00000   0.00118   0.00118  -0.00120
   D43       -3.11084   0.00000   0.00000  -0.00194  -0.00194  -3.11278
   D44        3.12172  -0.00008   0.00000  -0.00499  -0.00499   3.11672
   D45        0.00304  -0.00001   0.00000  -0.00290  -0.00290   0.00014
   D46        0.00413  -0.00007   0.00000  -0.00131  -0.00131   0.00282
   D47       -3.11455  -0.00001   0.00000   0.00078   0.00078  -3.11377
   D48       -0.00036  -0.00005   0.00000  -0.00057  -0.00057  -0.00093
   D49        3.11041   0.00002   0.00000   0.00229   0.00229   3.11271
   D50        0.00311   0.00000   0.00000  -0.00031  -0.00031   0.00280
   D51       -3.14144   0.00003   0.00000   0.00162   0.00162  -3.13982
   D52       -0.00472   0.00005   0.00000   0.00107   0.00107  -0.00366
   D53        3.11372  -0.00001   0.00000  -0.00103  -0.00103   3.11269
   D54        3.13970   0.00002   0.00000  -0.00078  -0.00078   3.13892
   D55       -0.02504  -0.00004   0.00000  -0.00288  -0.00288  -0.02792
   D56        1.16446   0.00078   0.00000   0.01976   0.01976   1.18422
   D57       -2.92976   0.00032   0.00000   0.01609   0.01609  -2.91367
   D58       -0.90512   0.00019   0.00000   0.01666   0.01666  -0.88846
   D59       -0.97849   0.00036   0.00000   0.01917   0.01917  -0.95932
   D60        1.21048  -0.00010   0.00000   0.01550   0.01550   1.22598
   D61       -3.04807  -0.00022   0.00000   0.01607   0.01606  -3.03200
   D62       -3.01535   0.00062   0.00000   0.01881   0.01881  -2.99653
   D63       -0.82638   0.00016   0.00000   0.01514   0.01514  -0.81124
   D64        1.19826   0.00003   0.00000   0.01571   0.01571   1.21397
   D65       -2.93247  -0.00003   0.00000   0.00808   0.00809  -2.92438
   D66        1.27986  -0.00025   0.00000  -0.00307  -0.00308   1.27678
   D67        1.20906   0.00005   0.00000   0.01088   0.01090   1.21996
   D68       -0.86179  -0.00017   0.00000  -0.00026  -0.00028  -0.86206
   D69       -0.84493   0.00035   0.00000   0.01143   0.01144  -0.83349
   D70       -2.91577   0.00012   0.00000   0.00028   0.00027  -2.91551
         Item               Value     Threshold  Converged?
 Maximum Force            0.014968     0.000450     NO 
 RMS     Force            0.002242     0.000300     NO 
 Maximum Displacement     0.132128     0.001800     NO 
 RMS     Displacement     0.036089     0.001200     NO 
 Predicted change in Energy=-7.278505D-04
 GradGradGradGradGradGradGradGradGradGradGradGradGradGradGradGradGradGrad

                          Input orientation:                          
 ---------------------------------------------------------------------
 Center     Atomic      Atomic             Coordinates (Angstroms)
 Number     Number       Type             X           Y           Z
 ---------------------------------------------------------------------
      1          8           0        0.889190    0.557162   -2.317798
      2          6           0        1.570187    0.171369   -1.378122
      3          7           0        1.069532    0.031878   -0.124612
      4          6           0       -0.283705    0.425797    0.175317
      5          6           0       -0.391374    0.716641    1.671676
      6          8           0       -1.526903    1.319950    2.069393
      7          8           0        0.458459    0.425549    2.467073
      8          6           0       -1.304759   -0.657448   -0.289412
      9          6           0       -2.738717   -0.277316   -0.114055
     10          6           0       -3.510640    0.714489   -0.672057
     11          7           0       -4.788610    0.691104   -0.163640
     12          6           0       -4.802750   -0.299137    0.691750
     13          7           0       -3.589955   -0.916426    0.763040
     14          6           0        3.039666   -0.199366   -1.562990
     15          6           0        3.991109    0.173404   -0.422438
     16          7           0        3.713930   -0.616210    0.784101
     17          1           0        1.692388   -0.243072    0.632455
     18          1           0       -0.512933    1.338411   -0.381463
     19          1           0       -2.131611    1.443721    1.321171
     20          1           0       -1.089226   -0.828079   -1.343559
     21          1           0       -1.087921   -1.586368    0.241821
     22          1           0       -3.218714    1.423936   -1.428993
     23          1           0       -5.646690   -0.614403    1.282739
     24          1           0       -3.345215   -1.685720    1.362928
     25          1           0        3.094461   -1.277836   -1.745424
     26          1           0        3.352372    0.286183   -2.486094
     27          1           0        5.022064    0.067323   -0.780575
     28          1           0        3.854306    1.225731   -0.166735
     29          1           0        4.195199   -0.238394    1.589895
     30          1           0        4.026671   -1.572989    0.669217
 ---------------------------------------------------------------------
                    Distance matrix (angstroms):
                    1          2          3          4          5
     1  O    0.000000
     2  C    1.222941   0.000000
     3  N    2.262412   1.356982   0.000000
     4  C    2.758362   2.432040   1.440965   0.000000
     5  C    4.192992   3.666921   2.414498   1.528161   0.000000
     6  O    5.066241   4.774575   3.635143   2.435688   1.345952
     7  O    4.806021   4.010744   2.691694   2.408932   1.199836
     8  C    3.225374   3.183951   2.477819   1.559469   2.562862
     9  C    4.326032   4.512853   3.820795   2.570056   3.112364
    10  C    4.700183   5.158324   4.663006   3.348805   3.901655
    11  N    6.074187   6.494566   5.895246   4.525423   4.764948
    12  C    6.495291   6.717147   5.937989   4.605866   4.631663
    13  N    5.632563   5.691655   4.837150   3.616389   3.704518
    14  C    2.401378   1.526758   2.450272   3.802280   4.803558
    15  C    3.655347   2.602730   2.940127   4.323777   4.887390
    16  N    4.356344   3.145016   2.870300   4.175821   4.406564
    17  H    3.160616   2.056480   1.018184   2.135721   2.518550
    18  H    2.515093   2.587413   2.068138   1.093350   2.148664
    19  H    4.811789   4.754825   3.785618   2.400814   1.918313
    20  H    2.604259   2.841226   2.624041   2.127922   3.459018
    21  H    3.880121   3.574827   2.721690   2.167946   2.798842
    22  H    4.291404   4.950261   4.693430   3.490611   4.255381
    23  H    7.553421   7.731813   6.892456   5.574048   5.435191
    24  H    6.042222   5.926492   4.965169   3.904070   3.819927
    25  H    2.925415   2.135068   2.905636   4.243066   5.273098
    26  H    2.483750   2.101658   3.294332   4.508176   5.611415
    27  H    4.436625   3.504760   4.006751   5.403093   5.978333
    28  H    3.723704   2.792193   3.030186   4.228478   4.654538
    29  H    5.180026   3.983430   3.575245   4.743708   4.685662
    30  H    4.827379   3.642622   3.456940   4.776863   5.076067
                    6          7          8          9         10
     6  O    0.000000
     7  O    2.213541   0.000000
     8  C    3.086002   3.446742   0.000000
     9  C    2.964320   4.168714   1.493816   0.000000
    10  C    3.437636   5.068666   2.625745   1.375104   0.000000
    11  N    4.002576   5.875620   3.737864   2.267677   1.375588
    12  C    3.905191   5.599756   3.650617   2.215858   2.134703
    13  N    3.311211   4.592851   2.529198   1.379262   2.173864
    14  C    6.029600   4.826443   4.550370   5.957785   6.673485
    15  C    6.162163   4.570827   5.362297   6.751949   7.525379
    16  N    5.732977   3.809954   5.132385   6.523664   7.489030
    17  H    3.856380   2.309861   3.162979   4.493678   5.448869
    18  H    2.652390   3.145008   2.149166   2.763367   3.075706
    19  H    0.969962   3.009689   2.773549   2.321728   2.531098
    20  H    4.056332   4.299748   1.089401   2.129752   2.948504
    21  H    3.461128   3.375033   1.091842   2.136678   3.463912
    22  H    3.887382   5.449560   3.048610   2.203115   1.077722
    23  H    4.618787   6.305315   4.617995   3.243604   3.185890
    24  H    3.583211   4.488266   2.819757   2.129065   3.151116
    25  H    6.531334   5.253109   4.675253   6.139086   6.982037
    26  H    6.754884   5.738294   5.234952   6.560904   7.111617
    27  H    7.251232   5.612667   6.387114   7.796971   8.557899
    28  H    5.828084   4.371385   5.493393   6.762388   7.399943
    29  H    5.949858   3.895316   5.827259   7.140319   8.087297
    30  H    6.416524   4.467502   5.493754   6.932731   7.990158
                   11         12         13         14         15
    11  N    0.000000
    12  C    1.308613   0.000000
    13  N    2.208996   1.362718   0.000000
    14  C    8.002064   8.160716   7.062327   0.000000
    15  C    8.798776   8.876749   7.750201   1.531359   0.000000
    16  N    8.654506   8.523081   7.310083   2.477343   1.468351
    17  H    6.596195   6.495651   5.326688   2.576246   2.563273
    18  H    4.329881   4.715493   3.982743   4.047434   4.652453
    19  H    3.135402   3.250955   2.829943   6.144935   6.491654
    20  H    4.169601   4.267613   3.270965   4.182246   5.259395
    21  H    4.364215   3.957190   2.642094   4.713607   5.416141
    22  H    2.145398   3.158433   3.228022   6.466868   7.386375
    23  H    2.129005   1.077449   2.142771   9.150039   9.819137
    24  H    3.172237   2.120731   1.005770   7.178924   7.775958
    25  H    8.277776   8.322476   7.148736   1.095163   2.158789
    26  H    8.475455   8.771961   7.758804   1.088882   2.163188
    27  H    9.849824   9.941278   8.804395   2.147835   1.096532
    28  H    8.659437   8.832148   7.801945   2.155010   1.091554
    29  H    9.200418   9.042867   7.858246   3.358193   2.064149
    30  H    9.139417   8.920867   7.645447   2.800672   2.059821
                   16         17         18         19         20
    16  N    0.000000
    17  H    2.061277   0.000000
    18  H    4.800569   2.896992   0.000000
    19  H    6.221102   4.235867   2.351631   0.000000
    20  H    5.257579   3.461826   2.439553   3.653550   0.000000
    21  H    4.928798   3.112420   3.045229   3.381674   1.757394
    22  H    7.557879   5.580986   2.902737   2.957293   3.100579
    23  H    9.373893   7.377183   5.739208   4.073468   5.264369
    24  H    7.163129   5.290772   4.495563   3.356781   3.626307
    25  H    2.687003   2.948025   4.660304   6.642492   4.226939
    26  H    3.411629   3.572254   4.525178   6.775634   4.719614
    27  H    2.150963   3.630391   5.693079   7.582009   6.202142
    28  H    2.077629   2.733126   4.373967   6.171919   5.481018
    29  H    1.011765   2.679697   5.342198   6.552118   6.072728
    30  H    1.013129   2.686802   5.494378   6.888397   5.547843
                   21         22         23         24         25
    21  H    0.000000
[...]
 0250,-0.00844710,0.00196572,0.08412306,-0.25608811,0.20734714,0.000019
 89,0.00000881,-0.00000760,-0.00001555,-0.00000587,-0.00000761,0.000056
 13,-0.00002343,-0.00000508,-0.00008353,0.00006629,0.00002703,-0.000005
 23,-0.00006510,-0.00000626,-0.00009689,-0.00040171,0.00039274,0.000306
 19,0.00011344,-0.00007169,-0.00011121,0.00015885,0.00026152,0.00063128
 ,0.00077246,0.00084189,-0.00017409,-0.00042094,-0.00079010,-0.08720292
 ,0.26839503,-0.00009279,-0.00005767,0.00001289,0.00013874,0.00000910,-
 0.00010039,-0.00029307,-0.00008074,-0.00005072,0.00022180,-0.00003762,
 0.00029202,-0.00059278,0.00009401,0.00101050,0.00049294,0.00007990,-0.
 00049058,0.00010197,0.00008415,-0.00042697,-0.00097884,-0.00092610,-0.
 00057906,-0.01188811,0.00723436,-0.00917596,0.00254465,0.00277792,-0.0
 0148009,0.00282612,0.00111908,0.00430808,-0.00246061,-0.00668722,-0.00
 073275,-0.04678434,0.20818122,-0.18641655,-0.00000923,0.00003292,-0.00
 000272,0.00002163,-0.00000473,0.00004200,-0.00002653,0.00001363,-0.000
 05262,0.00002533,-0.00000715,0.00012389,-0.00009499,-0.00013248,-0.000
 07429,0.00007025,0.00001781,0.00034986,0.00002925,-0.00005256,0.000027
 45,0.00085658,-0.00037412,0.00033334,-0.00011621,0.00121932,0.00098784
 ,-0.00022928,-0.00049175,-0.00072625,0.05627507,-0.21200865,0.19281325
 ,-0.00333911,-0.00367583,-0.00097339,0.00003659,0.03478272,0.00438889,
 -0.00132097,-0.00182822,0.00068709,-0.00026963,-0.00138136,-0.00024795
 ,0.00005834,-0.00014355,-0.00028259,-0.00003909,0.00005582,0.00006436,
 0.00003641,0.00002005,0.00017086,-0.00037010,0.00021045,0.00019425,-0.
 00003967,-0.00013633,-0.00004298,0.00001671,-0.00000300,-0.00000390,-0
 .00004209,-0.00000933,0.00002949,-0.00004194,0.00001764,0.00001053,-0.
 00002900,0.00000716,-0.00002096,-0.04648218,0.01723611,0.00357580,0.00
 080548,-0.02262167,-0.00506354,0.00074072,0.00038839,0.00200111,-0.000
 30879,0.00065328,0.00008228,0.00005183,0.00000623,-0.00011634,0.000024
 68,-0.00001175,-0.00001601,0.00004637,0.00016448,-0.00001003,-0.000009
 01,-0.00002304,0.00008105,0.00000854,-0.00000991,0.00000460,-0.0000028
 6,0.00000504,0.00000485,0.00000319,0.00001569,-0.00000561,0.05155191,0
 .00176783,0.00136026,-0.00012542,0.00055185,-0.00846371,-0.00021146,0.
 00042565,0.00071939,0.00033299,0.00017762,0.00020933,-0.00015026,-0.00
 001830,0.00003332,0.00007267,0.00004966,-0.00002546,-0.00003631,0.0000
 1849,0.00001557,-0.00004343,0.00007372,-0.00007314,-0.00001049,-0.0000
 0281,0.00003778,0.00000320,-0.00000448,0.00000463,0.00001037,0.0000116
 3,0.00000904,-0.00000640,0.00001397,-0.00000395,-0.00000604,0.00001320
 ,0.00000401,0.00000637,0.01257902,-0.28937893,-0.04212592,-0.00024720,
 -0.00889840,-0.00188477,0.00016281,0.00207599,0.00082487,-0.00001567,-
 0.00032316,-0.00008160,-0.00008473,0.00001725,0.00007298,-0.00002642,-
 0.00000711,-0.00000425,-0.00001928,-0.00006844,-0.00001789,0.00000381,
 0.00001711,-0.00003646,-0.00000717,0.00000059,-0.00000641,0.00000091,-
 0.00000174,-0.00000239,-0.00000209,-0.00001216,-0.00000174,-0.01385951
 ,0.31580165,-0.00112099,-0.00030690,0.00003642,0.00046790,-0.00599060,
 -0.00240999,0.00107218,0.00078975,-0.00026019,0.00013185,0.00043397,0.
 00002503,0.00002446,-0.00002332,0.00005319,-0.00003070,0.00000704,0.00
 000158,-0.00001707,0.00005745,-0.00001984,0.00011947,-0.00008830,-0.00
 004217,0.00002783,0.00003703,0.00001539,-0.00000278,0.00000188,-0.0000
 0092,-0.00000328,0.00000327,-0.00000766,0.00000903,-0.00000752,0.00000
 120,-0.00000030,0.00000057,0.00000044,0.00320520,-0.04171246,-0.050479
 87,-0.00044232,-0.02718136,-0.00780465,0.00108904,-0.00029022,0.002646
 75,0.00025138,-0.00057616,-0.00005440,0.00000423,-0.00000862,-0.000028
 26,0.00000175,-0.00000059,0.00000259,0.00001233,0.00001296,-0.00000753
 ,0.00000305,0.00000623,-0.00001250,0.00000341,0.00000082,0.00000184,0.
 00000025,-0.00000110,-0.00000016,0.00000603,-0.00000145,0.00000205,0.0
 0016157,0.04771291,0.05529077,0.00331266,0.00100077,-0.00200160,-0.011
 47634,-0.01726917,0.03123538,-0.00633461,0.00275750,-0.00089010,0.0004
 9273,0.00019898,0.00152480,-0.00052445,0.00006988,-0.00050223,-0.00018
 417,0.00015631,0.00034533,0.00010368,-0.00000440,0.00019399,0.00006707
 ,0.00008781,0.00005701,-0.00000414,-0.00005602,-0.00004103,0.00000688,
 -0.00003638,0.00002354,-0.00004411,0.00000234,0.00000411,-0.00002076,0
 .00001581,0.00000662,0.00000259,0.00001946,-0.00003792,-0.07041100,-0.
 03744827,0.06335892,0.00650499,0.01145378,-0.01582954,-0.00218359,-0.0
 0212015,-0.00428172,-0.00044574,-0.00011900,-0.00072291,-0.00010690,0.
 00006751,0.00008140,0.00009667,-0.00003342,0.00002144,-0.00002361,-0.0
 0006458,0.00000910,0.00000391,-0.00001089,-0.00002022,-0.00000179,0.00
 000414,0.00000615,-0.00000118,0.00000421,0.00000274,0.00001056,0.00001
 110,-0.00000510,0.00015629,0.00057231,-0.00176398,0.08001780,-0.001161
 77,-0.00003728,-0.00107054,0.00586307,0.00305960,-0.00819998,0.0015295
 0,-0.00001295,0.00031021,0.00043482,0.00027850,-0.00045286,0.00015071,
 -0.00000858,0.00000567,-0.00002844,-0.00002657,-0.00001686,-0.00004187
 ,0.00002261,0.00000498,-0.00001417,-0.00005638,-0.00000911,0.00002284,
 0.00000291,0.00000443,-0.00000113,-0.00000296,0.00000227,-0.00001975,0
 .00000158,-0.00000057,-0.00000138,-0.00000169,0.00000271,-0.00000994,0
 .00000689,-0.00000416,-0.03963505,-0.10378756,0.10415674,0.00341442,0.
 00384993,-0.00767655,-0.00076265,0.00040343,-0.00126487,-0.00010560,-0
 .00024670,-0.00009572,-0.00007384,0.00002194,0.00001177,0.00000943,0.0
 0000570,-0.00000114,0.00000927,0.00001223,0.00001955,0.00001207,0.0000
 0275,-0.00001596,0.00000369,0.00000021,0.00000382,-0.00000091,0.000000
 61,0.00000105,0.00000732,0.00000267,-0.00000270,-0.00987584,-0.0149332
 9,0.02675135,0.03969111,0.11028725,-0.00266845,-0.00077595,0.00169286,
 0.00265758,0.00304559,-0.00794345,0.00150895,-0.00026116,0.00113824,-0
 .00019268,0.00022915,-0.00019782,-0.00005167,0.00003307,0.00001945,0.0
 0011193,-0.00006966,-0.00005145,0.00010268,-0.00003307,0.00003311,0.00
 002204,-0.00002603,0.00000225,0.00001469,0.00002400,0.00001608,-0.0000
 0237,0.00001329,-0.00001061,0.00001240,-0.00000489,0.00000236,-0.00000
 016,-0.00000265,-0.00000294,-0.00000159,-0.00000647,0.00001829,0.06650
 657,0.10281023,-0.23296803,0.00872843,0.01171710,-0.01707486,-0.003064
 55,-0.00271041,-0.00384023,-0.00069006,-0.00002760,0.00007106,0.000057
 27,-0.00001771,-0.00004210,-0.00002448,0.00000751,-0.00001431,0.000040
 20,0.00004369,-0.00000324,-0.00000882,-0.00000864,0.00001082,0.0000021
 8,-0.00000106,-0.00000001,-0.00000058,-0.00000181,-0.00000137,-0.00000
 521,-0.00000265,-0.00000190,-0.00213271,-0.00259766,0.00586310,-0.0706
 0636,-0.11236052,0.25286945,-0.00202032,0.00122764,-0.00038125,0.00198
 654,-0.00249461,-0.00424416,-0.00005562,-0.00011811,0.00036571,0.00038
 266,0.00008405,-0.00002038,0.00027959,-0.00020297,-0.00020223,-0.00026
 831,0.00014255,0.00013806,-0.00019170,0.00010121,0.00012328,-0.0000257
 1,0.00002031,0.00003388,0.00004531,-0.00005323,-0.00003866,0.00002000,
 -0.00002014,0.00001010,-0.00008273,0.00000166,0.00002137,-0.00003091,0
 .00001057,0.00001083,-0.00001680,0.00002329,-0.00003514,-0.02204178,0.
 00363224,0.00424975,-0.26380491,0.02930616,0.06589419,-0.00032272,-0.0
 0466144,0.00774034,0.00050065,-0.00007284,0.00019690,-0.00007500,0.000
 00372,0.00000139,0.00007592,-0.00001446,0.00000656,0.00003585,0.000049
 36,0.00000153,0.00000512,0.00000022,0.00001298,0.00001483,-0.00000996,
 0.00001030,-0.00000325,0.00000244,0.00000451,0.00002388,0.00002043,-0.
 00001131,0.00069324,-0.00056996,0.00057550,0.00054826,0.00051526,-0.00
 042066,0.28710466,-0.00079165,0.00048523,-0.00008284,0.00009958,-0.000
 16594,-0.00217891,0.00011400,0.00048356,0.00026060,-0.00023087,0.00004
 790,-0.00004771,0.00012362,-0.00009876,0.00015792,-0.00006720,0.000040
 23,-0.00004009,-0.00012695,0.00011707,-0.00008075,0.00002543,-0.000015
 95,-0.00001928,0.00000013,0.00000959,0.00001021,-0.00000268,0.00000118
 ,0.00000016,0.00000489,0.00000395,-0.00000575,0.00000818,-0.00000493,0
 .00000037,-0.00000057,-0.00000010,-0.00000169,-0.01017351,0.00168867,0
 .00123695,0.02986724,-0.05731885,-0.01159950,-0.02116794,-0.00013478,0
 .01519741,0.00067243,-0.00066803,0.00064626,-0.00003087,-0.00002111,-0
 .00002456,-0.00001282,-0.00000122,0.00000855,-0.00000395,0.00000128,-0
 .00000344,0.00000562,0.00000836,0.00000072,-0.00000072,-0.00000015,-0.
 00000142,0.00000051,-0.00000017,-0.00000011,0.00000275,-0.00000077,0.0
 0000401,0.00012482,0.00035277,0.00084130,0.00062792,0.00040482,0.00028
 555,-0.02790591,0.05618200,-0.00207759,0.00146060,-0.00005901,0.000883
 20,-0.00333765,-0.00511453,-0.00015915,-0.00019430,0.00179497,0.000167
 27,-0.00000979,0.00036095,-0.00054460,0.00019637,-0.00048882,0.0001996
 2,-0.00009213,0.00012833,0.00039644,-0.00014487,0.00030392,-0.00003652
 ,0.00002148,-0.00000015,0.00001795,-0.00000900,-0.00000494,0.00001029,
 0.00001692,-0.00000597,-0.00000478,-0.00001284,0.00002127,-0.00002816,
 0.00000938,-0.00000297,-0.00000045,-0.00000349,0.00001580,-0.02680414,
 0.00322600,0.00627218,0.06679147,-0.01121892,-0.06847717,0.02908127,0.
 00632580,-0.01934828,-0.00198086,0.00090594,-0.00109939,0.00004892,-0.
 00004169,-0.00002625,0.00001006,-0.00001590,-0.00004001,0.00004366,0.0
 0004296,0.00000677,-0.00001276,-0.00002160,0.00000929,0.00000515,-0.00
 000685,-0.00000097,-0.00000228,-0.00000088,-0.00000071,-0.00001026,0.0
 0000033,-0.00001062,0.00085664,-0.00004584,0.00081640,0.00045828,0.000
 45276,0.00093790,-0.07587666,0.00580799,0.08438162,0.00026247,0.000072
 07,0.00013494,0.00115321,-0.00133176,-0.00030720,0.00012853,0.00054076
 ,0.00035123,-0.00026639,0.00013992,0.00011952,-0.00021595,0.00007705,0
 .00007238,0.00011665,-0.00005690,-0.00005320,0.00014508,0.00002157,-0.
 00006441,0.00008587,-0.00004626,-0.00003494,-0.00000373,0.00004406,0.0
 0002499,-0.00000810,0.00001248,-0.00000200,0.00003340,0.00000306,-0.00
 001098,0.00001749,-0.00000854,-0.00000638,0.00000926,-0.00000727,0.000
 01706,0.00145769,-0.02108066,-0.00680175,-0.05624548,0.03749031,0.0120
 8984,0.00129331,-0.00752042,-0.00218635,0.00003437,-0.00059665,0.00012
 447,-0.00000186,-0.00001694,0.00000384,-0.00003855,-0.00000131,-0.0000
 0552,-0.00000628,-0.00002255,-0.00000460,0.00000101,0.00000422,-0.0000
 1570,-0.00000614,0.00000231,-0.00000593,0.00000145,-0.00000194,-0.0000
 0247,-0.00000757,-0.00001128,0.00000486,-0.00222283,-0.00147420,-0.003
 45468,0.00048194,0.00051522,0.00048685,-0.00434497,0.02959957,0.008934
 21,0.05712979,-0.00053436,0.00007396,0.00004237,0.00120449,0.00023673,
 -0.00065229,-0.00039139,0.00076519,0.00062689,-0.00017821,-0.00003596,
 0.00003661,-0.00013414,-0.00002498,-0.00005725,0.00003711,0.00000118,0
 .00000923,0.00009521,0.00010447,0.00003352,0.00000612,-0.00001956,-0.0
 0000139,0.00000839,0.00000896,0.00001464,-0.00000168,0.00000800,0.0000
 0572,-0.00000038,0.00000862,-0.00000059,0.00000561,-0.00000669,-0.0000
 0117,-0.00000107,0.00000814,0.00000230,-0.00056814,-0.00602307,-0.0036
 2039,0.03351695,-0.27989211,-0.06187961,0.00158856,-0.02193556,-0.0003
 6602,0.00032510,-0.00070423,0.00016260,-0.00003107,-0.00001218,-0.0000
 2579,-0.00002056,-0.00001890,-0.00001468,0.00000666,0.00000373,0.00000
 512,0.00000441,0.00000625,-0.00000733,-0.00000116,-0.00000349,-0.00000
 450,-0.00000022,-0.00000141,-0.00000150,0.00000145,-0.00000905,-0.0000
 0184,-0.00045401,0.00121017,-0.00103261,-0.00022908,0.00010395,-0.0004
 9779,0.00201399,-0.00304500,-0.00211214,-0.03565389,0.30899661,-0.0003
 4248,0.00033715,-0.00024660,0.00190593,-0.00024367,0.00078208,-0.00018
 551,0.00020861,0.00039710,-0.00002929,-0.00013281,0.00010929,0.0000828
 2,-0.00003364,0.00003542,-0.00005173,0.00004091,0.00001506,-0.00009784
 ,-0.00004431,-0.00001432,-0.00002124,0.00002415,-0.00001719,0.00000543
 ,-0.00000873,0.00000263,0.00000404,-0.00000276,0.00000520,-0.00001215,
 0.00000231,0.00000540,-0.00000629,0.00000202,0.00000072,-0.00000191,0.
 00000857,-0.00000660,0.00154082,-0.02451923,-0.00731476,0.01135261,-0.
 07015196,-0.06725563,-0.00309899,0.03407195,0.00363300,-0.00029037,0.0
 0015174,-0.00006645,0.00000006,-0.00000330,-0.00003515,0.00000585,-0.0
 0000577,0.00000400,0.00001167,-0.00000298,0.00000601,0.00000147,-0.000
 00154,-0.00000247,0.00000019,-0.00000427,-0.00000119,-0.00000087,0.000
 00007,-0.00000029,0.00000170,0.00000227,-0.00000430,-0.00351530,-0.000
 58995,-0.00355882,0.00053971,0.00035157,0.00033240,0.00121209,-0.00915
 139,-0.00186005,-0.00986147,0.06552367,0.07802805,-0.00027075,0.000113
 73,0.00009163,0.00087699,-0.00046884,0.00006818,-0.00175990,0.00098058
 ,0.00031016,0.00034645,0.00015422,-0.00029226,-0.00117283,0.00038033,-
 0.00116025,0.00060469,-0.00027884,0.00022629,0.00108416,-0.00012654,0.
 00086522,-0.00011461,-0.00000419,0.00007333,0.00002013,-0.00000243,-0.
 00000147,0.00000349,0.00003450,0.00000773,0.00000138,-0.00001088,0.000
 02532,-0.00003761,0.00000821,-0.00000601,-0.00000103,0.00000090,0.0000
 3448,0.00015502,0.00030270,-0.00059847,-0.00103436,0.00152520,0.012959
 58,-0.10849599,-0.08001818,-0.17991501,0.00054918,-0.00167976,-0.00202
 393,-0.00018571,0.00006150,0.00004915,-0.00001410,-0.00005545,-0.00010
 861,0.00006148,0.00003932,0.00003053,0.00001029,-0.00001283,-0.0000264
 8,0.00000064,-0.00000700,-0.00000513,-0.00000396,-0.00000194,-0.000002
 76,-0.00001793,-0.00002003,-0.00002349,0.00007814,0.00012496,0.0002664
 5,0.00002605,0.00001402,-0.00032054,0.00040105,0.00010071,0.00090099,0
 .00064723,0.00039627,-0.00053241,0.10603574,0.00028659,-0.00015487,-0.
 00021842,-0.00076425,0.00022606,0.00044389,0.00051711,-0.00012195,-0.0
 0029631,-0.00002230,0.00001425,-0.00000081,0.00024365,-0.00003485,0.00
 020666,-0.00009224,0.00002897,-0.00004648,-0.00022394,-0.00013636,-0.0
 0012657,0.00002244,0.00000057,-0.00001105,-0.00000293,0.00000442,-0.00
 000723,-0.00000040,-0.00001123,-0.00000198,-0.00000011,-0.00000517,-0.
 00000292,0.00000073,0.00000431,0.00000030,0.00000182,-0.00000457,-0.00
 000363,-0.00137775,-0.00272788,0.00367420,0.01204992,0.00886438,0.0199
 8358,-0.06123450,-0.11171250,-0.10780899,-0.00020625,0.00013189,0.0001
 4989,0.00003096,-0.00000437,0.00000682,0.00001453,0.00002456,0.0000252
 8,-0.00001323,-0.00001725,-0.00000148,-0.00000268,-0.00000227,-0.00000
 422,0.,0.00000324,0.00000356,0.00000017,0.00000110,0.00000082,0.000000
 77,0.00000800,-0.00000002,-0.00014214,0.00029672,0.00003320,0.00074886
 ,0.00052053,0.00117936,-0.00032892,-0.00014569,0.00004755,0.00049536,0
 .00041540,-0.00012939,0.07045563,0.11805332,-0.00015657,-0.00006246,0.
 00027442,0.00033211,0.00017067,-0.00052444,0.00058124,-0.00040973,0.00
 033530,-0.00014206,-0.00006296,0.00016454,0.00022026,-0.00007887,0.000
 31099,-0.00014582,0.00006725,-0.00007053,-0.00020163,0.00003904,-0.000
 29758,0.00003189,0.00000583,-0.00002482,-0.00001090,0.00000093,0.00000
 636,-0.00000099,-0.00000683,-0.00000418,0.00000454,0.00000435,-0.00000
 912,0.00001379,-0.00000502,0.00000179,-0.00000030,-0.00000096,-0.00000
 967,0.00314961,0.00455781,-0.00373634,-0.01641376,-0.01160560,-0.02285
 764,-0.13741946,-0.10623756,-0.28499157,-0.00091204,0.00067178,0.00014
 192,0.00006893,-0.00003951,-0.00001760,-0.00000161,0.00001178,0.000033
 66,-0.00001123,-0.00000435,-0.00001053,-0.00000592,0.00000280,0.000011
 64,-0.00000041,0.00000157,0.00000013,0.00000189,0.00000057,0.00000092,
 0.00000401,0.00000534,0.00001096,0.00033829,0.00009216,0.00042221,-0.0
 0136117,-0.00042852,-0.00083818,0.00038103,-0.00091324,0.00034187,-0.0
 0040689,0.00008745,0.00170780,0.15588845,0.11494831,0.31323276,0.00001
 603,0.00008147,-0.00016837,-0.00027484,0.00022659,0.00022182,-0.001846
 49,-0.00068204,-0.00082249,-0.00005852,-0.00005173,-0.00028045,0.00006
 060,0.00002839,0.00001088,-0.00003284,0.00001724,-0.00000504,-0.000189
 07,-0.00021189,0.00004680,-0.00006451,0.00016132,-0.00003401,-0.000044
 25,-0.00004847,-0.00001010,0.00001015,-0.00000216,-0.00001898,0.000030
 71,-0.00002997,0.00001171,-0.00003072,0.00001851,0.00000053,0.00000643
 ,-0.00002660,0.00000711,-0.00015383,0.00129669,0.00001923,-0.00108301,
 -0.01336572,0.00341701,-0.06054508,0.14887829,0.01318600,0.00220414,0.
 00231423,0.00101388,-0.00001425,-0.00000542,0.00000702,0.00001561,0.00
 003007,0.00001093,-0.00000327,0.00001151,-0.00001840,-0.00003579,-0.00
 003917,0.00004704,0.00000060,0.00000300,0.00000445,0.00000054,0.000002
 66,0.00000181,-0.00002313,0.00001665,0.00000310,0.00020883,-0.00021560
 ,-0.00059677,-0.00006967,-0.00046041,-0.00006088,0.00116712,-0.0008617
 5,-0.00126723,0.00036912,-0.00101095,0.00138347,0.00220668,-0.02045689
 ,-0.00382528,0.05817272,-0.00019630,0.00009718,-0.00011101,0.00017364,
 -0.00017425,-0.00007905,-0.00041965,-0.00001481,-0.00028480,0.00005247
 ,0.00003258,-0.00003509,0.00003360,-0.00002864,0.00000160,-0.00003916,
 0.00002053,0.00001264,-0.00005380,0.00000243,0.00001587,-0.00000310,0.
 00002127,-0.00000941,0.00000236,-0.00000895,-0.00000681,0.00000322,-0.
 00000183,-0.00000279,-0.00000180,-0.00000727,0.00000525,-0.00001145,0.
 00000578,0.00000064,0.00000038,-0.00000479,-0.00000072,0.00002093,0.00
 108586,0.00022273,0.00824916,-0.02079523,-0.00361227,0.10048814,-0.371
 99667,-0.04930627,0.00084157,-0.00010356,0.00041532,-0.00002963,0.0000
 0694,-0.00000675,0.00001043,0.00000363,0.00000090,0.00000543,0.0000094
 7,-0.00000332,-0.00000100,-0.00000479,0.00001197,0.00000175,-0.0000008
 6,0.00000196,-0.00000047,0.00000090,0.00000087,-0.00000219,0.00000775,
 -0.00000035,0.00048760,0.00002389,0.00053149,-0.00009844,0.00012586,0.
 00001719,-0.00070254,0.00179480,-0.00124620,-0.00118738,-0.00021917,0.
 00430071,0.00799413,-0.01351876,-0.00081201,-0.11561788,0.40364072,0.0
 0028775,-0.00006191,0.00005000,-0.00049210,-0.00000376,0.00015261,0.00
 022226,0.00002409,-0.00008561,-0.00009271,0.00005516,-0.00000147,-0.00
 009530,0.00004830,0.00004614,0.00008630,-0.00005257,-0.00004071,0.0001
 6000,0.00007382,-0.00005193,0.00003504,-0.00003873,0.00000723,-0.00001
 276,0.00001697,0.00001200,-0.00000924,0.00000501,-0.00000236,0.0000196
 8,0.00000792,-0.00001549,0.00002181,-0.00001097,-0.00000081,0.00000150
 ,-0.00000325,0.00000321,0.00040590,0.00107478,0.00163850,-0.01001693,0
 .03348716,0.00402658,0.00763724,-0.05408419,-0.06942429,-0.00014894,-0
 .00026525,-0.00025460,0.00001411,-0.00000039,0.00001511,-0.00001894,-0
 .00000257,0.00000098,-0.00001650,-0.00000329,-0.00000744,0.00000187,0.
 00000866,0.00000235,-0.00000330,0.00000435,-0.00000209,0.00000228,-0.0
 0000054,-0.00000033,0.00000104,-0.00000937,0.00001165,-0.00022037,-0.0
 0114385,-0.00049199,0.00019537,-0.00047884,-0.00001686,0.00024013,-0.0
 0030732,0.00114855,0.00086029,0.00372678,-0.00468035,0.01321933,-0.032
 04392,-0.00360504,-0.01228482,0.04997773,0.07156646\\0.00000043,-0.000
 00006,-0.00000088,-0.00000014,0.00000016,0.00000073,-0.00000029,-0.000
 00015,-0.00000054,0.00000009,0.00000018,-0.00000018,0.00000072,-0.0000
 0051,-0.00000002,-0.00000098,0.,-0.00000005,-0.00000004,0.00000022,-0.
 00000004,0.00000013,-0.00000022,0.00000039,-0.00000006,0.00000082,-0.0
 0000010,0.00000012,0.00000013,-0.00000009,0.00000018,0.00000078,-0.000
 00032,0.00000001,0.00000030,0.00000015,0.00000016,0.00000066,0.0000005
 7,-0.00000001,-0.00000027,-0.00000032,0.00000021,-0.00000033,-0.000000
 26,0.00000076,-0.00000057,0.00000011,0.00000003,-0.00000052,0.00000026
 ,0.00000002,0.00000015,0.00000003,0.00000019,0.00000031,-0.00000034,-0
 .00000005,0.00000023,0.00000002,-0.00000033,0.00000021,-0.00000010,0.0
 0000013,0.00000028,0.00000021,-0.00000022,0.00000055,0.00000010,-0.000
 00018,0.00000023,-0.00000007,-0.00000021,-0.00000030,0.00000022,0.,-0.
 00000055,0.00000002,-0.00000017,-0.00000044,0.00000005,0.,-0.00000060,
 0.00000018,-0.00000020,-0.00000026,0.00000022,-0.00000030,-0.00000044,
 0.00000007\\\@


 EVERY WORD THAT YOU WRITE IS A BLOW THAT SMITES THE DEVIL.
     -- ST. BERNARD OF CLAIRVAUX
 Job cpu time:       0 days 14 hours  9 minutes  7.8 seconds.
 File lengths (MBytes):  RWF=    973 Int=      0 D2E=      0 Chk=     36 Scr=      1
 Normal termination of Gaussian 09 at Thu Jul 29 06:16:39 2021.
