 Entering Gaussian System, Link 0=g09
 Input=opt_freq-conf-455.com
 Output=opt_freq-conf-455.log
 Initial command:
 /aerosol/software/g09/l1.exe "/scratch/nicole/10714/Gau-86413.inp" -scrdir="/scratch/nicole/10714/"
 Entering Link 1 = /aerosol/software/g09/l1.exe PID=     86420.
  
 Copyright (c) 1988,1990,1992,1993,1995,1998,2003,2009,2013,
            Gaussian, Inc.  All Rights Reserved.
  
 This is part of the Gaussian(R) 09 program.  It is based on
 the Gaussian(R) 03 system (copyright 2003, Gaussian, Inc.),
 the Gaussian(R) 98 system (copyright 1998, Gaussian, Inc.),
 the Gaussian(R) 94 system (copyright 1995, Gaussian, Inc.),
 the Gaussian 92(TM) system (copyright 1992, Gaussian, Inc.),
 the Gaussian 90(TM) system (copyright 1990, Gaussian, Inc.),
 the Gaussian 88(TM) system (copyright 1988, Gaussian, Inc.),
 the Gaussian 86(TM) system (copyright 1986, Carnegie Mellon
 University), and the Gaussian 82(TM) system (copyright 1983,
 Carnegie Mellon University). Gaussian is a federally registered
 trademark of Gaussian, Inc.
  
 This software contains proprietary and confidential information,
 including trade secrets, belonging to Gaussian, Inc.
  
 This software is provided under written license and may be
 used, copied, transmitted, or stored only in accord with that
 written license.
  
 The following legend is applicable only to US Government
 contracts under FAR:
  
                    RESTRICTED RIGHTS LEGEND
  
 Use, reproduction and disclosure by the US Government is
 subject to restrictions as set forth in subparagraphs (a)
 and (c) of the Commercial Computer Software - Restricted
 Rights clause in FAR 52.227-19.
  
 Gaussian, Inc.
 340 Quinnipiac St., Bldg. 40, Wallingford CT 06492
  
  
 ---------------------------------------------------------------
 Warning -- This program may not be used in any manner that
 competes with the business of Gaussian, Inc. or will provide
 assistance to any competitor of Gaussian, Inc.  The licensee
 of this program is prohibited from giving any competitor of
 Gaussian, Inc. access to this program.  By using this program,
 the user acknowledges that Gaussian, Inc. is engaged in the
 business of creating and licensing software in the field of
 computational chemistry and represents and warrants to the
 licensee that it is not a competitor of Gaussian, Inc. and that
 it will not use this program in any manner prohibited above.
 ---------------------------------------------------------------
  

 Cite this work as:
 Gaussian 09, Revision D.01,
 M. J. Frisch, G. W. Trucks, H. B. Schlegel, G. E. Scuseria, 
 M. A. Robb, J. R. Cheeseman, G. Scalmani, V. Barone, B. Mennucci, 
 G. A. Petersson, H. Nakatsuji, M. Caricato, X. Li, H. P. Hratchian, 
 A. F. Izmaylov, J. Bloino, G. Zheng, J. L. Sonnenberg, M. Hada, 
 M. Ehara, K. Toyota, R. Fukuda, J. Hasegawa, M. Ishida, T. Nakajima, 
 Y. Honda, O. Kitao, H. Nakai, T. Vreven, J. A. Montgomery, Jr., 
 J. E. Peralta, F. Ogliaro, M. Bearpark, J. J. Heyd, E. Brothers, 
 K. N. Kudin, V. N. Staroverov, T. Keith, R. Kobayashi, J. Normand, 
 K. Raghavachari, A. Rendell, J. C. Burant, S. S. Iyengar, J. Tomasi, 
 M. Cossi, N. Rega, J. M. Millam, M. Klene, J. E. Knox, J. B. Cross, 
 V. Bakken, C. Adamo, J. Jaramillo, R. Gomperts, R. E. Stratmann, 
 O. Yazyev, A. J. Austin, R. Cammi, C. Pomelli, J. W. Ochterski, 
 R. L. Martin, K. Morokuma, V. G. Zakrzewski, G. A. Voth, 
 P. Salvador, J. J. Dannenberg, S. Dapprich, A. D. Daniels, 
 O. Farkas, J. B. Foresman, J. V. Ortiz, J. Cioslowski, 
 and D. J. Fox, Gaussian, Inc., Wallingford CT, 2013.
 
 ******************************************
 Gaussian 09:  ES64L-G09RevD.01 24-Apr-2013
                29-Jul-2021 
 ******************************************
 %mem=2gb
 %nproc=4
 Will use up to    4 processors via shared memory.
 %chk=conf-455.chk
 ----------------------------------------------------------------------
 # B3LYP/6-311G(2df,2pd) guess=read geom=checkpoint opt=readfc freq=nor
 aman nosymm integral(ultrafinegrid)
 ----------------------------------------------------------------------
 1/10=3,14=-1,18=20,19=15,26=4,29=2,38=1/1,3;
 2/9=110,12=2,15=1,40=1/2;
 3/5=4,6=6,7=404,11=2,14=-4,16=1,25=1,30=1,71=1,74=-5,75=-5,116=-2/1,2,3;
 4/5=1/1;
 5/5=2,38=6/2;
 6/7=2,8=2,9=2,10=2,28=1/1;
 7/30=1/1,2,3,16;
 1/14=-1,18=20,19=15,26=4/3(2);
 2/9=110,15=1/2;
 99//99;
 2/9=110,15=1/2;
 3/5=4,6=6,7=404,11=2,14=-2,16=1,25=1,30=1,71=1,74=-5,75=-5/1,2,3;
 4/5=5,16=3,69=1/1;
 5/5=2,38=5/2;
 7/30=1/1,2,3,16;
 1/14=-1,18=20,19=15,26=4/3(-5);
 2/9=110,15=1/2;
 6/7=2,8=2,9=2,10=2,19=2,28=1/1;
 99/9=1/99;
 ------------------------------------------------------------
 Candidate Structure: Conf:455 OPT and FREQ calc in gas phase
 ------------------------------------------------------------
 Structure from the checkpoint file:  "conf-455.chk"
 Charge =  0 Multiplicity = 1
 Redundant internal coordinates found in file.
 O,0,0.3277276009,-0.4048895827,-1.2234290769
 C,0,0.9951167197,-0.2481649835,-0.1997392241
 N,0,0.5189035363,-0.5395619424,1.0507565454
 C,0,-0.5819667971,-1.4511383392,1.3246747335
 C,0,-0.0937305853,-2.9110436567,1.1544428309
 O,0,-1.0119573028,-3.8755654935,1.4059219079
 O,0,1.0336095242,-3.2046422181,0.851729736
 C,0,-1.8917001158,-1.1763220427,0.5250758536
 C,0,-2.3627902979,0.2416466216,0.5492979624
 C,0,-3.2558202158,0.9195725865,1.349421331
 N,0,-3.370712173,2.2337842955,0.9591900511
 C,0,-2.5564332946,2.3540713281,-0.0704642014
 N,0,-1.9267161403,1.1813324255,-0.3624432937
 C,0,2.402538067,0.3303174522,-0.2451827742
 C,0,2.5555372119,1.4290823977,-1.3166642798
 N,0,3.9084859181,1.9417216881,-1.508937561
 H,0,1.206740176,-0.4959163286,1.7895085964
 H,0,-0.8230266575,-1.3185747915,2.3874722461
 H,0,-1.8711997092,-3.4892708839,1.6274515965
 H,0,-2.6861305642,-1.791219831,0.9661079541
 H,0,-1.7543968406,-1.5102837403,-0.5048337732
 H,0,-3.8307335401,0.527229296,2.1783227442
 H,0,-2.3900844412,3.2577300411,-0.6406648384
 H,0,-1.2273382405,0.9898295802,-1.0710924968
 H,0,2.7051821908,0.7101470624,0.7388546772
 H,0,3.073586046,-0.5069058963,-0.4817918667
 H,0,2.1890874309,1.034955021,-2.2682416396
 H,0,1.9052372133,2.2740957369,-1.0598951601
 H,0,4.2803566204,2.3064341576,-0.6347935705
 H,0,4.5325365102,1.19144793,-1.7970997399
 Recover connectivity data from disk.

 GradGradGradGradGradGradGradGradGradGradGradGradGradGradGradGradGradGrad
 Berny optimization.
 Initialization pass.
 Force constant matrix read from checkpoint file:
 "conf-455.chk"
                           ----------------------------
                           !    Initial Parameters    !
                           ! (Angstroms and Degrees)  !
 --------------------------                            --------------------------
 ! Name  Definition              Value          Derivative Info.                !
 --------------------------------------------------------------------------------
 ! R1    R(1,2)                  1.232          D2E/DX2 =    0.7657             !
 ! R2    R(2,3)                  1.3695         D2E/DX2 =    0.4367             !
 ! R3    R(2,14)                 1.5223         D2E/DX2 =    0.27               !
 ! R4    R(3,4)                  1.4553         D2E/DX2 =    0.342              !
 ! R5    R(3,17)                 1.0103         D2E/DX2 =    0.4681             !
 ! R6    R(4,5)                  1.5488         D2E/DX2 =    0.241              !
 ! R7    R(4,8)                  1.5589         D2E/DX2 =    0.2514             !
 ! R8    R(4,18)                 1.0978         D2E/DX2 =    0.328              !
 ! R9    R(5,6)                  1.3552         D2E/DX2 =    0.4006             !
 ! R10   R(5,7)                  1.2036         D2E/DX2 =    0.8976             !
 ! R11   R(6,19)                 0.9678         D2E/DX2 =    0.5195             !
 ! R12   R(8,9)                  1.4944         D2E/DX2 =    0.326              !
 ! R13   R(8,20)                 1.0971         D2E/DX2 =    0.3288             !
 ! R14   R(8,21)                 1.0914         D2E/DX2 =    0.346              !
 ! R15   R(9,10)                 1.3774         D2E/DX2 =    0.4052             !
 ! R16   R(9,13)                 1.38           D2E/DX2 =    0.3708             !
 ! R17   R(10,11)                1.3757         D2E/DX2 =    0.3383             !
 ! R18   R(10,22)                1.0824         D2E/DX2 =    0.3693             !
 ! R19   R(11,12)                1.3182         D2E/DX2 =    0.4547             !
 ! R20   R(12,13)                1.3628         D2E/DX2 =    0.3686             !
 ! R21   R(12,23)                1.0814         D2E/DX2 =    0.3736             !
 ! R22   R(13,24)                1.0139         D2E/DX2 =    0.4561             !
 ! R23   R(14,15)                1.5423         D2E/DX2 =    0.2563             !
 ! R24   R(14,25)                1.0974         D2E/DX2 =    0.3306             !
 ! R25   R(14,26)                1.0987         D2E/DX2 =    0.3297             !
 ! R26   R(15,16)                1.4595         D2E/DX2 =    0.3369             !
 ! R27   R(15,27)                1.0932         D2E/DX2 =    0.342              !
 ! R28   R(15,28)                1.0968         D2E/DX2 =    0.3318             !
 ! R29   R(16,29)                1.0176         D2E/DX2 =    0.4446             !
 ! R30   R(16,30)                1.0175         D2E/DX2 =    0.4452             !
 ! A1    A(1,2,3)              122.907          D2E/DX2 =    0.2116             !
 ! A2    A(1,2,14)             121.6236         D2E/DX2 =    0.1741             !
 ! A3    A(3,2,14)             115.4421         D2E/DX2 =    0.1776             !
 ! A4    A(2,3,4)              124.6247         D2E/DX2 =    0.1915             !
 ! A5    A(2,3,17)             114.9447         D2E/DX2 =    0.1091             !
 ! A6    A(4,3,17)             113.8552         D2E/DX2 =    0.0974             !
 ! A7    A(3,4,5)              109.347          D2E/DX2 =    0.1123             !
 ! A8    A(3,4,8)              115.3767         D2E/DX2 =    0.1461             !
 ! A9    A(3,4,18)             105.8238         D2E/DX2 =    0.0319             !
 ! A10   A(5,4,8)              112.0022         D2E/DX2 =    0.0941             !
 ! A11   A(5,4,18)             106.8251         D2E/DX2 =    0.0252             !
 ! A12   A(8,4,18)             106.9048         D2E/DX2 =    0.0392             !
 ! A13   A(4,5,6)              115.9049         D2E/DX2 =    0.178              !
 ! A14   A(4,5,7)              123.5618         D2E/DX2 =    0.1742             !
 ! A15   A(6,5,7)              120.5079         D2E/DX2 =    0.1977             !
 ! A16   A(5,6,19)             111.097          D2E/DX2 =    0.1736             !
 ! A17   A(4,8,9)              115.0752         D2E/DX2 =    0.1577             !
 ! A18   A(4,8,20)             107.6595         D2E/DX2 =    0.0646             !
 ! A19   A(4,8,21)             108.9284         D2E/DX2 =    0.0622             !
 ! A20   A(9,8,20)             107.2786         D2E/DX2 =    0.0577             !
 ! A21   A(9,8,21)             110.2009         D2E/DX2 =    0.0557             !
 ! A22   A(20,8,21)            107.3939         D2E/DX2 =    0.0199             !
 ! A23   A(8,9,10)             132.9067         D2E/DX2 =    0.1108             !
 ! A24   A(8,9,13)             122.3973         D2E/DX2 =    0.1265             !
 ! A25   A(10,9,13)            104.6856         D2E/DX2 =    0.1024             !
 ! A26   A(9,10,11)            111.0718         D2E/DX2 =    0.1151             !
 ! A27   A(9,10,22)            127.6486         D2E/DX2 =    0.0821             !
 ! A28   A(11,10,22)           121.2748         D2E/DX2 =    0.0902             !
 ! A29   A(10,11,12)           104.9006         D2E/DX2 =    0.1321             !
 ! A30   A(11,12,13)           111.9789         D2E/DX2 =    0.1196             !
 ! A31   A(11,12,23)           125.6713         D2E/DX2 =    0.0897             !
 ! A32   A(13,12,23)           122.3486         D2E/DX2 =    0.0905             !
 ! A33   A(9,13,12)            107.362          D2E/DX2 =    0.1034             !
 ! A34   A(9,13,24)            123.4444         D2E/DX2 =    0.0828             !
 ! A35   A(12,13,24)           129.1268         D2E/DX2 =    0.0766             !
 ! A36   A(2,14,15)            112.5296         D2E/DX2 =    0.1353             !
 ! A37   A(2,14,25)            111.0838         D2E/DX2 =    0.0552             !
 ! A38   A(2,14,26)            106.3506         D2E/DX2 =    0.0432             !
 ! A39   A(15,14,25)           110.4281         D2E/DX2 =    0.0563             !
 ! A40   A(15,14,26)           109.4299         D2E/DX2 =    0.0507             !
 ! A41   A(25,14,26)           106.7631         D2E/DX2 =    0.0206             !
 ! A42   A(14,15,16)           115.7025         D2E/DX2 =    0.1488             !
 ! A43   A(14,15,27)           108.3378         D2E/DX2 =    0.0596             !
 ! A44   A(14,15,28)           109.1124         D2E/DX2 =    0.0606             !
 ! A45   A(16,15,27)           108.8253         D2E/DX2 =    0.0579             !
 ! A46   A(16,15,28)           108.0507         D2E/DX2 =    0.0595             !
 ! A47   A(27,15,28)           106.4275         D2E/DX2 =    0.0207             !
 ! A48   A(15,16,29)           110.5782         D2E/DX2 =    0.1436             !
 ! A49   A(15,16,30)           110.2938         D2E/DX2 =    0.1428             !
 ! A50   A(29,16,30)           106.4649         D2E/DX2 =    0.0581             !
 ! D1    D(1,2,3,4)             21.7351         D2E/DX2 =    0.0126             !
 ! D2    D(1,2,3,17)           171.4131         D2E/DX2 =    0.0169             !
 ! D3    D(14,2,3,4)          -160.1388         D2E/DX2 =    0.0099             !
 ! D4    D(14,2,3,17)          -10.4608         D2E/DX2 =    0.0104             !
 ! D5    D(1,2,14,15)           36.3124         D2E/DX2 =    0.0136             !
 ! D6    D(1,2,14,25)          160.7086         D2E/DX2 =    0.0152             !
 ! D7    D(1,2,14,26)          -83.4904         D2E/DX2 =    0.0158             !
 ! D8    D(3,2,14,15)         -141.8399         D2E/DX2 =    0.0131             !
 ! D9    D(3,2,14,25)          -17.4438         D2E/DX2 =    0.0155             !
 ! D10   D(3,2,14,26)           98.3572         D2E/DX2 =    0.0137             !
 ! D11   D(2,3,4,5)             75.2521         D2E/DX2 =    0.019              !
 ! D12   D(2,3,4,8)            -52.05           D2E/DX2 =    0.0238             !
 ! D13   D(2,3,4,18)          -170.0161         D2E/DX2 =    0.0196             !
 ! D14   D(17,3,4,5)           -74.7133         D2E/DX2 =    0.0131             !
 ! D15   D(17,3,4,8)           157.9846         D2E/DX2 =    0.0159             !
 ! D16   D(17,3,4,18)           40.0185         D2E/DX2 =    0.0118             !
 ! D17   D(3,4,5,6)            178.7143         D2E/DX2 =    0.0278             !
 ! D18   D(3,4,5,7)              0.5447         D2E/DX2 =    0.0274             !
 ! D19   D(8,4,5,6)            -52.1046         D2E/DX2 =    0.0287             !
 ! D20   D(8,4,5,7)            129.7258         D2E/DX2 =    0.027              !
 ! D21   D(18,4,5,6)            64.6287         D2E/DX2 =    0.0158             !
 ! D22   D(18,4,5,7)          -113.5409         D2E/DX2 =    0.0143             !
 ! D23   D(3,4,8,9)            -49.2242         D2E/DX2 =    0.0298             !
 ! D24   D(3,4,8,20)          -168.7691         D2E/DX2 =    0.0202             !
 ! D25   D(3,4,8,21)            75.0738         D2E/DX2 =    0.0186             !
 ! D26   D(5,4,8,9)           -175.1783         D2E/DX2 =    0.0236             !
 ! D27   D(5,4,8,20)            65.2768         D2E/DX2 =    0.0182             !
 ! D28   D(5,4,8,21)           -50.8802         D2E/DX2 =    0.0178             !
 ! D29   D(18,4,8,9)            68.1364         D2E/DX2 =    0.0184             !
 ! D30   D(18,4,8,20)          -51.4085         D2E/DX2 =    0.0138             !
 ! D31   D(18,4,8,21)         -167.5656         D2E/DX2 =    0.015              !
 ! D32   D(4,5,6,19)             2.2929         D2E/DX2 =    0.0082             !
 ! D33   D(7,5,6,19)          -179.4774         D2E/DX2 =    0.0144             !
 ! D34   D(4,8,9,10)           -93.8879         D2E/DX2 =    0.0163             !
 ! D35   D(4,8,9,13)            87.4785         D2E/DX2 =    0.0203             !
 ! D36   D(20,8,9,10)           25.8676         D2E/DX2 =    0.0136             !
 ! D37   D(20,8,9,13)         -152.766          D2E/DX2 =    0.0152             !
 ! D38   D(21,8,9,10)          142.4855         D2E/DX2 =    0.0132             !
 ! D39   D(21,8,9,13)          -36.1481         D2E/DX2 =    0.0135             !
 ! D40   D(8,9,10,11)         -179.0809         D2E/DX2 =    0.0097             !
 ! D41   D(8,9,10,22)            0.1189         D2E/DX2 =    0.0071             !
 ! D42   D(13,9,10,11)          -0.2736         D2E/DX2 =    0.0145             !
 ! D43   D(13,9,10,22)         178.9262         D2E/DX2 =    0.0096             !
 ! D44   D(8,9,13,12)          179.3086         D2E/DX2 =    0.0083             !
 ! D45   D(8,9,13,24)           -3.4235         D2E/DX2 =    0.0039             !
 ! D46   D(10,9,13,12)           0.3432         D2E/DX2 =    0.0127             !
 ! D47   D(10,9,13,24)         177.6111         D2E/DX2 =    0.0063             !
 ! D48   D(9,10,11,12)           0.0917         D2E/DX2 =    0.0176             !
 ! D49   D(22,10,11,12)       -179.167          D2E/DX2 =    0.0099             !
 ! D50   D(10,11,12,13)          0.1373         D2E/DX2 =    0.0187             !
 ! D51   D(10,11,12,23)        179.7494         D2E/DX2 =    0.0107             !
 ! D52   D(11,12,13,9)          -0.3124         D2E/DX2 =    0.0175             !
 ! D53   D(11,12,13,24)       -177.3735         D2E/DX2 =    0.0093             !
 ! D54   D(23,12,13,9)        -179.9394         D2E/DX2 =    0.0106             !
 ! D55   D(23,12,13,24)          2.9995         D2E/DX2 =    0.0067             !
 ! D56   D(2,14,15,16)        -174.3287         D2E/DX2 =    0.0143             !
 ! D57   D(2,14,15,27)         -51.862          D2E/DX2 =    0.0141             !
 ! D58   D(2,14,15,28)          63.6163         D2E/DX2 =    0.014              !
 ! D59   D(25,14,15,16)         60.9146         D2E/DX2 =    0.0149             !
 ! D60   D(25,14,15,27)       -176.6186         D2E/DX2 =    0.0144             !
 ! D61   D(25,14,15,28)        -61.1404         D2E/DX2 =    0.0157             !
 ! D62   D(26,14,15,16)        -56.3266         D2E/DX2 =    0.015              !
 ! D63   D(26,14,15,27)         66.1402         D2E/DX2 =    0.0158             !
 ! D64   D(26,14,15,28)       -178.3816         D2E/DX2 =    0.0147             !
 ! D65   D(14,15,16,29)        -57.1448         D2E/DX2 =    0.0143             !
 ! D66   D(14,15,16,30)         60.3465         D2E/DX2 =    0.0143             !
 ! D67   D(27,15,16,29)       -179.3527         D2E/DX2 =    0.0164             !
 ! D68   D(27,15,16,30)        -61.8614         D2E/DX2 =    0.0164             !
 ! D69   D(28,15,16,29)         65.474          D2E/DX2 =    0.0166             !
 ! D70   D(28,15,16,30)       -177.0346         D2E/DX2 =    0.0165             !
 --------------------------------------------------------------------------------
 Trust Radius=3.00D-01 FncErr=1.00D-07 GrdErr=1.00D-06
 Number of steps in this run=    160 maximum allowed number of steps=    180.
 GradGradGradGradGradGradGradGradGradGradGradGradGradGradGradGradGradGrad

                          Input orientation:                          
 ---------------------------------------------------------------------
 Center     Atomic      Atomic             Coordinates (Angstroms)
 Number     Number       Type             X           Y           Z
 ---------------------------------------------------------------------
      1          8           0        0.327728   -0.404890   -1.223429
      2          6           0        0.995117   -0.248165   -0.199739
      3          7           0        0.518904   -0.539562    1.050757
      4          6           0       -0.581967   -1.451138    1.324675
      5          6           0       -0.093731   -2.911044    1.154443
      6          8           0       -1.011957   -3.875565    1.405922
      7          8           0        1.033610   -3.204642    0.851730
      8          6           0       -1.891700   -1.176322    0.525076
      9          6           0       -2.362790    0.241647    0.549298
     10          6           0       -3.255820    0.919573    1.349421
     11          7           0       -3.370712    2.233784    0.959190
     12          6           0       -2.556433    2.354071   -0.070464
     13          7           0       -1.926716    1.181332   -0.362443
     14          6           0        2.402538    0.330317   -0.245183
     15          6           0        2.555537    1.429082   -1.316664
     16          7           0        3.908486    1.941722   -1.508938
     17          1           0        1.206740   -0.495916    1.789509
     18          1           0       -0.823027   -1.318575    2.387472
     19          1           0       -1.871200   -3.489271    1.627452
     20          1           0       -2.686131   -1.791220    0.966108
     21          1           0       -1.754397   -1.510284   -0.504834
     22          1           0       -3.830734    0.527229    2.178323
     23          1           0       -2.390084    3.257730   -0.640665
     24          1           0       -1.227338    0.989830   -1.071092
     25          1           0        2.705182    0.710147    0.738855
     26          1           0        3.073586   -0.506906   -0.481792
     27          1           0        2.189087    1.034955   -2.268242
     28          1           0        1.905237    2.274096   -1.059895
     29          1           0        4.280357    2.306434   -0.634794
     30          1           0        4.532537    1.191448   -1.797100
 ---------------------------------------------------------------------
                    Distance matrix (angstroms):
                    1          2          3          4          5
     1  O    0.000000
     2  C    1.232036   0.000000
     3  N    2.286177   1.369464   0.000000
     4  C    2.900864   2.501635   1.455307   0.000000
     5  C    3.480332   3.179673   2.451530   1.548766   0.000000
     6  O    4.555638   4.445731   3.687628   2.463603   1.355243
     7  O    3.555723   3.138125   2.721615   2.430749   1.203632
     8  C    2.928863   3.117779   2.548100   1.558937   2.576443
     9  C    3.286253   3.475128   3.027525   2.576444   3.931194
    10  C    4.606037   4.672684   4.057932   3.573566   4.970960
    11  N    5.040326   5.153994   4.777964   4.635659   6.102949
    12  C    4.154465   4.404753   4.368975   4.508276   5.940264
    13  N    2.887891   3.256846   3.307517   3.403619   4.733743
    14  C    2.408803   1.522347   2.446268   3.813831   4.323972
    15  C    2.887089   2.548645   3.691628   5.011614   5.653467
    16  N    4.290679   3.872638   4.919153   6.301192   6.830861
    17  H    3.139863   2.015756   1.010336   2.080383   2.815559
    18  H    3.898418   3.338426   2.048035   1.097826   2.142006
    19  H    4.740908   4.696718   3.840046   2.430592   1.928077
    20  H    3.974836   4.158341   3.441810   2.161419   2.830197
    21  H    2.464451   3.040699   2.920626   2.173751   2.733704
    22  H    5.452849   5.435554   4.618310   3.898351   5.180274
    23  H    4.597923   4.893394   5.073711   5.413436   6.822714
    24  H    2.094440   2.689088   3.144939   3.480593   4.631942
    25  H    3.278133   2.173395   2.537493   3.977397   4.595612
    26  H    2.846080   2.113418   2.979291   4.185447   4.299888
    27  H    2.574771   2.711211   4.035389   5.173824   5.700608
    28  H    3.113237   2.816023   3.780667   5.074419   5.982043
    29  H    4.829187   4.184262   5.008922   6.449888   7.039608
    30  H    4.534072   4.139732   5.216889   6.548808   6.851597
                    6          7          8          9         10
     6  O    0.000000
     7  O    2.222973   0.000000
     8  C    2.972499   3.574664   0.000000
     9  C    4.417011   4.848082   1.494372   0.000000
    10  C    5.294475   5.971269   2.633086   1.377419   0.000000
    11  N    6.564103   6.999006   3.742293   2.269919   1.375730
    12  C    6.585856   6.681178   3.641458   2.209964   2.136119
    13  N    5.434714   5.429044   2.519415   1.380015   2.183006
    14  C    5.663424   3.946280   4.615598   4.831916   5.908215
    15  C    6.948293   5.337565   5.473396   5.392751   6.414007
    16  N    8.157696   6.350018   6.892138   6.815827   7.780892
    17  H    4.061008   2.871689   3.414978   3.850152   4.702311
    18  H    2.745421   3.059878   2.151934   2.860777   3.464872
    19  H    0.967779   3.020045   2.562301   3.914565   4.629511
    20  H    2.709389   3.980868   1.097146   2.100197   2.796403
    21  H    3.129978   3.533284   1.091374   2.133213   3.405398
    22  H    5.284572   6.272842   3.065153   2.211365   1.082375
    23  H    7.547957   7.463992   4.611741   3.242455   3.190129
    24  H    5.463887   5.138358   2.771524   2.115347   3.158886
    25  H    5.940611   4.258224   4.973509   5.093110   5.995849
    26  H    5.621654   3.635597   5.110378   5.583696   6.741629
    27  H    6.918047   5.389205   5.417121   5.411789   6.538182
    28  H    7.239379   5.867761   5.369753   4.993637   5.854575
    29  H    8.389888   6.566817   7.181168   7.056686   7.915457
    30  H    8.165500   6.211634   7.229775   7.345287   8.404345
                   11         12         13         14         15
    11  N    0.000000
    12  C    1.318221   0.000000
    13  N    2.222497   1.362759   0.000000
    14  C    6.197106   5.358871   4.413663   0.000000
    15  C    6.399023   5.342365   4.589391   1.542325   0.000000
    16  N    7.691793   6.635843   5.995183   2.541964   1.459534
    17  H    5.393864   5.073796   4.154830   2.500513   3.895277
    18  H    4.598907   4.747050   3.876816   4.478168   5.717075
    19  H    5.953862   6.123488   5.077135   6.029996   7.242515
    20  H    4.082813   4.274897   3.343326   5.644705   6.561743
    21  H    4.332884   3.970539   2.700883   4.553607   5.279628
    22  H    2.147146   3.165160   3.241701   6.690727   7.335716
    23  H    2.137670   1.081388   2.145587   5.629865   5.316023
    24  H    3.203673   2.151489   1.013897   3.780620   3.816202
    25  H    6.267895   5.571542   4.784282   1.097358   2.182755
    26  H    7.149601   6.328625   5.278960   1.098741   2.171045
    27  H    6.539486   5.393539   4.537988   2.152868   1.093216
    28  H    5.649245   4.570763   4.045298   2.165488   1.096753
    29  H    7.815684   6.860207   6.314094   2.753731   2.051754
    30  H    8.434746   7.388265   6.616667   2.772523   2.048369
                   16         17         18         19         20
    16  N    0.000000
    17  H    4.911340   0.000000
    18  H    6.942532   2.270304   0.000000
    19  H    8.528621   4.296527   2.527493   0.000000
    20  H    7.971805   4.184524   2.390570   1.996213   0.000000
    21  H    6.707668   3.880887   3.044608   2.911473   1.763724
    22  H    8.688624   5.155012   3.535115   4.502833   2.855659
    23  H    6.492901   5.738706   5.706825   7.136919   5.306718
    24  H    5.241612   4.039210   4.177783   5.268685   3.743327
    25  H    2.831481   2.191755   4.391117   6.274391   5.947666
    26  H    2.783498   2.940075   4.906636   6.147708   6.076200
    27  H    2.086888   4.446787   6.023919   7.220178   6.497387
    28  H    2.079692   4.034844   5.677592   7.395925   6.458493
    29  H    1.017561   4.814304   6.951209   8.749263   8.239272
    30  H    1.017540   5.174155   7.245199   8.639706   8.284973
                   21         22         23         24         25
    21  H    0.000000
    22  H    3.957520   0.000000
    23  H    4.812121   4.180645   0.000000
    24  H    2.617061   4.189316   2.584689   0.000000
    25  H    5.134678   6.695052   5.861313   4.338070   0.000000
    26  H    4.931198   7.470962   6.636974   4.591889   1.762645
    27  H    5.013872   7.501198   5.344020   3.620382   3.068303
    28  H    5.293632   6.814614   4.426407   3.385631   2.514229
    29  H    7.141602   8.767495   6.737936   5.679657   2.629870
    30  H    6.963823   9.283828   7.316389   5.808949   3.162584
                   26         27         28         29         30
    26  H    0.000000
    27  H    2.520134   0.000000
    28  H    3.071354   1.753893   0.000000
    29  H    3.065059   2.942485   2.413079   0.000000
    30  H    2.596724   2.395458   2.935694   1.630259   0.000000
 Symmetry turned off by external request.
 Stoichiometry    C9H14N4O3
 Framework group  C1[X(C9H14N4O3)]
 Deg. of freedom    84
 Full point group                 C1      NOp   1
 Rotational constants (GHZ):      0.5183350      0.4229279      0.2497939
 Standard basis: 6-311G(2df,2pd) (5D, 7F)
   676 basis functions,  1006 primitive gaussians,   770 cartesian basis functions
    60 alpha electrons       60 beta electrons
       nuclear repulsion energy      1130.3251926040 Hartrees.
 NAtoms=   30 NActive=   30 NUniq=   30 SFac= 1.00D+00 NAtFMM=   60 NAOKFM=F Big=F
 Integral buffers will be    131072 words long.
 Raffenetti 2 integral format.
 Two-electron integral symmetry is turned off.
 One-electron integrals computed using PRISM.
 NBasis=   676 RedAO= T EigKep=  1.78D-04  NBF=   676
 NBsUse=   676 1.00D-06 EigRej= -1.00D+00 NBFU=   676
 Initial guess from the checkpoint file:  "conf-455.chk"
 B after Tr=     0.000000    0.000000    0.000000
         Rot=    1.000000    0.000000    0.000000    0.000000 Ang=   0.00 deg.
 Requested convergence on RMS density matrix=1.00D-08 within 128 cycles.
 Requested convergence on MAX density matrix=1.00D-06.
 Requested convergence on             energy=1.00D-06.
 No special actions if energy rises.
 SCF Done:  E(RB3LYP) =  -796.351504865     A.U. after   11 cycles
            NFock= 11  Conv=0.69D-08     -V/T= 2.0041

 **********************************************************************

            Population analysis using the SCF density.

 **********************************************************************

 Alpha  occ. eigenvalues --  -19.18807 -19.12501 -19.10835 -14.36220 -14.35962
 Alpha  occ. eigenvalues --  -14.29775 -14.28602 -10.32091 -10.29500 -10.25917
 Alpha  occ. eigenvalues --  -10.21873 -10.21315 -10.20553 -10.20411 -10.19316
 Alpha  occ. eigenvalues --  -10.18038  -1.12297  -1.05909  -1.04146  -1.01116
 Alpha  occ. eigenvalues --   -0.95301  -0.89273  -0.86848  -0.81954  -0.77154
 Alpha  occ. eigenvalues --   -0.74175  -0.68689  -0.65086  -0.63231  -0.61195
 Alpha  occ. eigenvalues --   -0.60188  -0.58970  -0.56425  -0.53792  -0.53563
 Alpha  occ. eigenvalues --   -0.51597  -0.49498  -0.47498  -0.46825  -0.45985
 Alpha  occ. eigenvalues --   -0.45597  -0.44322  -0.43767  -0.42921  -0.42334
 Alpha  occ. eigenvalues --   -0.41704  -0.40908  -0.40664  -0.39893  -0.39311
 Alpha  occ. eigenvalues --   -0.38137  -0.35631  -0.34318  -0.30509  -0.29290
 Alpha  occ. eigenvalues --   -0.28352  -0.28005  -0.26901  -0.24963  -0.22964
 Alpha virt. eigenvalues --   -0.02003  -0.01139  -0.00656   0.01673   0.02191
 Alpha virt. eigenvalues --    0.02992   0.04644   0.05538   0.06267   0.06904
 Alpha virt. eigenvalues --    0.07691   0.09110   0.09492   0.10081   0.11583
 Alpha virt. eigenvalues --    0.12141   0.12539   0.13316   0.15685   0.17667
 Alpha virt. eigenvalues --    0.18397   0.19403   0.19669   0.20791   0.21524
 Alpha virt. eigenvalues --    0.22217   0.23540   0.24734   0.25161   0.26445
 Alpha virt. eigenvalues --    0.27617   0.28093   0.29007   0.29718   0.30633
 Alpha virt. eigenvalues --    0.31760   0.32619   0.34225   0.34387   0.34858
 Alpha virt. eigenvalues --    0.35799   0.36290   0.36521   0.36679   0.37471
 Alpha virt. eigenvalues --    0.38714   0.39501   0.40585   0.42220   0.42329
 Alpha virt. eigenvalues --    0.42875   0.42947   0.43482   0.44539   0.45325
 Alpha virt. eigenvalues --    0.45824   0.46401   0.46430   0.47132   0.47544
 Alpha virt. eigenvalues --    0.48342   0.48787   0.49048   0.49332   0.50178
 Alpha virt. eigenvalues --    0.50661   0.51303   0.52311   0.52602   0.53307
 Alpha virt. eigenvalues --    0.54041   0.54823   0.55156   0.56601   0.56855
 Alpha virt. eigenvalues --    0.57783   0.58598   0.59761   0.61072   0.61224
 Alpha virt. eigenvalues --    0.62216   0.63591   0.65102   0.65667   0.66211
 Alpha virt. eigenvalues --    0.67256   0.67922   0.68464   0.69835   0.70492
 Alpha virt. eigenvalues --    0.71853   0.72557   0.73281   0.73634   0.74042
 Alpha virt. eigenvalues --    0.74688   0.76134   0.77296   0.78345   0.79061
 Alpha virt. eigenvalues --    0.79240   0.79513   0.80023   0.80531   0.82421
 Alpha virt. eigenvalues --    0.82862   0.84326   0.85238   0.87081   0.88459
 Alpha virt. eigenvalues --    0.88521   0.90297   0.90972   0.91710   0.92995
 Alpha virt. eigenvalues --    0.93541   0.93904   0.95223   0.96370   0.96914
 Alpha virt. eigenvalues --    0.98048   0.98471   0.99516   1.00733   1.01014
 Alpha virt. eigenvalues --    1.02011   1.02888   1.03893   1.04573   1.05780
 Alpha virt. eigenvalues --    1.06374   1.06617   1.07422   1.07572   1.08373
 Alpha virt. eigenvalues --    1.09516   1.10378   1.11693   1.12544   1.13996
 Alpha virt. eigenvalues --    1.14216   1.15859   1.16084   1.17020   1.17900
 Alpha virt. eigenvalues --    1.18735   1.19207   1.20455   1.21224   1.21292
 Alpha virt. eigenvalues --    1.22576   1.23586   1.24178   1.24633   1.25725
 Alpha virt. eigenvalues --    1.26684   1.26771   1.27263   1.28906   1.29014
 Alpha virt. eigenvalues --    1.29742   1.30486   1.31173   1.32277   1.32840
 Alpha virt. eigenvalues --    1.32973   1.33704   1.34503   1.35876   1.36247
 Alpha virt. eigenvalues --    1.36713   1.39224   1.39548   1.39728   1.41432
 Alpha virt. eigenvalues --    1.41619   1.42074   1.43184   1.45043   1.45445
 Alpha virt. eigenvalues --    1.46139   1.47642   1.48116   1.48926   1.50326
 Alpha virt. eigenvalues --    1.51874   1.52753   1.53870   1.54357   1.55236
 Alpha virt. eigenvalues --    1.56058   1.57799   1.59233   1.60026   1.61572
 Alpha virt. eigenvalues --    1.61697   1.63871   1.64496   1.65788   1.66380
 Alpha virt. eigenvalues --    1.67553   1.68582   1.70280   1.72324   1.73346
 Alpha virt. eigenvalues --    1.75093   1.76902   1.77712   1.78559   1.78997
 Alpha virt. eigenvalues --    1.81886   1.83351   1.84882   1.86934   1.87640
 Alpha virt. eigenvalues --    1.89028   1.89913   1.94197   1.96282   2.00691
 Alpha virt. eigenvalues --    2.03503   2.06881   2.07653   2.10000   2.11474
 Alpha virt. eigenvalues --    2.13368   2.13956   2.16858   2.18699   2.22676
 Alpha virt. eigenvalues --    2.27210   2.32737   2.34674   2.40379   2.42773
 Alpha virt. eigenvalues --    2.45605   2.46662   2.48736   2.50705   2.51735
 Alpha virt. eigenvalues --    2.53794   2.55949   2.57695   2.58062   2.60251
 Alpha virt. eigenvalues --    2.61393   2.63026   2.63951   2.64337   2.64576
 Alpha virt. eigenvalues --    2.65966   2.67768   2.69102   2.69524   2.70107
 Alpha virt. eigenvalues --    2.71756   2.71808   2.73931   2.76800   2.77536
 Alpha virt. eigenvalues --    2.78743   2.78922   2.80053   2.81113   2.82248
 Alpha virt. eigenvalues --    2.83202   2.84231   2.84697   2.87094   2.89106
 Alpha virt. eigenvalues --    2.89512   2.89994   2.90786   2.91037   2.91645
 Alpha virt. eigenvalues --    2.92067   2.93217   2.93784   2.95017   2.95860
 Alpha virt. eigenvalues --    2.96413   2.97173   2.98925   2.99424   3.00357
 Alpha virt. eigenvalues --    3.01005   3.01669   3.02857   3.03456   3.04159
 Alpha virt. eigenvalues --    3.04782   3.05414   3.05963   3.06497   3.07039
 Alpha virt. eigenvalues --    3.07825   3.08719   3.09021   3.09859   3.10496
 Alpha virt. eigenvalues --    3.11216   3.11338   3.12147   3.12213   3.13929
 Alpha virt. eigenvalues --    3.14807   3.15469   3.16633   3.17538   3.18213
 Alpha virt. eigenvalues --    3.18441   3.20885   3.21469   3.22215   3.22239
 Alpha virt. eigenvalues --    3.23578   3.23748   3.24491   3.26431   3.26846
 Alpha virt. eigenvalues --    3.28104   3.28707   3.29381   3.30144   3.31137
 Alpha virt. eigenvalues --    3.31493   3.31940   3.32895   3.33568   3.34012
 Alpha virt. eigenvalues --    3.35016   3.35538   3.36044   3.36964   3.37526
 Alpha virt. eigenvalues --    3.37849   3.38266   3.40407   3.40908   3.41176
 Alpha virt. eigenvalues --    3.41857   3.44186   3.44660   3.44869   3.45370
 Alpha virt. eigenvalues --    3.45938   3.47016   3.47884   3.48218   3.48455
 Alpha virt. eigenvalues --    3.49409   3.50347   3.51603   3.51871   3.52921
 Alpha virt. eigenvalues --    3.53417   3.54133   3.54571   3.56850   3.57240
 Alpha virt. eigenvalues --    3.58008   3.59480   3.60242   3.61226   3.61552
 Alpha virt. eigenvalues --    3.62433   3.63362   3.64451   3.64850   3.65588
 Alpha virt. eigenvalues --    3.66080   3.67121   3.67778   3.68575   3.69243
 Alpha virt. eigenvalues --    3.70414   3.71715   3.72077   3.72753   3.73366
 Alpha virt. eigenvalues --    3.74268   3.75796   3.76486   3.77404   3.78046
 Alpha virt. eigenvalues --    3.80276   3.80338   3.81517   3.82404   3.82760
 Alpha virt. eigenvalues --    3.84535   3.85843   3.86229   3.86926   3.88181
 Alpha virt. eigenvalues --    3.88881   3.89791   3.90042   3.90584   3.91481
 Alpha virt. eigenvalues --    3.92658   3.93935   3.96185   3.97150   3.97291
 Alpha virt. eigenvalues --    3.97925   3.98566   3.99304   3.99780   4.01126
 Alpha virt. eigenvalues --    4.01358   4.03048   4.03687   4.05102   4.05635
 Alpha virt. eigenvalues --    4.05943   4.07296   4.08461   4.09017   4.10798
 Alpha virt. eigenvalues --    4.12214   4.12778   4.13551   4.14402   4.16500
 Alpha virt. eigenvalues --    4.18326   4.20054   4.21327   4.22207   4.23119
 Alpha virt. eigenvalues --    4.24079   4.25652   4.26454   4.27342   4.28684
 Alpha virt. eigenvalues --    4.29612   4.30600   4.31282   4.31725   4.32505
 Alpha virt. eigenvalues --    4.34270   4.34968   4.35754   4.36762   4.39885
 Alpha virt. eigenvalues --    4.41389   4.41848   4.43069   4.45116   4.46258
 Alpha virt. eigenvalues --    4.49005   4.50323   4.51465   4.52592   4.54563
 Alpha virt. eigenvalues --    4.54856   4.56308   4.57428   4.57486   4.58716
 Alpha virt. eigenvalues --    4.60490   4.64613   4.65197   4.68464   4.69062
 Alpha virt. eigenvalues --    4.71520   4.72621   4.73582   4.77849   4.79618
 Alpha virt. eigenvalues --    4.80409   4.81427   4.82736   4.83923   4.85854
 Alpha virt. eigenvalues --    4.86684   4.87998   4.88524   4.89765   4.91407
 Alpha virt. eigenvalues --    4.92029   4.93241   4.94145   4.95414   4.96583
 Alpha virt. eigenvalues --    4.98436   4.99223   4.99638   5.00729   5.03120
 Alpha virt. eigenvalues --    5.04083   5.04501   5.05419   5.07184   5.08073
 Alpha virt. eigenvalues --    5.08392   5.09044   5.09759   5.10458   5.11659
 Alpha virt. eigenvalues --    5.12407   5.12928   5.14112   5.14606   5.16101
 Alpha virt. eigenvalues --    5.16715   5.18155   5.19313   5.19526   5.20418
 Alpha virt. eigenvalues --    5.21567   5.22078   5.22709   5.23550   5.26001
 Alpha virt. eigenvalues --    5.26510   5.28675   5.29261   5.31184   5.32073
 Alpha virt. eigenvalues --    5.32439   5.33687   5.35893   5.37055   5.39365
 Alpha virt. eigenvalues --    5.39945   5.42407   5.44737   5.46930   5.47887
 Alpha virt. eigenvalues --    5.48802   5.50255   5.53643   5.54413   5.56348
 Alpha virt. eigenvalues --    5.57003   5.57991   5.59866   5.62298   5.63801
 Alpha virt. eigenvalues --    5.65921   5.69176   5.69879   5.72754   5.75518
 Alpha virt. eigenvalues --    5.76653   5.77566   5.78416   5.82026   5.82797
 Alpha virt. eigenvalues --    5.84678   5.85202   5.88442   5.90140   5.91844
 Alpha virt. eigenvalues --    5.96108   6.01959   6.02267   6.04810   6.07838
 Alpha virt. eigenvalues --    6.10475   6.17813   6.19191   6.24034   6.29530
 Alpha virt. eigenvalues --    6.31794   6.34879   6.36542   6.37381   6.41017
 Alpha virt. eigenvalues --    6.42376   6.45295   6.49424   6.52410   6.55104
 Alpha virt. eigenvalues --    6.63393   6.69583   6.81414   6.83775   6.88922
 Alpha virt. eigenvalues --    6.91510   6.92724   6.95512   6.98617   7.05025
 Alpha virt. eigenvalues --    7.11184   7.16667   7.18473   7.19743   7.21603
 Alpha virt. eigenvalues --    7.25969   7.28616   7.32726   7.37739   7.47209
 Alpha virt. eigenvalues --    7.53267   7.54099   7.60570   7.72424   7.92773
 Alpha virt. eigenvalues --   24.43600  24.56155  24.69399  24.75278  24.92621
 Alpha virt. eigenvalues --   24.95847  25.01805  25.04187  25.06450  35.96671
 Alpha virt. eigenvalues --   36.19562  36.24241  36.43157  50.17335  50.19038
 Alpha virt. eigenvalues --   50.26097
          Condensed to atoms (all electrons):
               1          2          3          4          5          6
     1  O    7.955819   0.597761  -0.091800  -0.004576   0.004039  -0.000010
     2  C    0.597761   4.559530   0.324395  -0.091039   0.006788   0.000021
     3  N   -0.091800   0.324395   6.574887   0.272423  -0.061226   0.004220
     4  C   -0.004576  -0.091039   0.272423   5.375152   0.233099  -0.111678
     5  C    0.004039   0.006788  -0.061226   0.233099   4.339778   0.371045
     6  O   -0.000010   0.000021   0.004220  -0.111678   0.371045   7.783562
     7  O   -0.001036   0.017171  -0.011508  -0.116401   0.746010  -0.068296
     8  C   -0.003688  -0.008157  -0.025001   0.256973  -0.054822   0.013726
     9  C   -0.005370  -0.001824   0.002453  -0.097773  -0.003416   0.001187
    10  C    0.000222  -0.000533  -0.001785  -0.002356   0.000011  -0.000019
    11  N   -0.000010  -0.000049  -0.000022   0.000063   0.000001   0.000000
    12  C   -0.000539   0.000628   0.000671  -0.000042   0.000007   0.000000
    13  N   -0.009296   0.003082  -0.001844   0.001949  -0.000007  -0.000001
    14  C   -0.065660   0.207647  -0.041442   0.001075   0.000119  -0.000001
    15  C   -0.002002  -0.035911  -0.000709  -0.000543   0.000005   0.000000
    16  N    0.000307   0.007005  -0.000038   0.000004   0.000000   0.000000
    17  H    0.005545  -0.018091   0.333713  -0.042445   0.005155   0.000230
    18  H   -0.000336   0.006834  -0.013367   0.370730  -0.031367   0.003559
    19  H    0.000009  -0.000109  -0.000141   0.011195  -0.047821   0.309891
    20  H    0.000782   0.000396   0.004486  -0.050149   0.000293   0.003090
    21  H    0.019917  -0.001331  -0.002929  -0.047764   0.007177  -0.000062
    22  H    0.000004  -0.000001  -0.000058  -0.000126  -0.000015  -0.000004
    23  H   -0.000038   0.000001   0.000019   0.000017   0.000000   0.000000
    24  H    0.035582  -0.005573  -0.001083  -0.000051  -0.000280   0.000010
    25  H    0.003234  -0.021742  -0.000143   0.001399  -0.000124  -0.000002
    26  H    0.001059  -0.004409  -0.001579  -0.000253   0.000194   0.000003
    27  H    0.021281  -0.006136   0.001417   0.000033  -0.000012   0.000000
    28  H   -0.000598   0.006051   0.000398   0.000056   0.000001   0.000000
    29  H    0.000002   0.000485  -0.000012   0.000000   0.000000   0.000000
    30  H   -0.000013   0.000839  -0.000008   0.000001   0.000000   0.000000
               7          8          9         10         11         12
     1  O   -0.001036  -0.003688  -0.005370   0.000222  -0.000010  -0.000539
     2  C    0.017171  -0.008157  -0.001824  -0.000533  -0.000049   0.000628
     3  N   -0.011508  -0.025001   0.002453  -0.001785  -0.000022   0.000671
     4  C   -0.116401   0.256973  -0.097773  -0.002356   0.000063  -0.000042
     5  C    0.746010  -0.054822  -0.003416   0.000011   0.000001   0.000007
     6  O   -0.068296   0.013726   0.001187  -0.000019   0.000000   0.000000
     7  O    7.759304   0.001433  -0.000187  -0.000001   0.000000   0.000000
     8  C    0.001433   4.926130   0.272014  -0.048819   0.010457  -0.000342
     9  C   -0.000187   0.272014   5.196262   0.508486  -0.038305  -0.126041
    10  C   -0.000001  -0.048819   0.508486   4.713463   0.467428  -0.156040
    11  N    0.000000   0.010457  -0.038305   0.467428   6.515627   0.578503
    12  C    0.000000  -0.000342  -0.126041  -0.156040   0.578503   4.585781
    13  N    0.000000  -0.050307   0.343826  -0.022604  -0.143787   0.483191
    14  C   -0.001166  -0.000467  -0.000137   0.000011   0.000001  -0.000005
    15  C    0.000048   0.000123  -0.000052   0.000002   0.000000  -0.000052
    16  N    0.000000   0.000000   0.000000   0.000000   0.000000   0.000000
    17  H    0.009043   0.007446  -0.000478  -0.000067  -0.000002   0.000062
    18  H    0.000817  -0.034159   0.007126   0.003623  -0.000142  -0.000184
    19  H    0.004910  -0.002098  -0.000007   0.000012   0.000002  -0.000002
    20  H    0.000133   0.396284  -0.028166  -0.006134   0.000404  -0.000304
    21  H    0.000479   0.370838  -0.023446   0.003061  -0.000660   0.000763
    22  H    0.000000  -0.001233  -0.060156   0.435891  -0.020122   0.006592
    23  H    0.000000  -0.000261   0.006483   0.003339  -0.017659   0.422328
    24  H    0.000011  -0.000095  -0.032353   0.004691   0.005098  -0.026977
    25  H   -0.000300  -0.000147   0.000030  -0.000004   0.000000   0.000008
    26  H    0.002682  -0.000100   0.000011   0.000000   0.000000   0.000000
    27  H    0.000001  -0.000016   0.000008   0.000001   0.000000  -0.000016
    28  H    0.000000  -0.000003  -0.000034  -0.000026  -0.000004   0.000385
    29  H    0.000000   0.000000   0.000000   0.000000   0.000000   0.000000
    30  H   -0.000001   0.000000   0.000000   0.000000   0.000000   0.000000
              13         14         15         16         17         18
     1  O   -0.009296  -0.065660  -0.002002   0.000307   0.005545  -0.000336
     2  C    0.003082   0.207647  -0.035911   0.007005  -0.018091   0.006834
     3  N   -0.001844  -0.041442  -0.000709  -0.000038   0.333713  -0.013367
     4  C    0.001949   0.001075  -0.000543   0.000004  -0.042445   0.370730
     5  C   -0.000007   0.000119   0.000005   0.000000   0.005155  -0.031367
     6  O   -0.000001  -0.000001   0.000000   0.000000   0.000230   0.003559
     7  O    0.000000  -0.001166   0.000048   0.000000   0.009043   0.000817
     8  C   -0.050307  -0.000467   0.000123   0.000000   0.007446  -0.034159
     9  C    0.343826  -0.000137  -0.000052   0.000000  -0.000478   0.007126
    10  C   -0.022604   0.000011   0.000002   0.000000  -0.000067   0.003623
    11  N   -0.143787   0.000001   0.000000   0.000000  -0.000002  -0.000142
    12  C    0.483191  -0.000005  -0.000052   0.000000   0.000062  -0.000184
    13  N    6.284935  -0.000628  -0.000133   0.000000   0.000157  -0.000201
    14  C   -0.000628   5.126816   0.314990  -0.080985   0.001488  -0.000111
    15  C   -0.000133   0.314990   4.645855   0.327712   0.000755   0.000017
    16  N    0.000000  -0.080985   0.327712   6.319921  -0.000126   0.000000
    17  H    0.000157   0.001488   0.000755  -0.000126   0.618114  -0.011141
    18  H   -0.000201  -0.000111   0.000017   0.000000  -0.011141   0.659659
    19  H    0.000000   0.000006   0.000000   0.000000  -0.000288   0.001376
    20  H    0.002525   0.000027   0.000000   0.000000  -0.000242  -0.006672
    21  H   -0.001026   0.000734  -0.000064   0.000000  -0.000356   0.008200
    22  H    0.004880   0.000000   0.000000   0.000000   0.000001   0.000380
    23  H   -0.037281  -0.000004   0.000006   0.000000   0.000001  -0.000003
    24  H    0.369069  -0.001422   0.001217   0.000016  -0.000229   0.000106
    25  H    0.000038   0.349873  -0.043839   0.012854  -0.003276  -0.000021
    26  H   -0.000007   0.338169  -0.035059   0.009656  -0.000189   0.000035
    27  H   -0.000101  -0.048063   0.391994  -0.018784  -0.000240   0.000003
    28  H    0.000879  -0.057178   0.388557  -0.018686  -0.000016  -0.000009
    29  H    0.000000  -0.002920  -0.056238   0.385152   0.000008   0.000000
    30  H    0.000000  -0.002129  -0.061559   0.389931  -0.000003   0.000000
              19         20         21         22         23         24
     1  O    0.000009   0.000782   0.019917   0.000004  -0.000038   0.035582
     2  C   -0.000109   0.000396  -0.001331  -0.000001   0.000001  -0.005573
     3  N   -0.000141   0.004486  -0.002929  -0.000058   0.000019  -0.001083
     4  C    0.011195  -0.050149  -0.047764  -0.000126   0.000017  -0.000051
     5  C   -0.047821   0.000293   0.007177  -0.000015   0.000000  -0.000280
     6  O    0.309891   0.003090  -0.000062  -0.000004   0.000000   0.000010
     7  O    0.004910   0.000133   0.000479   0.000000   0.000000   0.000011
     8  C   -0.002098   0.396284   0.370838  -0.001233  -0.000261  -0.000095
     9  C   -0.000007  -0.028166  -0.023446  -0.060156   0.006483  -0.032353
    10  C    0.000012  -0.006134   0.003061   0.435891   0.003339   0.004691
    11  N    0.000002   0.000404  -0.000660  -0.020122  -0.017659   0.005098
    12  C   -0.000002  -0.000304   0.000763   0.006592   0.422328  -0.026977
    13  N    0.000000   0.002525  -0.001026   0.004880  -0.037281   0.369069
    14  C    0.000006   0.000027   0.000734   0.000000  -0.000004  -0.001422
    15  C    0.000000   0.000000  -0.000064   0.000000   0.000006   0.001217
    16  N    0.000000   0.000000   0.000000   0.000000   0.000000   0.000016
    17  H   -0.000288  -0.000242  -0.000356   0.000001   0.000001  -0.000229
    18  H    0.001376  -0.006672   0.008200   0.000380  -0.000003   0.000106
    19  H    0.498417   0.010312   0.000405  -0.000014   0.000000  -0.000002
    20  H    0.010312   0.702723  -0.034276   0.001752   0.000023  -0.000349
    21  H    0.000405  -0.034276   0.646354  -0.000022  -0.000023   0.000835
    22  H   -0.000014   0.001752  -0.000022   0.632286  -0.000449  -0.000381
    23  H    0.000000   0.000023  -0.000023  -0.000449   0.607684  -0.002046
    24  H   -0.000002  -0.000349   0.000835  -0.000381  -0.002046   0.524533
    25  H    0.000002  -0.000002  -0.000042   0.000000   0.000002  -0.000223
    26  H   -0.000004  -0.000003  -0.000028   0.000000   0.000000   0.000082
    27  H    0.000000  -0.000001  -0.000025   0.000000  -0.000002   0.000500
    28  H    0.000000   0.000000  -0.000025   0.000000   0.000050  -0.000130
    29  H    0.000000   0.000000   0.000000   0.000000   0.000000   0.000002
    30  H    0.000000   0.000000   0.000000   0.000000   0.000000   0.000003
              25         26         27         28         29         30
     1  O    0.003234   0.001059   0.021281  -0.000598   0.000002  -0.000013
     2  C   -0.021742  -0.004409  -0.006136   0.006051   0.000485   0.000839
     3  N   -0.000143  -0.001579   0.001417   0.000398  -0.000012  -0.000008
     4  C    0.001399  -0.000253   0.000033   0.000056   0.000000   0.000001
     5  C   -0.000124   0.000194  -0.000012   0.000001   0.000000   0.000000
     6  O   -0.000002   0.000003   0.000000   0.000000   0.000000   0.000000
     7  O   -0.000300   0.002682   0.000001   0.000000   0.000000  -0.000001
     8  C   -0.000147  -0.000100  -0.000016  -0.000003   0.000000   0.000000
     9  C    0.000030   0.000011   0.000008  -0.000034   0.000000   0.000000
    10  C   -0.000004   0.000000   0.000001  -0.000026   0.000000   0.000000
    11  N    0.000000   0.000000   0.000000  -0.000004   0.000000   0.000000
    12  C    0.000008   0.000000  -0.000016   0.000385   0.000000   0.000000
    13  N    0.000038  -0.000007  -0.000101   0.000879   0.000000   0.000000
    14  C    0.349873   0.338169  -0.048063  -0.057178  -0.002920  -0.002129
    15  C   -0.043839  -0.035059   0.391994   0.388557  -0.056238  -0.061559
    16  N    0.012854   0.009656  -0.018784  -0.018686   0.385152   0.389931
    17  H   -0.003276  -0.000189  -0.000240  -0.000016   0.000008  -0.000003
    18  H   -0.000021   0.000035   0.000003  -0.000009   0.000000   0.000000
    19  H    0.000002  -0.000004   0.000000   0.000000   0.000000   0.000000
    20  H   -0.000002  -0.000003  -0.000001   0.000000   0.000000   0.000000
    21  H   -0.000042  -0.000028  -0.000025  -0.000025   0.000000   0.000000
    22  H    0.000000   0.000000   0.000000   0.000000   0.000000   0.000000
    23  H    0.000002   0.000000  -0.000002   0.000050   0.000000   0.000000
    24  H   -0.000223   0.000082   0.000500  -0.000130   0.000002   0.000003
    25  H    0.741744  -0.039977   0.009836  -0.005096   0.005158  -0.000116
    26  H   -0.039977   0.692729  -0.004658   0.008612  -0.000308   0.005307
    27  H    0.009836  -0.004658   0.676233  -0.048961   0.008046  -0.009759
    28  H   -0.005096   0.008612  -0.048961   0.714458  -0.010000   0.008941
    29  H    0.005158  -0.000308   0.008046  -0.010000   0.632827  -0.056842
    30  H   -0.000116   0.005307  -0.009759   0.008941  -0.056842   0.624034
 Mulliken charges:
               1
     1  O   -0.460591
     2  C    0.456273
     3  N   -0.264387
     4  C    0.041026
     5  C    0.485369
     6  O   -0.310473
     7  O   -0.343149
     8  C   -0.025706
     9  C    0.079860
    10  C    0.098143
    11  N   -0.356822
    12  C    0.231622
    13  N   -0.227309
    14  C   -0.038636
    15  C    0.164881
    16  N   -0.333936
    17  H    0.095469
    18  H    0.035246
    19  H    0.213951
    20  H    0.003066
    21  H    0.053318
    22  H    0.000795
    23  H    0.017814
    24  H    0.129442
    25  H   -0.009120
    26  H    0.028035
    27  H    0.027423
    28  H    0.012378
    29  H    0.094640
    30  H    0.101375
 Sum of Mulliken charges =   0.00000
 Mulliken charges with hydrogens summed into heavy atoms:
               1
     1  O   -0.460591
     2  C    0.456273
     3  N   -0.168918
     4  C    0.076273
     5  C    0.485369
     6  O   -0.096522
     7  O   -0.343149
     8  C    0.030678
     9  C    0.079860
    10  C    0.098938
    11  N   -0.356822
    12  C    0.249437
    13  N   -0.097867
    14  C   -0.019721
    15  C    0.204682
    16  N   -0.137921
 Electronic spatial extent (au):  <R**2>=           4355.7344
 Charge=              0.0000 electrons
 Dipole moment (field-independent basis, Debye):
    X=              1.5305    Y=             -0.7377    Z=              2.3025  Tot=              2.8615
 Quadrupole moment (field-independent basis, Debye-Ang):
   XX=            -95.9839   YY=           -111.0648   ZZ=            -91.9828
   XY=             16.3622   XZ=              4.4719   YZ=             -4.9637
 Traceless Quadrupole moment (field-independent basis, Debye-Ang):
   XX=              3.6932   YY=            -11.3876   ZZ=              7.6944
   XY=             16.3622   XZ=              4.4719   YZ=             -4.9637
 Octapole moment (field-independent basis, Debye-Ang**2):
  XXX=            150.6698  YYY=             82.3972  ZZZ=            -47.5039  XYY=              4.5472
  XXY=            -45.4473  XXZ=            -18.3374  XZZ=             14.0055  YZZ=             -6.9977
  YYZ=            -33.2429  XYZ=             47.6089
 Hexadecapole moment (field-independent basis, Debye-Ang**3):
 XXXX=          -2871.4959 YYYY=          -2370.4068 ZZZZ=           -697.6507 XXXY=            198.5090
 XXXZ=            414.7851 YYYX=            115.2983 YYYZ=            322.9764 ZZZX=            393.9040
 ZZZY=            280.9524 XXYY=           -935.3768 XXZZ=           -596.4601 YYZZ=           -499.9941
 XXYZ=             82.1539 YYXZ=            193.1367 ZZXY=              4.0086
 N-N= 1.130325192604D+03 E-N=-4.121599867138D+03  KE= 7.931303721278D+02
 Calling FoFJK, ICntrl=      2127 FMM=F ISym2X=0 I1Cent= 0 IOpClX= 0 NMat=1 NMatS=1 NMatT=0.
 -------------------------------------------------------------------
 Center     Atomic                   Forces (Hartrees/Bohr)
 Number     Number              X              Y              Z
 -------------------------------------------------------------------
      1        8           0.007039147    0.001376823    0.010476118
      2        6          -0.005297400   -0.000740620   -0.005511644
      3        7           0.002189379   -0.001074865   -0.001896271
      4        6          -0.000275259    0.000253092    0.000237522
      5        6           0.010385898   -0.003688100   -0.002587133
      6        8          -0.000777189    0.004192542    0.000546658
      7        8          -0.014375957    0.003372809    0.003988711
      8        6          -0.001146073   -0.000629099    0.000100471
      9        6          -0.001095347    0.003498627    0.000590345
     10        6           0.001378643   -0.001231083   -0.001434673
     11        7           0.005086975   -0.003452654   -0.004623103
     12        6          -0.001245627   -0.000988549    0.001786222
     13        7          -0.001863189    0.000467925    0.002534171
     14        6           0.000203003   -0.000448324    0.000045011
     15        6          -0.002071826   -0.000224313   -0.000602521
     16        7           0.002054428   -0.002324429    0.002880894
     17        1          -0.002009157    0.000275547   -0.002532491
     18        1           0.000733478   -0.000574098   -0.002671542
     19        1           0.003664203   -0.001902261   -0.001194243
     20        1           0.001946537    0.001561839   -0.001035937
     21        1          -0.000473286    0.000890491    0.002529590
     22        1           0.001557058    0.000917162   -0.002264604
     23        1          -0.000433538   -0.002339175    0.001475910
     24        1          -0.002442394    0.000824520    0.001781031
     25        1          -0.001034245   -0.000883066   -0.002548690
     26        1          -0.001779437    0.002037761    0.000419470
     27        1           0.000989540    0.001159703    0.002482133
     28        1           0.001524519   -0.002179835   -0.000601953
     29        1          -0.000781105   -0.000850538   -0.003076570
     30        1          -0.001651777    0.002702169    0.000707116
 -------------------------------------------------------------------
 Cartesian Forces:  Max     0.014375957 RMS     0.003091638

 GradGradGradGradGradGradGradGradGradGradGradGradGradGradGradGradGradGrad
 Berny optimization.
 FormGI is forming the generalized inverse of G from B-inverse, IUseBI=4.
 Internal  Forces:  Max     0.015291101 RMS     0.002214245
 Search for a local minimum.
 Step number   1 out of a maximum of  160
 All quantities printed in internal units (Hartrees-Bohrs-Radians)
 Mixed Optimization -- RFO/linear search
 Second derivative matrix not updated -- first step.
 ITU=  0
     Eigenvalues ---    0.00056   0.00077   0.00258   0.00294   0.00339
     Eigenvalues ---    0.00360   0.00591   0.00850   0.01014   0.01062
     Eigenvalues ---    0.01129   0.01990   0.02344   0.02674   0.02954
     Eigenvalues ---    0.03477   0.03874   0.04140   0.04298   0.04445
     Eigenvalues ---    0.04493   0.04685   0.04746   0.05219   0.05374
     Eigenvalues ---    0.06143   0.06200   0.06787   0.07612   0.08390
     Eigenvalues ---    0.08671   0.10341   0.10686   0.11063   0.11846
     Eigenvalues ---    0.12294   0.12739   0.13636   0.14517   0.15903
     Eigenvalues ---    0.16514   0.17508   0.18090   0.18432   0.18758
     Eigenvalues ---    0.20398   0.21293   0.22101   0.22686   0.23136
     Eigenvalues ---    0.23745   0.24454   0.24754   0.25761   0.27118
     Eigenvalues ---    0.30262   0.32589   0.32746   0.32850   0.32936
     Eigenvalues ---    0.33109   0.33391   0.33525   0.34384   0.34880
     Eigenvalues ---    0.35466   0.36542   0.36990   0.37230   0.37325
     Eigenvalues ---    0.40841   0.42236   0.43312   0.44512   0.44741
     Eigenvalues ---    0.45251   0.45931   0.46946   0.47308   0.52215
     Eigenvalues ---    0.54577   0.57504   0.79510   0.91821
 RFO step:  Lambda=-1.33604982D-03 EMin= 5.58420748D-04
 Linear search not attempted -- first point.
 Iteration  1 RMS(Cart)=  0.03128190 RMS(Int)=  0.00027976
 Iteration  2 RMS(Cart)=  0.00054859 RMS(Int)=  0.00005196
 Iteration  3 RMS(Cart)=  0.00000011 RMS(Int)=  0.00005196
 Variable       Old X    -DE/DX   Delta X   Delta X   Delta X     New X
                                 (Linear)    (Quad)   (Total)
    R1        2.32821  -0.01269   0.00000  -0.01504  -0.01504   2.31317
    R2        2.58791  -0.00463   0.00000  -0.01006  -0.01006   2.57786
    R3        2.87682  -0.00273   0.00000  -0.00679  -0.00679   2.87003
    R4        2.75013  -0.00125   0.00000  -0.00598  -0.00598   2.74415
    R5        1.90926  -0.00321   0.00000  -0.00764  -0.00764   1.90162
    R6        2.92674  -0.00229   0.00000  -0.00592  -0.00592   2.92083
    R7        2.94596  -0.00189   0.00000  -0.00871  -0.00871   2.93726
    R8        2.07459  -0.00282   0.00000  -0.00788  -0.00788   2.06671
    R9        2.56104  -0.00371   0.00000  -0.00556  -0.00556   2.55548
   R10        2.27454  -0.01529   0.00000  -0.01651  -0.01651   2.25803
   R11        1.82884  -0.00429   0.00000  -0.00861  -0.00861   1.82023
   R12        2.82395  -0.00248   0.00000  -0.00630  -0.00630   2.81765
   R13        2.07330  -0.00270   0.00000  -0.00776  -0.00776   2.06554
   R14        2.06240  -0.00272   0.00000  -0.00725  -0.00725   2.05515
   R15        2.60294  -0.00614   0.00000  -0.01063  -0.01063   2.59231
   R16        2.60785  -0.00386   0.00000  -0.00821  -0.00821   2.59964
   R17        2.59975  -0.00320   0.00000  -0.00600  -0.00600   2.59375
   R18        2.04539  -0.00289   0.00000  -0.00771  -0.00771   2.03769
   R19        2.49108  -0.00645   0.00000  -0.01135  -0.01135   2.47973
   R20        2.57524  -0.00464   0.00000  -0.00716  -0.00716   2.56808
   R21        2.04353  -0.00280   0.00000  -0.00723  -0.00723   2.03630
   R22        1.91599  -0.00308   0.00000  -0.00723  -0.00723   1.90875
   R23        2.91457  -0.00246   0.00000  -0.00826  -0.00826   2.90631
   R24        2.07371  -0.00288   0.00000  -0.00845  -0.00845   2.06526
   R25        2.07632  -0.00273   0.00000  -0.00822  -0.00822   2.06810
   R26        2.75812  -0.00058   0.00000  -0.00343  -0.00343   2.75469
   R27        2.06588  -0.00291   0.00000  -0.00807  -0.00807   2.05781
   R28        2.07256  -0.00272   0.00000  -0.00774  -0.00774   2.06483
   R29        1.92291  -0.00323   0.00000  -0.00836  -0.00836   1.91455
   R30        1.92287  -0.00321   0.00000  -0.00826  -0.00826   1.91461
    A1        2.14513   0.00023   0.00000   0.00084   0.00083   2.14596
    A2        2.12273   0.00004   0.00000   0.00081   0.00081   2.12354
    A3        2.01484  -0.00026   0.00000  -0.00147  -0.00148   2.01337
    A4        2.17511   0.00199   0.00000   0.00951   0.00919   2.18430
    A5        2.00616  -0.00132   0.00000   0.00389   0.00354   2.00970
    A6        1.98715  -0.00042   0.00000   0.00718   0.00685   1.99400
    A7        1.90847  -0.00036   0.00000   0.00205   0.00201   1.91047
    A8        2.01370   0.00101   0.00000   0.00205   0.00202   2.01572
    A9        1.84697  -0.00026   0.00000  -0.00165  -0.00165   1.84532
   A10        1.95481   0.00002   0.00000   0.00770   0.00768   1.96249
   A11        1.86445  -0.00012   0.00000  -0.00891  -0.00890   1.85555
   A12        1.86584  -0.00038   0.00000  -0.00302  -0.00300   1.86284
   A13        2.02292   0.00081   0.00000   0.00128   0.00127   2.02419
   A14        2.15656   0.00000   0.00000  -0.00005  -0.00007   2.15649
   A15        2.10326  -0.00082   0.00000  -0.00152  -0.00153   2.10173
   A16        1.93901   0.00038   0.00000   0.00629   0.00629   1.94530
   A17        2.00844   0.00004   0.00000  -0.00131  -0.00131   2.00713
   A18        1.87901  -0.00021   0.00000   0.00034   0.00034   1.87935
   A19        1.90116   0.00030   0.00000   0.00325   0.00325   1.90441
   A20        1.87236  -0.00009   0.00000  -0.00224  -0.00224   1.87012
   A21        1.92337  -0.00005   0.00000  -0.00006  -0.00006   1.92331
   A22        1.87438   0.00000   0.00000  -0.00001  -0.00002   1.87436
   A23        2.31966  -0.00070   0.00000  -0.00483  -0.00483   2.31483
   A24        2.13624   0.00086   0.00000   0.00394   0.00394   2.14017
   A25        1.82711  -0.00017   0.00000   0.00082   0.00083   1.82794
   A26        1.93857  -0.00065   0.00000  -0.00281  -0.00281   1.93575
   A27        2.22789   0.00019   0.00000   0.00054   0.00054   2.22843
   A28        2.11664   0.00046   0.00000   0.00228   0.00228   2.11892
   A29        1.83086   0.00107   0.00000   0.00380   0.00380   1.83466
   A30        1.95440  -0.00078   0.00000  -0.00312  -0.00311   1.95129
   A31        2.19338   0.00039   0.00000   0.00214   0.00214   2.19552
   A32        2.13539   0.00039   0.00000   0.00098   0.00098   2.13637
   A33        1.87382   0.00052   0.00000   0.00130   0.00130   1.87512
   A34        2.15451   0.00009   0.00000   0.00466   0.00464   2.15915
   A35        2.25369  -0.00060   0.00000  -0.00552  -0.00554   2.24815
   A36        1.96401   0.00092   0.00000   0.00345   0.00345   1.96746
   A37        1.93878  -0.00043   0.00000  -0.00072  -0.00071   1.93806
   A38        1.85617  -0.00026   0.00000   0.00025   0.00025   1.85642
   A39        1.92733  -0.00030   0.00000  -0.00364  -0.00364   1.92370
   A40        1.90991  -0.00021   0.00000  -0.00110  -0.00110   1.90881
   A41        1.86337   0.00025   0.00000   0.00183   0.00183   1.86520
   A42        2.01939  -0.00016   0.00000  -0.00067  -0.00067   2.01872
   A43        1.89085   0.00017   0.00000   0.00271   0.00271   1.89357
   A44        1.90437  -0.00008   0.00000  -0.00039  -0.00039   1.90398
   A45        1.89936   0.00000   0.00000  -0.00096  -0.00096   1.89840
   A46        1.88584   0.00012   0.00000   0.00004   0.00004   1.88588
   A47        1.85751  -0.00005   0.00000  -0.00079  -0.00079   1.85672
   A48        1.92995   0.00086   0.00000   0.01036   0.01028   1.94024
   A49        1.92499   0.00069   0.00000   0.00957   0.00949   1.93448
   A50        1.85816  -0.00041   0.00000   0.00628   0.00612   1.86428
    D1        0.37935  -0.00026   0.00000  -0.03403  -0.03404   0.34531
    D2        2.99172   0.00006   0.00000   0.01180   0.01180   3.00353
    D3       -2.79495  -0.00010   0.00000  -0.02800  -0.02800  -2.82295
    D4       -0.18258   0.00022   0.00000   0.01783   0.01784  -0.16474
    D5        0.63377   0.00017   0.00000   0.02262   0.02262   0.65639
    D6        2.80489   0.00013   0.00000   0.01986   0.01986   2.82476
    D7       -1.45718   0.00006   0.00000   0.02182   0.02182  -1.43537
    D8       -2.47557   0.00001   0.00000   0.01666   0.01667  -2.45891
    D9       -0.30445  -0.00003   0.00000   0.01391   0.01391  -0.29054
   D10        1.71666  -0.00010   0.00000   0.01586   0.01586   1.73252
   D11        1.31340   0.00021   0.00000   0.02306   0.02310   1.33650
   D12       -0.90844  -0.00031   0.00000   0.00911   0.00915  -0.89929
   D13       -2.96734  -0.00024   0.00000   0.01283   0.01287  -2.95447
   D14       -1.30399   0.00014   0.00000  -0.02145  -0.02150  -1.32549
   D15        2.75735  -0.00038   0.00000  -0.03540  -0.03544   2.72191
   D16        0.69845  -0.00030   0.00000  -0.03168  -0.03172   0.66673
   D17        3.11915  -0.00058   0.00000   0.01274   0.01273   3.13188
   D18        0.00951  -0.00041   0.00000   0.02310   0.02309   0.03260
   D19       -0.90940   0.00049   0.00000   0.02315   0.02317  -0.88623
   D20        2.26414   0.00065   0.00000   0.03352   0.03353   2.29767
   D21        1.12798  -0.00004   0.00000   0.01830   0.01829   1.14627
   D22       -1.98166   0.00012   0.00000   0.02866   0.02865  -1.95301
   D23       -0.85912  -0.00007   0.00000   0.00355   0.00356  -0.85556
   D24       -2.94558   0.00017   0.00000   0.00698   0.00699  -2.93858
   D25        1.31029   0.00013   0.00000   0.00512   0.00513   1.31541
   D26       -3.05744  -0.00043   0.00000  -0.00780  -0.00781  -3.06525
   D27        1.13930  -0.00019   0.00000  -0.00437  -0.00438   1.13492
   D28       -0.88803  -0.00024   0.00000  -0.00624  -0.00624  -0.89427
   D29        1.18920  -0.00006   0.00000   0.00060   0.00060   1.18981
   D30       -0.89725   0.00018   0.00000   0.00403   0.00403  -0.89321
   D31       -2.92457   0.00013   0.00000   0.00217   0.00217  -2.92241
   D32        0.04002   0.00028   0.00000   0.02833   0.02833   0.06835
   D33       -3.13247   0.00014   0.00000   0.01833   0.01834  -3.11413
   D34       -1.63865   0.00032   0.00000   0.00945   0.00945  -1.62920
   D35        1.52679   0.00047   0.00000   0.01348   0.01348   1.54027
   D36        0.45147   0.00001   0.00000   0.00746   0.00746   0.45893
   D37       -2.66627   0.00016   0.00000   0.01149   0.01149  -2.65478
   D38        2.48684  -0.00007   0.00000   0.00614   0.00614   2.49298
   D39       -0.63090   0.00009   0.00000   0.01017   0.01017  -0.62073
   D40       -3.12555   0.00002   0.00000   0.00235   0.00236  -3.12320
   D41        0.00207   0.00005   0.00000   0.00271   0.00270   0.00478
   D42       -0.00478  -0.00011   0.00000  -0.00111  -0.00111  -0.00588
   D43        3.12285  -0.00007   0.00000  -0.00076  -0.00076   3.12209
   D44        3.12952  -0.00005   0.00000  -0.00298  -0.00299   3.12653
   D45       -0.05975   0.00009   0.00000   0.00580   0.00582  -0.05393
   D46        0.00599   0.00008   0.00000   0.00016   0.00016   0.00615
   D47        3.09990   0.00022   0.00000   0.00894   0.00897   3.10887
   D48        0.00160   0.00009   0.00000   0.00165   0.00165   0.00325
   D49       -3.12705   0.00006   0.00000   0.00134   0.00134  -3.12572
   D50        0.00240  -0.00004   0.00000  -0.00156  -0.00155   0.00084
   D51        3.13722  -0.00010   0.00000  -0.00066  -0.00065   3.13657
   D52       -0.00545  -0.00002   0.00000   0.00092   0.00091  -0.00454
   D53       -3.09575  -0.00020   0.00000  -0.00892  -0.00889  -3.10464
   D54       -3.14053   0.00004   0.00000   0.00005   0.00004  -3.14050
   D55        0.05235  -0.00014   0.00000  -0.00978  -0.00976   0.04259
   D56       -3.04261  -0.00012   0.00000  -0.00889  -0.00889  -3.05150
   D57       -0.90516  -0.00009   0.00000  -0.00849  -0.00850  -0.91366
   D58        1.11031  -0.00010   0.00000  -0.00816  -0.00816   1.10215
   D59        1.06316   0.00000   0.00000  -0.00773  -0.00772   1.05544
   D60       -3.08258   0.00002   0.00000  -0.00733  -0.00733  -3.08991
   D61       -1.06710   0.00001   0.00000  -0.00700  -0.00700  -1.07410
   D62       -0.98308  -0.00001   0.00000  -0.00716  -0.00716  -0.99024
   D63        1.15436   0.00002   0.00000  -0.00677  -0.00677   1.14760
   D64       -3.11335   0.00001   0.00000  -0.00643  -0.00643  -3.11978
   D65       -0.99737  -0.00015   0.00000  -0.00894  -0.00898  -1.00634
   D66        1.05325   0.00030   0.00000   0.01103   0.01108   1.06432
   D67       -3.13029  -0.00026   0.00000  -0.01128  -0.01132   3.14157
   D68       -1.07968   0.00019   0.00000   0.00869   0.00873  -1.07095
   D69        1.14274  -0.00027   0.00000  -0.00988  -0.00992   1.13282
   D70       -3.08984   0.00018   0.00000   0.01009   0.01014  -3.07970
         Item               Value     Threshold  Converged?
 Maximum Force            0.015291     0.000450     NO 
 RMS     Force            0.002214     0.000300     NO 
 Maximum Displacement     0.118036     0.001800     NO 
 RMS     Displacement     0.031110     0.001200     NO 
 Predicted change in Energy=-6.800017D-04
 GradGradGradGradGradGradGradGradGradGradGradGradGradGradGradGradGradGrad

                          Input orientation:                          
 ---------------------------------------------------------------------
 Center     Atomic      Atomic             Coordinates (Angstroms)
 Number     Number       Type             X           Y           Z
 ---------------------------------------------------------------------
      1          8           0        0.341372   -0.440543   -1.230311
      2          6           0        0.998388   -0.270138   -0.211657
      3          7           0        0.526513   -0.565307    1.033772
      4          6           0       -0.580765   -1.460863    1.317740
      5          6           0       -0.109188   -2.925473    1.171050
      6          8           0       -1.039567   -3.874988    1.419125
      7          8           0        1.012876   -3.234088    0.899928
      8          6           0       -1.889786   -1.177157    0.529126
      9          6           0       -2.341019    0.243845    0.547347
     10          6           0       -3.208654    0.932805    1.356272
     11          7           0       -3.317256    2.241239    0.956140
     12          6           0       -2.528039    2.346797   -0.086886
     13          7           0       -1.916867    1.168595   -0.378614
     14          6           0        2.395219    0.324585   -0.253893
     15          6           0        2.535178    1.438588   -1.304947
     16          7           0        3.879313    1.974187   -1.482085
     17          1           0        1.203948   -0.497811    1.774821
     18          1           0       -0.813794   -1.317719    2.376650
     19          1           0       -1.901719   -3.485004    1.599139
     20          1           0       -2.685889   -1.773958    0.981651
     21          1           0       -1.769317   -1.519747   -0.495986
     22          1           0       -3.768272    0.553878    2.196490
     23          1           0       -2.365988    3.240487   -0.666710
     24          1           0       -1.242035    0.967810   -1.102856
     25          1           0        2.694355    0.694016    0.730201
     26          1           0        3.072945   -0.497514   -0.503947
     27          1           0        2.180997    1.057410   -2.261535
     28          1           0        1.873250    2.266197   -1.038825
     29          1           0        4.245121    2.339944   -0.610966
     30          1           0        4.518586    1.249826   -1.787279
 ---------------------------------------------------------------------
                    Distance matrix (angstroms):
                    1          2          3          4          5
     1  O    0.000000
     2  C    1.224077   0.000000
     3  N    2.275064   1.364142   0.000000
     4  C    2.895506   2.500120   1.452144   0.000000
     5  C    3.484885   3.192085   2.448131   1.545635   0.000000
     6  O    4.552134   4.450579   3.681724   2.459427   1.352303
     7  O    3.576693   3.165569   2.716037   2.420451   1.194896
     8  C    2.935351   3.116567   2.543134   1.554329   2.576666
     9  C    3.289936   3.462933   3.018953   2.568663   3.926150
    10  C    4.602084   4.648083   4.037303   3.554846   4.952506
    11  N    5.035681   5.127918   4.759967   4.617867   6.085459
    12  C    4.160554   4.393132   4.366522   4.501458   5.935493
    13  N    2.900750   3.255232   3.312303   3.402474   4.736091
    14  C    2.399396   1.518755   2.437632   3.809768   4.343431
    15  C    2.889548   2.544946   3.676946   4.999439   5.671707
    16  N    4.290844   3.866615   4.901004   6.287359   6.852295
    17  H    3.127002   2.010022   1.006294   2.078844   2.825316
    18  H    3.887675   3.328778   2.041046   1.093656   2.129511
    19  H    4.722922   4.693076   3.839347   2.433363   1.926007
    20  H    3.979332   4.154438   3.432649   2.154653   2.828648
    21  H    2.481718   3.050009   2.919238   2.169269   2.740640
    22  H    5.442518   5.403630   4.587991   3.871896   5.152311
    23  H    4.604066   4.883707   5.073684   5.406270   6.818327
    24  H    2.122941   2.710396   3.169130   3.492136   4.648833
    25  H    3.266093   2.166333   2.525389   3.964229   4.599446
    26  H    2.827074   2.107350   2.975482   4.194780   4.338960
    27  H    2.586795   2.713475   4.028594   5.174962   5.735063
    28  H    3.116048   2.807594   3.758559   5.046440   5.980556
    29  H    4.832593   4.184884   4.997368   6.438572   7.061176
    30  H    4.540559   4.145440   5.214373   6.556855   6.899357
                    6          7          8          9         10
     6  O    0.000000
     7  O    2.211976   0.000000
     8  C    2.965344   3.576857   0.000000
     9  C    4.406650   4.844475   1.491036   0.000000
    10  C    5.274824   5.949165   2.622122   1.371793   0.000000
    11  N    6.542971   6.980860   3.729001   2.260472   1.372552
    12  C    6.572232   6.682676   3.633881   2.204458   2.131974
    13  N    5.425795   5.440742   2.515408   1.375672   2.175808
    14  C    5.677425   3.988274   4.607560   4.804212   5.862248
    15  C    6.959415   5.386351   5.457677   5.351233   6.350551
    16  N    8.174671   6.404419   6.874478   6.767955   7.705844
    17  H    4.070038   2.879090   3.403595   3.824074   4.657564
    18  H    2.739974   3.031485   2.142630   2.849078   3.441131
    19  H    0.963223   3.007776   2.543861   3.899175   4.613470
    20  H    2.704827   3.977376   1.093037   2.092625   2.782119
    21  H    3.122075   3.553609   1.087536   2.127355   3.393753
    22  H    5.259751   6.236115   3.050458   2.202916   1.078297
    23  H    7.532602   7.469351   4.601345   3.233330   3.182442
    24  H    5.463889   5.172206   2.771972   2.110702   3.148988
    25  H    5.940756   4.276234   4.955408   5.058764   5.940918
    26  H    5.658471   3.701836   5.114475   5.564696   6.705574
    27  H    6.946067   5.456767   5.417781   5.385196   6.492487
    28  H    7.227736   5.895094   5.336253   4.936185   5.774095
    29  H    8.406817   6.618160   7.162883   7.008036   7.836378
    30  H    8.212053   6.294169   7.233478   7.315508   8.348213
                   11         12         13         14         15
    11  N    0.000000
    12  C    1.312215   0.000000
    13  N    2.212064   1.358970   0.000000
    14  C    6.145739   5.325007   4.395679   0.000000
    15  C    6.325167   5.286273   4.555402   1.537955   0.000000
    16  N    7.603083   6.568073   5.955026   2.536174   1.457719
    17  H    5.349198   5.048314   4.141700   2.492216   3.873859
    18  H    4.577265   4.736699   3.871693   4.462587   5.689199
    19  H    5.933554   6.102857   5.056454   6.034101   7.236126
    20  H    4.064613   4.259966   3.331716   5.634546   6.542821
    21  H    4.318541   3.961462   2.694945   4.561089   5.285342
    22  H    2.142212   3.156982   3.230594   6.636683   7.264726
    23  H    2.130035   1.077562   2.139497   5.598392   5.260762
    24  H    3.188672   2.141871   1.010069   3.789999   3.811798
    25  H    6.211636   5.538296   4.766347   1.092887   2.172913
    26  H    7.104034   6.295640   5.262115   1.094389   2.163166
    27  H    6.479635   5.344777   4.511124   2.147917   1.088945
    28  H    5.560743   4.503780   4.000699   2.158338   1.092659
    29  H    7.723672   6.793409   6.276634   2.758860   2.053767
    30  H    8.361200   7.331413   6.588322   2.777775   2.049923
                   16         17         18         19         20
    16  N    0.000000
    17  H    4.886286   0.000000
    18  H    6.910263   2.259586   0.000000
    19  H    8.527429   4.312697   2.546612   0.000000
    20  H    7.951130   4.169952   2.378848   1.980882   0.000000
    21  H    6.714685   3.878302   3.034120   2.875642   1.757310
    22  H    8.604345   5.099688   3.502038   4.489256   2.840106
    23  H    6.424340   5.716677   5.696366   7.112092   5.288108
    24  H    5.233050   4.051161   4.184973   5.250097   3.734592
    25  H    2.817299   2.175545   4.366346   6.272412   5.924622
    26  H    2.777821   2.947191   4.906864   6.172143   6.082802
    27  H    2.081417   4.434581   6.010222   7.225434   6.497806
    28  H    2.075099   4.000538   5.632950   7.367873   6.418015
    29  H    1.013135   4.795160   6.920763   8.752041   8.215809
    30  H    1.013169   5.170069   7.236357   8.666415   8.289433
                   21         22         23         24         25
    21  H    0.000000
[...]
 93966,-0.05280808,-0.00032368,-0.00058979,-0.00035065,-0.00039983,0.00
 084519,-0.00027226,-0.00001096,-0.00049707,0.00019752,0.00008157,0.000
 37006,-0.00008230,-0.00009657,0.00010397,-0.00014500,-0.00009779,-0.00
 003806,0.00004664,0.00010729,0.00002859,-0.00040095,-0.00021895,-0.001
 25572,-0.00010646,-0.00027036,0.00112873,0.00086227,-0.00080262,-0.000
 30221,0.00040870,-0.06140461,0.07452977,0.00053052,-0.00125153,-0.0030
 9300,-0.00131979,0.00095780,0.00216227,0.00057891,-0.00037262,-0.00175
 576,-0.00025206,0.00054296,-0.00027858,-0.00009066,0.00029543,0.000127
 69,0.00002468,-0.00012895,-0.00001562,0.00014482,-0.00019922,-0.000085
 02,-0.00107880,0.00007320,0.00007489,0.00789157,-0.00947317,-0.0114150
 4,0.00177491,0.00346418,-0.00139516,0.00115154,0.00159618,0.00519122,-
 0.00489450,-0.00352818,-0.00121436,0.20194323,-0.04826561,-0.24645353,
 -0.00026765,0.00010451,-0.00011092,-0.00009275,0.00018630,0.00036814,0
 .00003672,-0.00000165,-0.00020965,0.00003253,-0.00001425,-0.00004828,-
 0.00001758,-0.00000632,0.00000882,0.00000638,0.00013652,-0.00001248,0.
 00003455,-0.00039297,0.00013820,0.00004412,0.00005378,0.00013091,0.001
 05090,-0.00025538,0.00057722,-0.00063859,-0.00015075,-0.00059489,-0.20
 669971,0.05682460,0.25800786,-0.00846971,-0.00339958,-0.00038324,-0.00
 378837,-0.00707118,-0.03077324,0.00031674,0.00146669,0.00098715,0.0002
 1333,0.00011967,0.00003966,0.00003530,-0.00005031,-0.00011755,0.000045
 73,0.00009449,0.00001848,0.00002278,0.00003658,0.00005784,-0.00002525,
 0.00002449,-0.00017898,0.00007625,0.00002385,-0.00007279,-0.00001828,0
 .00003042,0.00002770,-0.00005068,0.00004677,0.00009548,0.00003012,-0.0
 0012689,-0.00001975,-0.00007852,0.00014202,0.00005300,-0.06872653,-0.0
 2454145,-0.06195135,-0.00015767,-0.00014526,0.00185302,0.00080655,0.00
 113914,0.00031298,-0.00073601,-0.00158231,0.00095547,0.00001338,0.0000
 1342,0.00000304,-0.00001786,0.00000113,-0.00002314,0.00002258,-0.00000
 664,0.00010442,0.00011620,0.00009106,0.00004756,-0.00001074,0.00000100
 ,0.00000263,-0.00001142,0.00000484,-0.00001179,0.00017997,-0.00027407,
 -0.00004739,0.07336996,-0.00488461,0.00078366,0.00008054,0.00258256,-0
 .00498012,-0.01351049,-0.00035352,0.00037627,0.00104762,0.00034868,-0.
 00004708,0.00005577,-0.00016740,0.00005888,-0.00007385,0.00004405,-0.0
 0003082,0.00000476,0.00016413,0.00001802,0.00015160,0.00001344,0.00003
 844,-0.00011652,0.00006589,0.00005127,-0.00009609,-0.00000904,0.000027
 53,0.00000567,-0.00006935,0.00004334,0.00007950,0.00003144,-0.00016067
 ,-0.00000683,-0.00014568,0.00015807,0.00005148,-0.02605331,-0.07493814
 ,-0.07299867,0.00733783,0.00765780,0.02503658,0.00174534,0.00167412,-0
 .00127989,-0.00127861,-0.00041530,0.00081372,-0.00003932,-0.00000538,0
 .00001174,0.00000368,0.00002410,-0.00002677,0.00000422,-0.00000982,0.0
 0007508,0.00007409,0.00005618,0.00003566,-0.00000653,-0.00000022,0.000
 00585,-0.00000212,0.00000758,0.00000412,0.00018072,-0.00025922,0.00002
 304,0.02888096,0.07978788,0.00068008,-0.00048883,0.00239990,0.00151659
 ,0.00224586,-0.00142931,0.00117838,0.00121641,0.00011364,-0.00029336,-
 0.00012166,0.00072892,0.00006068,-0.00000492,-0.00004556,0.00002033,0.
 00007133,0.00000277,0.00002024,0.00003773,0.00007880,0.00002177,0.0000
 5644,-0.00003626,0.00002437,0.00003185,-0.00005102,-0.00001442,0.00001
 808,0.00002925,-0.00002953,0.00000552,0.00007405,0.00004498,-0.0000689
 9,-0.00004414,-0.00003445,0.00001961,0.00002983,-0.06587266,-0.0756024
 6,-0.25380670,-0.00748675,-0.00729902,-0.02115034,0.00040749,-0.000475
 25,0.00252327,0.00065870,-0.00021648,0.00088022,-0.00007843,-0.0000776
 7,0.00001489,-0.00001301,-0.00000073,-0.00001440,-0.00001187,0.0000032
 0,0.00005530,0.00005850,0.00001511,0.00002467,-0.00000854,-0.00000173,
 0.00000212,0.00000236,-0.00000934,-0.00000820,0.00010017,-0.00002045,-
 0.00006515,0.07044641,0.07877285,0.27883831,0.00172095,-0.00419250,-0.
 00099013,-0.02193812,0.02465559,0.01010872,-0.00178570,-0.00269482,-0.
 00010367,0.00079185,-0.00090374,0.00023996,-0.00127656,0.00042436,0.00
 034316,0.00030837,-0.00018470,-0.00007517,0.00070258,-0.00021446,-0.00
 029867,0.00010769,0.00001270,-0.00002189,0.00004449,0.00000673,-0.0000
 5324,-0.00000009,0.00000376,-0.00000185,-0.00003085,0.00002685,0.00003
 056,0.00003557,-0.00006057,-0.00002349,-0.00006773,-0.00002755,0.00000
 468,-0.14835622,0.11814559,0.04628778,0.00013078,-0.00060363,-0.000746
 99,0.00160970,-0.00085038,-0.00082857,-0.00037219,0.00025775,0.0001572
 8,-0.00002995,-0.00008543,0.00005654,0.00005729,0.00007716,0.00000802,
 -0.00003461,0.00000012,0.00001469,0.00002073,0.00002395,-0.00002320,-0
 .00000060,-0.00000075,0.00000375,0.00000265,0.00000071,0.00000236,0.00
 011543,0.00003178,0.00004056,0.00668516,-0.00720216,-0.00266895,0.1604
 5675,0.00024569,-0.00116267,-0.00023788,-0.00866434,0.01150320,0.00361
 196,-0.00058320,-0.00118871,0.00047411,0.00054462,-0.00087281,0.000120
 09,-0.00080926,0.00026380,0.00019759,0.00013361,-0.00015866,-0.0000711
 6,0.00042313,-0.00007304,-0.00013236,0.00008395,0.00001756,-0.00002380
 ,0.00004067,-0.00001935,-0.00003027,0.00000181,0.00000528,-0.00001305,
 0.,0.00004555,0.00001734,-0.00000586,-0.00002792,0.00001772,-0.0000273
 2,0.00003885,0.00001312,0.11414889,-0.17491485,-0.05597909,0.01697526,
 -0.02180457,-0.00525844,0.00016967,0.00340014,-0.00148142,-0.00017400,
 0.00000324,0.00022831,0.00002669,-0.00000948,0.00001064,0.00003665,0.0
 0002789,0.00000633,-0.00000543,0.00000457,0.00001316,0.00002100,0.0000
 1884,-0.00001008,-0.00000089,0.00000149,-0.00000313,-0.00002291,0.0000
 1409,-0.00001231,0.00006996,-0.00011742,0.00000318,0.00615782,-0.00740
 696,-0.00313984,-0.12662337,0.19428852,-0.00082604,-0.00087218,-0.0005
 3141,0.00212960,-0.00083872,-0.00186292,0.00119112,0.00134521,-0.00005
 122,-0.00046246,0.00054697,0.00014266,0.00090208,-0.00024541,-0.000172
 55,-0.00024072,0.00011805,0.00003674,-0.00054623,0.00015029,0.00007787
 ,-0.00004669,0.00001729,-0.00001887,0.00000806,0.00000810,-0.00001468,
 -0.00001000,0.00001632,0.00002506,-0.00001264,-0.00000284,0.00003552,0
 .00001065,-0.00002425,-0.00002398,-0.00003114,0.00003716,0.00001374,0.
 04563004,-0.05648216,-0.06527066,-0.01442165,0.01979867,0.00502989,-0.
 00170727,-0.00194747,0.00112065,0.00027300,-0.00090682,-0.00001790,-0.
 00000133,0.00000759,-0.00001159,-0.00003635,-0.00004312,0.00000130,0.0
 0002105,-0.00000234,0.00000883,0.00002733,0.00000227,0.00000798,-0.000
 00391,-0.00000065,0.00000101,0.00000520,-0.00000414,0.00000089,0.00008
 626,-0.00003308,-0.00001809,0.01878864,-0.02036495,-0.00862744,-0.0516
 9744,0.05699921,0.07133773,-0.00120131,-0.00045695,-0.00009864,0.00046
 025,0.00028892,0.00129674,0.00005305,-0.00014067,-0.00076585,-0.000087
 64,-0.00003391,0.00002224,0.00004755,-0.00008748,0.00001734,0.00000152
 ,0.00004826,-0.00000381,-0.00004523,0.00004264,-0.00000096,0.00000759,
 0.00001735,0.00003076,-0.00002624,-0.00005897,0.00005870,0.00002203,-0
 .00001656,-0.00001982,0.00004090,-0.00002304,-0.00007309,-0.00005153,0
 .00008643,0.00002991,0.00003133,0.00001907,-0.00003306,0.00133425,0.00
 133323,-0.00125770,-0.07350239,-0.02204079,-0.06926593,-0.01654802,-0.
 01794394,-0.02788960,0.00017400,0.00011340,-0.00005172,0.00001209,0.00
 001316,-0.00001241,-0.00000777,-0.00001757,0.00000622,0.00001010,0.000
 00395,-0.00001787,-0.00002380,-0.00003057,-0.00000254,0.00000421,-0.00
 000094,-0.00000337,0.00000729,0.00000652,0.00001465,-0.00021759,0.0000
 0580,0.00015070,0.00009560,-0.00074950,0.00031735,0.00017709,-0.000309
 59,-0.00029828,0.08708174,-0.00043428,-0.00105748,-0.00097949,0.000905
 72,0.00112837,0.00155609,-0.00028888,0.00001181,-0.00056417,-0.0001365
 7,0.00001488,-0.00006786,0.00001226,0.00001091,0.00003357,-0.00000625,
 -0.00000564,-0.00000338,-0.00000905,-0.00001503,-0.00004490,-0.0000278
 9,-0.00002266,0.00005833,-0.00001531,0.00002709,-0.00000244,-0.0000136
 8,-0.00000201,0.00001900,0.00000053,-0.00002365,0.00003033,0.00002798,
 0.00002279,-0.00003601,0.00003791,-0.00005256,0.00001472,0.00730838,0.
 00624154,0.02520937,-0.02487886,-0.07768091,-0.07860314,-0.00739786,-0
 .00665326,-0.01154391,0.00032407,0.00020416,-0.00025939,0.00001255,0.0
 0000483,-0.00000979,-0.00000265,0.00000016,0.00000578,-0.00001332,-0.0
 0000239,-0.00002576,-0.00002169,-0.00001365,-0.00001297,-0.00000200,-0
 .00000103,0.00000128,0.00000384,-0.00001731,-0.00001756,-0.00001219,0.
 00015257,-0.00008360,-0.00075543,-0.00351855,0.00411452,0.00048232,0.0
 0144811,-0.00070364,0.03435330,0.08636727,0.00021119,-0.00103433,0.003
 44871,-0.00311429,-0.00117740,-0.00375812,0.00031247,0.00025824,0.0006
 6674,0.00009516,-0.00009432,-0.00003029,-0.00006256,0.00000708,-0.0000
 4323,0.00003370,0.00001518,0.00000681,0.00006520,0.00001103,0.00004244
 ,-0.00000022,0.00001503,-0.00005555,0.00003019,0.00006663,-0.00005900,
 -0.00002097,0.00001862,0.00002954,-0.00004488,0.00001394,0.00008118,0.
 00005634,-0.00009457,-0.00004030,-0.00004130,-0.00000361,0.00004497,-0
 .00485208,-0.00434606,-0.02265450,-0.07389708,-0.07902874,-0.25756088,
 0.00143530,0.00244411,0.00809691,-0.00009479,-0.00010279,0.00032353,0.
 00001039,0.00001275,0.00000113,-0.00000304,0.00001003,-0.00001567,-0.0
 0000386,-0.00000513,0.00004436,0.00004975,0.00002719,0.00001850,-0.000
 00761,-0.00000005,0.00000423,-0.00000030,-0.00000983,-0.00001128,0.000
 21502,-0.00000453,-0.00012079,0.00025356,0.00380302,-0.00149098,-0.000
 18441,-0.00005742,0.00122034,0.08022175,0.08142179,0.27739831,0.000196
 60,0.00029903,0.00017357,0.00015870,-0.00023220,-0.00037986,0.00029537
 ,0.00011248,-0.00016173,-0.00003343,-0.00002612,-0.00001436,0.00001283
 ,-0.00003049,0.00000536,0.00001155,0.00002646,-0.00000350,-0.00000310,
 -0.00000076,0.00000131,0.00000397,0.00001771,-0.00001160,0.00000203,-0
 .00001732,0.00002616,0.00001255,0.00000054,-0.00002175,0.00002390,-0.0
 0001506,-0.00003567,-0.00013028,0.00016180,0.00004472,0.00004763,-0.00
 012262,-0.00001178,0.00193047,0.00074032,-0.00077733,-0.13636038,0.109
 30755,0.04107170,-0.02848590,0.01925151,0.01573379,-0.00000561,0.00008
 462,0.00002132,0.00001408,0.00001275,-0.00001007,-0.00000639,-0.000003
 13,0.00000104,0.00000651,-0.00000055,0.00000186,-0.00000500,-0.0000061
 3,-0.00000087,-0.00000240,-0.00000106,-0.00000096,-0.00000151,-0.00001
 443,0.00000175,-0.00002395,0.00003413,-0.00000011,-0.00010688,0.000095
 79,-0.00005938,0.00065510,-0.00073053,0.00045330,0.00748420,-0.0072610
 5,-0.00191171,0.15955643,-0.00144085,0.00027125,-0.00072680,0.00324407
 ,0.00038703,0.00031287,-0.00086703,-0.00002956,0.00046442,0.00011250,0
 .00002399,0.00005486,0.00024915,-0.00003821,-0.00006442,-0.00014121,-0
 .00007141,0.00001023,-0.00022534,0.00004929,0.00007531,0.00002641,-0.0
 0008617,0.00000817,-0.00002483,-0.00021471,0.00016892,0.00005856,-0.00
 005550,-0.00009497,0.00012556,0.00008745,-0.00014181,-0.00023680,0.000
 34076,0.00016409,0.00029676,0.00003316,-0.00000421,0.01267033,-0.02097
 007,-0.00549825,0.11507032,-0.18889263,-0.05814220,-0.01101227,0.01234
 616,0.00632687,0.00011834,-0.00011815,-0.00011067,-0.00002099,-0.00003
 070,0.00001918,0.00001630,-0.00002991,0.00000838,-0.00000966,0.0000287
 5,-0.00001560,0.00000248,0.00001912,0.00000006,0.00000663,-0.00000033,
 -0.00002272,-0.00004865,0.00004028,-0.00003512,-0.00027584,-0.00034831
 ,-0.00011695,-0.00004198,0.00126901,0.00023890,-0.00080927,-0.00260785
 ,0.00375316,0.00630645,-0.00768572,-0.00319005,-0.12000605,0.20514461,
 -0.00017838,0.00018822,0.00032087,-0.00136313,-0.00038393,0.00088401,0
 .00014049,-0.00039150,-0.00025821,-0.00000846,0.00004544,-0.00002344,-
 0.00011816,-0.00000804,0.00001720,0.00005142,0.00002538,-0.00000502,0.
 00007584,0.00000940,-0.00003284,0.00000169,-0.00002238,0.00000918,0.00
 001690,-0.00005501,0.00005062,0.00002903,-0.00000068,-0.00004011,0.000
 04658,0.00003313,-0.00008320,-0.00004286,-0.00002604,0.00008079,0.0000
 2411,0.00006618,-0.00006184,-0.01254991,0.02007681,0.00485533,0.043894
 14,-0.05706240,-0.07283706,0.00445318,-0.00248811,-0.00107901,-0.00002
 115,0.00010093,0.00001057,0.00000308,0.00000031,0.00000118,0.00000191,
 -0.00000350,0.00000541,-0.00000476,0.00001051,-0.00000674,-0.00000688,
 -0.00000159,0.00000178,0.00000404,0.00000394,-0.00000881,-0.00003317,0
 .00003423,0.00000772,-0.00014396,-0.00018681,0.00005644,-0.00043268,-0
 .00092464,0.00117815,0.00026872,0.00414012,-0.00230011,0.01810619,-0.0
 2086005,-0.00767471,-0.05240352,0.05617978,0.07533455,0.00031880,-0.00
 024545,0.00085364,-0.00082658,0.00006725,-0.00076210,0.00010378,0.0001
 1366,0.00017084,-0.00001434,-0.00002298,-0.00001900,-0.00000032,-0.000
 04521,-0.00000730,0.00001463,0.00003272,0.00000024,-0.00000089,0.00002
 554,0.00000426,-0.00000226,-0.00000258,-0.00001062,0.00000808,0.000018
 01,-0.00001437,-0.00000934,0.00000647,0.00001495,0.00000245,0.00000857
 ,0.00002793,0.00001523,-0.00001673,-0.00000933,0.00001166,-0.00001102,
 0.00001853,0.00141886,0.00068253,-0.00070685,-0.01417100,-0.01283217,-
 0.03489506,-0.10680532,-0.04805562,-0.10818964,0.00000433,-0.00006786,
 0.00003864,0.00000964,0.00000659,-0.00000357,-0.00000532,-0.00000778,-
 0.00000131,0.00000407,0.00000137,0.00000380,0.00000391,0.00000333,0.00
 000319,-0.00000345,0.00000086,-0.00000193,-0.00001127,-0.00000367,-0.0
 0001355,0.00003618,0.00000939,-0.00005827,0.00016103,-0.00049240,0.000
 98157,0.00002070,-0.00004161,0.00017771,-0.00628199,-0.00245674,0.0019
 2854,0.00068347,0.00080144,-0.00014952,0.11550653,0.00097867,0.0001658
 1,0.00070027,-0.00187053,-0.00014537,-0.00005889,0.00069344,0.00008626
 ,-0.00039074,-0.00018716,-0.00016960,0.00003129,-0.00016544,-0.0001818
 6,0.00005583,0.00015026,0.00019533,-0.00002066,0.00012760,0.00008322,-
 0.00004509,-0.00001486,0.00008543,-0.00002936,-0.00004205,-0.00001102,
 0.00006951,-0.00000286,0.00000605,0.00001664,0.00003663,-0.00009717,-0
 .00003409,-0.00002853,0.00008198,-0.00000789,0.00009693,-0.00003567,-0
 .00005645,0.00174169,0.00106217,-0.00227371,-0.00995835,-0.00913429,-0
 .01160479,-0.03161659,-0.06206400,-0.10190660,-0.00007991,0.00000208,0
 .00013702,0.00003482,0.00004292,-0.00002692,-0.00003696,-0.00002451,0.
 00000440,0.00004502,-0.00000368,-0.00000182,-0.00002316,-0.00003118,-0
 .00000169,-0.00000443,0.00000099,0.00000088,0.00001479,-0.00000380,0.0
 0001272,-0.00012192,0.00012071,-0.00000900,-0.00037591,-0.00020015,0.0
 0073481,-0.00007743,-0.00040080,0.00000157,-0.00150134,0.00065273,0.00
 113791,0.00063773,0.00053838,0.00060548,0.05202473,0.08166267,-0.00006
 375,0.00000374,-0.00010006,0.00047745,0.00026483,-0.00019405,-0.000111
 49,-0.00003639,0.00009153,0.00006743,0.00005372,-0.00004670,0.00004222
 ,0.00006854,-0.00001619,-0.00004531,-0.00006803,0.00000828,-0.00003096
 ,-0.00003584,0.00001371,0.00000669,-0.00002319,0.00000943,0.00001231,0
 .00001279,-0.00002439,-0.00000041,-0.00000116,-0.00000456,-0.00001946,
 0.00002593,0.00001288,0.00001523,-0.00003512,-0.00000149,-0.00003153,0
 .00000691,0.00002112,0.00141820,0.00035015,0.00260128,0.00485872,0.008
 19234,0.00287534,-0.11537213,-0.14810126,-0.32690736,0.00003722,0.0000
 4039,-0.00005516,-0.00000289,-0.00000590,0.00000429,0.00001225,0.00001
 176,-0.00000307,-0.00001459,-0.00000121,-0.00000013,0.00000658,0.00000
 757,-0.00000222,0.00000166,-0.00000037,0.00000131,-0.00000087,-0.00000
 203,-0.00000219,0.00004543,-0.00002167,-0.00000923,-0.00018153,-0.0006
 6557,-0.00003913,-0.00004841,-0.00007517,-0.00010345,0.00021604,0.0009
 5631,0.00179609,-0.00059712,-0.00014670,0.00013327,0.11676592,0.138282
 55,0.33417001,0.00031997,-0.00007683,0.00014146,-0.00026133,-0.0001336
 3,-0.00052211,0.00035762,0.00015839,-0.00011700,-0.00007742,-0.0000196
 1,-0.00003260,-0.00006213,-0.00003879,0.00002195,0.00005300,0.00005866
 ,-0.00000683,0.00005564,0.00001044,-0.00003194,-0.00001584,0.00003282,
 -0.00000294,-0.00000970,0.00003577,-0.00001122,-0.00000911,0.00000420,
 0.00002376,-0.00001387,-0.00003545,0.00001460,0.00002932,-0.00002821,-
 0.00003226,-0.00002841,-0.00002363,-0.00001328,0.00182250,0.00063976,-
 0.00000381,-0.02550310,0.02810735,0.01159759,-0.20248404,0.15241888,0.
 08209078,-0.00001815,0.00000447,0.00002725,0.00001676,0.00002025,-0.00
 001429,-0.00001268,-0.00000185,0.00000155,0.00001111,-0.00000641,0.000
 00161,-0.00000634,-0.00001108,0.00000052,-0.00000229,-0.00000034,0.000
 00467,0.00001911,-0.00001294,0.00001061,0.00003163,0.00010923,0.000021
 19,0.00000727,-0.00011925,0.00003136,0.00024973,-0.00108111,0.00063811
 ,0.00094874,0.00026485,-0.00067947,-0.00593054,-0.00394454,0.00033923,
 0.00980875,-0.01047488,-0.00746288,0.22070382,0.00031196,0.00002242,0.
 00012246,-0.00069036,-0.00051290,-0.00006901,0.00027349,0.00009967,-0.
 00015518,-0.00011908,-0.00002465,0.00001892,-0.00010374,-0.00008480,0.
 00002475,0.00008817,0.00010542,-0.00001082,0.00008115,0.00003153,-0.00
 003742,-0.00001350,0.00002061,-0.00000720,-0.00001427,-0.00000134,0.00
 002421,-0.00000451,0.00000340,0.00001008,0.00002452,-0.00002906,-0.000
 00979,-0.00000921,0.00002697,0.00000683,0.00004714,-0.00001477,-0.0000
 2027,-0.00143919,0.00221357,0.00012466,-0.01503565,0.00749663,0.010711
 91,0.17309672,-0.22268970,-0.12704238,-0.00001155,-0.00000183,0.000046
 97,0.00001326,0.00001180,-0.00001058,-0.00001853,-0.00001441,0.0000042
 0,0.00001565,0.00000177,-0.00000407,-0.00001233,-0.00001041,0.00000034
 ,-0.00000236,0.00000150,-0.00000237,-0.00000687,-0.00000191,-0.0000048
 2,-0.00005020,0.00003357,-0.00001155,0.00009667,-0.00005971,-0.0000548
 3,0.00038138,-0.00031605,-0.00033010,0.00077330,0.00046462,-0.00011370
 ,-0.00231492,0.00060003,0.00089482,0.01049938,-0.01228360,0.00094208,-
 0.16585651,0.22491161,-0.00049091,-0.00021115,-0.00048691,0.00090659,0
 .00061266,0.00063408,-0.00058544,-0.00020861,0.00014254,0.00017120,0.0
 0008234,0.00001174,0.00013070,0.00017750,-0.00002301,-0.00012917,-0.00
 017611,0.00000830,-0.00010100,-0.00008263,0.00002284,0.00001591,-0.000
 04136,0.00002657,0.00002464,0.00001630,-0.00005655,0.00000238,-0.00000
 402,-0.00000996,-0.00004348,0.00004969,0.00001996,0.00002801,-0.000065
 75,-0.00001277,-0.00010859,0.00001483,0.00002709,-0.00080300,-0.001717
 73,-0.00017630,0.00681140,-0.00008972,-0.00301305,0.05767626,-0.089562
 17,-0.07040618,0.00003998,0.00000090,-0.00009180,-0.00003263,-0.000035
 10,0.00002261,0.00003100,0.00002715,0.00000031,-0.00003121,-0.00000251
 ,0.00000355,0.00001781,0.00001862,-0.00000110,0.00000488,-0.00000131,0
 .00000455,0.00001210,0.00000069,0.00000864,0.00011839,-0.00003165,0.00
 005188,0.00014638,0.00000568,-0.00016544,0.00019928,0.00067251,-0.0000
 3533,-0.00069395,0.00039697,0.00029151,-0.00113456,0.00052528,0.001464
 02,0.02385264,-0.02532318,-0.01422916,-0.08603560,0.11495187,0.0859673
 8\\-0.00000008,-0.00000063,-0.00000133,0.,0.00000090,0.00000171,-0.000
 00080,0.00000030,-0.00000016,0.00000019,-0.00000028,-0.00000046,-0.000
 00126,0.00000011,-0.00000067,0.00000031,-0.00000022,-0.00000057,0.0000
 0082,-0.00000136,-0.00000106,0.00000075,0.00000025,-0.00000131,-0.0000
 0030,0.00000027,0.00000063,0.00000030,-0.00000020,0.00000011,-0.000000
 36,-0.00000004,0.00000119,0.00000010,0.00000054,0.00000045,-0.00000018
 ,-0.00000064,0.00000055,0.00000008,-0.00000018,0.00000034,0.00000016,0
 .00000011,0.00000035,0.,0.00000030,0.00000050,-0.00000011,-0.00000092,
 -0.00000055,-0.00000020,-0.00000040,-0.00000066,0.00000008,-0.00000026
 ,-0.00000122,-0.00000095,0.00000125,-0.00000060,-0.00000043,0.00000004
 ,0.00000010,0.00000017,-0.00000013,-0.00000008,0.00000038,0.00000090,0
 .00000046,0.00000047,0.00000041,-0.00000007,0.00000017,-0.00000045,0.0
 0000006,0.00000009,-0.00000020,-0.00000016,0.,0.00000041,0.00000036,0.
 00000016,0.00000023,0.00000081,0.00000025,-0.00000013,0.00000071,0.000
 00023,0.00000005,0.00000057\\\@


 My opinions may have changed, but not the fact that I am right.
                       -- Ashleigh Brilliant
 Job cpu time:       0 days 14 hours 21 minutes 41.2 seconds.
 File lengths (MBytes):  RWF=    973 Int=      0 D2E=      0 Chk=     36 Scr=      1
 Normal termination of Gaussian 09 at Thu Jul 29 06:54:23 2021.
