 Entering Gaussian System, Link 0=g09
 Input=opt_freq-conf-295.com
 Output=opt_freq-conf-295.log
 Initial command:
 /aerosol/software/g09/l1.exe "/scratch/nicole/10721/Gau-86075.inp" -scrdir="/scratch/nicole/10721/"
 Entering Link 1 = /aerosol/software/g09/l1.exe PID=     86080.
  
 Copyright (c) 1988,1990,1992,1993,1995,1998,2003,2009,2013,
            Gaussian, Inc.  All Rights Reserved.
  
 This is part of the Gaussian(R) 09 program.  It is based on
 the Gaussian(R) 03 system (copyright 2003, Gaussian, Inc.),
 the Gaussian(R) 98 system (copyright 1998, Gaussian, Inc.),
 the Gaussian(R) 94 system (copyright 1995, Gaussian, Inc.),
 the Gaussian 92(TM) system (copyright 1992, Gaussian, Inc.),
 the Gaussian 90(TM) system (copyright 1990, Gaussian, Inc.),
 the Gaussian 88(TM) system (copyright 1988, Gaussian, Inc.),
 the Gaussian 86(TM) system (copyright 1986, Carnegie Mellon
 University), and the Gaussian 82(TM) system (copyright 1983,
 Carnegie Mellon University). Gaussian is a federally registered
 trademark of Gaussian, Inc.
  
 This software contains proprietary and confidential information,
 including trade secrets, belonging to Gaussian, Inc.
  
 This software is provided under written license and may be
 used, copied, transmitted, or stored only in accord with that
 written license.
  
 The following legend is applicable only to US Government
 contracts under FAR:
  
                    RESTRICTED RIGHTS LEGEND
  
 Use, reproduction and disclosure by the US Government is
 subject to restrictions as set forth in subparagraphs (a)
 and (c) of the Commercial Computer Software - Restricted
 Rights clause in FAR 52.227-19.
  
 Gaussian, Inc.
 340 Quinnipiac St., Bldg. 40, Wallingford CT 06492
  
  
 ---------------------------------------------------------------
 Warning -- This program may not be used in any manner that
 competes with the business of Gaussian, Inc. or will provide
 assistance to any competitor of Gaussian, Inc.  The licensee
 of this program is prohibited from giving any competitor of
 Gaussian, Inc. access to this program.  By using this program,
 the user acknowledges that Gaussian, Inc. is engaged in the
 business of creating and licensing software in the field of
 computational chemistry and represents and warrants to the
 licensee that it is not a competitor of Gaussian, Inc. and that
 it will not use this program in any manner prohibited above.
 ---------------------------------------------------------------
  

 Cite this work as:
 Gaussian 09, Revision D.01,
 M. J. Frisch, G. W. Trucks, H. B. Schlegel, G. E. Scuseria, 
 M. A. Robb, J. R. Cheeseman, G. Scalmani, V. Barone, B. Mennucci, 
 G. A. Petersson, H. Nakatsuji, M. Caricato, X. Li, H. P. Hratchian, 
 A. F. Izmaylov, J. Bloino, G. Zheng, J. L. Sonnenberg, M. Hada, 
 M. Ehara, K. Toyota, R. Fukuda, J. Hasegawa, M. Ishida, T. Nakajima, 
 Y. Honda, O. Kitao, H. Nakai, T. Vreven, J. A. Montgomery, Jr., 
 J. E. Peralta, F. Ogliaro, M. Bearpark, J. J. Heyd, E. Brothers, 
 K. N. Kudin, V. N. Staroverov, T. Keith, R. Kobayashi, J. Normand, 
 K. Raghavachari, A. Rendell, J. C. Burant, S. S. Iyengar, J. Tomasi, 
 M. Cossi, N. Rega, J. M. Millam, M. Klene, J. E. Knox, J. B. Cross, 
 V. Bakken, C. Adamo, J. Jaramillo, R. Gomperts, R. E. Stratmann, 
 O. Yazyev, A. J. Austin, R. Cammi, C. Pomelli, J. W. Ochterski, 
 R. L. Martin, K. Morokuma, V. G. Zakrzewski, G. A. Voth, 
 P. Salvador, J. J. Dannenberg, S. Dapprich, A. D. Daniels, 
 O. Farkas, J. B. Foresman, J. V. Ortiz, J. Cioslowski, 
 and D. J. Fox, Gaussian, Inc., Wallingford CT, 2013.
 
 ******************************************
 Gaussian 09:  ES64L-G09RevD.01 24-Apr-2013
                29-Jul-2021 
 ******************************************
 %mem=2gb
 %nproc=4
 Will use up to    4 processors via shared memory.
 %chk=conf-295.chk
 ----------------------------------------------------------------------
 # B3LYP/6-311G(2df,2pd) guess=read geom=checkpoint opt=readfc freq=nor
 aman nosymm integral(ultrafinegrid)
 ----------------------------------------------------------------------
 1/10=3,14=-1,18=20,19=15,26=4,29=2,38=1/1,3;
 2/9=110,12=2,15=1,40=1/2;
 3/5=4,6=6,7=404,11=2,14=-4,16=1,25=1,30=1,71=1,74=-5,75=-5,116=-2/1,2,3;
 4/5=1/1;
 5/5=2,38=6/2;
 6/7=2,8=2,9=2,10=2,28=1/1;
 7/30=1/1,2,3,16;
 1/14=-1,18=20,19=15,26=4/3(2);
 2/9=110,15=1/2;
 99//99;
 2/9=110,15=1/2;
 3/5=4,6=6,7=404,11=2,14=-2,16=1,25=1,30=1,71=1,74=-5,75=-5/1,2,3;
 4/5=5,16=3,69=1/1;
 5/5=2,38=5/2;
 7/30=1/1,2,3,16;
 1/14=-1,18=20,19=15,26=4/3(-5);
 2/9=110,15=1/2;
 6/7=2,8=2,9=2,10=2,19=2,28=1/1;
 99/9=1/99;
 ------------------------------------------------------------
 Candidate Structure: Conf:295 OPT and FREQ calc in gas phase
 ------------------------------------------------------------
 Structure from the checkpoint file:  "conf-295.chk"
 Charge =  0 Multiplicity = 1
 Redundant internal coordinates found in file.
 O,0,1.331926573,0.8819544249,-0.7592818875
 C,0,1.7435258161,0.0040970387,-0.0024779628
 N,0,0.9119586021,-0.6177065756,0.8845371547
 C,0,-0.4703340061,-0.2053422338,1.0413680552
 C,0,-0.9199226416,-0.7223600246,2.3994784478
 O,0,-2.1855254737,-0.3589000634,2.7211027364
 O,0,-0.246023083,-1.4043617923,3.1405865391
 C,0,-1.3716941087,-0.7170276408,-0.1354900648
 C,0,-2.5491106351,0.1321697231,-0.4939158943
 C,0,-2.8261671969,0.8344021383,-1.6455905551
 N,0,-4.0523966493,1.4546871765,-1.5717500924
 C,0,-4.5207676769,1.1388880354,-0.3833872578
 N,0,-3.660370934,0.333528802,0.3063435649
 C,0,3.1887253627,-0.4863739353,0.0096786396
 C,0,4.0971554802,0.3293461845,-0.9123520732
 N,0,3.7400008883,0.0985909641,-2.3141267424
 H,0,1.2750772314,-1.2543012304,1.5818222261
 H,0,-0.5247126103,0.8903972041,1.0431845589
 H,0,-2.3601966082,-0.7442769879,3.5973734056
 H,0,-0.7197426966,-0.7298265709,-1.0102976048
 H,0,-1.6632656394,-1.7574449069,0.0602384577
 H,0,-2.2005536221,0.9193847546,-2.5237676547
 H,0,-5.4677190162,1.4593433255,0.0295603738
 H,0,-3.7427101452,0.0236001169,1.2626421048
 H,0,3.5642495502,-0.4577441437,1.0409718912
 H,0,3.2018262218,-1.5354384956,-0.3109428378
 H,0,5.1286453767,-0.0078956561,-0.7587408834
 H,0,4.0537564101,1.3867982426,-0.6021116511
 H,0,2.8364816124,0.5386497316,-2.4764629717
 H,0,4.4079027282,0.5731659243,-2.9169508222
 Recover connectivity data from disk.

 GradGradGradGradGradGradGradGradGradGradGradGradGradGradGradGradGradGrad
 Berny optimization.
 Initialization pass.
 Force constant matrix read from checkpoint file:
 "conf-295.chk"
                           ----------------------------
                           !    Initial Parameters    !
                           ! (Angstroms and Degrees)  !
 --------------------------                            --------------------------
 ! Name  Definition              Value          Derivative Info.                !
 --------------------------------------------------------------------------------
 ! R1    R(1,2)                  1.23           D2E/DX2 =    0.78               !
 ! R2    R(2,3)                  1.3656         D2E/DX2 =    0.4445             !
 ! R3    R(2,14)                 1.5262         D2E/DX2 =    0.2707             !
 ! R4    R(3,4)                  1.451          D2E/DX2 =    0.3483             !
 ! R5    R(3,17)                 1.0116         D2E/DX2 =    0.4648             !
 ! R6    R(4,5)                  1.5212         D2E/DX2 =    0.2823             !
 ! R7    R(4,8)                  1.5682         D2E/DX2 =    0.243              !
 ! R8    R(4,18)                 1.0971         D2E/DX2 =    0.3314             !
 ! R9    R(5,6)                  1.3555         D2E/DX2 =    0.3948             !
 ! R10   R(5,7)                  1.2118         D2E/DX2 =    0.8611             !
 ! R11   R(6,19)                 0.9731         D2E/DX2 =    0.504              !
 ! R12   R(8,9)                  1.4953         D2E/DX2 =    0.3208             !
 ! R13   R(8,20)                 1.0911         D2E/DX2 =    0.347              !
 ! R14   R(8,21)                 1.0981         D2E/DX2 =    0.3275             !
 ! R15   R(9,10)                 1.377          D2E/DX2 =    0.4071             !
 ! R16   R(9,13)                 1.3841         D2E/DX2 =    0.3614             !
 ! R17   R(10,11)                1.3762         D2E/DX2 =    0.3376             !
 ! R18   R(10,22)                1.0816         D2E/DX2 =    0.3721             !
 ! R19   R(11,12)                1.3158         D2E/DX2 =    0.4609             !
 ! R20   R(12,13)                1.3655         D2E/DX2 =    0.3642             !
 ! R21   R(12,23)                1.0816         D2E/DX2 =    0.3728             !
 ! R22   R(13,24)                1.0086         D2E/DX2 =    0.4782             !
 ! R23   R(14,15)                1.53           D2E/DX2 =    0.2867             !
 ! R24   R(14,25)                1.0979         D2E/DX2 =    0.3305             !
 ! R25   R(14,26)                1.097          D2E/DX2 =    0.3338             !
 ! R26   R(15,16)                1.4648         D2E/DX2 =    0.3321             !
 ! R27   R(15,27)                1.096          D2E/DX2 =    0.3327             !
 ! R28   R(15,28)                1.1029         D2E/DX2 =    0.3146             !
 ! R29   R(16,29)                1.018          D2E/DX2 =    0.4463             !
 ! R30   R(16,30)                1.0172         D2E/DX2 =    0.4456             !
 ! A1    A(1,2,3)              121.3903         D2E/DX2 =    0.2034             !
 ! A2    A(1,2,14)             123.446          D2E/DX2 =    0.1806             !
 ! A3    A(3,2,14)             115.1574         D2E/DX2 =    0.1648             !
 ! A4    A(2,3,4)              121.3927         D2E/DX2 =    0.132              !
 ! A5    A(2,3,17)             121.0426         D2E/DX2 =    0.0905             !
 ! A6    A(4,3,17)             116.5068         D2E/DX2 =    0.0965             !
 ! A7    A(3,4,5)              106.348          D2E/DX2 =    0.1086             !
 ! A8    A(3,4,8)              111.945          D2E/DX2 =    0.0943             !
 ! A9    A(3,4,18)             109.3443         D2E/DX2 =    0.0295             !
 ! A10   A(5,4,8)              112.9069         D2E/DX2 =    0.1047             !
 ! A11   A(5,4,18)             108.865          D2E/DX2 =    0.0239             !
 ! A12   A(8,4,18)             107.3759         D2E/DX2 =    0.0327             !
 ! A13   A(4,5,6)              113.3703         D2E/DX2 =    0.1939             !
 ! A14   A(4,5,7)              124.9555         D2E/DX2 =    0.1868             !
 ! A15   A(6,5,7)              121.6705         D2E/DX2 =    0.2153             !
 ! A16   A(5,6,19)             105.9669         D2E/DX2 =    0.1788             !
 ! A17   A(4,8,9)              116.5619         D2E/DX2 =    0.1828             !
 ! A18   A(4,8,20)             105.1933         D2E/DX2 =    0.0627             !
 ! A19   A(4,8,21)             109.1477         D2E/DX2 =    0.0683             !
 ! A20   A(9,8,20)             106.5571         D2E/DX2 =    0.0578             !
 ! A21   A(9,8,21)             111.8225         D2E/DX2 =    0.0562             !
 ! A22   A(20,8,21)            106.8852         D2E/DX2 =    0.02               !
 ! A23   A(8,9,10)             130.4292         D2E/DX2 =    0.1113             !
 ! A24   A(8,9,13)             125.184          D2E/DX2 =    0.1258             !
 ! A25   A(10,9,13)            104.3487         D2E/DX2 =    0.1029             !
 ! A26   A(9,10,11)            111.3617         D2E/DX2 =    0.1153             !
 ! A27   A(9,10,22)            127.0671         D2E/DX2 =    0.0826             !
 ! A28   A(11,10,22)           121.571          D2E/DX2 =    0.0899             !
 ! A29   A(10,11,12)           104.9193         D2E/DX2 =    0.1314             !
 ! A30   A(11,12,13)           111.9289         D2E/DX2 =    0.1191             !
 ! A31   A(11,12,23)           125.8269         D2E/DX2 =    0.0897             !
 ! A32   A(13,12,23)           122.2442         D2E/DX2 =    0.0904             !
 ! A33   A(9,13,12)            107.4356         D2E/DX2 =    0.1036             !
 ! A34   A(9,13,24)            124.6806         D2E/DX2 =    0.0792             !
 ! A35   A(12,13,24)           127.4949         D2E/DX2 =    0.0765             !
 ! A36   A(2,14,15)            112.7122         D2E/DX2 =    0.183              !
 ! A37   A(2,14,25)            108.8434         D2E/DX2 =    0.0581             !
 ! A38   A(2,14,26)            108.4388         D2E/DX2 =    0.0495             !
 ! A39   A(15,14,25)           110.4319         D2E/DX2 =    0.0572             !
 ! A40   A(15,14,26)           109.064          D2E/DX2 =    0.0566             !
 ! A41   A(25,14,26)           107.1802         D2E/DX2 =    0.0211             !
 ! A42   A(14,15,16)           110.3616         D2E/DX2 =    0.1647             !
 ! A43   A(14,15,27)           108.0761         D2E/DX2 =    0.0582             !
 ! A44   A(14,15,28)           108.5609         D2E/DX2 =    0.0639             !
 ! A45   A(16,15,27)           108.3671         D2E/DX2 =    0.0528             !
 ! A46   A(16,15,28)           114.2447         D2E/DX2 =    0.058              !
 ! A47   A(27,15,28)           107.0153         D2E/DX2 =    0.0217             !
 ! A48   A(15,16,29)           107.5115         D2E/DX2 =    0.1575             !
 ! A49   A(15,16,30)           109.4828         D2E/DX2 =    0.1502             !
 ! A50   A(29,16,30)           106.6532         D2E/DX2 =    0.0538             !
 ! D1    D(1,2,3,4)             -4.4833         D2E/DX2 =    0.0112             !
 ! D2    D(1,2,3,17)          -172.3096         D2E/DX2 =    0.0102             !
 ! D3    D(14,2,3,4)           176.399          D2E/DX2 =    0.0095             !
 ! D4    D(14,2,3,17)            8.5727         D2E/DX2 =    0.007              !
 ! D5    D(1,2,14,15)            6.0237         D2E/DX2 =    0.0132             !
 ! D6    D(1,2,14,25)          128.8923         D2E/DX2 =    0.0148             !
 ! D7    D(1,2,14,26)         -114.8264         D2E/DX2 =    0.0157             !
 ! D8    D(3,2,14,15)         -174.8789         D2E/DX2 =    0.0137             !
 ! D9    D(3,2,14,25)          -52.0104         D2E/DX2 =    0.0154             !
 ! D10   D(3,2,14,26)           64.2709         D2E/DX2 =    0.015              !
 ! D11   D(2,3,4,5)           -159.6585         D2E/DX2 =    0.0153             !
 ! D12   D(2,3,4,8)             76.5957         D2E/DX2 =    0.0157             !
 ! D13   D(2,3,4,18)           -42.2648         D2E/DX2 =    0.0083             !
 ! D14   D(17,3,4,5)             8.6935         D2E/DX2 =    0.0155             !
 ! D15   D(17,3,4,8)          -115.0523         D2E/DX2 =    0.015              !
 ! D16   D(17,3,4,18)          126.0872         D2E/DX2 =    0.0095             !
 ! D17   D(3,4,5,6)            177.0684         D2E/DX2 =    0.0229             !
 ! D18   D(3,4,5,7)             -3.6289         D2E/DX2 =    0.022              !
 ! D19   D(8,4,5,6)            -59.7868         D2E/DX2 =    0.0227             !
 ! D20   D(8,4,5,7)            119.5158         D2E/DX2 =    0.0207             !
 ! D21   D(18,4,5,6)            59.3565         D2E/DX2 =    0.0154             !
 ! D22   D(18,4,5,7)          -121.3408         D2E/DX2 =    0.0155             !
 ! D23   D(3,4,8,9)           -150.0024         D2E/DX2 =    0.0219             !
 ! D24   D(3,4,8,20)           -32.2338         D2E/DX2 =    0.02               !
 ! D25   D(3,4,8,21)            82.153          D2E/DX2 =    0.0188             !
 ! D26   D(5,4,8,9)             90.0179         D2E/DX2 =    0.0327             !
 ! D27   D(5,4,8,20)          -152.2134         D2E/DX2 =    0.0247             !
 ! D28   D(5,4,8,21)           -37.8267         D2E/DX2 =    0.0195             !
 ! D29   D(18,4,8,9)           -29.9843         D2E/DX2 =    0.0135             !
 ! D30   D(18,4,8,20)           87.7844         D2E/DX2 =    0.0133             !
 ! D31   D(18,4,8,21)         -157.8289         D2E/DX2 =    0.014              !
 ! D32   D(4,5,6,19)           179.8262         D2E/DX2 =    0.0164             !
 ! D33   D(7,5,6,19)             0.4978         D2E/DX2 =    0.0167             !
 ! D34   D(4,8,9,10)           114.9206         D2E/DX2 =    0.0124             !
 ! D35   D(4,8,9,13)           -67.6871         D2E/DX2 =    0.0138             !
 ! D36   D(20,8,9,10)           -2.0997         D2E/DX2 =    0.0131             !
 ! D37   D(20,8,9,13)          175.2927         D2E/DX2 =    0.0138             !
 ! D38   D(21,8,9,10)         -118.5522         D2E/DX2 =    0.0133             !
 ! D39   D(21,8,9,13)           58.8401         D2E/DX2 =    0.0132             !
 ! D40   D(8,9,10,11)          178.0766         D2E/DX2 =    0.0098             !
 ! D41   D(8,9,10,22)           -1.7666         D2E/DX2 =    0.0072             !
 ! D42   D(13,9,10,11)           0.2763         D2E/DX2 =    0.0143             !
 ! D43   D(13,9,10,22)        -179.5669         D2E/DX2 =    0.0096             !
 ! D44   D(8,9,13,12)         -178.5817         D2E/DX2 =    0.0082             !
 ! D45   D(8,9,13,24)            8.1269         D2E/DX2 =    0.0032             !
 ! D46   D(10,9,13,12)          -0.6303         D2E/DX2 =    0.0124             !
 ! D47   D(10,9,13,24)        -173.9218         D2E/DX2 =    0.0053             !
 ! D48   D(9,10,11,12)           0.1981         D2E/DX2 =    0.0175             !
 ! D49   D(22,10,11,12)       -179.9487         D2E/DX2 =    0.0099             !
 ! D50   D(10,11,12,13)         -0.6195         D2E/DX2 =    0.0185             !
 ! D51   D(10,11,12,23)        179.415          D2E/DX2 =    0.0103             !
 ! D52   D(11,12,13,9)           0.8137         D2E/DX2 =    0.0173             !
 ! D53   D(11,12,13,24)        173.8593         D2E/DX2 =    0.0084             !
 ! D54   D(23,12,13,9)        -179.2194         D2E/DX2 =    0.0103             !
 ! D55   D(23,12,13,24)         -6.1738         D2E/DX2 =    0.0062             !
 ! D56   D(2,14,15,16)         -68.125          D2E/DX2 =    0.018              !
 ! D57   D(2,14,15,27)         173.5359         D2E/DX2 =    0.0159             !
 ! D58   D(2,14,15,28)          57.7949         D2E/DX2 =    0.0142             !
 ! D59   D(25,14,15,16)        169.8988         D2E/DX2 =    0.0178             !
 ! D60   D(25,14,15,27)         51.5597         D2E/DX2 =    0.0157             !
 ! D61   D(25,14,15,28)        -64.1813         D2E/DX2 =    0.0153             !
 ! D62   D(26,14,15,16)         52.3672         D2E/DX2 =    0.0162             !
 ! D63   D(26,14,15,27)        -65.9719         D2E/DX2 =    0.0159             !
 ! D64   D(26,14,15,28)        178.2871         D2E/DX2 =    0.0157             !
 ! D65   D(14,15,16,29)         70.0468         D2E/DX2 =    0.0185             !
 ! D66   D(14,15,16,30)       -174.4615         D2E/DX2 =    0.0159             !
 ! D67   D(27,15,16,29)       -171.7924         D2E/DX2 =    0.0199             !
 ! D68   D(27,15,16,30)        -56.3007         D2E/DX2 =    0.0176             !
 ! D69   D(28,15,16,29)        -52.6038         D2E/DX2 =    0.0197             !
 ! D70   D(28,15,16,30)         62.888          D2E/DX2 =    0.0184             !
 --------------------------------------------------------------------------------
 Trust Radius=3.00D-01 FncErr=1.00D-07 GrdErr=1.00D-06
 Number of steps in this run=    160 maximum allowed number of steps=    180.
 GradGradGradGradGradGradGradGradGradGradGradGradGradGradGradGradGradGrad

                          Input orientation:                          
 ---------------------------------------------------------------------
 Center     Atomic      Atomic             Coordinates (Angstroms)
 Number     Number       Type             X           Y           Z
 ---------------------------------------------------------------------
      1          8           0        1.331927    0.881954   -0.759282
      2          6           0        1.743526    0.004097   -0.002478
      3          7           0        0.911959   -0.617707    0.884537
      4          6           0       -0.470334   -0.205342    1.041368
      5          6           0       -0.919923   -0.722360    2.399478
      6          8           0       -2.185525   -0.358900    2.721103
      7          8           0       -0.246023   -1.404362    3.140587
      8          6           0       -1.371694   -0.717028   -0.135490
      9          6           0       -2.549111    0.132170   -0.493916
     10          6           0       -2.826167    0.834402   -1.645591
     11          7           0       -4.052397    1.454687   -1.571750
     12          6           0       -4.520768    1.138888   -0.383387
     13          7           0       -3.660371    0.333529    0.306344
     14          6           0        3.188725   -0.486374    0.009679
     15          6           0        4.097155    0.329346   -0.912352
     16          7           0        3.740001    0.098591   -2.314127
     17          1           0        1.275077   -1.254301    1.581822
     18          1           0       -0.524713    0.890397    1.043185
     19          1           0       -2.360197   -0.744277    3.597373
     20          1           0       -0.719743   -0.729827   -1.010298
     21          1           0       -1.663266   -1.757445    0.060238
     22          1           0       -2.200554    0.919385   -2.523768
     23          1           0       -5.467719    1.459343    0.029560
     24          1           0       -3.742710    0.023600    1.262642
     25          1           0        3.564250   -0.457744    1.040972
     26          1           0        3.201826   -1.535438   -0.310943
     27          1           0        5.128645   -0.007896   -0.758741
     28          1           0        4.053756    1.386798   -0.602112
     29          1           0        2.836482    0.538650   -2.476463
     30          1           0        4.407903    0.573166   -2.916951
 ---------------------------------------------------------------------
                    Distance matrix (angstroms):
                    1          2          3          4          5
     1  O    0.000000
     2  C    1.229959   0.000000
     3  N    2.264398   1.365628   0.000000
     4  C    2.769963   2.456553   1.450990   0.000000
     5  C    4.197906   3.659384   2.379451   1.521151   0.000000
     6  O    5.101496   4.794487   3.610313   2.405612   1.355469
     7  O    4.788125   3.977551   2.655091   2.427897   1.211820
     8  C    3.202409   3.200361   2.503076   1.568205   2.574916
     9  C    3.961697   4.322573   3.800190   2.606209   3.428732
    10  C    4.251770   4.926593   4.741703   3.721662   4.734961
    11  N    5.475314   6.177341   5.913796   4.734475   5.506595
    12  C    5.870378   6.377634   5.848741   4.499211   4.916774
    13  N    5.134137   5.422730   4.705885   3.317677   3.606407
    14  C    2.431322   1.526208   2.442600   3.812096   4.758973
    15  C    2.824057   2.544254   3.777724   4.996486   6.102899
    16  N    2.971535   3.055906   4.329244   5.392461   6.678841
    17  H    3.169793   2.076781   1.011590   2.106862   2.401988
    18  H    2.587676   2.650254   2.088916   1.097089   2.143994
    19  H    5.937748   5.509948   4.252352   3.224158   1.873452
    20  H    2.621105   2.760804   2.503082   2.132281   3.415655
    21  H    4.075441   3.835778   2.934323   2.189686   2.663832
    22  H    3.948826   4.769740   4.864866   4.119328   5.345437
    23  H    6.869558   7.356685   6.763535   5.363655   5.573042
    24  H    5.529637   5.630248   4.713828   3.287829   3.133206
    25  H    3.165276   2.148748   2.661711   4.042471   4.692905
    26  H    3.088903   2.142886   2.741331   4.133118   4.999629
    27  H    3.899603   3.468589   4.566473   5.884552   6.860757
    28  H    2.772711   2.758367   4.012363   5.069845   6.180257
    29  H    2.308734   2.756973   4.041939   4.885047   6.282955
    30  H    3.769949   3.989598   5.300105   6.330210   7.637312
                    6          7          8          9         10
     6  O    0.000000
     7  O    2.242906   0.000000
     8  C    2.991772   3.531606   0.000000
     9  C    3.272566   4.568889   1.495298   0.000000
    10  C    4.571915   5.880195   2.608223   1.377042   0.000000
    11  N    5.020248   6.698415   3.737025   2.273906   1.376170
    12  C    4.163482   6.095896   3.663679   2.216558   2.134839
    13  N    2.913021   4.765603   2.556742   1.384146   2.181013
    14  C    6.020851   4.737381   4.568556   5.793010   6.376778
    15  C    7.290251   6.188316   5.621986   6.662343   6.980338
    16  N    7.789396   6.921066   5.616148   6.547306   6.641003
    17  H    3.751730   2.183119   3.200504   4.566772   5.621306
    18  H    2.671040   3.121327   2.165748   2.652503   3.539681
    19  H    0.973075   2.261437   3.861625   4.188376   5.495273
    20  H    4.026097   4.231932   1.091097   2.087169   2.699525
    21  H    3.051046   3.409074   1.098085   2.159271   3.313588
    22  H    5.398417   6.426889   3.011432   2.204880   1.081577
    23  H    4.617705   6.719033   4.641255   3.248645   3.189746
    24  H    2.167542   4.218124   2.850442   2.126491   3.155197
    25  H    5.991037   4.452263   5.080830   6.330644   7.051573
    26  H    6.292941   4.880359   4.649480   5.990632   6.613179
    27  H    8.107380   6.785421   6.568540   7.683599   8.048292
    28  H    7.281473   6.347162   5.837751   6.721879   6.980497
    29  H    7.282914   6.695399   4.976507   5.753288   5.730917
    30  H    8.725233   7.890716   6.542543   7.380082   7.349583
                   11         12         13         14         15
    11  N    0.000000
    12  C    1.315791   0.000000
    13  N    2.222142   1.365509   0.000000
    14  C    7.661755   7.888743   6.904373   0.000000
    15  C    8.253266   8.672010   7.852672   1.529962   0.000000
    16  N    7.944280   8.546945   7.854143   2.458894   1.464848
    17  H    6.757634   6.571242   5.339166   2.592951   4.085703
    18  H    4.427286   4.250331   3.268852   4.093074   5.049809
    19  H    5.866756   4.905184   3.699053   6.612761   7.949068
    20  H    4.024166   4.281694   3.392869   4.046695   4.932945
    21  H    4.323092   4.092782   2.901925   5.015974   6.203473
    22  H    2.149932   3.164301   3.237873   6.118728   6.527323
    23  H    2.137137   1.081635   2.147225   8.872443   9.677340
    24  H    3.190250   2.135100   1.008634   7.062209   8.141718
    25  H    8.276292   8.363345   7.304857   1.097909   2.172320
    26  H    7.946964   8.172865   7.138896   1.097044   2.154235
    27  H    9.332292   9.724566   8.859897   2.140724   1.096038
    28  H    8.164222   8.580895   7.838522   2.152055   1.102877
    29  H    7.008158   7.672703   7.070727   2.712130   2.019789
    30  H    8.611812   9.298395   8.691610   3.342780   2.043142
                   16         17         18         19         20
    16  N    0.000000
    17  H    4.804642   0.000000
    18  H    5.485096   2.851159   0.000000
    19  H    8.536315   4.187814   3.544720   0.000000
    20  H    4.719699   3.312622   2.622966   4.891005   0.000000
    21  H    6.186903   3.346973   3.045251   3.744802   1.758489
    22  H    6.000653   5.801792   3.941121   6.345205   2.683895
    23  H    9.598261   7.432273   5.077839   5.219380   5.330764
    24  H    8.293965   5.187784   3.339911   2.819920   3.856454
    25  H    3.405449   2.483411   4.305473   6.458820   4.757555
    26  H    2.640536   2.715504   4.648164   6.843754   4.064088
    27  H    2.087797   4.677793   6.001193   8.694869   5.898144
    28  H    2.165391   4.412033   4.890378   7.957132   5.237653
    29  H    1.018014   4.703439   4.879475   8.095854   4.050359
    30  H    1.017208   5.778684   6.333562   9.485739   5.623688
                   21         22         23         24         25
    21  H    0.000000
    22  H    3.759147   0.000000
    23  H    4.982222   4.181556   0.000000
    24  H    2.990315   4.185400   2.560763   0.000000
    25  H    5.475215   6.916416   9.288414   7.326151   0.000000
    26  H    4.884279   6.333124   9.178544   7.289263   1.766479
    27  H    7.061282   7.595546  10.726469   9.098787   2.426657
    28  H    6.558149   6.559545   9.542681   8.131452   2.518269
    29  H    5.652843   5.051626   8.722819   7.584982   3.727572
    30  H    7.152237   6.629190  10.343846   9.176247   4.176084
                   26         27         28         29         30
    26  H    0.000000
    27  H    2.499308   0.000000
    28  H    3.057782   1.767792   0.000000
    29  H    3.020728   2.916041   2.390462   0.000000
    30  H    3.562599   2.348398   2.479092   1.632356   0.000000
 Symmetry turned off by external request.
 Stoichiometry    C9H14N4O3
 Framework group  C1[X(C9H14N4O3)]
 Deg. of freedom    84
 Full point group                 C1      NOp   1
 Rotational constants (GHZ):      0.7428272      0.2923641      0.2170186
 Standard basis: 6-311G(2df,2pd) (5D, 7F)
   676 basis functions,  1006 primitive gaussians,   770 cartesian basis functions
    60 alpha electrons       60 beta electrons
       nuclear repulsion energy      1107.1578527772 Hartrees.
 NAtoms=   30 NActive=   30 NUniq=   30 SFac= 1.00D+00 NAtFMM=   60 NAOKFM=F Big=F
 Integral buffers will be    131072 words long.
 Raffenetti 2 integral format.
 Two-electron integral symmetry is turned off.
 One-electron integrals computed using PRISM.
 NBasis=   676 RedAO= T EigKep=  2.17D-04  NBF=   676
 NBsUse=   676 1.00D-06 EigRej= -1.00D+00 NBFU=   676
 Initial guess from the checkpoint file:  "conf-295.chk"
 B after Tr=     0.000000    0.000000    0.000000
         Rot=    1.000000    0.000000    0.000000    0.000000 Ang=   0.00 deg.
 Requested convergence on RMS density matrix=1.00D-08 within 128 cycles.
 Requested convergence on MAX density matrix=1.00D-06.
 Requested convergence on             energy=1.00D-06.
 No special actions if energy rises.
 SCF Done:  E(RB3LYP) =  -796.363219251     A.U. after   11 cycles
            NFock= 11  Conv=0.77D-08     -V/T= 2.0041

 **********************************************************************

            Population analysis using the SCF density.

 **********************************************************************

 Alpha  occ. eigenvalues --  -19.20904 -19.14840 -19.09474 -14.35979 -14.34656
 Alpha  occ. eigenvalues --  -14.28224 -14.27646 -10.34033 -10.27956 -10.25016
 Alpha  occ. eigenvalues --  -10.21649 -10.20129 -10.20034 -10.19299 -10.18297
 Alpha  occ. eigenvalues --  -10.17360  -1.14825  -1.05804  -1.04519  -1.00837
 Alpha  occ. eigenvalues --   -0.94075  -0.87485  -0.86605  -0.81257  -0.76405
 Alpha  occ. eigenvalues --   -0.74131  -0.68886  -0.65573  -0.61426  -0.60856
 Alpha  occ. eigenvalues --   -0.59904  -0.58511  -0.54680  -0.52877  -0.52593
 Alpha  occ. eigenvalues --   -0.50299  -0.49896  -0.48597  -0.47947  -0.46403
 Alpha  occ. eigenvalues --   -0.45961  -0.44519  -0.43258  -0.42484  -0.41662
 Alpha  occ. eigenvalues --   -0.40610  -0.40216  -0.39585  -0.39371  -0.37543
 Alpha  occ. eigenvalues --   -0.36558  -0.36304  -0.35775  -0.32053  -0.28087
 Alpha  occ. eigenvalues --   -0.27661  -0.26775  -0.26529  -0.23624  -0.22455
 Alpha virt. eigenvalues --   -0.03386   0.00200   0.00747   0.01897   0.03428
 Alpha virt. eigenvalues --    0.05488   0.05863   0.05932   0.07022   0.07646
 Alpha virt. eigenvalues --    0.07810   0.08507   0.09824   0.10409   0.11031
 Alpha virt. eigenvalues --    0.12220   0.12880   0.14928   0.16025   0.16290
 Alpha virt. eigenvalues --    0.18727   0.19856   0.20476   0.21059   0.21958
 Alpha virt. eigenvalues --    0.22654   0.22767   0.23596   0.25676   0.27867
 Alpha virt. eigenvalues --    0.29138   0.29807   0.30817   0.31804   0.32158
 Alpha virt. eigenvalues --    0.33393   0.33875   0.34536   0.34805   0.35876
 Alpha virt. eigenvalues --    0.36237   0.36565   0.37505   0.38332   0.38670
 Alpha virt. eigenvalues --    0.39576   0.40606   0.41159   0.42147   0.42482
 Alpha virt. eigenvalues --    0.43861   0.43969   0.44753   0.44870   0.45249
 Alpha virt. eigenvalues --    0.45707   0.46418   0.46997   0.47442   0.48247
 Alpha virt. eigenvalues --    0.49063   0.49331   0.49985   0.50304   0.51060
 Alpha virt. eigenvalues --    0.51434   0.52337   0.53171   0.53867   0.54103
 Alpha virt. eigenvalues --    0.54439   0.54655   0.56273   0.56528   0.57198
 Alpha virt. eigenvalues --    0.57701   0.58672   0.60041   0.61120   0.62956
 Alpha virt. eigenvalues --    0.63219   0.63632   0.64251   0.64967   0.65117
 Alpha virt. eigenvalues --    0.66827   0.67630   0.68077   0.68276   0.69523
 Alpha virt. eigenvalues --    0.70901   0.72208   0.72671   0.73136   0.73273
 Alpha virt. eigenvalues --    0.73981   0.75354   0.76523   0.77358   0.77700
 Alpha virt. eigenvalues --    0.79481   0.79888   0.81107   0.81884   0.82897
 Alpha virt. eigenvalues --    0.83288   0.84785   0.87068   0.87252   0.88309
 Alpha virt. eigenvalues --    0.88870   0.90608   0.91178   0.92045   0.93174
 Alpha virt. eigenvalues --    0.94423   0.95174   0.95928   0.96806   0.97229
 Alpha virt. eigenvalues --    0.98481   0.98646   0.99485   1.00158   1.00993
 Alpha virt. eigenvalues --    1.02010   1.02433   1.03525   1.04037   1.04727
 Alpha virt. eigenvalues --    1.06137   1.06966   1.07684   1.08525   1.09080
 Alpha virt. eigenvalues --    1.10432   1.10568   1.12545   1.13520   1.14673
 Alpha virt. eigenvalues --    1.15081   1.15849   1.17253   1.17574   1.18516
 Alpha virt. eigenvalues --    1.18839   1.20046   1.20735   1.21366   1.22402
 Alpha virt. eigenvalues --    1.23061   1.23880   1.24662   1.24993   1.26388
 Alpha virt. eigenvalues --    1.26640   1.27310   1.27989   1.29416   1.29718
 Alpha virt. eigenvalues --    1.30273   1.30590   1.32530   1.33077   1.33751
 Alpha virt. eigenvalues --    1.34012   1.34540   1.35302   1.36029   1.36980
 Alpha virt. eigenvalues --    1.37331   1.38037   1.39247   1.39759   1.40177
 Alpha virt. eigenvalues --    1.41348   1.41722   1.42582   1.44010   1.44589
 Alpha virt. eigenvalues --    1.45666   1.46924   1.47092   1.48447   1.50085
 Alpha virt. eigenvalues --    1.51376   1.52416   1.53209   1.54352   1.55656
 Alpha virt. eigenvalues --    1.57130   1.58188   1.59630   1.60817   1.62581
 Alpha virt. eigenvalues --    1.63680   1.64915   1.65877   1.66279   1.67836
 Alpha virt. eigenvalues --    1.68930   1.70288   1.70788   1.72481   1.72877
 Alpha virt. eigenvalues --    1.73789   1.75452   1.77774   1.78899   1.79827
 Alpha virt. eigenvalues --    1.81846   1.85406   1.86038   1.87694   1.90984
 Alpha virt. eigenvalues --    1.91635   1.93017   1.94164   1.97851   1.98795
 Alpha virt. eigenvalues --    2.01806   2.05455   2.06095   2.07934   2.08457
 Alpha virt. eigenvalues --    2.10260   2.13890   2.15147   2.17330   2.24403
 Alpha virt. eigenvalues --    2.29191   2.31821   2.39926   2.44375   2.45465
 Alpha virt. eigenvalues --    2.46143   2.48146   2.50865   2.51800   2.54218
 Alpha virt. eigenvalues --    2.55825   2.56619   2.57817   2.59112   2.59916
 Alpha virt. eigenvalues --    2.61670   2.62084   2.63111   2.63946   2.64865
 Alpha virt. eigenvalues --    2.68251   2.68693   2.69790   2.70213   2.71734
 Alpha virt. eigenvalues --    2.72387   2.73950   2.74545   2.76675   2.76947
 Alpha virt. eigenvalues --    2.77607   2.79324   2.79839   2.81389   2.82226
 Alpha virt. eigenvalues --    2.83577   2.84293   2.85476   2.86256   2.87894
 Alpha virt. eigenvalues --    2.88573   2.89369   2.89519   2.90186   2.91528
 Alpha virt. eigenvalues --    2.92857   2.93741   2.94313   2.94451   2.97107
 Alpha virt. eigenvalues --    2.97341   2.98554   2.98787   3.00030   3.00276
 Alpha virt. eigenvalues --    3.00774   3.01197   3.02194   3.03001   3.04195
 Alpha virt. eigenvalues --    3.05559   3.06088   3.06479   3.07808   3.08181
 Alpha virt. eigenvalues --    3.09307   3.09665   3.10992   3.11405   3.12196
 Alpha virt. eigenvalues --    3.12232   3.13238   3.14501   3.15063   3.15707
 Alpha virt. eigenvalues --    3.16832   3.17116   3.17859   3.18900   3.19820
 Alpha virt. eigenvalues --    3.20789   3.21475   3.21878   3.22110   3.22902
 Alpha virt. eigenvalues --    3.23862   3.24184   3.25010   3.25530   3.25671
 Alpha virt. eigenvalues --    3.26320   3.26764   3.27434   3.28790   3.29868
 Alpha virt. eigenvalues --    3.31474   3.31846   3.33032   3.33375   3.34518
 Alpha virt. eigenvalues --    3.34606   3.35183   3.36903   3.37480   3.37797
 Alpha virt. eigenvalues --    3.39100   3.39556   3.39910   3.41816   3.41952
 Alpha virt. eigenvalues --    3.42559   3.42947   3.44002   3.44802   3.44906
 Alpha virt. eigenvalues --    3.45641   3.46623   3.47193   3.48060   3.49118
 Alpha virt. eigenvalues --    3.49247   3.50546   3.51067   3.52074   3.53382
 Alpha virt. eigenvalues --    3.54042   3.55551   3.56655   3.57214   3.57618
 Alpha virt. eigenvalues --    3.58142   3.58507   3.60398   3.60992   3.61643
 Alpha virt. eigenvalues --    3.62349   3.62966   3.63834   3.63844   3.65921
 Alpha virt. eigenvalues --    3.66725   3.67582   3.68603   3.69541   3.70152
 Alpha virt. eigenvalues --    3.71761   3.72691   3.73451   3.74689   3.75045
 Alpha virt. eigenvalues --    3.76094   3.76661   3.76933   3.78014   3.79224
 Alpha virt. eigenvalues --    3.79552   3.80288   3.82305   3.82878   3.83720
 Alpha virt. eigenvalues --    3.84310   3.86432   3.86778   3.87874   3.88954
 Alpha virt. eigenvalues --    3.89577   3.90098   3.90835   3.91706   3.92178
 Alpha virt. eigenvalues --    3.92518   3.93694   3.94821   3.94934   3.96558
 Alpha virt. eigenvalues --    3.97298   3.98019   3.98954   3.99714   4.00135
 Alpha virt. eigenvalues --    4.01666   4.01947   4.03314   4.04831   4.05680
 Alpha virt. eigenvalues --    4.05964   4.06986   4.08240   4.09102   4.09709
 Alpha virt. eigenvalues --    4.10629   4.11867   4.13179   4.15258   4.16158
 Alpha virt. eigenvalues --    4.16852   4.17677   4.19106   4.20501   4.21046
 Alpha virt. eigenvalues --    4.21415   4.23010   4.25403   4.25867   4.26927
 Alpha virt. eigenvalues --    4.29479   4.30768   4.31194   4.32755   4.33428
 Alpha virt. eigenvalues --    4.35498   4.38055   4.38638   4.39719   4.42032
 Alpha virt. eigenvalues --    4.42102   4.44341   4.45957   4.47431   4.47702
 Alpha virt. eigenvalues --    4.50410   4.51477   4.52106   4.53249   4.54991
 Alpha virt. eigenvalues --    4.56058   4.56947   4.59312   4.60021   4.61875
 Alpha virt. eigenvalues --    4.62315   4.65410   4.66685   4.67764   4.69031
 Alpha virt. eigenvalues --    4.72808   4.73898   4.77044   4.78802   4.79627
 Alpha virt. eigenvalues --    4.81458   4.83203   4.84130   4.84514   4.85810
 Alpha virt. eigenvalues --    4.86632   4.87121   4.90933   4.91332   4.92979
 Alpha virt. eigenvalues --    4.93804   4.94311   4.95105   4.95958   4.96412
 Alpha virt. eigenvalues --    4.98270   4.98681   4.99549   5.00892   5.02241
 Alpha virt. eigenvalues --    5.02323   5.03951   5.04672   5.05615   5.07167
 Alpha virt. eigenvalues --    5.07906   5.08602   5.09675   5.09850   5.10909
 Alpha virt. eigenvalues --    5.12484   5.12792   5.13511   5.14668   5.15575
 Alpha virt. eigenvalues --    5.16884   5.18162   5.20711   5.21093   5.21747
 Alpha virt. eigenvalues --    5.22496   5.23503   5.25641   5.25930   5.26489
 Alpha virt. eigenvalues --    5.27061   5.29366   5.29919   5.31240   5.32205
 Alpha virt. eigenvalues --    5.33673   5.35835   5.36680   5.37677   5.40286
 Alpha virt. eigenvalues --    5.41783   5.42840   5.43980   5.44987   5.46453
 Alpha virt. eigenvalues --    5.46686   5.49679   5.51641   5.52160   5.55175
 Alpha virt. eigenvalues --    5.57260   5.58344   5.60960   5.61425   5.65516
 Alpha virt. eigenvalues --    5.66787   5.68971   5.69202   5.73475   5.74453
 Alpha virt. eigenvalues --    5.77223   5.78328   5.79848   5.84182   5.86826
 Alpha virt. eigenvalues --    5.87391   5.88805   5.90639   5.91093   5.92398
 Alpha virt. eigenvalues --    5.98231   6.02915   6.05779   6.08310   6.11071
 Alpha virt. eigenvalues --    6.16619   6.18083   6.19295   6.27000   6.28060
 Alpha virt. eigenvalues --    6.29870   6.33860   6.35541   6.36255   6.36900
 Alpha virt. eigenvalues --    6.40233   6.41845   6.44600   6.52537   6.53851
 Alpha virt. eigenvalues --    6.62630   6.69632   6.78408   6.87194   6.91803
 Alpha virt. eigenvalues --    6.94095   6.94841   6.96058   6.98379   7.03451
 Alpha virt. eigenvalues --    7.05049   7.14155   7.16019   7.17737   7.21354
 Alpha virt. eigenvalues --    7.24525   7.25415   7.29123   7.45676   7.48649
 Alpha virt. eigenvalues --    7.56599   7.57878   7.58811   7.63792   7.92103
 Alpha virt. eigenvalues --   24.43982  24.57794  24.70006  24.76901  24.92776
 Alpha virt. eigenvalues --   24.96332  25.01206  25.07099  25.07729  35.97183
 Alpha virt. eigenvalues --   36.21192  36.24289  36.44531  50.15614  50.19921
 Alpha virt. eigenvalues --   50.23787
          Condensed to atoms (all electrons):
               1          2          3          4          5          6
     1  O    7.915301   0.637882  -0.099019  -0.010928   0.000397   0.000000
     2  C    0.637882   4.330381   0.431016  -0.059503   0.002181  -0.000131
     3  N   -0.099019   0.431016   6.579068   0.270945  -0.025749   0.000820
     4  C   -0.010928  -0.059503   0.270945   5.042466   0.301920  -0.083018
     5  C    0.000397   0.002181  -0.025749   0.301920   4.234421   0.364891
     6  O    0.000000  -0.000131   0.000820  -0.083018   0.364891   7.840266
     7  O   -0.000007  -0.001372  -0.028215  -0.073731   0.695900  -0.079862
     8  C    0.000893  -0.003153  -0.037352   0.311851  -0.062997   0.007818
     9  C   -0.002610   0.001199   0.005978  -0.089532   0.007727  -0.001614
    10  C    0.000584  -0.000038  -0.000243  -0.002544   0.000201   0.000187
    11  N    0.000001   0.000000   0.000000  -0.000261   0.000011  -0.000013
    12  C    0.000000   0.000001   0.000001   0.000426  -0.000008  -0.000610
    13  N    0.000009  -0.000002   0.000069   0.004201  -0.001764  -0.012246
    14  C   -0.069390   0.332432  -0.060801   0.004826   0.000134  -0.000001
    15  C    0.000928  -0.069908   0.001018  -0.000337  -0.000003   0.000000
    16  N   -0.011466  -0.000717  -0.000173   0.000012   0.000000   0.000000
    17  H    0.004082  -0.024675   0.343211  -0.036174  -0.013969   0.001528
    18  H    0.021735  -0.005723  -0.044225   0.369701  -0.015849   0.003297
    19  H    0.000001   0.000057  -0.000103   0.017211  -0.043896   0.299804
    20  H    0.010784   0.003599  -0.008614  -0.025408   0.001801   0.000089
    21  H    0.000195   0.000133   0.007756  -0.066416   0.004417   0.000624
    22  H    0.000713  -0.000007  -0.000035  -0.000011   0.000011   0.000002
    23  H    0.000000   0.000000   0.000000   0.000007   0.000004  -0.000041
    24  H   -0.000001   0.000005  -0.000002  -0.001834   0.000079   0.031130
    25  H    0.001542  -0.033226   0.002253  -0.000123   0.000015   0.000000
    26  H   -0.000235  -0.032908   0.004085   0.000026  -0.000087   0.000000
    27  H    0.000382   0.005989  -0.000109   0.000011   0.000000   0.000000
    28  H    0.009570  -0.008258   0.000685  -0.000034  -0.000003   0.000000
    29  H    0.029266  -0.002644   0.000436   0.000033   0.000001   0.000000
    30  H   -0.000017   0.000228  -0.000005  -0.000001   0.000000   0.000000
               7          8          9         10         11         12
     1  O   -0.000007   0.000893  -0.002610   0.000584   0.000001   0.000000
     2  C   -0.001372  -0.003153   0.001199  -0.000038   0.000000   0.000001
     3  N   -0.028215  -0.037352   0.005978  -0.000243   0.000000   0.000001
     4  C   -0.073731   0.311851  -0.089532  -0.002544  -0.000261   0.000426
     5  C    0.695900  -0.062997   0.007727   0.000201   0.000011  -0.000008
     6  O   -0.079862   0.007818  -0.001614   0.000187  -0.000013  -0.000610
     7  O    7.803449  -0.002486   0.000514   0.000000   0.000000   0.000000
     8  C   -0.002486   5.073434   0.121618  -0.035233   0.009941  -0.003649
     9  C    0.000514   0.121618   5.274827   0.508806  -0.044071  -0.126024
    10  C    0.000000  -0.035233   0.508806   4.700064   0.466319  -0.155357
    11  N    0.000000   0.009941  -0.044071   0.466319   6.514756   0.582451
    12  C    0.000000  -0.003649  -0.126024  -0.155357   0.582451   4.586305
    13  N   -0.000025  -0.043948   0.348700  -0.037506  -0.141486   0.481323
    14  C   -0.000410  -0.000485  -0.000026   0.000004   0.000000   0.000000
    15  C   -0.000002   0.000011   0.000002   0.000000   0.000000   0.000000
    16  N    0.000000  -0.000007   0.000000   0.000000   0.000000   0.000000
    17  H    0.043346   0.002661  -0.000175   0.000008   0.000000   0.000001
    18  H    0.001176  -0.085536   0.027706   0.003868  -0.000271   0.000022
    19  H    0.013907  -0.000491  -0.000272  -0.000020   0.000004   0.000027
    20  H   -0.000299   0.403768  -0.035242  -0.008546   0.000523  -0.000407
    21  H    0.001359   0.353275  -0.015004   0.001464  -0.000534   0.000844
    22  H    0.000000  -0.001983  -0.049694   0.430461  -0.021019   0.006439
    23  H    0.000000  -0.000285   0.005935   0.003511  -0.017122   0.422006
    24  H    0.000218   0.003460  -0.029254   0.004436   0.005588  -0.025141
    25  H   -0.000029   0.000018  -0.000003   0.000000   0.000000   0.000000
    26  H   -0.000024   0.000082   0.000017  -0.000001   0.000000   0.000000
    27  H    0.000000   0.000000   0.000000   0.000000   0.000000   0.000000
    28  H    0.000000  -0.000003   0.000002   0.000000   0.000000   0.000000
    29  H    0.000000  -0.000008  -0.000021   0.000001   0.000000   0.000000
    30  H    0.000000   0.000001   0.000000   0.000000   0.000000   0.000000
              13         14         15         16         17         18
     1  O    0.000009  -0.069390   0.000928  -0.011466   0.004082   0.021735
     2  C   -0.000002   0.332432  -0.069908  -0.000717  -0.024675  -0.005723
     3  N    0.000069  -0.060801   0.001018  -0.000173   0.343211  -0.044225
     4  C    0.004201   0.004826  -0.000337   0.000012  -0.036174   0.369701
     5  C   -0.001764   0.000134  -0.000003   0.000000  -0.013969  -0.015849
     6  O   -0.012246  -0.000001   0.000000   0.000000   0.001528   0.003297
     7  O   -0.000025  -0.000410  -0.000002   0.000000   0.043346   0.001176
     8  C   -0.043948  -0.000485   0.000011  -0.000007   0.002661  -0.085536
     9  C    0.348700  -0.000026   0.000002   0.000000  -0.000175   0.027706
    10  C   -0.037506   0.000004   0.000000   0.000000   0.000008   0.003868
    11  N   -0.141486   0.000000   0.000000   0.000000   0.000000  -0.000271
    12  C    0.481323   0.000000   0.000000   0.000000   0.000001   0.000022
    13  N    6.298649   0.000000   0.000000   0.000000   0.000006   0.001549
    14  C    0.000000   4.972149   0.321462  -0.059734  -0.004591   0.002098
    15  C    0.000000   0.321462   4.573823   0.338924  -0.000806   0.000025
    16  N    0.000000  -0.059734   0.338924   6.397727   0.000027   0.000012
    17  H    0.000006  -0.004591  -0.000806   0.000027   0.573755   0.005159
    18  H    0.001549   0.002098   0.000025   0.000012   0.005159   0.682490
    19  H    0.000434   0.000002   0.000000   0.000000  -0.000492  -0.000585
    20  H    0.003621   0.000525   0.000010   0.000032  -0.000452  -0.004785
    21  H    0.000786   0.000058   0.000000   0.000000   0.000634   0.011463
    22  H    0.004391   0.000007   0.000000  -0.000001  -0.000001   0.000221
    23  H   -0.038674   0.000000   0.000000   0.000000   0.000000   0.000008
    24  H    0.368098   0.000000   0.000000   0.000000  -0.000033   0.000131
    25  H    0.000000   0.380612  -0.029893   0.004071   0.001093  -0.000599
    26  H    0.000000   0.334734  -0.015890   0.017977   0.000297   0.000021
    27  H    0.000000  -0.017090   0.392182  -0.028158  -0.000037   0.000003
    28  H    0.000000  -0.072722   0.410346  -0.054624  -0.000105  -0.000002
    29  H    0.000000  -0.000112  -0.061447   0.368241  -0.000094  -0.000103
    30  H    0.000000   0.006538  -0.033977   0.355885  -0.000001  -0.000001
              19         20         21         22         23         24
     1  O    0.000001   0.010784   0.000195   0.000713   0.000000  -0.000001
     2  C    0.000057   0.003599   0.000133  -0.000007   0.000000   0.000005
     3  N   -0.000103  -0.008614   0.007756  -0.000035   0.000000  -0.000002
     4  C    0.017211  -0.025408  -0.066416  -0.000011   0.000007  -0.001834
     5  C   -0.043896   0.001801   0.004417   0.000011   0.000004   0.000079
     6  O    0.299804   0.000089   0.000624   0.000002  -0.000041   0.031130
     7  O    0.013907  -0.000299   0.001359   0.000000   0.000000   0.000218
     8  C   -0.000491   0.403768   0.353275  -0.001983  -0.000285   0.003460
     9  C   -0.000272  -0.035242  -0.015004  -0.049694   0.005935  -0.029254
    10  C   -0.000020  -0.008546   0.001464   0.430461   0.003511   0.004436
    11  N    0.000004   0.000523  -0.000534  -0.021019  -0.017122   0.005588
    12  C    0.000027  -0.000407   0.000844   0.006439   0.422006  -0.025141
    13  N    0.000434   0.003621   0.000786   0.004391  -0.038674   0.368098
    14  C    0.000002   0.000525   0.000058   0.000007   0.000000   0.000000
    15  C    0.000000   0.000010   0.000000   0.000000   0.000000   0.000000
    16  N    0.000000   0.000032   0.000000  -0.000001   0.000000   0.000000
    17  H   -0.000492  -0.000452   0.000634  -0.000001   0.000000  -0.000033
    18  H   -0.000585  -0.004785   0.011463   0.000221   0.000008   0.000131
    19  H    0.480890   0.000072  -0.000266   0.000000   0.000006  -0.002397
    20  H    0.000072   0.669104  -0.040351   0.002284   0.000021  -0.000120
    21  H   -0.000266  -0.040351   0.725865   0.000097  -0.000005   0.000717
    22  H    0.000000   0.002284   0.000097   0.619318  -0.000438  -0.000485
    23  H    0.000006   0.000021  -0.000005  -0.000438   0.613223  -0.001733
    24  H   -0.002397  -0.000120   0.000717  -0.000485  -0.001733   0.545868
    25  H    0.000000   0.000105  -0.000020   0.000000   0.000000   0.000000
    26  H    0.000000  -0.000235  -0.000005  -0.000002   0.000000   0.000000
    27  H    0.000000  -0.000002   0.000000   0.000000   0.000000   0.000000
    28  H    0.000000  -0.000008   0.000000  -0.000001   0.000000   0.000000
    29  H    0.000000   0.000203  -0.000009   0.000013   0.000000   0.000000
    30  H    0.000000  -0.000005   0.000000   0.000000   0.000000   0.000000
              25         26         27         28         29         30
     1  O    0.001542  -0.000235   0.000382   0.009570   0.029266  -0.000017
     2  C   -0.033226  -0.032908   0.005989  -0.008258  -0.002644   0.000228
     3  N    0.002253   0.004085  -0.000109   0.000685   0.000436  -0.000005
     4  C   -0.000123   0.000026   0.000011  -0.000034   0.000033  -0.000001
     5  C    0.000015  -0.000087   0.000000  -0.000003   0.000001   0.000000
     6  O    0.000000   0.000000   0.000000   0.000000   0.000000   0.000000
     7  O   -0.000029  -0.000024   0.000000   0.000000   0.000000   0.000000
     8  C    0.000018   0.000082   0.000000  -0.000003  -0.000008   0.000001
     9  C   -0.000003   0.000017   0.000000   0.000002  -0.000021   0.000000
    10  C    0.000000  -0.000001   0.000000   0.000000   0.000001   0.000000
    11  N    0.000000   0.000000   0.000000   0.000000   0.000000   0.000000
    12  C    0.000000   0.000000   0.000000   0.000000   0.000000   0.000000
    13  N    0.000000   0.000000   0.000000   0.000000   0.000000   0.000000
    14  C    0.380612   0.334734  -0.017090  -0.072722  -0.000112   0.006538
    15  C   -0.029893  -0.015890   0.392182   0.410346  -0.061447  -0.033977
    16  N    0.004071   0.017977  -0.028158  -0.054624   0.368241   0.355885
    17  H    0.001093   0.000297  -0.000037  -0.000105  -0.000094  -0.000001
    18  H   -0.000599   0.000021   0.000003  -0.000002  -0.000103  -0.000001
    19  H    0.000000   0.000000   0.000000   0.000000   0.000000   0.000000
    20  H    0.000105  -0.000235  -0.000002  -0.000008   0.000203  -0.000005
    21  H   -0.000020  -0.000005   0.000000   0.000000  -0.000009   0.000000
    22  H    0.000000  -0.000002   0.000000  -0.000001   0.000013   0.000000
    23  H    0.000000   0.000000   0.000000   0.000000   0.000000   0.000000
    24  H    0.000000   0.000000   0.000000   0.000000   0.000000   0.000000
    25  H    0.708380  -0.037640  -0.006643   0.002664   0.000386  -0.000711
    26  H   -0.037640   0.709585  -0.008661   0.015110  -0.002792  -0.000690
    27  H   -0.006643  -0.008661   0.728566  -0.062406   0.009331  -0.007973
    28  H    0.002664   0.015110  -0.062406   0.783919  -0.007089  -0.004445
    29  H    0.000386  -0.002792   0.009331  -0.007089   0.594055  -0.045866
    30  H   -0.000711  -0.000690  -0.007973  -0.004445  -0.045866   0.649070
 Mulliken charges:
               1
     1  O   -0.440592
     2  C    0.497161
     3  N   -0.342696
     4  C    0.126220
     5  C    0.550212
     6  O   -0.372920
     7  O   -0.373407
     8  C   -0.011212
     9  C    0.090511
    10  C    0.119577
    11  N   -0.354818
    12  C    0.231352
    13  N   -0.236185
    14  C   -0.070219
    15  C    0.173531
    16  N   -0.328030
    17  H    0.105798
    18  H    0.026994
    19  H    0.236107
    20  H    0.027931
    21  H    0.012924
    22  H    0.009721
    23  H    0.013577
    24  H    0.101270
    25  H    0.007748
    26  H    0.017235
    27  H   -0.005385
    28  H   -0.012595
    29  H    0.118220
    30  H    0.081970
 Sum of Mulliken charges =   0.00000
 Mulliken charges with hydrogens summed into heavy atoms:
               1
     1  O   -0.440592
     2  C    0.497161
     3  N   -0.236898
     4  C    0.153214
     5  C    0.550212
     6  O   -0.136813
     7  O   -0.373407
     8  C    0.029644
     9  C    0.090511
    10  C    0.129298
    11  N   -0.354818
    12  C    0.244929
    13  N   -0.134915
    14  C   -0.045235
    15  C    0.155551
    16  N   -0.127840
 Electronic spatial extent (au):  <R**2>=           4896.4452
 Charge=              0.0000 electrons
 Dipole moment (field-independent basis, Debye):
    X=              0.3852    Y=             -2.0616    Z=              5.0891  Tot=              5.5043
 Quadrupole moment (field-independent basis, Debye-Ang):
   XX=            -88.8065   YY=            -99.7805   ZZ=            -93.0045
   XY=              9.4096   XZ=            -17.5136   YZ=              2.6224
 Traceless Quadrupole moment (field-independent basis, Debye-Ang):
   XX=              5.0573   YY=             -5.9167   ZZ=              0.8593
   XY=              9.4096   XZ=            -17.5136   YZ=              2.6224
 Octapole moment (field-independent basis, Debye-Ang**2):
  XXX=            138.6342  YYY=            -20.3083  ZZZ=             -8.8060  XYY=             46.6353
  XXY=            -16.5500  XXZ=             71.8468  XZZ=             23.4704  YZZ=              4.2810
  YYZ=             -3.2339  XYZ=            -22.3966
 Hexadecapole moment (field-independent basis, Debye-Ang**3):
 XXXX=          -4261.5296 YYYY=           -464.5189 ZZZZ=          -1346.9981 XXXY=            312.9364
 XXXZ=           -163.7079 YYYX=            224.9626 YYYZ=            254.0191 ZZZX=              8.5327
 ZZZY=            222.3983 XXYY=           -875.7535 XXZZ=           -969.7582 YYZZ=           -350.5334
 XXYZ=             77.1603 YYXZ=             27.1582 ZZXY=            166.4023
 N-N= 1.107157852777D+03 E-N=-4.075734991158D+03  KE= 7.931400170538D+02
 Calling FoFJK, ICntrl=      2127 FMM=F ISym2X=0 I1Cent= 0 IOpClX= 0 NMat=1 NMatS=1 NMatT=0.
 -------------------------------------------------------------------
 Center     Atomic                   Forces (Hartrees/Bohr)
 Number     Number              X              Y              Z
 -------------------------------------------------------------------
      1        8           0.004261416   -0.008693245    0.007993635
      2        6          -0.004170021    0.004598252   -0.003601381
      3        7           0.001314167    0.001710992   -0.001750524
      4        6           0.000481121   -0.000247432    0.000628109
      5        6           0.005526455   -0.005916601    0.006923763
      6        8           0.003449148   -0.003064674    0.003590717
      7        8          -0.008607913    0.008375664   -0.008981960
      8        6           0.000299672    0.000160079   -0.001050367
      9        6          -0.002576276    0.001902717   -0.001790304
     10        6           0.000551931   -0.001257754    0.001964853
     11        7           0.001315682   -0.003894459    0.006711936
     12        6           0.001488681   -0.000049765   -0.001869638
     13        7           0.000421019    0.001402192   -0.002529943
     14        6           0.000403420    0.000142157   -0.000129969
     15        6           0.001303275   -0.000300279    0.002650763
     16        7          -0.000257330    0.004331778   -0.000466941
     17        1          -0.000838987    0.002046722   -0.002313309
     18        1          -0.000056426   -0.002698095    0.000138867
     19        1           0.000287519    0.001685878   -0.003386076
     20        1          -0.001789245   -0.000122837    0.002051912
     21        1           0.000492846    0.002562856   -0.000260720
     22        1          -0.001555618   -0.000250173    0.002498701
     23        1           0.002457423   -0.000814230   -0.001063568
     24        1          -0.000258379    0.001167863   -0.003322043
     25        1          -0.001135855    0.000059566   -0.002531885
     26        1          -0.000460401    0.002486296    0.000699950
     27        1          -0.002590727    0.000812112   -0.000439636
     28        1          -0.000256355   -0.002747191   -0.001515948
     29        1           0.002946539   -0.001443540   -0.000408895
     30        1          -0.002446780   -0.001944849    0.001559902
 -------------------------------------------------------------------
 Cartesian Forces:  Max     0.008981960 RMS     0.003064668

 GradGradGradGradGradGradGradGradGradGradGradGradGradGradGradGradGradGrad
 Berny optimization.
 FormGI is forming the generalized inverse of G from B-inverse, IUseBI=4.
 Internal  Forces:  Max     0.014993900 RMS     0.002218127
 Search for a local minimum.
 Step number   1 out of a maximum of  160
 All quantities printed in internal units (Hartrees-Bohrs-Radians)
 Mixed Optimization -- RFO/linear search
 Second derivative matrix not updated -- first step.
 ITU=  0
     Eigenvalues ---    0.00031   0.00105   0.00223   0.00281   0.00411
     Eigenvalues ---    0.00425   0.00564   0.00617   0.00683   0.00958
     Eigenvalues ---    0.01860   0.01977   0.02153   0.02510   0.03407
     Eigenvalues ---    0.03722   0.04024   0.04155   0.04226   0.04254
     Eigenvalues ---    0.04348   0.04669   0.04930   0.05228   0.05367
     Eigenvalues ---    0.05493   0.06118   0.06179   0.07783   0.08261
     Eigenvalues ---    0.08412   0.10181   0.10900   0.11056   0.11672
     Eigenvalues ---    0.11814   0.12070   0.12827   0.15152   0.15273
     Eigenvalues ---    0.15822   0.17631   0.17754   0.17947   0.19411
     Eigenvalues ---    0.21058   0.21852   0.22039   0.22985   0.23589
     Eigenvalues ---    0.24213   0.24404   0.25171   0.25419   0.30022
     Eigenvalues ---    0.30686   0.31142   0.32836   0.32966   0.33006
     Eigenvalues ---    0.33156   0.33658   0.34767   0.34835   0.35417
     Eigenvalues ---    0.36693   0.37117   0.37406   0.37632   0.38862
     Eigenvalues ---    0.40493   0.40748   0.44489   0.44590   0.44671
     Eigenvalues ---    0.45211   0.45849   0.46702   0.47751   0.50205
     Eigenvalues ---    0.51997   0.57793   0.81296   0.88755
 RFO step:  Lambda=-1.40711634D-03 EMin= 3.14565035D-04
 Linear search not attempted -- first point.
 Iteration  1 RMS(Cart)=  0.02933991 RMS(Int)=  0.00037863
 Iteration  2 RMS(Cart)=  0.00053035 RMS(Int)=  0.00001794
 Iteration  3 RMS(Cart)=  0.00000013 RMS(Int)=  0.00001794
 Variable       Old X    -DE/DX   Delta X   Delta X   Delta X     New X
                                 (Linear)    (Quad)   (Total)
    R1        2.32429  -0.01255   0.00000  -0.01546  -0.01546   2.30883
    R2        2.58066  -0.00517   0.00000  -0.00793  -0.00793   2.57273
    R3        2.88412  -0.00281   0.00000  -0.00720  -0.00720   2.87692
    R4        2.74197  -0.00211   0.00000  -0.00684  -0.00684   2.73513
    R5        1.91163  -0.00318   0.00000  -0.00684  -0.00684   1.90479
    R6        2.87456  -0.00222   0.00000  -0.00654  -0.00654   2.86802
    R7        2.96348  -0.00176   0.00000  -0.00684  -0.00684   2.95664
    R8        2.07320  -0.00269   0.00000  -0.00784  -0.00784   2.06536
    R9        2.56146  -0.00381   0.00000  -0.00616  -0.00616   2.55530
   R10        2.29001  -0.01499   0.00000  -0.01663  -0.01663   2.27338
   R11        1.83885  -0.00377   0.00000  -0.00797  -0.00797   1.83087
   R12        2.82570  -0.00261   0.00000  -0.00800  -0.00800   2.81770
   R13        2.06187  -0.00271   0.00000  -0.00747  -0.00747   2.05440
   R14        2.07508  -0.00261   0.00000  -0.00743  -0.00743   2.06765
   R15        2.60223  -0.00633   0.00000  -0.01091  -0.01091   2.59133
   R16        2.61566  -0.00367   0.00000  -0.00826  -0.00826   2.60740
   R17        2.60058  -0.00333   0.00000  -0.00637  -0.00637   2.59421
   R18        2.04388  -0.00295   0.00000  -0.00782  -0.00782   2.03606
   R19        2.48649  -0.00654   0.00000  -0.01110  -0.01110   2.47538
   R20        2.58044  -0.00484   0.00000  -0.00793  -0.00793   2.57251
   R21        2.04399  -0.00280   0.00000  -0.00723  -0.00723   2.03676
   R22        1.90604  -0.00349   0.00000  -0.00731  -0.00731   1.89873
   R23        2.89121  -0.00229   0.00000  -0.00953  -0.00953   2.88168
   R24        2.07475  -0.00277   0.00000  -0.00760  -0.00760   2.06714
   R25        2.07311  -0.00259   0.00000  -0.00760  -0.00760   2.06551
   R26        2.76816  -0.00086   0.00000  -0.00297  -0.00297   2.76519
   R27        2.07121  -0.00275   0.00000  -0.00841  -0.00841   2.06280
   R28        2.08414  -0.00305   0.00000  -0.00989  -0.00989   2.07425
   R29        1.92377  -0.00317   0.00000  -0.00818  -0.00818   1.91559
   R30        1.92224  -0.00344   0.00000  -0.00863  -0.00863   1.91361
    A1        2.11866  -0.00013   0.00000   0.00265   0.00265   2.12131
    A2        2.15454  -0.00007   0.00000  -0.00149  -0.00150   2.15304
    A3        2.00988   0.00020   0.00000  -0.00110  -0.00110   2.00877
    A4        2.11870   0.00111   0.00000   0.00505   0.00505   2.12375
    A5        2.11259  -0.00089   0.00000  -0.00647  -0.00647   2.10612
    A6        2.03343  -0.00022   0.00000   0.00064   0.00063   2.03406
    A7        1.85612  -0.00018   0.00000   0.00435   0.00435   1.86047
    A8        1.95381  -0.00034   0.00000   0.00054   0.00054   1.95435
    A9        1.90842   0.00011   0.00000  -0.00067  -0.00067   1.90775
   A10        1.97060   0.00062   0.00000  -0.00084  -0.00085   1.96975
   A11        1.90005  -0.00023   0.00000  -0.00273  -0.00273   1.89732
   A12        1.87406   0.00003   0.00000  -0.00078  -0.00078   1.87328
   A13        1.97868   0.00119   0.00000  -0.00224  -0.00224   1.97645
   A14        2.18089  -0.00022   0.00000   0.00073   0.00073   2.18161
   A15        2.12355  -0.00097   0.00000   0.00151   0.00151   2.12506
   A16        1.84947   0.00080   0.00000   0.00692   0.00692   1.85639
   A17        2.03439   0.00136   0.00000   0.00320   0.00319   2.03758
   A18        1.83597  -0.00029   0.00000   0.00231   0.00230   1.83827
   A19        1.90499  -0.00036   0.00000  -0.00045  -0.00045   1.90454
   A20        1.85977  -0.00055   0.00000   0.00013   0.00012   1.85989
   A21        1.95167  -0.00042   0.00000  -0.00329  -0.00329   1.94838
   A22        1.86550   0.00019   0.00000  -0.00193  -0.00193   1.86356
   A23        2.27642  -0.00102   0.00000  -0.00365  -0.00365   2.27277
   A24        2.18487   0.00123   0.00000   0.00266   0.00266   2.18753
   A25        1.82123  -0.00022   0.00000   0.00097   0.00097   1.82220
   A26        1.94363  -0.00064   0.00000  -0.00302  -0.00302   1.94061
   A27        2.21774   0.00015   0.00000   0.00026   0.00026   2.21800
   A28        2.12181   0.00048   0.00000   0.00277   0.00276   2.12458
   A29        1.83119   0.00115   0.00000   0.00395   0.00395   1.83514
   A30        1.95353  -0.00081   0.00000  -0.00319  -0.00319   1.95034
   A31        2.19609   0.00040   0.00000   0.00198   0.00198   2.19808
   A32        2.13356   0.00041   0.00000   0.00121   0.00121   2.13478
   A33        1.87511   0.00051   0.00000   0.00132   0.00132   1.87642
   A34        2.17609   0.00025   0.00000   0.00467   0.00467   2.18075
   A35        2.22520  -0.00074   0.00000  -0.00538  -0.00539   2.21982
   A36        1.96720   0.00112   0.00000   0.00226   0.00226   1.96946
   A37        1.89968  -0.00060   0.00000  -0.00392  -0.00393   1.89575
   A38        1.89261  -0.00050   0.00000  -0.00147  -0.00147   1.89114
   A39        1.92740  -0.00015   0.00000   0.00060   0.00060   1.92800
   A40        1.90353  -0.00015   0.00000   0.00160   0.00160   1.90512
   A41        1.87065   0.00023   0.00000   0.00084   0.00084   1.87149
   A42        1.92617   0.00059   0.00000   0.00176   0.00176   1.92793
   A43        1.88628  -0.00027   0.00000   0.00114   0.00114   1.88742
   A44        1.89475   0.00024   0.00000   0.00315   0.00315   1.89790
   A45        1.89136  -0.00017   0.00000  -0.00194  -0.00194   1.88942
   A46        1.99395  -0.00063   0.00000  -0.00755  -0.00755   1.98640
   A47        1.86777   0.00023   0.00000   0.00387   0.00385   1.87162
   A48        1.87643   0.00140   0.00000   0.01378   0.01371   1.89014
   A49        1.91084   0.00083   0.00000   0.00937   0.00930   1.92014
   A50        1.86145  -0.00070   0.00000   0.00199   0.00183   1.86328
    D1       -0.07825   0.00011   0.00000  -0.00388  -0.00387  -0.08212
    D2       -3.00737   0.00014   0.00000   0.00047   0.00047  -3.00690
    D3        3.07874  -0.00003   0.00000  -0.00777  -0.00777   3.07097
    D4        0.14962   0.00000   0.00000  -0.00343  -0.00344   0.14619
    D5        0.10513  -0.00015   0.00000  -0.04588  -0.04588   0.05926
    D6        2.24960  -0.00001   0.00000  -0.04641  -0.04641   2.20319
    D7       -2.00410  -0.00034   0.00000  -0.04833  -0.04832  -2.05242
    D8       -3.05221   0.00000   0.00000  -0.04185  -0.04185  -3.09407
    D9       -0.90775   0.00014   0.00000  -0.04238  -0.04238  -0.95013
   D10        1.12174  -0.00019   0.00000  -0.04430  -0.04430   1.07744
   D11       -2.78657   0.00043   0.00000   0.02416   0.02417  -2.76240
   D12        1.33685   0.00000   0.00000   0.02191   0.02191   1.35876
   D13       -0.73766   0.00012   0.00000   0.02298   0.02299  -0.71467
   D14        0.15173   0.00032   0.00000   0.01914   0.01914   0.17087
   D15       -2.00804  -0.00011   0.00000   0.01689   0.01689  -1.99115
   D16        2.20064   0.00000   0.00000   0.01797   0.01796   2.21860
   D17        3.09043  -0.00015   0.00000  -0.01089  -0.01090   3.07953
   D18       -0.06334  -0.00002   0.00000  -0.01096  -0.01096  -0.07430
   D19       -1.04348  -0.00032   0.00000  -0.00772  -0.00772  -1.05120
   D20        2.08594  -0.00019   0.00000  -0.00778  -0.00778   2.07816
   D21        1.03597  -0.00006   0.00000  -0.01106  -0.01106   1.02491
   D22       -2.11780   0.00007   0.00000  -0.01112  -0.01112  -2.12892
   D23       -2.61804   0.00025   0.00000   0.00999   0.00999  -2.60805
   D24       -0.56259   0.00013   0.00000   0.01360   0.01360  -0.54898
   D25        1.43384   0.00004   0.00000   0.01233   0.01233   1.44617
   D26        1.57111   0.00030   0.00000   0.00456   0.00456   1.57567
   D27       -2.65663   0.00017   0.00000   0.00817   0.00818  -2.64845
   D28       -0.66020   0.00008   0.00000   0.00690   0.00690  -0.65330
   D29       -0.52332   0.00020   0.00000   0.00898   0.00898  -0.51434
   D30        1.53213   0.00008   0.00000   0.01259   0.01260   1.54472
   D31       -2.75463  -0.00002   0.00000   0.01132   0.01132  -2.74331
   D32        3.13856   0.00009   0.00000   0.00308   0.00308  -3.14155
   D33        0.00869  -0.00004   0.00000   0.00315   0.00315   0.01183
   D34        2.00574  -0.00024   0.00000  -0.03565  -0.03565   1.97010
   D35       -1.18136  -0.00033   0.00000  -0.03616  -0.03616  -1.21752
   D36       -0.03665  -0.00029   0.00000  -0.04053  -0.04053  -0.07718
   D37        3.05943  -0.00037   0.00000  -0.04105  -0.04105   3.01839
   D38       -2.06913   0.00004   0.00000  -0.03654  -0.03654  -2.10566
   D39        1.02695  -0.00004   0.00000  -0.03705  -0.03705   0.98990
   D40        3.10802  -0.00002   0.00000  -0.00092  -0.00093   3.10709
   D41       -0.03083  -0.00008   0.00000  -0.00278  -0.00278  -0.03361
   D42        0.00482   0.00002   0.00000  -0.00056  -0.00056   0.00426
   D43       -3.13403  -0.00004   0.00000  -0.00241  -0.00241  -3.13644
   D44       -3.11684   0.00010   0.00000   0.00184   0.00184  -3.11499
   D45        0.14184   0.00003   0.00000  -0.00298  -0.00299   0.13885
   D46       -0.01100   0.00000   0.00000   0.00132   0.00132  -0.00968
   D47       -3.03551  -0.00006   0.00000  -0.00350  -0.00352  -3.03903
   D48        0.00346  -0.00003   0.00000  -0.00045  -0.00045   0.00301
   D49       -3.14070   0.00002   0.00000   0.00128   0.00128  -3.13942
   D50       -0.01081   0.00004   0.00000   0.00136   0.00135  -0.00946
   D51        3.13138   0.00005   0.00000   0.00050   0.00049   3.13187
   D52        0.01420  -0.00003   0.00000  -0.00176  -0.00176   0.01244
   D53        3.03442   0.00013   0.00000   0.00413   0.00412   3.03853
   D54       -3.12797  -0.00004   0.00000  -0.00093  -0.00093  -3.12890
   D55       -0.10775   0.00012   0.00000   0.00496   0.00495  -0.10281
   D56       -1.18901  -0.00008   0.00000  -0.00485  -0.00485  -1.19386
   D57        3.02877  -0.00005   0.00000  -0.00419  -0.00419   3.02458
   D58        1.00871  -0.00030   0.00000  -0.01100  -0.01101   0.99770
   D59        2.96529   0.00001   0.00000  -0.00181  -0.00180   2.96349
   D60        0.89989   0.00005   0.00000  -0.00114  -0.00114   0.89874
   D61       -1.12017  -0.00021   0.00000  -0.00796  -0.00796  -1.12813
   D62        0.91398  -0.00008   0.00000  -0.00414  -0.00414   0.90984
   D63       -1.15143  -0.00005   0.00000  -0.00348  -0.00348  -1.15490
   D64        3.11170  -0.00030   0.00000  -0.01029  -0.01029   3.10140
   D65        1.22255   0.00008   0.00000   0.02527   0.02523   1.24777
   D66       -3.04493   0.00044   0.00000   0.03995   0.04000  -3.00493
   D67       -2.99834  -0.00001   0.00000   0.02650   0.02645  -2.97189
   D68       -0.98263   0.00035   0.00000   0.04118   0.04122  -0.94141
   D69       -0.91811  -0.00024   0.00000   0.02526   0.02522  -0.89289
   D70        1.09760   0.00012   0.00000   0.03995   0.03999   1.13759
         Item               Value     Threshold  Converged?
 Maximum Force            0.014994     0.000450     NO 
 RMS     Force            0.002218     0.000300     NO 
 Maximum Displacement     0.144682     0.001800     NO 
 RMS     Displacement     0.029348     0.001200     NO 
 Predicted change in Energy=-7.283460D-04
 GradGradGradGradGradGradGradGradGradGradGradGradGradGradGradGradGradGrad

                          Input orientation:                          
 ---------------------------------------------------------------------
 Center     Atomic      Atomic             Coordinates (Angstroms)
 Number     Number       Type             X           Y           Z
 ---------------------------------------------------------------------
      1          8           0        1.342126    0.914804   -0.726005
      2          6           0        1.743480    0.024355    0.008000
      3          7           0        0.909512   -0.615609    0.873121
      4          6           0       -0.469407   -0.209024    1.040888
      5          6           0       -0.913152   -0.729747    2.395631
      6          8           0       -2.170533   -0.356855    2.724891
      7          8           0       -0.245710   -1.417383    3.122910
      8          6           0       -1.375308   -0.713680   -0.130691
      9          6           0       -2.547478    0.136389   -0.486596
     10          6           0       -2.801900    0.863835   -1.620825
     11          7           0       -4.030216    1.473257   -1.554322
     12          6           0       -4.521789    1.126437   -0.390726
     13          7           0       -3.672516    0.311181    0.292842
     14          6           0        3.185363   -0.464020    0.020620
     15          6           0        4.087636    0.330351   -0.917600
     16          7           0        3.730461    0.070420   -2.312607
     17          1           0        1.273383   -1.265318    1.552443
     18          1           0       -0.525854    0.882429    1.049189
     19          1           0       -2.348897   -0.738765    3.597252
     20          1           0       -0.729723   -0.733224   -1.005172
     21          1           0       -1.672164   -1.748291    0.065847
     22          1           0       -2.159729    0.975371   -2.478757
     23          1           0       -5.475817    1.429603    0.008758
     24          1           0       -3.778102   -0.023431    1.234349
     25          1           0        3.561934   -0.414397    1.046445
     26          1           0        3.195201   -1.515602   -0.277332
     27          1           0        5.116117   -0.000049   -0.760680
     28          1           0        4.040496    1.390814   -0.638276
     29          1           0        2.841779    0.519550   -2.502570
     30          1           0        4.410828    0.496603   -2.929785
 ---------------------------------------------------------------------
                    Distance matrix (angstroms):
                    1          2          3          4          5
     1  O    0.000000
     2  C    1.221781   0.000000
     3  N    2.255332   1.361430   0.000000
     4  C    2.768854   2.453200   1.447368   0.000000
     5  C    4.187534   3.650636   2.377639   1.517692   0.000000
     6  O    5.085723   4.779781   3.603148   2.398238   1.352209
     7  O    4.772261   3.967134   2.653098   2.417641   1.203020
     8  C    3.223478   3.207923   2.497531   1.564587   2.568297
     9  C    3.973949   4.320821   3.790133   2.602094   3.424682
    10  C    4.239842   4.900845   4.709894   3.698144   4.715803
    11  N    5.464434   6.154326   5.886998   4.716412   5.492853
    12  C    5.877304   6.373944   5.842179   4.500530   4.922547
    13  N    5.152577   5.431060   4.710695   3.330179   3.622064
    14  C    2.419943   1.522398   2.435002   3.803066   4.744377
    15  C    2.813559   2.538787   3.768554   4.989313   6.091731
    16  N    2.989053   3.055395   4.310134   5.381720   6.661150
    17  H    3.154201   2.066289   1.007969   2.101134   2.403900
    18  H    2.577152   2.640121   2.082160   1.092943   2.135887
    19  H    5.920176   5.496601   4.248915   3.216846   1.872255
    20  H    2.662046   2.777980   2.495778   2.128124   3.405748
    21  H    4.099396   3.848667   2.932526   2.183271   2.653569
    22  H    3.916478   4.724767   4.815241   4.080181   5.312348
    23  H    6.876718   7.354792   6.760358   5.367917   5.583715
    24  H    5.562375   5.656331   4.738658   3.319538   3.171025
    25  H    3.136224   2.139543   2.665684   4.036573   4.684670
    26  H    3.089023   2.135503   2.712546   4.107822   4.963956
    27  H    3.883447   3.459212   4.554530   5.872597   6.844475
    28  H    2.741438   2.749758   4.014115   5.071322   6.183850
    29  H    2.358255   2.784680   4.051855   4.904169   6.297033
    30  H    3.801114   3.996041   5.287563   6.330944   7.629466
                    6          7          8          9         10
     6  O    0.000000
     7  O    2.233402   0.000000
     8  C    2.985642   3.515269   0.000000
     9  C    3.270936   4.554216   1.491063   0.000000
    10  C    4.557846   5.851589   2.596964   1.371271   0.000000
    11  N    5.011925   6.674937   3.722627   2.264015   1.372799
    12  C    4.175600   6.091101   3.654311   2.210721   2.130756
    13  N    2.935488   4.768671   2.550860   1.379778   2.173826
    14  C    6.000849   4.722856   4.570005   5.786469   6.348611
    15  C    7.273560   6.177231   5.617204   6.651926   6.945851
    16  N    7.770501   6.896981   5.607535   6.538440   6.616632
    17  H    3.749732   2.190236   3.186348   4.552081   5.586668
    18  H    2.654952   3.109330   2.158994   2.646162   3.508520
    19  H    0.968856   2.260292   3.853059   4.181284   5.477396
    20  H    4.016336   4.212292   1.087142   2.080716   2.687665
    21  H    3.042200   3.389677   1.094153   2.150207   3.308228
    22  H    5.371489   6.384937   2.996935   2.196121   1.077437
    23  H    4.636131   6.719918   4.628961   3.239282   3.182054
    24  H    2.217469   4.241175   2.848367   2.121704   3.145192
    25  H    5.973413   4.451498   5.084445   6.322854   7.017591
    26  H    6.256767   4.838508   4.642643   5.979233   6.590290
    27  H    8.085282   6.770546   6.560850   7.669708   8.011313
    28  H    7.276134   6.356418   5.832451   6.708055   6.932640
    29  H    7.295046   6.703008   4.993044   5.766720   5.722510
    30  H    8.718833   7.872852   6.540572   7.383559   7.339733
                   11         12         13         14         15
    11  N    0.000000
    12  C    1.309917   0.000000
    13  N    2.211421   1.361312   0.000000
    14  C    7.635316   7.880288   6.906920   0.000000
    15  C    8.222601   8.662190   7.854012   1.524919   0.000000
    16  N    7.922819   8.538644   7.851778   2.454935   1.463278
    17  H    6.729037   6.563567   5.341710   2.577640   4.070294
    18  H    4.405440   4.254456   3.286316   4.079707   5.045527
    19  H    5.853083   4.909624   3.711264   6.595135   7.934472
    20  H    4.007914   4.267979   3.381664   4.056182   4.934147
    21  H    4.308564   4.073437   2.879994   5.024636   6.201872
    22  H    2.145039   3.156267   3.226675   6.073609   6.471694
    23  H    2.129527   1.077807   2.140903   8.865776   9.670891
    24  H    3.174951   2.125120   1.004763   7.082168   8.162468
    25  H    8.244268   8.353813   7.309695   1.093885   2.165291
    26  H    7.922791   8.157522   7.129360   1.093022   2.148005
    27  H    9.298166   9.710565   8.857022   2.133896   1.091586
    28  H    8.122951   8.569942   7.843670   2.146114   1.097645
    29  H    7.002360   7.684421   7.091812   2.729825   2.024866
    30  H    8.607960   9.307800   8.704031   3.336083   2.044745
                   16         17         18         19         20
    16  N    0.000000
    17  H    4.770749   0.000000
    18  H    5.484273   2.846635   0.000000
    19  H    8.517030   4.192780   3.527658   0.000000
    20  H    4.716829   3.291953   2.621506   4.878940   0.000000
    21  H    6.176820   3.334588   3.033427   3.734693   1.750896
    22  H    5.961618   5.749567   3.889035   6.316006   2.671266
    23  H    9.591230   7.429486   5.087635   5.230367   5.313312
    24  H    8.304711   5.211619   3.381122   2.852655   3.848619
    25  H    3.398040   2.493504   4.288563   6.445909   4.767505
    26  H    2.635206   2.665352   4.621305   6.808296   4.067788
    27  H    2.081702   4.660263   5.990512   8.675465   5.896708
    28  H    2.154750   4.417149   4.894645   7.956076   5.234610
    29  H    1.013686   4.699867   4.907915   8.107669   4.070292
    30  H    1.012640   5.747895   6.352316   9.477458   5.625111
                   21         22         23         24         25
[...]
 27,-0.08332753,0.15399384,0.00000177,-0.00000337,0.00001586,-0.0000007
 3,0.00001410,-0.00000286,-0.00000213,-0.00001901,0.00000107,0.00005959
 ,0.00003413,-0.00005999,-0.00022031,-0.00009586,-0.00000872,0.00042630
 ,0.00026781,0.00053301,-0.00011090,-0.00026571,0.00001869,0.00042845,-
 0.00071174,0.00003373,0.00047709,0.00158173,0.00052751,-0.00018998,-0.
 00088118,-0.00097833,0.00573712,0.08988760,-0.00011541,0.00014401,-0.0
 0026168,-0.00002837,-0.00028527,0.00031699,-0.00004761,0.00020380,-0.0
 0067783,0.00011943,0.00017875,0.00017132,-0.00526462,0.00107872,0.0031
 3106,0.00261495,0.00040151,-0.00506825,0.00220078,-0.00106198,-0.00009
 673,0.00022427,-0.00053964,0.00045475,-0.00388366,0.00256927,-0.008120
 35,0.00146559,0.00034844,-0.00016248,-0.00021158,0.00192688,0.00246697
 ,0.00159068,-0.00189138,-0.00616812,0.06190299,0.15825850,-0.38609216,
 0.00002018,0.00005627,-0.00000450,0.00000573,-0.00000821,0.00004902,-0
 .00000924,-0.00001542,-0.00004548,-0.00018475,-0.00004775,0.00022566,0
 .00004352,-0.00010458,0.00002207,-0.00044278,0.00020216,-0.00080586,-0
 .00030665,0.00001183,-0.00016829,0.00027421,-0.00021932,0.00004333,0.0
 0010114,0.00074818,0.00045098,-0.00025187,-0.00035617,-0.00001516,-0.0
 5981567,-0.16161433,0.40035751,-0.00397363,0.00394025,0.00244477,-0.00
 897131,-0.00560715,-0.03316288,0.00002860,0.00058191,0.00249527,0.0001
 4826,0.00044902,0.00071020,-0.00019787,0.00031859,-0.00034693,0.000005
 84,-0.00008594,0.00011208,0.00014850,-0.00009432,0.00025127,0.00018753
 ,-0.00003666,0.00005743,0.00001918,-0.00000393,0.00000420,0.00000651,-
 0.00001423,0.00000498,-0.00002359,0.00000316,0.00000056,-0.00002174,0.
 00001285,0.00000385,-0.00000237,0.00000200,-0.00000677,-0.08079876,-0.
 01465435,-0.08585186,0.00784359,0.00471327,0.01719451,-0.00247837,-0.0
 0203116,0.00331958,-0.00104530,-0.00063772,-0.00004663,-0.00007512,-0.
 00008535,0.00000305,-0.00003231,-0.00001300,-0.00000636,0.00006504,0.0
 0002676,0.00003792,-0.00002006,-0.00001157,-0.00000677,0.00000781,0.00
 000425,0.00001936,-0.00000294,0.00000131,0.00000110,0.00000272,0.00000
 298,-0.00001203,0.08777715,0.00235270,-0.00228625,-0.00098386,0.005302
 05,0.00040521,0.01224211,-0.00132871,0.00019405,0.00002965,0.00008586,
 -0.00035035,-0.00017899,-0.00007894,0.00013868,-0.00011541,0.00006630,
 -0.00004387,0.00001689,0.00008025,-0.00009568,0.00007230,-0.00011101,0
 .00000571,0.00001275,0.00000390,-0.00001433,-0.00000283,-0.00000149,-0
 .00000142,0.00000443,-0.00001165,0.00000481,0.00000516,-0.00000598,0.0
 0000683,-0.00000633,-0.00000095,0.00000317,0.00000029,-0.01301977,-0.0
 4815706,-0.02845136,0.00722666,0.00250762,0.01459007,-0.00216686,-0.00
 086041,0.00111024,-0.00053189,0.00015613,-0.00001771,0.00002804,0.0000
 3161,0.00002932,-0.00000740,0.00001028,0.00000285,0.00000107,-0.000012
 63,0.00002118,-0.00000338,-0.00000927,-0.00001588,-0.00000138,-0.00000
 316,-0.00000188,-0.00000072,0.00000100,-0.00000021,-0.00000133,0.00000
 347,-0.00000687,0.01324713,0.04988786,-0.00102358,-0.00075900,0.000784
 17,-0.00015617,0.00190676,-0.00167530,0.00107115,0.00035825,0.00035516
 ,-0.00050921,0.00027498,0.00047384,-0.00015625,0.00003638,-0.00007969,
 0.00008228,-0.00001335,0.00000280,0.00008679,-0.00004520,0.00005058,0.
 00015945,-0.00008309,-0.00005727,0.00003858,0.00004551,0.00002471,0.00
 001937,0.00001155,-0.00003091,0.00001528,-0.00002161,0.00001073,0.0000
 0258,-0.00000661,0.00000739,-0.00001836,-0.00000703,0.00003496,-0.0828
 9706,-0.02861459,-0.26184223,-0.00920051,-0.00600009,-0.01716529,0.004
 54063,0.00230123,-0.00319774,-0.00011977,-0.00061237,-0.00002125,0.000
 01573,-0.00003520,-0.00004229,-0.00001230,-0.00000085,0.00000272,0.000
 00682,0.00000150,-0.00001816,0.00000453,0.00000687,0.00000561,0.000004
 56,-0.00000052,0.00000850,-0.00000123,-0.00000224,0.00000088,-0.000012
 26,0.00000276,-0.00001023,0.09077124,0.03159743,0.28801502,-0.00571552
 ,-0.00050840,-0.00300528,0.00248132,0.03397474,0.00807338,-0.00104957,
 -0.00253080,-0.00055597,0.00027274,-0.00048927,-0.00064538,0.00010346,
 -0.00002180,-0.00013875,-0.00000215,0.00001079,0.00001529,-0.00002061,
 -0.00006466,0.00008743,-0.00019162,0.00002365,0.00009078,0.00000268,-0
 .00004513,-0.00004954,-0.00000105,-0.00000989,-0.00000668,-0.00002127,
 0.00000362,-0.00000343,-0.00000974,0.00001027,0.00000315,-0.00000275,-
 0.00000207,-0.00000466,-0.04662456,0.00853192,0.00408435,-0.00053500,-
 0.02220390,-0.00361665,0.00056617,0.00162554,-0.00132193,-0.00033853,0
 .00030566,0.00059124,0.00006909,0.00010184,-0.00011773,0.00001183,0.00
 000726,-0.00000808,0.00000372,0.00015418,0.00006947,-0.00005654,-0.000
 05026,0.00002761,0.00001215,0.00000846,0.00002508,-0.00000094,0.000002
 37,0.00000250,0.00000537,0.00000476,-0.00000336,0.00005237,-0.01216166
 ,-0.00215965,0.05280027,0.00239849,0.00064067,-0.00023628,-0.00028721,
 -0.01214038,-0.00035531,-0.00100636,0.00137626,0.00079738,0.00067452,0
 .00056625,0.00021656,0.00012189,-0.00003633,-0.00000559,-0.00009336,0.
 00001650,0.00003009,-0.00007997,0.00005879,-0.00000277,0.00004797,-0.0
 0003168,0.00001188,0.00000089,-0.00000745,0.00001483,-0.00000672,-0.00
 000033,0.00002413,-0.00001304,0.00002463,-0.00000676,-0.00000140,-0.00
 000205,-0.00000239,0.00001495,0.00001351,-0.00002277,0.00630640,-0.290
 77339,-0.05326550,-0.00124034,-0.01842289,-0.00320318,0.00151023,0.002
 24959,-0.00105028,0.00016107,-0.00033813,-0.00075103,-0.00028574,0.000
 03823,0.00009060,0.00000712,-0.00001057,-0.00001102,0.00001921,-0.0000
 6925,-0.00003818,0.00002228,0.00001620,-0.00002995,-0.00000613,-0.0000
 0927,-0.00001315,-0.00000154,-0.00000098,-0.00000205,0.00001169,-0.000
 00645,0.00000554,-0.00016736,-0.00245695,-0.00114959,-0.00545122,0.318
 70316,-0.00142480,0.00041348,-0.00088326,-0.00143053,0.00240300,-0.000
 29196,0.00134775,0.00061139,0.00017935,-0.00013750,0.00003250,-0.00013
 920,0.00013073,-0.00018523,0.00015149,-0.00007758,0.00005161,-0.000026
 52,-0.00008514,0.00013715,-0.00008683,0.00002091,-0.00001202,0.0000310
 7,-0.00000456,0.00000700,-0.00000649,-0.00000679,-0.00000143,0.0000068
 5,0.00000422,0.00000173,-0.00000885,0.00000756,-0.00000413,0.00000074,
 0.00000912,-0.00000067,-0.00000945,0.00268132,-0.05422154,-0.05498505,
 0.00007908,0.02257092,0.00395431,-0.00076955,-0.00025153,0.00223190,0.
 00058740,-0.00034904,-0.00040211,0.00001449,0.00001286,-0.00004510,0.0
 0001330,-0.00000826,-0.00000256,-0.00002150,0.00001467,-0.00002521,0.0
 0000380,0.00001324,0.00000466,0.00000013,0.00000456,-0.00000011,0.0000
 0133,-0.00000043,-0.00000014,0.00000479,-0.00000511,0.00000959,0.00119
 025,-0.02948160,-0.00575700,-0.00376429,0.05689411,0.05818190,0.000238
 45,-0.00029994,0.00027179,0.00045379,-0.00228342,0.00224107,-0.0016564
 0,0.00025451,0.00015288,0.00016780,-0.00031984,0.00018595,0.00005113,0
 .00010877,-0.00030059,-0.00014428,-0.00001768,0.00015118,-0.00005667,-
 0.00006114,0.00016785,-0.00001121,0.00004225,0.00002990,0.00000505,-0.
 00004455,-0.00002430,0.00000790,-0.00001947,0.00000554,-0.00005071,0.0
 0002725,-0.00000288,-0.00001682,0.00001230,0.00000043,0.00000141,0.000
 00708,-0.00001942,-0.01838972,0.00599298,-0.00095464,-0.27491312,0.072
 79148,-0.02957568,-0.00862185,0.00166550,-0.00441046,-0.00003103,0.000
 14610,-0.00011192,-0.00000095,0.00002136,-0.00001493,0.00000351,0.0000
 0304,-0.00001307,0.00002944,0.00002403,0.00002649,-0.00001929,-0.00001
 064,-0.00000124,0.00000895,-0.00000059,0.00001451,-0.00000459,0.000002
 15,0.00000196,0.00002371,0.00000271,-0.00000064,0.00075468,0.00036668,
 0.00034739,0.00040334,-0.00023942,-0.00061263,0.30058226,0.00086061,0.
 00141415,-0.00096072,-0.00042234,-0.00343622,0.00379707,-0.00120373,0.
 00056356,-0.00020704,-0.00014944,-0.00020623,0.00020871,-0.00008012,0.
 00006747,-0.00005316,-0.00001807,-0.00001615,0.00004305,0.00001262,-0.
 00001525,0.00000976,-0.00000706,0.00002022,0.00001259,-0.00000745,-0.0
 0000793,0.00000051,-0.00000350,0.00000126,0.00000617,0.00000048,0.0000
 0702,-0.00000015,-0.00000010,0.00000018,-0.00000253,0.00000571,0.00000
 242,-0.00000650,-0.01846801,0.00455119,-0.00091154,0.07716360,-0.07594
 761,0.00855496,-0.00926170,0.00332757,-0.00143685,-0.00001584,0.000058
 22,-0.00004192,0.00000006,0.00000464,0.00000263,-0.00001247,0.00000135
 ,0.00000844,-0.00001051,-0.00001537,-0.00000662,0.00000140,-0.00000122
 ,-0.00000479,-0.00000221,-0.00000347,-0.00000607,0.00000010,-0.0000001
 5,-0.00000099,0.00000153,-0.00000164,0.00000263,0.00072486,0.00060520,
 -0.00063825,0.00015474,0.00072806,-0.00070817,-0.07924071,0.07686347,-
 0.00000646,-0.00024860,0.00053160,0.00144496,0.00380228,-0.00290062,0.
 00168031,-0.00063094,0.00007803,-0.00001930,0.00029659,-0.00031764,0.0
 0001642,-0.00009017,0.00020495,0.00012155,0.00001687,-0.00012516,0.000
 04188,0.00002886,-0.00009860,-0.00000383,-0.00002520,-0.00005982,0.000
 00586,0.00003811,0.00001475,0.00001838,0.00001836,-0.00003260,0.000025
 78,-0.00002544,0.00001617,0.00000507,-0.00000667,0.00000278,-0.0000194
 4,-0.00001055,0.00003646,0.02170136,-0.00726763,0.00179358,-0.02436384
 ,0.00771814,-0.05093035,-0.03645405,0.00883809,-0.01101483,0.00002432,
 -0.00008098,0.00007320,0.00000428,-0.00001199,0.00000379,0.00000685,-0
 .00000184,-0.00000041,-0.00001469,-0.00001468,-0.00002135,0.00001258,0
 .00000492,0.00000787,0.00000132,-0.00000300,-0.00000284,0.00000102,-0.
 00000176,0.00000101,-0.00001955,0.00000159,-0.00000804,-0.00013549,-0.
 00069382,0.00067666,-0.00068699,-0.00008585,0.00061301,0.03397588,-0.0
 0975761,0.06525849,-0.00032317,0.00146594,-0.00052864,0.00089852,-0.00
 246722,0.00043063,0.00024861,0.00071467,-0.00046341,-0.00012415,0.0001
 5437,0.00001233,-0.00002191,-0.00004273,0.00013269,0.00003628,0.000010
 92,-0.00004882,0.00000957,0.00004651,-0.00008962,0.00000048,-0.0000142
 9,-0.00001175,-0.00000508,0.00001811,0.00001819,-0.00000252,0.00001333
 ,0.00000231,0.00002009,-0.00000367,0.00000307,0.00000721,-0.00000667,-
 0.00000219,0.00000219,0.00000139,0.00000376,0.00037697,-0.02099812,-0.
 00101333,-0.05357754,0.01680986,0.00342176,0.00269345,-0.01069112,-0.0
 0605081,0.00022296,-0.00012148,-0.00017762,-0.00005695,-0.00000704,0.0
 0003794,-0.00000341,-0.00000376,0.00000584,-0.00001831,-0.00004610,-0.
 00002229,0.00002046,0.00001088,-0.00001059,-0.00000869,-0.00000646,-0.
 00001524,0.00000149,-0.00000143,-0.00000176,-0.00000859,-0.00000426,0.
 00000178,0.00051704,0.00042377,-0.00017658,-0.00207951,-0.00235571,0.0
 0231356,-0.00107630,0.03035526,0.00445399,0.05182827,0.00044359,0.0022
 6453,-0.00079995,0.00222683,-0.00188577,0.00104500,-0.00032732,0.00036
 988,-0.00009840,0.00005226,-0.00003818,0.00002322,0.00005804,-0.000025
 22,-0.00003135,-0.00006238,0.00002095,0.00004128,-0.00003839,0.0000429
 6,0.00002060,-0.00001108,0.00001404,-0.00001108,0.00000689,-0.00000921
 ,0.00001184,0.00001308,0.00000638,-0.00000046,-0.00001559,0.00002185,0
 .00000577,-0.00000941,0.00000036,0.00000281,-0.00000242,0.00001282,-0.
 00000473,-0.00059141,-0.01797884,-0.00022140,0.01313355,-0.27869544,-0
 .03509274,-0.00265268,-0.00248822,-0.01041718,0.00007962,-0.00005630,-
 0.00026648,-0.00005152,0.00002801,-0.00000986,-0.00000020,-0.00001359,
 -0.00000848,0.00000048,-0.00002994,0.00000280,0.00001158,0.00000810,-0
 .00000983,0.00000022,-0.00001361,-0.00000300,-0.00000377,-0.00000208,-
 0.00000100,0.00000326,-0.00000867,-0.00000448,-0.00007259,-0.00012594,
 0.00068885,-0.00160267,-0.00041769,0.00237087,0.00179901,-0.00940735,-
 0.00061394,-0.01260538,0.30638382,0.00047998,-0.00031497,0.00057585,-0
 .00114582,0.00054280,0.00015784,0.00023962,-0.00009687,-0.00018870,-0.
 00016580,-0.00006592,-0.00002475,-0.00009521,0.00003701,0.00002999,0.0
 0008205,-0.00001043,-0.00003099,0.00006878,-0.00002907,-0.00001660,0.0
 0000893,-0.00000738,-0.00002583,0.00000835,0.00001884,0.00000966,0.000
 01696,0.00001481,-0.00001947,0.00001367,-0.00000709,0.00001462,-0.0000
 0115,-0.00000366,0.00000202,-0.00001246,-0.00000379,0.00002289,0.00039
 680,0.02269976,0.00355621,0.00239883,-0.03635553,-0.05394621,-0.003922
 59,-0.03598480,-0.02109076,-0.00011662,0.00006856,0.00015599,0.0000530
 4,-0.00001937,0.00000483,-0.00000768,0.00000056,0.00000411,0.00000436,
 -0.00000801,-0.00002009,0.00000260,0.00000212,0.00000203,-0.00000100,-
 0.00001110,-0.00000451,-0.00000066,-0.00000204,0.,-0.00001296,-0.00000
 044,-0.00000840,-0.00086593,-0.00051738,0.00070209,0.00334968,0.002384
 05,-0.00279429,0.00059219,0.00300959,0.00149171,-0.00303842,0.04451074
 ,0.06899976,-0.00280099,0.00113675,-0.00064068,0.00115421,-0.00217438,
 0.00245027,0.00025564,0.00086084,-0.00068100,-0.00028027,0.00007749,0.
 00001768,-0.00013390,-0.00005807,0.00024258,0.00011310,0.00000078,-0.0
 0010856,0.00005499,0.00005525,-0.00016405,-0.00003168,-0.00002712,0.00
 005845,-0.00003589,0.00003742,0.00001043,-0.00004539,0.00000685,0.0000
 4425,0.00006659,-0.00002935,-0.00000977,0.00003435,-0.00000796,-0.0000
 2149,0.00002995,-0.00001488,-0.00000013,0.00040522,0.00004188,-0.00027
 919,-0.01002959,0.00626830,-0.00561850,-0.31933698,0.13776520,-0.05653
 837,0.00014351,0.00002287,0.00005530,0.00000456,-0.00003558,0.00003050
 ,-0.00001390,0.00000344,0.00002200,-0.00008879,-0.00006866,0.00000311,
 0.00002481,0.00000974,-0.00002266,-0.00003531,0.00001900,-0.00003481,0
 .00000847,-0.00000054,-0.00000501,-0.00001770,-0.00000295,0.00001172,-
 0.00023471,0.00000044,0.00003333,-0.00006119,-0.00009410,-0.00012160,0
 .00157769,-0.00073155,-0.00176188,0.00062206,0.00028801,0.00208640,0.3
 5193509,0.00020119,-0.00194161,-0.00074361,-0.00067870,0.00116894,0.00
 068444,-0.00004134,-0.00043857,0.00032801,0.00010321,0.00006764,0.0000
 1069,-0.00000981,-0.00004127,0.00005297,0.00000313,-0.00000641,-0.0000
 2586,-0.00002167,0.00001513,-0.00003027,-0.00005094,-0.00000164,0.0001
 1811,-0.00003698,0.00000987,-0.00005886,-0.00003030,-0.00002215,0.0000
 0433,0.00002076,-0.00003644,-0.00001150,0.00002339,0.00000470,-0.00001
 353,0.00001949,-0.00002976,0.00000908,0.00137496,0.00025799,0.00084697
 ,-0.01253396,0.00011237,-0.00831718,0.18931190,-0.10896215,0.04880617,
 -0.00001978,-0.00001337,0.00007519,0.00001000,-0.00000541,-0.00001598,
 -0.00000026,0.00000936,0.00001057,-0.00007687,0.00004931,0.00002944,-0
 .00000928,-0.00001601,0.00000673,0.00000785,0.00005019,0.00000548,0.00
 000647,0.00000300,0.00000176,0.00000033,0.00000923,0.00001440,-0.00026
 986,-0.00004421,0.00001328,0.00018133,-0.00024442,0.00005510,-0.000905
 96,0.00037845,-0.00192400,-0.00122326,0.00155141,0.00060332,-0.1581449
 9,0.10533955,-0.00024815,-0.00183405,0.00387150,-0.00036290,0.00496631
 ,-0.00507879,-0.00080099,-0.00170255,0.00125772,0.00065120,-0.00016810
 ,-0.00001860,0.00031153,-0.00002645,-0.00035262,-0.00026572,0.00001106
 ,0.00016787,-0.00017701,-0.00002500,0.00023299,0.00000186,0.00004864,0
 .00005021,0.00000903,-0.00010206,-0.00002207,-0.00004533,-0.00005523,0
 .00007676,-0.00007660,0.00005776,-0.00005384,-0.00002361,0.00001836,0.
 00000757,0.00003554,0.00003679,-0.00009972,-0.00009973,0.00042520,0.00
 061968,-0.03675632,0.01787453,-0.01041291,-0.05261603,0.03442366,-0.07
 216629,-0.00019810,0.00000819,-0.00002321,0.00004106,0.00006639,-0.000
 09214,0.00002651,0.00000278,-0.00002321,0.00008762,0.00008356,0.000094
 31,-0.00004329,-0.00001415,0.00000515,0.00000892,0.00001336,0.00003838
 ,-0.00000314,0.00000620,-0.00000065,0.00004939,-0.00000072,0.00001572,
 0.00039760,-0.00022965,0.00002795,0.00003043,-0.00008332,-0.00010160,-
 0.00176396,-0.00167753,-0.00683035,0.00022626,-0.00047896,0.00151863,0
 .06702260,-0.03822224,0.08173788,-0.00024795,-0.00004726,0.00157814,-0
 .00052277,0.00115574,-0.00119966,0.00001417,-0.00034782,0.00018918,0.0
 0008839,-0.00001997,-0.00000974,0.00003705,-0.00000565,-0.00004095,-0.
 00002390,0.00000232,0.00001502,-0.00001208,-0.00000135,0.00003164,0.00
 001255,0.00000181,-0.00001429,0.00001000,-0.00001561,0.00001182,-0.000
 00609,-0.00000473,0.00001339,-0.00001096,0.00001460,-0.00001159,-0.000
 00790,0.00000015,0.00000704,0.00000416,0.00001432,-0.00002274,0.000452
 43,-0.00027016,-0.00263488,0.00880500,0.00312812,-0.01096326,-0.229267
 39,-0.07984659,0.15806625,-0.00005977,-0.00004602,0.00002029,0.0000156
 8,0.00000987,-0.00001614,0.00000243,-0.00000163,-0.00000289,0.00002376
 ,0.00000375,0.00001173,-0.00000648,0.00000129,0.00000241,0.00000257,-0
 .00000676,0.00000805,-0.00000083,0.00000037,-0.00000086,0.00000548,-0.
 00000257,0.00000126,0.00031327,0.00024826,-0.00075676,-0.00007394,0.00
 003293,0.00004672,0.00068385,0.00035385,-0.00005629,-0.00019953,-0.000
 06959,-0.00041594,-0.02328393,-0.01721005,0.02458133,0.24325274,0.0002
 0404,0.00001341,-0.00069078,0.00092093,-0.00052244,-0.00014667,-0.0002
 9964,0.00000938,0.00005027,0.00014480,-0.00004256,0.00001386,0.0001061
 5,0.00001671,-0.00010570,-0.00010208,0.00000018,0.00006149,-0.00006965
 ,-0.00001557,0.00005567,0.00000757,0.00002043,-0.00000469,-0.00000166,
 -0.00002982,-0.00000780,0.00000014,-0.00001960,0.00000396,-0.00003407,
 0.00000898,-0.00000984,-0.00000718,0.00000714,0.00000122,-0.00000121,0
 .00000424,-0.00001693,-0.00004116,-0.00016845,0.00129931,0.00561992,-0
 .00284755,-0.01314568,-0.11479808,-0.06819004,0.11770670,0.00003130,0.
 00006842,-0.00006775,-0.00001767,0.00001110,0.00000277,0.00001337,0.00
 000501,-0.00000874,0.00003818,0.00000913,0.00001986,-0.00001180,-0.000
 00703,0.00000195,0.00000878,0.00000968,0.00001397,-0.00000156,0.000003
 30,0.00000211,0.00001898,0.00000532,0.00000450,-0.00024311,0.00049992,
 0.00074423,0.00004058,0.00053636,-0.00036501,0.00017616,0.00046414,0.0
 0073086,0.00057370,0.00047095,-0.00045433,0.01479586,0.00277626,-0.013
 42280,0.09292841,0.06690302,0.00018754,-0.00042897,0.00079412,-0.00104
 490,0.00065444,-0.00052178,0.00018323,-0.00011523,0.00014631,-0.000012
 21,0.00003754,0.00003575,-0.00002900,0.00001858,-0.00001426,0.00002190
 ,-0.00000870,-0.00000572,0.00002427,-0.00001411,0.00001413,0.00002550,
 -0.00000750,-0.00002490,0.00000654,0.00000400,0.00000614,0.00000310,-0
 .00000231,-0.00000850,-0.00000158,-0.00000642,-0.00000164,-0.00000185,
 -0.00000035,0.00000378,-0.00000589,0.00000004,0.00000304,-0.00354263,-
 0.00285143,-0.00625703,0.02605565,0.01582969,-0.02397750,0.15142201,0.
 08060365,-0.19971842,-0.00009581,-0.00007174,0.00002544,0.00001275,-0.
 00000150,-0.00000675,-0.00000131,0.00000184,0.00000100,0.00002117,0.00
 000375,-0.00000039,-0.00000211,-0.00000104,0.00000536,0.00000511,0.000
 00261,0.00000790,0.00000013,0.00000065,0.00000084,-0.00000114,0.000002
 71,-0.00000143,0.00142246,0.00096913,-0.00128641,-0.00036203,-0.000154
 20,0.00020087,-0.00035863,0.00076432,0.00153855,0.00058695,-0.00065046
 ,0.00092237,-0.00608094,-0.00231297,0.00555368,-0.16843827,-0.09226602
 ,0.22256544\\-0.00000157,0.00000435,-0.00000428,0.00000123,-0.00000294
 ,0.00000210,-0.00000039,-0.00000018,0.00000025,-0.00000009,-0.00000067
 ,-0.00000025,-0.00000088,0.00000257,-0.00000363,-0.00000149,0.00000106
 ,0.00000114,0.00000333,-0.00000272,0.00000406,-0.00000024,0.00000067,0
 .00000024,0.00000011,-0.00000156,0.00000126,-0.00000055,0.00000076,-0.
 00000174,-0.00000019,0.00000153,-0.00000278,0.00000019,-0.00000064,0.0
 0000111,-0.00000277,0.00000067,0.00000031,0.00000120,0.00000081,-0.000
 00080,-0.00000099,-0.00000050,-0.00000134,-0.00000091,-0.00000182,0.00
 000016,0.00000067,-0.00000087,0.00000131,-0.00000012,0.00000128,0.0000
 0006,0.00000013,-0.00000040,0.00000150,0.00000134,-0.00000002,-0.00000
 061,-0.00000010,-0.00000109,0.00000061,0.00000064,0.,-0.00000097,-0.00
 000066,0.00000035,0.00000033,0.00000061,0.00000011,0.00000098,0.000000
 31,-0.00000046,0.00000152,0.00000019,-0.00000126,0.00000045,0.00000141
 ,-0.00000009,0.00000058,-0.00000007,0.00000026,0.00000011,-0.00000059,
 0.00000144,-0.00000076,0.00000022,-0.00000064,-0.00000093\\\@


 HOW IS IT THAT THE SKY FEEDS THE STARS?

                           -- LUCRETIUS
 Job cpu time:       0 days 13 hours 24 minutes 54.7 seconds.
 File lengths (MBytes):  RWF=    973 Int=      0 D2E=      0 Chk=     36 Scr=      1
 Normal termination of Gaussian 09 at Thu Jul 29 06:17:58 2021.
