 Entering Gaussian System, Link 0=g09
 Input=opt_freq-conf-599.com
 Output=opt_freq-conf-599.log
 Initial command:
 /aerosol/software/g09/l1.exe "/scratch/nicole/10716/Gau-86489.inp" -scrdir="/scratch/nicole/10716/"
 Entering Link 1 = /aerosol/software/g09/l1.exe PID=     86490.
  
 Copyright (c) 1988,1990,1992,1993,1995,1998,2003,2009,2013,
            Gaussian, Inc.  All Rights Reserved.
  
 This is part of the Gaussian(R) 09 program.  It is based on
 the Gaussian(R) 03 system (copyright 2003, Gaussian, Inc.),
 the Gaussian(R) 98 system (copyright 1998, Gaussian, Inc.),
 the Gaussian(R) 94 system (copyright 1995, Gaussian, Inc.),
 the Gaussian 92(TM) system (copyright 1992, Gaussian, Inc.),
 the Gaussian 90(TM) system (copyright 1990, Gaussian, Inc.),
 the Gaussian 88(TM) system (copyright 1988, Gaussian, Inc.),
 the Gaussian 86(TM) system (copyright 1986, Carnegie Mellon
 University), and the Gaussian 82(TM) system (copyright 1983,
 Carnegie Mellon University). Gaussian is a federally registered
 trademark of Gaussian, Inc.
  
 This software contains proprietary and confidential information,
 including trade secrets, belonging to Gaussian, Inc.
  
 This software is provided under written license and may be
 used, copied, transmitted, or stored only in accord with that
 written license.
  
 The following legend is applicable only to US Government
 contracts under FAR:
  
                    RESTRICTED RIGHTS LEGEND
  
 Use, reproduction and disclosure by the US Government is
 subject to restrictions as set forth in subparagraphs (a)
 and (c) of the Commercial Computer Software - Restricted
 Rights clause in FAR 52.227-19.
  
 Gaussian, Inc.
 340 Quinnipiac St., Bldg. 40, Wallingford CT 06492
  
  
 ---------------------------------------------------------------
 Warning -- This program may not be used in any manner that
 competes with the business of Gaussian, Inc. or will provide
 assistance to any competitor of Gaussian, Inc.  The licensee
 of this program is prohibited from giving any competitor of
 Gaussian, Inc. access to this program.  By using this program,
 the user acknowledges that Gaussian, Inc. is engaged in the
 business of creating and licensing software in the field of
 computational chemistry and represents and warrants to the
 licensee that it is not a competitor of Gaussian, Inc. and that
 it will not use this program in any manner prohibited above.
 ---------------------------------------------------------------
  

 Cite this work as:
 Gaussian 09, Revision D.01,
 M. J. Frisch, G. W. Trucks, H. B. Schlegel, G. E. Scuseria, 
 M. A. Robb, J. R. Cheeseman, G. Scalmani, V. Barone, B. Mennucci, 
 G. A. Petersson, H. Nakatsuji, M. Caricato, X. Li, H. P. Hratchian, 
 A. F. Izmaylov, J. Bloino, G. Zheng, J. L. Sonnenberg, M. Hada, 
 M. Ehara, K. Toyota, R. Fukuda, J. Hasegawa, M. Ishida, T. Nakajima, 
 Y. Honda, O. Kitao, H. Nakai, T. Vreven, J. A. Montgomery, Jr., 
 J. E. Peralta, F. Ogliaro, M. Bearpark, J. J. Heyd, E. Brothers, 
 K. N. Kudin, V. N. Staroverov, T. Keith, R. Kobayashi, J. Normand, 
 K. Raghavachari, A. Rendell, J. C. Burant, S. S. Iyengar, J. Tomasi, 
 M. Cossi, N. Rega, J. M. Millam, M. Klene, J. E. Knox, J. B. Cross, 
 V. Bakken, C. Adamo, J. Jaramillo, R. Gomperts, R. E. Stratmann, 
 O. Yazyev, A. J. Austin, R. Cammi, C. Pomelli, J. W. Ochterski, 
 R. L. Martin, K. Morokuma, V. G. Zakrzewski, G. A. Voth, 
 P. Salvador, J. J. Dannenberg, S. Dapprich, A. D. Daniels, 
 O. Farkas, J. B. Foresman, J. V. Ortiz, J. Cioslowski, 
 and D. J. Fox, Gaussian, Inc., Wallingford CT, 2013.
 
 ******************************************
 Gaussian 09:  ES64L-G09RevD.01 24-Apr-2013
                29-Jul-2021 
 ******************************************
 %mem=2gb
 %nproc=4
 Will use up to    4 processors via shared memory.
 %chk=conf-599.chk
 ----------------------------------------------------------------------
 # B3LYP/6-311G(2df,2pd) guess=read geom=checkpoint opt=readfc freq=nor
 aman nosymm integral(ultrafinegrid)
 ----------------------------------------------------------------------
 1/10=3,14=-1,18=20,19=15,26=4,29=2,38=1/1,3;
 2/9=110,12=2,15=1,40=1/2;
 3/5=4,6=6,7=404,11=2,14=-4,16=1,25=1,30=1,71=1,74=-5,75=-5,116=-2/1,2,3;
 4/5=1/1;
 5/5=2,38=6/2;
 6/7=2,8=2,9=2,10=2,28=1/1;
 7/30=1/1,2,3,16;
 1/14=-1,18=20,19=15,26=4/3(2);
 2/9=110,15=1/2;
 99//99;
 2/9=110,15=1/2;
 3/5=4,6=6,7=404,11=2,14=-2,16=1,25=1,30=1,71=1,74=-5,75=-5/1,2,3;
 4/5=5,16=3,69=1/1;
 5/5=2,38=5/2;
 7/30=1/1,2,3,16;
 1/14=-1,18=20,19=15,26=4/3(-5);
 2/9=110,15=1/2;
 6/7=2,8=2,9=2,10=2,19=2,28=1/1;
 99/9=1/99;
 ------------------------------------------------------------
 Candidate Structure: Conf:599 OPT and FREQ calc in gas phase
 ------------------------------------------------------------
 Structure from the checkpoint file:  "conf-599.chk"
 Charge =  0 Multiplicity = 1
 Redundant internal coordinates found in file.
 O,0,2.7226137949,1.6195817252,0.7722492757
 C,0,1.9180073062,0.7914870503,0.3761472159
 N,0,1.052710042,1.1321026896,-0.6695433071
 C,0,-0.2224776186,0.4791952601,-0.9804497781
 C,0,-0.3752011815,0.3598121915,-2.5137929793
 O,0,0.7733690765,0.3763351359,-3.2005520457
 O,0,-1.4425509725,0.2318850028,-3.0736405468
 C,0,-1.4447340103,1.1678312871,-0.3113128635
 C,0,-2.6246905927,0.2811262317,-0.065913836
 C,0,-3.2384503882,-0.1118020681,1.1035341115
 N,0,-4.3150204657,-0.9283229768,0.8473487029
 C,0,-4.3550750604,-1.033090278,-0.4659366174
 N,0,-3.3618356221,-0.3189585169,-1.0669931285
 C,0,1.8429331549,-0.6251360476,0.9288361723
 C,0,2.9564684357,-0.9171821223,1.9564562279
 N,0,4.328192811,-0.8641984382,1.4705220233
 H,0,1.0790468466,2.136176315,-0.8312263563
 H,0,-0.1643984909,-0.5493997543,-0.6117129753
 H,0,1.4894817579,0.5523774207,-2.5587153465
 H,0,-1.724269529,2.046295475,-0.9077686532
 H,0,-1.1116324011,1.5400672603,0.6620530827
 H,0,-2.9657427804,0.1623866564,2.1143814295
 H,0,-5.0750301408,-1.6092216099,-1.0308778753
 H,0,-3.1174852492,-0.2578971847,-2.0491142819
 H,0,0.8587488802,-0.7720566058,1.3961677571
 H,0,1.8940872348,-1.3425965897,0.097948977
 H,0,2.8650834446,-0.202651679,2.7802107573
 H,0,2.770612056,-1.9117287378,2.3775192209
 H,0,4.4629020398,-1.506525058,0.6933153777
 H,0,4.5242642625,0.0741665953,1.1331519891
 Recover connectivity data from disk.

 GradGradGradGradGradGradGradGradGradGradGradGradGradGradGradGradGradGrad
 Berny optimization.
 Initialization pass.
 Force constant matrix read from checkpoint file:
 "conf-599.chk"
                           ----------------------------
                           !    Initial Parameters    !
                           ! (Angstroms and Degrees)  !
 --------------------------                            --------------------------
 ! Name  Definition              Value          Derivative Info.                !
 --------------------------------------------------------------------------------
 ! R1    R(1,2)                  1.2207         D2E/DX2 =    0.8211             !
 ! R2    R(2,3)                  1.3994         D2E/DX2 =    0.372              !
 ! R3    R(2,14)                 1.5225         D2E/DX2 =    0.2694             !
 ! R4    R(3,4)                  1.466          D2E/DX2 =    0.3103             !
 ! R5    R(3,17)                 1.0173         D2E/DX2 =    0.4476             !
 ! R6    R(4,5)                  1.5455         D2E/DX2 =    0.2594             !
 ! R7    R(4,8)                  1.5543         D2E/DX2 =    0.259              !
 ! R8    R(4,18)                 1.0942         D2E/DX2 =    0.34               !
 ! R9    R(5,6)                  1.3383         D2E/DX2 =    0.439              !
 ! R10   R(5,7)                  1.212          D2E/DX2 =    0.8586             !
 ! R11   R(6,19)                 0.9776         D2E/DX2 =    0.4727             !
 ! R12   R(8,9)                  1.4963         D2E/DX2 =    0.3252             !
 ! R13   R(8,20)                 1.098          D2E/DX2 =    0.3286             !
 ! R14   R(8,21)                 1.0941         D2E/DX2 =    0.3389             !
 ! R15   R(9,10)                 1.3779         D2E/DX2 =    0.4055             !
 ! R16   R(9,13)                 1.3805         D2E/DX2 =    0.3711             !
 ! R17   R(10,11)                1.3753         D2E/DX2 =    0.3393             !
 ! R18   R(10,22)                1.0823         D2E/DX2 =    0.3698             !
 ! R19   R(11,12)                1.3181         D2E/DX2 =    0.4553             !
 ! R20   R(12,13)                1.363          D2E/DX2 =    0.3683             !
 ! R21   R(12,23)                1.0814         D2E/DX2 =    0.3737             !
 ! R22   R(13,24)                1.0139         D2E/DX2 =    0.457              !
 ! R23   R(14,15)                1.5431         D2E/DX2 =    0.2577             !
 ! R24   R(14,25)                1.0994         D2E/DX2 =    0.3273             !
 ! R25   R(14,26)                1.099          D2E/DX2 =    0.328              !
 ! R26   R(15,16)                1.4562         D2E/DX2 =    0.3417             !
 ! R27   R(15,27)                1.0943         D2E/DX2 =    0.3389             !
 ! R28   R(15,28)                1.0959         D2E/DX2 =    0.3336             !
 ! R29   R(16,29)                1.0172         D2E/DX2 =    0.4451             !
 ! R30   R(16,30)                1.0163         D2E/DX2 =    0.4522             !
 ! A1    A(1,2,3)              119.0088         D2E/DX2 =    0.2057             !
 ! A2    A(1,2,14)             123.0885         D2E/DX2 =    0.1848             !
 ! A3    A(3,2,14)             117.8568         D2E/DX2 =    0.1942             !
 ! A4    A(2,3,4)              126.0118         D2E/DX2 =    0.158              !
 ! A5    A(2,3,17)             110.0587         D2E/DX2 =    0.0868             !
 ! A6    A(4,3,17)             115.3647         D2E/DX2 =    0.0858             !
 ! A7    A(3,4,5)              109.3153         D2E/DX2 =    0.1261             !
 ! A8    A(3,4,8)              113.2911         D2E/DX2 =    0.0969             !
 ! A9    A(3,4,18)             107.519          D2E/DX2 =    0.0305             !
 ! A10   A(5,4,8)              112.5583         D2E/DX2 =    0.1372             !
 ! A11   A(5,4,18)             105.4832         D2E/DX2 =    0.0244             !
 ! A12   A(8,4,18)             108.2485         D2E/DX2 =    0.0322             !
 ! A13   A(4,5,6)              115.0454         D2E/DX2 =    0.2125             !
 ! A14   A(4,5,7)              123.6027         D2E/DX2 =    0.2048             !
 ! A15   A(6,5,7)              121.335          D2E/DX2 =    0.203              !
 ! A16   A(5,6,19)             107.0958         D2E/DX2 =    0.2026             !
 ! A17   A(4,8,9)              115.3523         D2E/DX2 =    0.1876             !
 ! A18   A(4,8,20)             108.7117         D2E/DX2 =    0.0663             !
 ! A19   A(4,8,21)             107.1176         D2E/DX2 =    0.0643             !
 ! A20   A(9,8,20)             111.251          D2E/DX2 =    0.0543             !
 ! A21   A(9,8,21)             107.2065         D2E/DX2 =    0.0626             !
 ! A22   A(20,8,21)            106.7742         D2E/DX2 =    0.0206             !
 ! A23   A(8,9,10)             131.2577         D2E/DX2 =    0.1199             !
 ! A24   A(8,9,13)             124.0409         D2E/DX2 =    0.1382             !
 ! A25   A(10,9,13)            104.6937         D2E/DX2 =    0.103              !
 ! A26   A(9,10,11)            111.0933         D2E/DX2 =    0.1155             !
 ! A27   A(9,10,22)            127.4591         D2E/DX2 =    0.0824             !
 ! A28   A(11,10,22)           121.4426         D2E/DX2 =    0.0901             !
 ! A29   A(10,11,12)           104.8676         D2E/DX2 =    0.1323             !
 ! A30   A(11,12,13)           112.0608         D2E/DX2 =    0.1198             !
 ! A31   A(11,12,23)           125.669          D2E/DX2 =    0.0898             !
 ! A32   A(13,12,23)           122.2702         D2E/DX2 =    0.0906             !
 ! A33   A(9,13,12)            107.283          D2E/DX2 =    0.1038             !
 ! A34   A(9,13,24)            123.2012         D2E/DX2 =    0.0832             !
 ! A35   A(12,13,24)           129.3704         D2E/DX2 =    0.0761             !
 ! A36   A(2,14,15)            112.4738         D2E/DX2 =    0.1736             !
 ! A37   A(2,14,25)            108.833          D2E/DX2 =    0.054              !
 ! A38   A(2,14,26)            109.3111         D2E/DX2 =    0.0511             !
 ! A39   A(15,14,25)           109.7325         D2E/DX2 =    0.0539             !
 ! A40   A(15,14,26)           110.2636         D2E/DX2 =    0.0575             !
 ! A41   A(25,14,26)           106.0108         D2E/DX2 =    0.021              !
 ! A42   A(14,15,16)           116.7843         D2E/DX2 =    0.1595             !
 ! A43   A(14,15,27)           108.5092         D2E/DX2 =    0.062              !
 ! A44   A(14,15,28)           107.7726         D2E/DX2 =    0.0629             !
 ! A45   A(16,15,27)           107.8247         D2E/DX2 =    0.0603             !
 ! A46   A(16,15,28)           108.7227         D2E/DX2 =    0.0614             !
 ! A47   A(27,15,28)           106.8092         D2E/DX2 =    0.0201             !
 ! A48   A(15,16,29)           110.8991         D2E/DX2 =    0.1444             !
 ! A49   A(15,16,30)           109.033          D2E/DX2 =    0.1461             !
 ! A50   A(29,16,30)           107.6891         D2E/DX2 =    0.0575             !
 ! D1    D(1,2,3,4)           -158.7261         D2E/DX2 =    0.0115             !
 ! D2    D(1,2,3,17)           -12.7115         D2E/DX2 =    0.0115             !
 ! D3    D(14,2,3,4)            23.6603         D2E/DX2 =    0.0078             !
 ! D4    D(14,2,3,17)          169.6748         D2E/DX2 =    0.0099             !
 ! D5    D(1,2,14,15)           -4.2778         D2E/DX2 =    0.0131             !
 ! D6    D(1,2,14,25)          117.5347         D2E/DX2 =    0.0152             !
 ! D7    D(1,2,14,26)         -127.105          D2E/DX2 =    0.0162             !
 ! D8    D(3,2,14,15)          173.2313         D2E/DX2 =    0.0137             !
 ! D9    D(3,2,14,25)          -64.9563         D2E/DX2 =    0.0157             !
 ! D10   D(3,2,14,26)           50.404          D2E/DX2 =    0.0158             !
 ! D11   D(2,3,4,5)           -140.5181         D2E/DX2 =    0.0199             !
 ! D12   D(2,3,4,8)             93.0795         D2E/DX2 =    0.0171             !
 ! D13   D(2,3,4,18)           -26.4843         D2E/DX2 =    0.0091             !
 ! D14   D(17,3,4,5)            75.0093         D2E/DX2 =    0.0197             !
 ! D15   D(17,3,4,8)           -51.3931         D2E/DX2 =    0.0177             !
 ! D16   D(17,3,4,18)         -170.9569         D2E/DX2 =    0.0112             !
 ! D17   D(3,4,5,6)             23.6417         D2E/DX2 =    0.0246             !
 ! D18   D(3,4,5,7)           -157.8369         D2E/DX2 =    0.0234             !
 ! D19   D(8,4,5,6)            150.4613         D2E/DX2 =    0.0196             !
 ! D20   D(8,4,5,7)            -31.0173         D2E/DX2 =    0.0184             !
 ! D21   D(18,4,5,6)           -91.704          D2E/DX2 =    0.016              !
 ! D22   D(18,4,5,7)            86.8174         D2E/DX2 =    0.0174             !
 ! D23   D(3,4,8,9)           -153.9668         D2E/DX2 =    0.023              !
 ! D24   D(3,4,8,20)            80.3044         D2E/DX2 =    0.0183             !
 ! D25   D(3,4,8,21)           -34.7288         D2E/DX2 =    0.0187             !
 ! D26   D(5,4,8,9)             81.3685         D2E/DX2 =    0.0391             !
 ! D27   D(5,4,8,20)           -44.3603         D2E/DX2 =    0.02               !
 ! D28   D(5,4,8,21)          -159.3935         D2E/DX2 =    0.0264             !
 ! D29   D(18,4,8,9)           -34.8215         D2E/DX2 =    0.0155             !
 ! D30   D(18,4,8,20)         -160.5503         D2E/DX2 =    0.0147             !
 ! D31   D(18,4,8,21)           84.4165         D2E/DX2 =    0.014              !
 ! D32   D(4,5,6,19)            -5.4153         D2E/DX2 =    0.0183             !
 ! D33   D(7,5,6,19)           176.0265         D2E/DX2 =    0.0242             !
 ! D34   D(4,8,9,10)           116.859          D2E/DX2 =    0.0149             !
 ! D35   D(4,8,9,13)           -64.3144         D2E/DX2 =    0.017              !
 ! D36   D(20,8,9,10)         -118.7275         D2E/DX2 =    0.0143             !
 ! D37   D(20,8,9,13)           60.099          D2E/DX2 =    0.0147             !
 ! D38   D(21,8,9,10)           -2.3299         D2E/DX2 =    0.0134             !
 ! D39   D(21,8,9,13)          176.4966         D2E/DX2 =    0.0144             !
 ! D40   D(8,9,10,11)          179.1513         D2E/DX2 =    0.0097             !
 ! D41   D(8,9,10,22)           -0.0385         D2E/DX2 =    0.007              !
 ! D42   D(13,9,10,11)           0.1565         D2E/DX2 =    0.0145             !
 ! D43   D(13,9,10,22)        -179.0333         D2E/DX2 =    0.0096             !
 ! D44   D(8,9,13,12)         -179.4221         D2E/DX2 =    0.0082             !
 ! D45   D(8,9,13,24)            4.5916         D2E/DX2 =    0.0039             !
 ! D46   D(10,9,13,12)          -0.3341         D2E/DX2 =    0.0127             !
 ! D47   D(10,9,13,24)        -176.3204         D2E/DX2 =    0.0063             !
 ! D48   D(9,10,11,12)           0.0886         D2E/DX2 =    0.0176             !
 ! D49   D(22,10,11,12)        179.3348         D2E/DX2 =    0.0099             !
 ! D50   D(10,11,12,13)         -0.3122         D2E/DX2 =    0.0188             !
 ! D51   D(10,11,12,23)        179.6016         D2E/DX2 =    0.0108             !
 ! D52   D(11,12,13,9)           0.4201         D2E/DX2 =    0.0176             !
 ! D53   D(11,12,13,24)        176.0751         D2E/DX2 =    0.0093             !
 ! D54   D(23,12,13,9)        -179.4971         D2E/DX2 =    0.0107             !
 ! D55   D(23,12,13,24)         -3.8421         D2E/DX2 =    0.0067             !
 ! D56   D(2,14,15,16)         -63.0623         D2E/DX2 =    0.0161             !
 ! D57   D(2,14,15,27)          58.9832         D2E/DX2 =    0.0138             !
 ! D58   D(2,14,15,28)         174.2955         D2E/DX2 =    0.0151             !
 ! D59   D(25,14,15,16)        175.6377         D2E/DX2 =    0.0164             !
 ! D60   D(25,14,15,27)        -62.3169         D2E/DX2 =    0.0152             !
 ! D61   D(25,14,15,28)         52.9954         D2E/DX2 =    0.0152             !
 ! D62   D(26,14,15,16)         59.2283         D2E/DX2 =    0.0149             !
 ! D63   D(26,14,15,27)       -178.7263         D2E/DX2 =    0.0151             !
 ! D64   D(26,14,15,28)        -63.414          D2E/DX2 =    0.0152             !
 ! D65   D(14,15,16,29)        -56.9782         D2E/DX2 =    0.0139             !
 ! D66   D(14,15,16,30)         61.4323         D2E/DX2 =    0.0162             !
 ! D67   D(27,15,16,29)       -179.38           D2E/DX2 =    0.0166             !
 ! D68   D(27,15,16,30)        -60.9696         D2E/DX2 =    0.0171             !
 ! D69   D(28,15,16,29)         65.1703         D2E/DX2 =    0.0162             !
 ! D70   D(28,15,16,30)       -176.4192         D2E/DX2 =    0.0177             !
 --------------------------------------------------------------------------------
 Trust Radius=3.00D-01 FncErr=1.00D-07 GrdErr=1.00D-06
 Number of steps in this run=    160 maximum allowed number of steps=    180.
 GradGradGradGradGradGradGradGradGradGradGradGradGradGradGradGradGradGrad

                          Input orientation:                          
 ---------------------------------------------------------------------
 Center     Atomic      Atomic             Coordinates (Angstroms)
 Number     Number       Type             X           Y           Z
 ---------------------------------------------------------------------
      1          8           0        2.722614    1.619582    0.772249
      2          6           0        1.918007    0.791487    0.376147
      3          7           0        1.052710    1.132103   -0.669543
      4          6           0       -0.222478    0.479195   -0.980450
      5          6           0       -0.375201    0.359812   -2.513793
      6          8           0        0.773369    0.376335   -3.200552
      7          8           0       -1.442551    0.231885   -3.073641
      8          6           0       -1.444734    1.167831   -0.311313
      9          6           0       -2.624691    0.281126   -0.065914
     10          6           0       -3.238450   -0.111802    1.103534
     11          7           0       -4.315020   -0.928323    0.847349
     12          6           0       -4.355075   -1.033090   -0.465937
     13          7           0       -3.361836   -0.318959   -1.066993
     14          6           0        1.842933   -0.625136    0.928836
     15          6           0        2.956468   -0.917182    1.956456
     16          7           0        4.328193   -0.864198    1.470522
     17          1           0        1.079047    2.136176   -0.831226
     18          1           0       -0.164398   -0.549400   -0.611713
     19          1           0        1.489482    0.552377   -2.558715
     20          1           0       -1.724270    2.046295   -0.907769
     21          1           0       -1.111632    1.540067    0.662053
     22          1           0       -2.965743    0.162387    2.114381
     23          1           0       -5.075030   -1.609222   -1.030878
     24          1           0       -3.117485   -0.257897   -2.049114
     25          1           0        0.858749   -0.772057    1.396168
     26          1           0        1.894087   -1.342597    0.097949
     27          1           0        2.865083   -0.202652    2.780211
     28          1           0        2.770612   -1.911729    2.377519
     29          1           0        4.462902   -1.506525    0.693315
     30          1           0        4.524264    0.074167    1.133152
 ---------------------------------------------------------------------
                    Distance matrix (angstroms):
                    1          2          3          4          5
     1  O    0.000000
     2  C    1.220668   0.000000
     3  N    2.259420   1.399367   0.000000
     4  C    3.611925   2.553342   1.465965   0.000000
     5  C    4.688449   3.714418   2.456953   1.545548   0.000000
     6  O    4.596560   3.778270   2.656167   2.435394   1.338329
     7  O    5.836537   4.848458   3.580000   2.435403   1.212036
     8  C    4.329547   3.452863   2.523258   1.554308   2.578316
     9  C    5.575630   4.592602   3.822539   2.578029   3.325433
    10  C    6.216247   5.285270   4.806783   3.713268   4.637421
    11  N    7.485035   6.483087   5.946330   4.697964   5.336548
    12  C    7.659207   6.587090   5.828692   4.430586   4.687567
    13  N    6.645395   5.585023   4.663878   3.240387   3.387321
    14  C    2.416012   1.522472   2.503429   3.021728   4.212118
    15  C    2.809307   2.548593   3.836631   4.547635   5.719604
    16  N    3.038854   3.122170   4.392481   5.340465   6.284495
    17  H    2.353575   1.992434   1.017349   2.112302   2.846285
    18  H    3.867127   2.666507   2.076571   1.094234   2.118729
    19  H    3.708755   2.975605   2.023814   2.329610   1.875138
    20  H    4.772768   4.060685   2.933277   2.171742   2.691380
    21  H    3.836653   3.133821   2.573706   2.147990   3.467179
    22  H    6.023466   5.221900   4.983829   4.147753   5.307531
    23  H    8.630162   7.526333   6.722694   5.283114   5.307026
    24  H    6.752168   5.686764   4.607151   3.172762   2.849143
    25  H    3.095674   2.146425   2.816133   2.895340   4.253417
    26  H    3.148911   2.152273   2.724169   2.993613   3.856042
    27  H    2.715279   2.768535   4.119110   4.913300   6.232358
    28  H    3.879349   3.469842   4.636883   5.094218   6.243475
    29  H    3.578740   3.443537   4.522074   5.356991   6.097213
    30  H    2.400938   2.807166   4.052237   5.211806   6.114455
                    6          7          8          9         10
     6  O    0.000000
     7  O    2.224247   0.000000
     8  C    3.727486   2.916583   0.000000
     9  C    4.624049   3.232073   1.496250   0.000000
    10  C    5.904077   4.559843   2.618525   1.377934   0.000000
    11  N    6.631692   4.997131   3.738302   2.270249   1.375260
    12  C    5.980430   4.108902   3.652129   2.209392   2.135149
    13  N    4.704830   2.830851   2.541038   1.380451   2.183879
    14  C    4.381639   5.248687   3.944801   4.665887   5.110234
    15  C    5.747508   6.780384   5.372210   6.056010   6.305009
    16  N    5.999552   7.426459   6.374227   7.212142   7.612810
    17  H    2.967185   3.874687   2.752721   4.212432   5.238080
    18  H    2.904906   2.881869   2.162957   2.653433   3.547303
    19  H    0.977631   2.994107   3.746895   4.818096   6.017188
    20  H    3.779394   2.839446   1.097998   2.152975   3.315941
    21  H    4.452777   3.971933   1.094056   2.098622   2.728907
    22  H    6.501942   5.407450   3.034531   2.210001   1.082294
    23  H    6.546273   4.556035   4.626969   3.241718   3.189201
    24  H    4.106922   2.023597   2.801919   2.113404   3.158349
    25  H    4.738768   5.126701   3.461891   3.921891   4.160362
    26  H    3.884694   4.865298   4.197317   4.804444   5.372988
    27  H    6.362391   7.280942   5.478163   6.202587   6.330294
    28  H    6.351307   7.215329   5.872193   6.315716   6.400907
    29  H    5.685070   7.217091   6.562136   7.348884   7.837370
    30  H    5.739470   7.302387   6.237910   7.251769   7.764998
                   11         12         13         14         15
    11  N    0.000000
    12  C    1.318066   0.000000
    13  N    2.223644   1.363003   0.000000
    14  C    6.165951   6.366092   5.582714   0.000000
    15  C    7.355596   7.703252   7.029942   1.543131   0.000000
    16  N    8.665887   8.898176   8.116206   2.554817   1.456217
    17  H    6.426876   6.301378   5.079834   3.362468   4.540802
    18  H    4.415892   4.221016   3.237899   2.531483   4.058395
    19  H    6.891008   6.407205   5.149732   3.697902   4.969751
    20  H    4.317497   4.074183   2.881215   4.820228   6.236609
    21  H    4.048331   4.291086   3.392491   3.672701   4.925749
    22  H    2.148388   3.165036   3.241871   5.014885   6.021876
    23  H    2.137516   1.081398   2.145022   7.257212   8.596979
    24  H    3.205161   2.153835   1.013902   5.797310   7.305626
    25  H    5.205143   5.542520   4.907728   1.099365   2.176100
    26  H    6.267874   6.282180   5.479932   1.098972   2.182586
    27  H    7.471041   7.959761   7.320453   2.156588   1.094293
    28  H    7.315374   7.722219   7.211692   2.148160   1.095883
    29  H    8.798293   8.906443   8.107744   2.774266   2.052363
    30  H    8.900541   9.089872   8.196692   2.778544   2.029430
                   16         17         18         19         20
    16  N    0.000000
    17  H    4.985704   0.000000
    18  H    4.961671   2.967602   0.000000
    19  H    5.128325   2.379305   2.782095   0.000000
    20  H    7.124573   2.805801   3.042775   3.909682   0.000000
    21  H    6.002151   2.717408   2.624044   4.256134   1.759526
    22  H    7.393912   5.378919   3.973130   6.468304   3.771440
    23  H    9.758722   7.206978   5.041153   7.078108   4.960399
    24  H    8.257939   4.982542   3.297244   4.705357   2.924555
    25  H    3.471464   3.669828   2.264507   4.218181   4.463543
    26  H    2.835082   3.691818   2.317357   3.288236   5.058514
    27  H    2.072105   4.658596   4.561046   5.564753   6.302469
    28  H    2.084711   5.435345   4.405194   5.663879   6.831035
    29  H    1.017241   5.200382   4.902152   4.863745   7.312120
    30  H    1.016263   4.469921   5.041522   4.802965   6.862858
                   21         22         23         24         25
    21  H    0.000000
    22  H    2.728550   0.000000
    23  H    5.337842   4.180950   0.000000
    24  H    3.821852   4.187405   2.587444   0.000000
    25  H    3.125259   4.001968   6.465379   5.286281   0.000000
    26  H    4.202656   5.472561   7.064980   5.558985   1.755794
    27  H    4.830935   5.880061   8.918982   7.688729   2.503033
    28  H    5.470790   6.105486   8.559368   7.549830   2.432514
    29  H    6.352805   7.745286   9.693067   8.157344   3.744778
    30  H    5.842442   7.554522   9.983150   8.284529   3.771110
                   26         27         28         29         30
    26  H    0.000000
    27  H    3.071943   0.000000
    28  H    2.507718   1.758417   0.000000
    29  H    2.641996   2.933981   2.421689   0.000000
    30  H    3.161755   2.354212   2.927034   1.641891   0.000000
 Symmetry turned off by external request.
 Stoichiometry    C9H14N4O3
 Framework group  C1[X(C9H14N4O3)]
 Deg. of freedom    84
 Full point group                 C1      NOp   1
 Rotational constants (GHZ):      0.7608812      0.2808921      0.2292152
 Standard basis: 6-311G(2df,2pd) (5D, 7F)
   676 basis functions,  1006 primitive gaussians,   770 cartesian basis functions
    60 alpha electrons       60 beta electrons
       nuclear repulsion energy      1108.8831503883 Hartrees.
 NAtoms=   30 NActive=   30 NUniq=   30 SFac= 1.00D+00 NAtFMM=   60 NAOKFM=F Big=F
 Integral buffers will be    131072 words long.
 Raffenetti 2 integral format.
 Two-electron integral symmetry is turned off.
 One-electron integrals computed using PRISM.
 NBasis=   676 RedAO= T EigKep=  2.25D-04  NBF=   676
 NBsUse=   676 1.00D-06 EigRej= -1.00D+00 NBFU=   676
 Initial guess from the checkpoint file:  "conf-599.chk"
 B after Tr=     0.000000    0.000000    0.000000
         Rot=    1.000000    0.000000    0.000000    0.000000 Ang=   0.00 deg.
 Requested convergence on RMS density matrix=1.00D-08 within 128 cycles.
 Requested convergence on MAX density matrix=1.00D-06.
 Requested convergence on             energy=1.00D-06.
 No special actions if energy rises.
 SCF Done:  E(RB3LYP) =  -796.356583672     A.U. after   11 cycles
            NFock= 11  Conv=0.63D-08     -V/T= 2.0041

 **********************************************************************

            Population analysis using the SCF density.

 **********************************************************************

 Alpha  occ. eigenvalues --  -19.19423 -19.13896 -19.12282 -14.37679 -14.36049
 Alpha  occ. eigenvalues --  -14.29196 -14.28760 -10.33530 -10.30813 -10.26717
 Alpha  occ. eigenvalues --  -10.22066 -10.21623 -10.20814 -10.20791 -10.20604
 Alpha  occ. eigenvalues --  -10.18252  -1.13650  -1.07418  -1.05350  -1.01298
 Alpha  occ. eigenvalues --   -0.96339  -0.89093  -0.87026  -0.81784  -0.78032
 Alpha  occ. eigenvalues --   -0.75050  -0.69097  -0.66373  -0.64267  -0.61117
 Alpha  occ. eigenvalues --   -0.59794  -0.59266  -0.57512  -0.54857  -0.53869
 Alpha  occ. eigenvalues --   -0.51578  -0.49427  -0.48946  -0.48506  -0.47479
 Alpha  occ. eigenvalues --   -0.46176  -0.44719  -0.44299  -0.43767  -0.43443
 Alpha  occ. eigenvalues --   -0.42248  -0.41291  -0.40865  -0.40330  -0.39203
 Alpha  occ. eigenvalues --   -0.38615  -0.36994  -0.35343  -0.32687  -0.30810
 Alpha  occ. eigenvalues --   -0.28917  -0.28354  -0.27044  -0.24876  -0.23197
 Alpha virt. eigenvalues --   -0.03432  -0.02647   0.00428   0.01548   0.02554
 Alpha virt. eigenvalues --    0.03630   0.04612   0.05316   0.06158   0.06999
 Alpha virt. eigenvalues --    0.07475   0.07792   0.08577   0.09885   0.10222
 Alpha virt. eigenvalues --    0.10832   0.11916   0.13498   0.14340   0.15835
 Alpha virt. eigenvalues --    0.18060   0.18556   0.19377   0.19547   0.20365
 Alpha virt. eigenvalues --    0.21527   0.22260   0.23784   0.24915   0.26174
 Alpha virt. eigenvalues --    0.26728   0.28767   0.29504   0.29961   0.30556
 Alpha virt. eigenvalues --    0.31435   0.32464   0.33224   0.34369   0.34579
 Alpha virt. eigenvalues --    0.35169   0.36036   0.36588   0.36800   0.38298
 Alpha virt. eigenvalues --    0.38802   0.39741   0.40246   0.41061   0.41231
 Alpha virt. eigenvalues --    0.42161   0.42329   0.43295   0.44155   0.44683
 Alpha virt. eigenvalues --    0.45105   0.45906   0.46242   0.47023   0.47681
 Alpha virt. eigenvalues --    0.47940   0.48648   0.49074   0.49387   0.49557
 Alpha virt. eigenvalues --    0.50626   0.50770   0.51729   0.52247   0.53109
 Alpha virt. eigenvalues --    0.53390   0.54279   0.55402   0.56124   0.56422
 Alpha virt. eigenvalues --    0.57424   0.57871   0.58493   0.59425   0.61172
 Alpha virt. eigenvalues --    0.62041   0.62889   0.63768   0.64830   0.65271
 Alpha virt. eigenvalues --    0.65869   0.67471   0.67887   0.69136   0.69263
 Alpha virt. eigenvalues --    0.70211   0.71597   0.72296   0.72747   0.74092
 Alpha virt. eigenvalues --    0.74753   0.75702   0.76207   0.77060   0.77486
 Alpha virt. eigenvalues --    0.78673   0.79559   0.80681   0.81619   0.82080
 Alpha virt. eigenvalues --    0.82763   0.83411   0.85035   0.86536   0.87297
 Alpha virt. eigenvalues --    0.88989   0.89142   0.90028   0.90975   0.91443
 Alpha virt. eigenvalues --    0.91663   0.93565   0.95069   0.95395   0.96450
 Alpha virt. eigenvalues --    0.97627   0.97978   0.99884   1.00199   1.00523
 Alpha virt. eigenvalues --    1.01715   1.02414   1.03376   1.04581   1.05095
 Alpha virt. eigenvalues --    1.05581   1.05984   1.07466   1.07883   1.08340
 Alpha virt. eigenvalues --    1.08889   1.10572   1.11437   1.13071   1.13893
 Alpha virt. eigenvalues --    1.14454   1.15640   1.16366   1.16824   1.18007
 Alpha virt. eigenvalues --    1.18494   1.18631   1.19519   1.20376   1.20976
 Alpha virt. eigenvalues --    1.22049   1.22747   1.23654   1.24826   1.25226
 Alpha virt. eigenvalues --    1.25848   1.26043   1.26695   1.27981   1.28724
 Alpha virt. eigenvalues --    1.29233   1.30165   1.31644   1.32281   1.32573
 Alpha virt. eigenvalues --    1.32880   1.33166   1.33976   1.34863   1.35560
 Alpha virt. eigenvalues --    1.36988   1.37062   1.38323   1.38368   1.39540
 Alpha virt. eigenvalues --    1.40477   1.41350   1.42489   1.43954   1.44583
 Alpha virt. eigenvalues --    1.44781   1.46175   1.48146   1.48373   1.49064
 Alpha virt. eigenvalues --    1.49794   1.50848   1.51941   1.53389   1.53938
 Alpha virt. eigenvalues --    1.56323   1.57464   1.58846   1.59909   1.60994
 Alpha virt. eigenvalues --    1.63028   1.63456   1.64921   1.66091   1.67320
 Alpha virt. eigenvalues --    1.68308   1.69247   1.69509   1.73101   1.74279
 Alpha virt. eigenvalues --    1.75756   1.76387   1.77168   1.78616   1.79782
 Alpha virt. eigenvalues --    1.80665   1.83403   1.84587   1.85316   1.87358
 Alpha virt. eigenvalues --    1.91318   1.93071   1.94084   1.95766   2.01310
 Alpha virt. eigenvalues --    2.03022   2.03529   2.06340   2.08242   2.11064
 Alpha virt. eigenvalues --    2.12127   2.15560   2.17708   2.21348   2.24886
 Alpha virt. eigenvalues --    2.27400   2.29549   2.37923   2.40238   2.41997
 Alpha virt. eigenvalues --    2.43680   2.46132   2.47574   2.49045   2.52400
 Alpha virt. eigenvalues --    2.54209   2.55684   2.57974   2.61149   2.61503
 Alpha virt. eigenvalues --    2.62592   2.62638   2.63947   2.65171   2.66492
 Alpha virt. eigenvalues --    2.67440   2.68004   2.68665   2.68951   2.69730
 Alpha virt. eigenvalues --    2.71090   2.71887   2.73130   2.74726   2.76539
 Alpha virt. eigenvalues --    2.77643   2.79442   2.80003   2.80606   2.82514
 Alpha virt. eigenvalues --    2.83007   2.84038   2.85168   2.85876   2.86723
 Alpha virt. eigenvalues --    2.88053   2.88735   2.90019   2.91343   2.91550
 Alpha virt. eigenvalues --    2.91898   2.93046   2.94024   2.94910   2.95233
 Alpha virt. eigenvalues --    2.96108   2.97372   2.97800   2.98805   2.99120
 Alpha virt. eigenvalues --    3.00519   3.00897   3.01936   3.02488   3.02882
 Alpha virt. eigenvalues --    3.03753   3.05040   3.05766   3.05933   3.07093
 Alpha virt. eigenvalues --    3.07177   3.07991   3.08823   3.10070   3.10515
 Alpha virt. eigenvalues --    3.11832   3.12291   3.13128   3.13671   3.13832
 Alpha virt. eigenvalues --    3.15699   3.15885   3.16339   3.17479   3.18754
 Alpha virt. eigenvalues --    3.19002   3.19131   3.20248   3.21083   3.21462
 Alpha virt. eigenvalues --    3.22305   3.22753   3.23364   3.24102   3.24287
 Alpha virt. eigenvalues --    3.25662   3.26326   3.27463   3.28076   3.28750
 Alpha virt. eigenvalues --    3.29997   3.30702   3.31125   3.31873   3.33316
 Alpha virt. eigenvalues --    3.33823   3.34216   3.35077   3.36046   3.36635
 Alpha virt. eigenvalues --    3.37793   3.38231   3.39012   3.39516   3.40355
 Alpha virt. eigenvalues --    3.41503   3.41875   3.42754   3.43250   3.44910
 Alpha virt. eigenvalues --    3.45196   3.45402   3.46139   3.46781   3.47633
 Alpha virt. eigenvalues --    3.49285   3.49529   3.51408   3.51969   3.52759
 Alpha virt. eigenvalues --    3.53438   3.54046   3.55458   3.56062   3.57372
 Alpha virt. eigenvalues --    3.57808   3.59186   3.59807   3.60627   3.61167
 Alpha virt. eigenvalues --    3.62176   3.63387   3.63967   3.64867   3.64914
 Alpha virt. eigenvalues --    3.66495   3.67087   3.67917   3.68586   3.69043
 Alpha virt. eigenvalues --    3.70358   3.71395   3.72020   3.73203   3.74536
 Alpha virt. eigenvalues --    3.75045   3.75800   3.77914   3.78123   3.78728
 Alpha virt. eigenvalues --    3.79295   3.80586   3.81797   3.81911   3.83898
 Alpha virt. eigenvalues --    3.84948   3.85557   3.86219   3.87872   3.88749
 Alpha virt. eigenvalues --    3.89324   3.89825   3.90509   3.90846   3.91592
 Alpha virt. eigenvalues --    3.93270   3.94732   3.95804   3.96076   3.96899
 Alpha virt. eigenvalues --    3.97387   3.97757   3.98023   3.99791   4.00095
 Alpha virt. eigenvalues --    4.00858   4.02745   4.04050   4.04790   4.05038
 Alpha virt. eigenvalues --    4.06520   4.06791   4.07257   4.08094   4.09960
 Alpha virt. eigenvalues --    4.10579   4.11036   4.12052   4.14214   4.15059
 Alpha virt. eigenvalues --    4.16546   4.18393   4.19196   4.20957   4.21896
 Alpha virt. eigenvalues --    4.22706   4.24494   4.25158   4.26533   4.28044
 Alpha virt. eigenvalues --    4.28407   4.29989   4.30684   4.31535   4.33611
 Alpha virt. eigenvalues --    4.33818   4.35336   4.37783   4.37971   4.38909
 Alpha virt. eigenvalues --    4.39931   4.41641   4.41981   4.44814   4.46221
 Alpha virt. eigenvalues --    4.46781   4.48002   4.50225   4.51103   4.53098
 Alpha virt. eigenvalues --    4.55456   4.56902   4.57216   4.58260   4.60660
 Alpha virt. eigenvalues --    4.64209   4.65838   4.66898   4.68577   4.68961
 Alpha virt. eigenvalues --    4.71183   4.72658   4.73529   4.75873   4.78115
 Alpha virt. eigenvalues --    4.79616   4.80283   4.82309   4.84093   4.84518
 Alpha virt. eigenvalues --    4.84943   4.87837   4.89005   4.89524   4.90955
 Alpha virt. eigenvalues --    4.91557   4.93270   4.94137   4.95106   4.96229
 Alpha virt. eigenvalues --    4.96693   4.97969   4.99058   4.99890   5.00682
 Alpha virt. eigenvalues --    5.02445   5.03138   5.03675   5.05380   5.06446
 Alpha virt. eigenvalues --    5.07731   5.07859   5.08477   5.08735   5.09324
 Alpha virt. eigenvalues --    5.10730   5.11074   5.12354   5.13248   5.14832
 Alpha virt. eigenvalues --    5.15765   5.17466   5.18037   5.19690   5.20141
 Alpha virt. eigenvalues --    5.21232   5.21600   5.22804   5.24847   5.25643
 Alpha virt. eigenvalues --    5.26618   5.27028   5.28483   5.29258   5.32043
 Alpha virt. eigenvalues --    5.32102   5.33399   5.35919   5.37594   5.37836
 Alpha virt. eigenvalues --    5.39429   5.43322   5.44205   5.45897   5.47257
 Alpha virt. eigenvalues --    5.50178   5.51068   5.54350   5.54523   5.56019
 Alpha virt. eigenvalues --    5.58015   5.59022   5.60192   5.61717   5.64155
 Alpha virt. eigenvalues --    5.66588   5.69027   5.72105   5.73442   5.74428
 Alpha virt. eigenvalues --    5.76081   5.77055   5.81392   5.81896   5.84053
 Alpha virt. eigenvalues --    5.85201   5.86999   5.87945   5.88252   5.91815
 Alpha virt. eigenvalues --    5.93933   5.99796   6.00874   6.03076   6.04473
 Alpha virt. eigenvalues --    6.17410   6.17618   6.20083   6.24210   6.29304
 Alpha virt. eigenvalues --    6.32554   6.33973   6.35203   6.35326   6.38290
 Alpha virt. eigenvalues --    6.41154   6.42058   6.45888   6.52176   6.56622
 Alpha virt. eigenvalues --    6.64648   6.68817   6.78716   6.85168   6.89495
 Alpha virt. eigenvalues --    6.90556   6.94352   6.95569   6.96633   7.00077
 Alpha virt. eigenvalues --    7.09978   7.15221   7.16741   7.18427   7.22744
 Alpha virt. eigenvalues --    7.26056   7.26178   7.34930   7.39128   7.49775
 Alpha virt. eigenvalues --    7.50391   7.54888   7.56862   7.72264   7.90640
 Alpha virt. eigenvalues --   24.43752  24.57735  24.62387  24.73816  24.92803
 Alpha virt. eigenvalues --   24.96435  25.01065  25.05786  25.05946  35.96420
 Alpha virt. eigenvalues --   36.14751  36.24204  36.44081  50.15563  50.17528
 Alpha virt. eigenvalues --   50.24758
          Condensed to atoms (all electrons):
               1          2          3          4          5          6
     1  O    7.826789   0.715254  -0.103570   0.001364  -0.000023   0.000006
     2  C    0.715254   4.363712   0.387644  -0.040696  -0.001312   0.001000
     3  N   -0.103570   0.387644   6.713312   0.226178  -0.018722  -0.023631
     4  C    0.001364  -0.040696   0.226178   5.398877   0.190247  -0.089795
     5  C   -0.000023  -0.001312  -0.018722   0.190247   4.320690   0.405283
     6  O    0.000006   0.001000  -0.023631  -0.089795   0.405283   7.747023
     7  O    0.000000   0.000026   0.002065  -0.123342   0.685366  -0.060156
     8  C   -0.000434   0.002582  -0.032919   0.299058  -0.077043   0.001912
     9  C   -0.000012   0.000262   0.002725  -0.102184   0.012029   0.000001
    10  C    0.000000  -0.000068  -0.000164  -0.001778  -0.000011   0.000001
    11  N    0.000000   0.000000   0.000000  -0.000266   0.000008   0.000000
    12  C    0.000000   0.000000   0.000000   0.000295   0.000118   0.000000
    13  N    0.000000   0.000007   0.000071   0.002413  -0.000001  -0.000012
    14  C   -0.097427   0.212628  -0.089542  -0.006078   0.001033  -0.000573
    15  C   -0.001818  -0.059380   0.002647  -0.000012  -0.000008  -0.000002
    16  N   -0.011014   0.016819  -0.000260   0.000004   0.000004   0.000000
    17  H    0.019853  -0.032457   0.317828  -0.052965   0.004344   0.002606
    18  H    0.000363  -0.006655  -0.030248   0.362245  -0.013735   0.001983
    19  H   -0.000604   0.003153   0.046725  -0.001255  -0.055349   0.312442
    20  H   -0.000019  -0.000602   0.001547  -0.061381   0.000657   0.000115
    21  H    0.000184   0.002931  -0.000604  -0.032785   0.003869  -0.000203
    22  H    0.000000  -0.000006  -0.000019   0.000057   0.000000   0.000000
    23  H    0.000000   0.000000   0.000000  -0.000003   0.000015   0.000000
    24  H    0.000000   0.000007  -0.000037   0.002073  -0.005717   0.000293
    25  H    0.000761  -0.016300   0.001307  -0.002485   0.000698  -0.000063
    26  H    0.001319  -0.024796   0.001734   0.000582  -0.000138   0.000830
    27  H    0.012638  -0.001761   0.000691  -0.000073  -0.000003   0.000000
    28  H    0.000249   0.007158  -0.000126  -0.000006   0.000001   0.000000
    29  H   -0.000267   0.000851  -0.000012  -0.000006   0.000003  -0.000002
    30  H    0.021055   0.002141   0.000337  -0.000024   0.000003   0.000002
               7          8          9         10         11         12
     1  O    0.000000  -0.000434  -0.000012   0.000000   0.000000   0.000000
     2  C    0.000026   0.002582   0.000262  -0.000068   0.000000   0.000000
     3  N    0.002065  -0.032919   0.002725  -0.000164   0.000000   0.000000
     4  C   -0.123342   0.299058  -0.102184  -0.001778  -0.000266   0.000295
     5  C    0.685366  -0.077043   0.012029  -0.000011   0.000008   0.000118
     6  O   -0.060156   0.001912   0.000001   0.000001   0.000000   0.000000
     7  O    7.837304   0.013307  -0.004556   0.000303  -0.000018  -0.000549
     8  C    0.013307   4.868023   0.271051  -0.039267   0.010204  -0.000813
     9  C   -0.004556   0.271051   5.142482   0.515594  -0.038982  -0.130981
    10  C    0.000303  -0.039267   0.515594   4.714631   0.467009  -0.153513
    11  N   -0.000018   0.010204  -0.038982   0.467009   6.514193   0.579144
    12  C   -0.000549  -0.000813  -0.130981  -0.153513   0.579144   4.576647
    13  N   -0.010635  -0.051024   0.356329  -0.037651  -0.143554   0.488305
    14  C   -0.000007  -0.002209  -0.000933  -0.000242   0.000000   0.000005
    15  C    0.000000   0.000000  -0.000002  -0.000001   0.000000   0.000000
    16  N    0.000000  -0.000002   0.000000   0.000000   0.000000   0.000000
    17  H   -0.000081  -0.005285  -0.000220   0.000001   0.000000  -0.000001
    18  H    0.000964  -0.037253   0.010816   0.002549  -0.000347  -0.000117
    19  H    0.004281   0.001582  -0.000362  -0.000002   0.000000   0.000000
    20  H    0.005857   0.369229  -0.011977   0.001338  -0.000557   0.000823
    21  H    0.000035   0.402936  -0.034547  -0.006804   0.000516  -0.000362
    22  H    0.000003  -0.001646  -0.056095   0.432496  -0.020020   0.006603
    23  H   -0.000038  -0.000269   0.006136   0.003401  -0.017884   0.422636
    24  H    0.037421   0.002206  -0.027745   0.003609   0.004832  -0.021848
    25  H   -0.000014  -0.000452   0.002026   0.001755   0.000007  -0.000055
    26  H   -0.000015   0.000749  -0.000025  -0.000026   0.000000   0.000002
    27  H    0.000000   0.000016   0.000000  -0.000001   0.000000   0.000000
    28  H    0.000000  -0.000002   0.000000  -0.000001   0.000000   0.000000
    29  H    0.000000  -0.000001   0.000000   0.000000   0.000000   0.000000
    30  H    0.000000   0.000001   0.000000   0.000000   0.000000   0.000000
              13         14         15         16         17         18
     1  O    0.000000  -0.097427  -0.001818  -0.011014   0.019853   0.000363
     2  C    0.000007   0.212628  -0.059380   0.016819  -0.032457  -0.006655
     3  N    0.000071  -0.089542   0.002647  -0.000260   0.317828  -0.030248
     4  C    0.002413  -0.006078  -0.000012   0.000004  -0.052965   0.362245
     5  C   -0.000001   0.001033  -0.000008   0.000004   0.004344  -0.013735
     6  O   -0.000012  -0.000573  -0.000002   0.000000   0.002606   0.001983
     7  O   -0.010635  -0.000007   0.000000   0.000000  -0.000081   0.000964
     8  C   -0.051024  -0.002209   0.000000  -0.000002  -0.005285  -0.037253
     9  C    0.356329  -0.000933  -0.000002   0.000000  -0.000220   0.010816
    10  C   -0.037651  -0.000242  -0.000001   0.000000   0.000001   0.002549
    11  N   -0.143554   0.000000   0.000000   0.000000   0.000000  -0.000347
    12  C    0.488305   0.000005   0.000000   0.000000  -0.000001  -0.000117
    13  N    6.290585  -0.000002   0.000000   0.000000   0.000005   0.003255
    14  C   -0.000002   5.306196   0.322872  -0.111003   0.016568   0.001266
    15  C    0.000000   0.322872   4.586597   0.349762  -0.000397  -0.000360
    16  N    0.000000  -0.111003   0.349762   6.322233   0.000077  -0.000102
    17  H    0.000005   0.016568  -0.000397   0.000077   0.597591   0.006877
    18  H    0.003255   0.001266  -0.000360  -0.000102   0.006877   0.643270
    19  H    0.000022  -0.000732   0.000038   0.000026  -0.000436  -0.000846
    20  H    0.000255  -0.000083   0.000000   0.000000   0.003094   0.009089
    21  H    0.003420  -0.000385   0.000019   0.000003   0.000227  -0.002802
    22  H    0.004587  -0.000003  -0.000001   0.000000  -0.000001   0.000087
    23  H   -0.036680   0.000000   0.000000   0.000000   0.000000   0.000008
    24  H    0.371650  -0.000001   0.000000   0.000000  -0.000003  -0.000194
    25  H   -0.000103   0.320470  -0.015090   0.007083  -0.001138  -0.003525
    26  H   -0.000005   0.340760  -0.026828   0.008650  -0.001013  -0.000493
    27  H    0.000000  -0.061643   0.398032  -0.019201  -0.000166  -0.000012
    28  H    0.000000  -0.048858   0.418775  -0.023350   0.000027  -0.000006
    29  H    0.000000  -0.007046  -0.058666   0.392270   0.000005  -0.000021
    30  H    0.000000   0.000266  -0.057075   0.394107  -0.000020   0.000000
              19         20         21         22         23         24
     1  O   -0.000604  -0.000019   0.000184   0.000000   0.000000   0.000000
     2  C    0.003153  -0.000602   0.002931  -0.000006   0.000000   0.000007
     3  N    0.046725   0.001547  -0.000604  -0.000019   0.000000  -0.000037
     4  C   -0.001255  -0.061381  -0.032785   0.000057  -0.000003   0.002073
     5  C   -0.055349   0.000657   0.003869   0.000000   0.000015  -0.005717
     6  O    0.312442   0.000115  -0.000203   0.000000   0.000000   0.000293
     7  O    0.004281   0.005857   0.000035   0.000003  -0.000038   0.037421
     8  C    0.001582   0.369229   0.402936  -0.001646  -0.000269   0.002206
     9  C   -0.000362  -0.011977  -0.034547  -0.056095   0.006136  -0.027745
    10  C   -0.000002   0.001338  -0.006804   0.432496   0.003401   0.003609
    11  N    0.000000  -0.000557   0.000516  -0.020020  -0.017884   0.004832
    12  C    0.000000   0.000823  -0.000362   0.006603   0.422636  -0.021848
    13  N    0.000022   0.000255   0.003420   0.004587  -0.036680   0.371650
    14  C   -0.000732  -0.000083  -0.000385  -0.000003   0.000000  -0.000001
    15  C    0.000038   0.000000   0.000019  -0.000001   0.000000   0.000000
    16  N    0.000026   0.000000   0.000003   0.000000   0.000000   0.000000
    17  H   -0.000436   0.003094   0.000227  -0.000001   0.000000  -0.000003
    18  H   -0.000846   0.009089  -0.002802   0.000087   0.000008  -0.000194
    19  H    0.476727  -0.000427  -0.000014   0.000000   0.000000  -0.000094
    20  H   -0.000427   0.696605  -0.040458   0.000016  -0.000007   0.000734
    21  H   -0.000014  -0.040458   0.678332   0.002240   0.000022  -0.000244
    22  H    0.000000   0.000016   0.002240   0.626712  -0.000439  -0.000422
    23  H    0.000000  -0.000007   0.000022  -0.000439   0.607167  -0.001868
    24  H   -0.000094   0.000734  -0.000244  -0.000422  -0.001868   0.505616
    25  H    0.000127   0.000183   0.000044   0.000147   0.000000   0.000002
    26  H    0.000617  -0.000023   0.000208  -0.000003   0.000000  -0.000003
    27  H    0.000008  -0.000002   0.000027   0.000001   0.000000   0.000000
    28  H    0.000001   0.000000   0.000000   0.000000   0.000000   0.000000
    29  H    0.000004   0.000000   0.000000   0.000000   0.000000   0.000000
    30  H   -0.000036   0.000000   0.000000   0.000000   0.000000   0.000000
              25         26         27         28         29         30
     1  O    0.000761   0.001319   0.012638   0.000249  -0.000267   0.021055
     2  C   -0.016300  -0.024796  -0.001761   0.007158   0.000851   0.002141
     3  N    0.001307   0.001734   0.000691  -0.000126  -0.000012   0.000337
     4  C   -0.002485   0.000582  -0.000073  -0.000006  -0.000006  -0.000024
     5  C    0.000698  -0.000138  -0.000003   0.000001   0.000003   0.000003
     6  O   -0.000063   0.000830   0.000000   0.000000  -0.000002   0.000002
     7  O   -0.000014  -0.000015   0.000000   0.000000   0.000000   0.000000
     8  C   -0.000452   0.000749   0.000016  -0.000002  -0.000001   0.000001
     9  C    0.002026  -0.000025   0.000000   0.000000   0.000000   0.000000
    10  C    0.001755  -0.000026  -0.000001  -0.000001   0.000000   0.000000
    11  N    0.000007   0.000000   0.000000   0.000000   0.000000   0.000000
    12  C   -0.000055   0.000002   0.000000   0.000000   0.000000   0.000000
    13  N   -0.000103  -0.000005   0.000000   0.000000   0.000000   0.000000
    14  C    0.320470   0.340760  -0.061643  -0.048858  -0.007046   0.000266
    15  C   -0.015090  -0.026828   0.398032   0.418775  -0.058666  -0.057075
    16  N    0.007083   0.008650  -0.019201  -0.023350   0.392270   0.394107
    17  H   -0.001138  -0.001013  -0.000166   0.000027   0.000005  -0.000020
    18  H   -0.003525  -0.000493  -0.000012  -0.000006  -0.000021   0.000000
    19  H    0.000127   0.000617   0.000008   0.000001   0.000004  -0.000036
    20  H    0.000183  -0.000023  -0.000002   0.000000   0.000000   0.000000
    21  H    0.000044   0.000208   0.000027   0.000000   0.000000   0.000000
    22  H    0.000147  -0.000003   0.000001   0.000000   0.000000   0.000000
    23  H    0.000000   0.000000   0.000000   0.000000   0.000000   0.000000
    24  H    0.000002  -0.000003   0.000000   0.000000   0.000000   0.000000
    25  H    0.713727  -0.036583  -0.001751  -0.003507   0.000204   0.000026
    26  H   -0.036583   0.707661   0.009169  -0.003965   0.005821  -0.001323
    27  H   -0.001751   0.009169   0.696405  -0.049258   0.009357  -0.010071
    28  H   -0.003507  -0.003965  -0.049258   0.695121  -0.009394   0.008442
    29  H    0.000204   0.005821   0.009357  -0.009394   0.636654  -0.059360
    30  H    0.000026  -0.001323  -0.010071   0.008442  -0.059360   0.584451
 Mulliken charges:
               1
     1  O   -0.384645
     2  C    0.467860
     3  N   -0.404956
     4  C    0.031740
     5  C    0.547695
     6  O   -0.299058
     7  O   -0.387520
     8  C    0.005765
     9  C    0.089170
    10  C    0.096843
    11  N   -0.354286
    12  C    0.233661
    13  N   -0.241235
    14  C   -0.095293
    15  C    0.140896
    16  N   -0.326107
    17  H    0.125079
    18  H    0.053944
    19  H    0.214405
    20  H    0.025994
    21  H    0.024194
    22  H    0.005706
    23  H    0.017802
    24  H    0.129730
    25  H    0.032499
    26  H    0.017137
    27  H    0.017596
    28  H    0.008699
    29  H    0.089606
    30  H    0.117078
 Sum of Mulliken charges =   0.00000
 Mulliken charges with hydrogens summed into heavy atoms:
               1
     1  O   -0.384645
     2  C    0.467860
     3  N   -0.279877
     4  C    0.085685
     5  C    0.547695
     6  O   -0.084653
     7  O   -0.387520
     8  C    0.055952
     9  C    0.089170
    10  C    0.102549
    11  N   -0.354286
    12  C    0.251464
    13  N   -0.111505
    14  C   -0.045657
    15  C    0.167192
    16  N   -0.119423
 Electronic spatial extent (au):  <R**2>=           4786.0495
 Charge=              0.0000 electrons
 Dipole moment (field-independent basis, Debye):
    X=              1.5525    Y=              0.3284    Z=             -1.7979  Tot=              2.3981
 Quadrupole moment (field-independent basis, Debye-Ang):
   XX=           -118.7506   YY=            -92.9549   ZZ=           -106.1060
   XY=             -6.2851   XZ=             -1.6458   YZ=              1.4253
 Traceless Quadrupole moment (field-independent basis, Debye-Ang):
   XX=            -12.8134   YY=             12.9823   ZZ=             -0.1689
   XY=             -6.2851   XZ=             -1.6458   YZ=              1.4253
 Octapole moment (field-independent basis, Debye-Ang**2):
  XXX=             90.0976  YYY=            -19.2772  ZZZ=            116.7673  XYY=             24.0091
  XXY=             -6.2529  XXZ=            -73.1768  XZZ=             22.0596  YZZ=             -4.2401
  YYZ=              7.8192  XYZ=            -15.9053
 Hexadecapole moment (field-independent basis, Debye-Ang**3):
 XXXX=          -4780.6760 YYYY=           -507.0802 ZZZZ=          -1662.3023 XXXY=            -85.7275
 XXXZ=           -293.2942 YYYX=           -122.4623 YYYZ=            106.9317 ZZZX=           -390.6176
 ZZZY=            146.5246 XXYY=           -823.7746 XXZZ=          -1035.1311 YYZZ=           -328.1548
 XXYZ=            145.6771 YYXZ=           -108.3581 ZZXY=            -12.5346
 N-N= 1.108883150388D+03 E-N=-4.077929213566D+03  KE= 7.931292862917D+02
 Calling FoFJK, ICntrl=      2127 FMM=F ISym2X=0 I1Cent= 0 IOpClX= 0 NMat=1 NMatS=1 NMatT=0.
 -------------------------------------------------------------------
 Center     Atomic                   Forces (Hartrees/Bohr)
 Number     Number              X              Y              Z
 -------------------------------------------------------------------
      1        8          -0.008995435   -0.008917488   -0.004096418
      2        6           0.005641855    0.006827884    0.001447244
      3        7           0.000165216    0.001496274    0.003974025
      4        6           0.000854670   -0.000218683   -0.000339638
      5        6          -0.009597270   -0.001995199   -0.005838459
      6        8          -0.000559405    0.000526466    0.004746762
      7        8           0.013256416    0.001708147    0.006345744
      8        6           0.000190648    0.000515244    0.000907077
      9        6          -0.002659020   -0.001800783    0.001056550
     10        6           0.000987112    0.000637761   -0.001801127
     11        7           0.003240749    0.001981120   -0.006746663
     12        6           0.000757656    0.000785989    0.002177485
     13        7          -0.000438167   -0.000369330    0.003139246
     14        6           0.000244122    0.000078813   -0.000034029
     15        6          -0.002066346   -0.000436569    0.001657678
     16        7          -0.000988965    0.001028590   -0.003786389
     17        1           0.000070866   -0.003052666    0.000031702
     18        1          -0.000304961    0.002515265   -0.001396829
     19        1          -0.002755411   -0.000532201   -0.003268839
     20        1           0.000413787   -0.002295646    0.001301222
     21        1          -0.000963710   -0.000974991   -0.002341107
     22        1          -0.000662093   -0.000615791   -0.002782569
     23        1           0.001850373    0.001495154    0.001458386
     24        1          -0.001127083   -0.000419772    0.002930281
     25        1           0.002453161    0.000504265   -0.001071528
     26        1           0.000122374    0.001952013    0.001966142
     27        1           0.000211003   -0.001766332   -0.002036598
     28        1           0.000488735    0.002480059   -0.000954866
     29        1           0.000099577    0.002052074    0.002524315
     30        1           0.000069545   -0.003189666    0.000831200
 -------------------------------------------------------------------
 Cartesian Forces:  Max     0.013256416 RMS     0.003151968

 GradGradGradGradGradGradGradGradGradGradGradGradGradGradGradGradGradGrad
 Berny optimization.
 FormGI is forming the generalized inverse of G from B-inverse, IUseBI=4.
 Internal  Forces:  Max     0.014785497 RMS     0.002214145
 Search for a local minimum.
 Step number   1 out of a maximum of  160
 All quantities printed in internal units (Hartrees-Bohrs-Radians)
 Mixed Optimization -- RFO/linear search
 Second derivative matrix not updated -- first step.
 ITU=  0
     Eigenvalues ---    0.00135   0.00224   0.00354   0.00376   0.00414
     Eigenvalues ---    0.00568   0.00648   0.00861   0.00910   0.01493
     Eigenvalues ---    0.01520   0.02038   0.02593   0.03064   0.03300
     Eigenvalues ---    0.03379   0.03862   0.04093   0.04258   0.04335
     Eigenvalues ---    0.04450   0.04656   0.04755   0.04932   0.05377
     Eigenvalues ---    0.05520   0.06174   0.06358   0.07610   0.08232
     Eigenvalues ---    0.08833   0.10312   0.10750   0.11046   0.11372
     Eigenvalues ---    0.11818   0.12540   0.12823   0.14461   0.15977
     Eigenvalues ---    0.16719   0.17882   0.18640   0.18732   0.19215
     Eigenvalues ---    0.21212   0.21647   0.21925   0.22487   0.23097
     Eigenvalues ---    0.23683   0.24658   0.25950   0.26149   0.29479
     Eigenvalues ---    0.30818   0.32110   0.32634   0.33089   0.33160
     Eigenvalues ---    0.33264   0.33549   0.34009   0.34116   0.35033
     Eigenvalues ---    0.36395   0.37197   0.37331   0.37602   0.38236
     Eigenvalues ---    0.40735   0.42162   0.43098   0.44627   0.44979
     Eigenvalues ---    0.45073   0.45508   0.46140   0.47211   0.49647
     Eigenvalues ---    0.57068   0.59215   0.84653   0.88515
 RFO step:  Lambda=-1.41469550D-03 EMin= 1.35088102D-03
 Linear search not attempted -- first point.
 Iteration  1 RMS(Cart)=  0.02992724 RMS(Int)=  0.00028535
 Iteration  2 RMS(Cart)=  0.00055709 RMS(Int)=  0.00005829
 Iteration  3 RMS(Cart)=  0.00000015 RMS(Int)=  0.00005829
 Variable       Old X    -DE/DX   Delta X   Delta X   Delta X     New X
                                 (Linear)    (Quad)   (Total)
    R1        2.30673  -0.01331   0.00000  -0.01466  -0.01466   2.29207
    R2        2.64442  -0.00449   0.00000  -0.01213  -0.01213   2.63229
    R3        2.87706  -0.00287   0.00000  -0.00675  -0.00675   2.87030
    R4        2.77027  -0.00248   0.00000  -0.01062  -0.01062   2.75965
    R5        1.92251  -0.00302   0.00000  -0.00749  -0.00749   1.91502
    R6        2.92066  -0.00198   0.00000  -0.00743  -0.00743   2.91323
    R7        2.93722  -0.00202   0.00000  -0.00620  -0.00620   2.93102
    R8        2.06780  -0.00285   0.00000  -0.00796  -0.00796   2.05984
    R9        2.52908  -0.00360   0.00000  -0.00392  -0.00392   2.52515
   R10        2.29042  -0.01479   0.00000  -0.01695  -0.01695   2.27347
   R11        1.84746  -0.00426   0.00000  -0.01100  -0.01100   1.83645
   R12        2.82750  -0.00263   0.00000  -0.00737  -0.00737   2.82014
   R13        2.07491  -0.00265   0.00000  -0.00766  -0.00766   2.06725
   R14        2.06747  -0.00271   0.00000  -0.00801  -0.00801   2.05945
   R15        2.60392  -0.00601   0.00000  -0.01031  -0.01031   2.59361
   R16        2.60867  -0.00378   0.00000  -0.00801  -0.00801   2.60067
   R17        2.59887  -0.00328   0.00000  -0.00610  -0.00610   2.59276
   R18        2.04524  -0.00292   0.00000  -0.00778  -0.00778   2.03746
   R19        2.49078  -0.00649   0.00000  -0.01143  -0.01143   2.47936
   R20        2.57570  -0.00474   0.00000  -0.00743  -0.00743   2.56828
   R21        2.04355  -0.00279   0.00000  -0.00717  -0.00717   2.03637
   R22        1.91600  -0.00314   0.00000  -0.00769  -0.00769   1.90831
   R23        2.91610  -0.00278   0.00000  -0.01123  -0.01123   2.90486
   R24        2.07750  -0.00272   0.00000  -0.00764  -0.00764   2.06985
   R25        2.07676  -0.00276   0.00000  -0.00828  -0.00828   2.06848
   R26        2.75185  -0.00063   0.00000  -0.00270  -0.00270   2.74915
   R27        2.06791  -0.00270   0.00000  -0.00795  -0.00795   2.05996
   R28        2.07092  -0.00270   0.00000  -0.00794  -0.00794   2.06298
   R29        1.92231  -0.00321   0.00000  -0.00823  -0.00823   1.91408
   R30        1.92046  -0.00321   0.00000  -0.00806  -0.00806   1.91240
    A1        2.07710  -0.00011   0.00000   0.00305   0.00305   2.08014
    A2        2.14830  -0.00009   0.00000  -0.00209  -0.00210   2.14620
    A3        2.05699   0.00020   0.00000  -0.00070  -0.00071   2.05628
    A4        2.19932  -0.00024   0.00000   0.00882   0.00847   2.20779
    A5        1.92089   0.00028   0.00000   0.00946   0.00908   1.92996
    A6        2.01349   0.00008   0.00000   0.00668   0.00629   2.01978
    A7        1.90791   0.00074   0.00000   0.01200   0.01201   1.91992
    A8        1.97730  -0.00078   0.00000  -0.00196  -0.00197   1.97533
    A9        1.87656   0.00006   0.00000   0.00096   0.00098   1.87754
   A10        1.96451   0.00023   0.00000  -0.00253  -0.00255   1.96196
   A11        1.84103  -0.00046   0.00000  -0.00743  -0.00744   1.83359
   A12        1.88929   0.00022   0.00000  -0.00159  -0.00161   1.88769
   A13        2.00792   0.00104   0.00000   0.00347   0.00347   2.01140
   A14        2.15727   0.00009   0.00000  -0.00124  -0.00124   2.15603
   A15        2.11770  -0.00113   0.00000  -0.00227  -0.00227   2.11543
   A16        1.86917   0.00108   0.00000   0.01177   0.01177   1.88095
   A17        2.01328   0.00089   0.00000   0.00370   0.00370   2.01697
   A18        1.89738  -0.00015   0.00000   0.00044   0.00045   1.89782
   A19        1.86955  -0.00015   0.00000   0.00054   0.00054   1.87010
   A20        1.94170  -0.00033   0.00000  -0.00356  -0.00356   1.93814
   A21        1.87111  -0.00049   0.00000  -0.00228  -0.00228   1.86882
   A22        1.86356   0.00019   0.00000   0.00113   0.00113   1.86469
   A23        2.29088  -0.00087   0.00000  -0.00517  -0.00518   2.28570
   A24        2.16492   0.00110   0.00000   0.00467   0.00466   2.16958
   A25        1.82725  -0.00023   0.00000   0.00046   0.00046   1.82771
   A26        1.93894  -0.00065   0.00000  -0.00263  -0.00263   1.93631
   A27        2.22458   0.00018   0.00000   0.00019   0.00019   2.22477
   A28        2.11957   0.00047   0.00000   0.00242   0.00242   2.12200
   A29        1.83029   0.00109   0.00000   0.00371   0.00371   1.83400
   A30        1.95583  -0.00073   0.00000  -0.00301  -0.00301   1.95282
   A31        2.19334   0.00036   0.00000   0.00203   0.00203   2.19536
   A32        2.13402   0.00036   0.00000   0.00098   0.00098   2.13500
   A33        1.87244   0.00052   0.00000   0.00147   0.00147   1.87391
   A34        2.15027   0.00017   0.00000   0.00514   0.00514   2.15540
   A35        2.25794  -0.00068   0.00000  -0.00622  -0.00623   2.25171
   A36        1.96304   0.00077   0.00000   0.00088   0.00088   1.96392
   A37        1.89950  -0.00044   0.00000  -0.00277  -0.00277   1.89672
   A38        1.90784  -0.00016   0.00000   0.00174   0.00174   1.90958
   A39        1.91519  -0.00011   0.00000   0.00138   0.00138   1.91657
   A40        1.92446  -0.00033   0.00000  -0.00289  -0.00289   1.92158
   A41        1.85024   0.00024   0.00000   0.00171   0.00171   1.85195
   A42        2.03827  -0.00035   0.00000  -0.00374  -0.00374   2.03453
   A43        1.89384   0.00002   0.00000   0.00204   0.00204   1.89588
   A44        1.88099   0.00022   0.00000   0.00323   0.00322   1.88421
   A45        1.88190   0.00029   0.00000   0.00081   0.00081   1.88270
   A46        1.89757  -0.00009   0.00000  -0.00223  -0.00223   1.89534
   A47        1.86417  -0.00007   0.00000   0.00017   0.00017   1.86434
   A48        1.93555   0.00068   0.00000   0.00898   0.00889   1.94444
   A49        1.90298   0.00116   0.00000   0.01346   0.01336   1.91635
   A50        1.87953  -0.00060   0.00000   0.00485   0.00467   1.88420
    D1       -2.77029  -0.00004   0.00000  -0.02626  -0.02630  -2.79660
    D2       -0.22186   0.00022   0.00000   0.02066   0.02072  -0.20114
    D3        0.41295  -0.00017   0.00000  -0.03303  -0.03309   0.37986
    D4        2.96138   0.00009   0.00000   0.01389   0.01394   2.97532
    D5       -0.07466  -0.00019   0.00000  -0.01513  -0.01512  -0.08978
    D6        2.05137  -0.00013   0.00000  -0.01474  -0.01474   2.03663
    D7       -2.21840  -0.00017   0.00000  -0.01329  -0.01328  -2.23168
    D8        3.02346  -0.00005   0.00000  -0.00792  -0.00793   3.01553
    D9       -1.13370   0.00000   0.00000  -0.00754  -0.00754  -1.14124
   D10        0.87972  -0.00004   0.00000  -0.00608  -0.00609   0.87363
   D11       -2.45250   0.00032   0.00000   0.03977   0.03979  -2.41271
   D12        1.62454   0.00002   0.00000   0.03507   0.03509   1.65963
   D13       -0.46224   0.00018   0.00000   0.03759   0.03763  -0.42461
   D14        1.30916   0.00000   0.00000  -0.01013  -0.01015   1.29901
   D15       -0.89698  -0.00031   0.00000  -0.01482  -0.01486  -0.91183
   D16       -2.98376  -0.00014   0.00000  -0.01230  -0.01232  -2.99608
   D17        0.41263   0.00009   0.00000  -0.00250  -0.00251   0.41011
   D18       -2.75477   0.00017   0.00000  -0.00405  -0.00407  -2.75884
   D19        2.62604  -0.00018   0.00000   0.00240   0.00240   2.62844
   D20       -0.54135  -0.00010   0.00000   0.00085   0.00085  -0.54051
   D21       -1.60054  -0.00008   0.00000  -0.00543  -0.00541  -1.60595
   D22        1.51525  -0.00001   0.00000  -0.00698  -0.00696   1.50829
   D23       -2.68723   0.00051   0.00000   0.01824   0.01823  -2.66900
   D24        1.40158   0.00040   0.00000   0.01984   0.01983   1.42141
   D25       -0.60613   0.00034   0.00000   0.01802   0.01801  -0.58812
   D26        1.42015  -0.00005   0.00000   0.00563   0.00563   1.42578
   D27       -0.77423  -0.00016   0.00000   0.00723   0.00723  -0.76700
   D28       -2.78194  -0.00023   0.00000   0.00541   0.00541  -2.77653
   D29       -0.60775   0.00025   0.00000   0.01716   0.01716  -0.59059
   D30       -2.80213   0.00014   0.00000   0.01876   0.01876  -2.78337
   D31        1.47335   0.00008   0.00000   0.01694   0.01694   1.49028
   D32       -0.09451  -0.00019   0.00000  -0.00531  -0.00531  -0.09982
   D33        3.07224  -0.00028   0.00000  -0.00381  -0.00381   3.06843
   D34        2.03957  -0.00008   0.00000  -0.00526  -0.00526   2.03432
   D35       -1.12250  -0.00015   0.00000  -0.00886  -0.00886  -1.13136
   D36       -2.07219   0.00014   0.00000  -0.00470  -0.00471  -2.07689
   D37        1.04893   0.00007   0.00000  -0.00831  -0.00831   1.04061
   D38       -0.04067  -0.00009   0.00000  -0.00660  -0.00660  -0.04726
   D39        3.08045  -0.00016   0.00000  -0.01020  -0.01020   3.07025
   D40        3.12678  -0.00003   0.00000  -0.00304  -0.00304   3.12374
   D41       -0.00067   0.00000   0.00000  -0.00177  -0.00176  -0.00243
   D42        0.00273   0.00001   0.00000  -0.00001  -0.00001   0.00272
   D43       -3.12472   0.00004   0.00000   0.00127   0.00126  -3.12346
   D44       -3.13151   0.00007   0.00000   0.00340   0.00341  -3.12809
   D45        0.08014   0.00004   0.00000  -0.00170  -0.00171   0.07842
   D46       -0.00583   0.00000   0.00000   0.00052   0.00053  -0.00531
   D47       -3.07737  -0.00002   0.00000  -0.00458  -0.00460  -3.08198
   D48        0.00155  -0.00002   0.00000  -0.00052  -0.00052   0.00103
   D49        3.12998  -0.00006   0.00000  -0.00173  -0.00173   3.12826
   D50       -0.00545   0.00003   0.00000   0.00089   0.00088  -0.00457
   D51        3.13464   0.00004   0.00000   0.00050   0.00049   3.13513
   D52        0.00733  -0.00002   0.00000  -0.00092  -0.00092   0.00641
   D53        3.07309   0.00005   0.00000   0.00524   0.00523   3.07832
   D54       -3.13282  -0.00003   0.00000  -0.00055  -0.00055  -3.13336
   D55       -0.06706   0.00005   0.00000   0.00562   0.00560  -0.06146
   D56       -1.10064  -0.00033   0.00000  -0.02428  -0.02428  -1.12492
   D57        1.02945  -0.00018   0.00000  -0.02423  -0.02423   1.00522
   D58        3.04203  -0.00014   0.00000  -0.02129  -0.02129   3.02074
   D59        3.06546  -0.00021   0.00000  -0.02231  -0.02231   3.04315
   D60       -1.08763  -0.00006   0.00000  -0.02225  -0.02226  -1.10989
   D61        0.92494  -0.00002   0.00000  -0.01932  -0.01932   0.90563
   D62        1.03373  -0.00024   0.00000  -0.02351  -0.02351   1.01022
   D63       -3.11936  -0.00009   0.00000  -0.02346  -0.02346   3.14036
   D64       -1.10678  -0.00005   0.00000  -0.02052  -0.02052  -1.12730
   D65       -0.99446  -0.00024   0.00000  -0.01673  -0.01678  -1.01124
   D66        1.07220   0.00014   0.00000   0.00295   0.00300   1.07519
   D67       -3.13077  -0.00026   0.00000  -0.01745  -0.01750   3.13491
   D68       -1.06412   0.00013   0.00000   0.00223   0.00228  -1.06184
   D69        1.13744  -0.00028   0.00000  -0.01693  -0.01697   1.12047
   D70       -3.07910   0.00011   0.00000   0.00276   0.00281  -3.07629
         Item               Value     Threshold  Converged?
 Maximum Force            0.014785     0.000450     NO 
 RMS     Force            0.002214     0.000300     NO 
 Maximum Displacement     0.112573     0.001800     NO 
 RMS     Displacement     0.029847     0.001200     NO 
 Predicted change in Energy=-7.211723D-04
 GradGradGradGradGradGradGradGradGradGradGradGradGradGradGradGradGradGrad

                          Input orientation:                          
 ---------------------------------------------------------------------
 Center     Atomic      Atomic             Coordinates (Angstroms)
 Number     Number       Type             X           Y           Z
 ---------------------------------------------------------------------
      1          8           0        2.710235    1.624607    0.795835
      2          6           0        1.907912    0.806738    0.397692
      3          7           0        1.038029    1.154618   -0.633124
      4          6           0       -0.220322    0.493569   -0.968053
      5          6           0       -0.354446    0.359022   -2.497916
      6          8           0        0.797389    0.379722   -3.174982
      7          8           0       -1.406950    0.215317   -3.062679
      8          6           0       -1.456981    1.172414   -0.323438
      9          6           0       -2.626321    0.278766   -0.076146
     10          6           0       -3.236887   -0.101333    1.092799
     11          7           0       -4.303708   -0.927101    0.842860
     12          6           0       -4.341893   -1.049730   -0.462858
     13          7           0       -3.354472   -0.338195   -1.067670
     14          6           0        1.832743   -0.609723    0.940871
     15          6           0        2.956282   -0.916015    1.944260
     16          7           0        4.315089   -0.898798    1.424886
     17          1           0        1.069553    2.152971   -0.804134
     18          1           0       -0.163147   -0.530013   -0.597708
     19          1           0        1.509813    0.571612   -2.542494
     20          1           0       -1.743063    2.033886   -0.933957
     21          1           0       -1.141691    1.562043    0.644282
     22          1           0       -2.969964    0.188215    2.096483
     23          1           0       -5.053906   -1.635986   -1.020141
     24          1           0       -3.115667   -0.288323   -2.047592
     25          1           0        0.858131   -0.750105    1.420611
     26          1           0        1.867073   -1.320557    0.109204
     27          1           0        2.900764   -0.194969    2.759916
     28          1           0        2.761716   -1.898879    2.377725
     29          1           0        4.428507   -1.557891    0.664179
     30          1           0        4.536109    0.024175    1.073581
 ---------------------------------------------------------------------
                    Distance matrix (angstroms):
                    1          2          3          4          5
     1  O    0.000000
     2  C    1.212910   0.000000
     3  N    2.249241   1.392946   0.000000
     4  C    3.602597   2.548080   1.460346   0.000000
     5  C    4.673625   3.701791   2.459554   1.541614   0.000000
     6  O    4.579968   3.765581   2.668223   2.432947   1.336252
     7  O    5.815964   4.828276   3.572527   2.423421   1.203069
     8  C    4.338541   3.460672   2.514219   1.551028   2.570126
     9  C    5.572294   4.589394   3.808517   2.574970   3.321570
    10  C    6.199623   5.270363   4.778194   3.701444   4.627487
    11  N    7.463834   6.464409   5.919986   4.687403   5.330250
    12  C    7.646495   6.576250   5.816502   4.429937   4.693163
    13  N    6.641229   5.581294   4.659548   3.244172   3.395861
    14  C    2.404841   1.518900   2.494381   3.012693   4.188976
    15  C    2.798961   2.541422   3.822319   4.534236   5.685029
    16  N    3.055951   3.123857   4.380759   5.313642   6.226961
    17  H    2.351788   1.989868   1.013384   2.108142   2.848670
    18  H    3.852359   2.658384   2.069314   1.090020   2.106601
    19  H    3.700575   2.976317   2.051383   2.340582   1.876870
    20  H    4.794950   4.075389   2.932249   2.166213   2.679439
    21  H    3.855414   3.151408   2.559090   2.142471   3.455492
    22  H    6.001631   5.202128   4.944563   4.128577   5.289481
    23  H    8.614588   7.512926   6.711850   5.282164   5.314961
    24  H    6.759106   5.693410   4.619090   3.187442   2.871618
    25  H    3.075694   2.138261   2.806807   2.900948   4.249160
    26  H    3.139487   2.147156   2.713828   2.967954   3.814867
    27  H    2.684171   2.751231   4.099255   4.910500   6.208711
    28  H    3.862640   3.459751   4.621705   5.080412   6.211317
    29  H    3.619128   3.466394   4.531671   5.337066   6.045663
    30  H    2.443838   2.824297   4.053062   5.197330   6.065084
                    6          7          8          9         10
     6  O    0.000000
     7  O    2.213313   0.000000
     8  C    3.720464   2.902065   0.000000
     9  C    4.618957   3.226495   1.492352   0.000000
    10  C    5.892432   4.551586   2.606957   1.372479   0.000000
    11  N    6.623596   4.994953   3.724522   2.261043   1.372031
    12  C    5.984243   4.119866   3.644184   2.204004   2.130859
    13  N    4.711063   2.842407   2.536985   1.376215   2.176593
    14  C    4.357890   5.215814   3.949276   4.659075   5.097322
    15  C    5.704944   6.736998   5.383389   6.055988   6.304287
    16  N    5.930229   7.356713   6.376782   7.198814   7.601222
    17  H    2.973114   3.871511   2.752442   4.207386   5.217823
    18  H    2.896996   2.859833   2.155804   2.644499   3.534043
    19  H    0.971808   2.984133   3.753271   4.824545   6.016592
    20  H    3.769927   2.819862   1.093942   2.143929   3.301274
    21  H    4.443500   3.952922   1.089817   2.090440   2.712532
    22  H    6.482127   5.390797   3.018904   2.201501   1.078177
    23  H    6.553173   4.571605   4.616316   3.232735   3.181388
    24  H    4.126657   2.050309   2.803159   2.108945   3.148288
    25  H    4.732829   5.114931   3.478151   3.929410   4.159031
    26  H    3.849812   4.810299   4.177490   4.773131   5.338949
    27  H    6.322774   7.254471   5.510604   6.230276   6.360724
    28  H    6.315312   7.172559   5.875928   6.308293   6.392609
    29  H    5.628367   7.147468   6.562692   7.327481   7.814317
    30  H    5.670514   7.243282   6.259972   7.258587   7.774033
                   11         12         13         14         15
    11  N    0.000000
    12  C    1.312019   0.000000
    13  N    2.213139   1.359073   0.000000
    14  C    6.145434   6.347455   5.569126   0.000000
    15  C    7.343068   7.686055   7.016496   1.537187   0.000000
    16  N    8.638473   8.861698   8.083890   2.545560   1.454786
    17  H    6.408694   6.297420   5.084030   3.355590   4.531235
    18  H    4.401950   4.213100   3.231442   2.521340   4.042453
    19  H    6.892299   6.418419   5.163732   3.692381   4.943305
    20  H    4.299003   4.060115   2.870765   4.825975   6.250591
    21  H    4.029096   4.276494   3.382024   3.694833   4.962267
    22  H    2.143449   3.156726   3.230606   5.003813   6.030165
    23  H    2.129809   1.077601   2.138830   7.233583   8.571414
    24  H    3.189700   2.143537   1.009832   5.789730   7.293658
    25  H    5.197086   5.538725   4.909912   1.095320   2.168864
    26  H    6.226684   6.241142   5.441930   1.094593   2.171971
    27  H    7.491030   7.973265   7.334774   2.149794   1.090085
    28  H    7.295230   7.697481   7.191261   2.142303   1.091682
    29  H    8.756792   8.857107   8.066085   2.777332   2.053791
    30  H    8.893847   9.073744   8.183981   2.779861   2.034181
                   16         17         18         19         20
    16  N    0.000000
    17  H    4.981499   0.000000
    18  H    4.927624   2.959825   0.000000
    19  H    5.076592   2.390904   2.791875   0.000000
    20  H    7.132039   2.818128   3.030310   3.912396   0.000000
    21  H    6.036682   2.708636   2.622363   4.262273   1.753603
    22  H    7.396259   5.347106   3.956354   6.460302   3.754378
    23  H    9.710802   7.204138   5.032013   7.090378   4.943387
    24  H    8.224775   5.002217   3.298175   4.730696   2.918369
    25  H    3.460157   3.663611   2.272677   4.228218   4.478929
    26  H    2.810993   3.679079   2.290519   3.277109   5.037217
    27  H    2.068331   4.644202   4.557789   5.535155   6.338582
    28  H    2.078709   5.422650   4.391107   5.646162   6.835709
    29  H    1.012889   5.216226   4.871568   4.830767   7.317320
    30  H    1.012000   4.480469   5.018300   4.747016   6.891818
                   21         22         23         24         25
    21  H    0.000000
[...]
 64,0.00002074,-0.00003438,-0.00002562,-0.00004789,0.00026610,0.0000345
 2,0.00019555,0.00004700,0.00014263,-0.00023168,-0.00053312,-0.00084386
 ,0.00002480,0.00020887,-0.00012836,0.00020703,-0.00046030,0.00158695,-
 0.00062224,0.00058667,-0.00102994,-0.00040551,0.02155182,0.03472084,-0
 .00017952,-0.00001011,-0.00012209,0.00029529,-0.00022504,0.00025794,0.
 00029226,-0.00006947,-0.00117028,-0.00087714,0.00027275,0.00026972,0.0
 0453095,0.00028593,0.00439346,-0.00324463,-0.00016383,-0.00046038,-0.0
 0110058,-0.00039477,-0.00818671,-0.00068463,-0.00007653,0.00077807,0.0
 0571439,0.00300910,-0.01345525,-0.00226063,-0.00234295,-0.00086820,0.0
 0065887,-0.00031228,0.00458118,0.00150719,0.00237753,-0.00213155,0.081
 96180,0.00443555,-0.42247035,-0.00008326,0.00005447,0.00003962,-0.0000
 1633,-0.00000465,0.00000898,0.00003284,0.00001171,-0.00002526,-0.00011
 262,0.00005524,0.00019447,-0.00030765,-0.00010192,-0.00017452,0.000037
 79,0.00015297,0.00070749,0.00000831,0.00010939,-0.00000672,0.00039665,
 0.00020597,-0.00006879,0.00039737,0.00014770,0.00003859,-0.00021830,0.
 00012754,0.00004839,-0.08673257,-0.00752775,0.43786158,0.00080190,0.00
 008525,0.00088943,-0.00179480,-0.00284122,-0.00054800,-0.00031950,0.00
 007894,-0.00032358,-0.00022410,-0.00017377,-0.00100447,0.00001165,0.00
 018663,0.00039538,0.00008986,-0.00011180,-0.00022623,-0.00006094,-0.00
 005655,-0.00014086,0.00023615,0.00011361,-0.00007348,-0.00001614,-0.00
 003806,-0.00010240,-0.00000679,0.00000197,0.00007842,-0.00005223,-0.00
 006201,-0.00004843,-0.00003949,-0.00001815,0.00006494,0.00006032,0.000
 05051,0.00004140,-0.23980469,-0.02791592,0.10072656,-0.01886726,-0.003
 09051,0.01373401,-0.00544049,0.00134143,-0.00483877,-0.00019993,-0.000
 02560,0.00046999,-0.00015427,0.00074891,-0.00090977,-0.00010019,0.0000
 7138,0.00009213,0.00000558,0.00001667,0.00002875,0.00000302,0.00002216
 ,0.00004592,-0.00001061,0.00002253,-0.00000842,-0.00000266,-0.00000049
 ,0.00000030,0.00003746,0.00000983,-0.00001025,0.26471865,0.00250535,-0
 .00645858,-0.00135054,-0.03209482,-0.00124900,0.01427818,0.00168442,-0
 .00018910,-0.00045508,0.00041051,0.00000938,0.00033241,0.00005381,0.00
 008128,0.00008768,0.00007995,0.00001647,-0.00005482,0.00001790,-0.0000
 2734,-0.00000855,0.00016614,0.00021721,0.00033170,0.00011204,0.0000081
 4,-0.00003477,0.00003856,0.00000644,0.00006884,-0.00002883,-0.00002177
 ,-0.00001923,-0.00003372,-0.00002844,-0.00005210,-0.00003463,-0.000037
 32,-0.00001441,-0.03142061,-0.04924609,0.01920983,0.00545989,0.0001823
 9,-0.00419970,0.00214210,0.00058094,0.00159318,0.00042406,-0.00041681,
 -0.00063863,0.00022207,0.00008735,0.00050431,-0.00001138,-0.00006665,-
 0.00012806,-0.00006704,-0.00006100,-0.00009386,0.00007487,-0.00022594,
 -0.00010132,0.00003154,-0.00000615,-0.00003769,-0.00000605,-0.00000119
 ,-0.00000420,-0.00001474,0.00001245,0.00000910,0.03143083,0.05331271,-
 0.00092984,0.00104370,-0.00001151,0.01085220,-0.00173615,-0.00517810,-
 0.00129774,0.00129766,-0.00046828,0.00038276,0.00093484,0.00022385,0.0
 0037522,-0.00044816,-0.00079245,-0.00050735,0.00007590,0.00028401,-0.0
 0007771,0.00007829,0.00018700,-0.00031441,-0.00007283,-0.00003825,0.00
 003062,-0.00002053,-0.00008421,0.00001339,-0.00007518,0.00019093,0.000
 03278,-0.00001241,-0.00004341,-0.00000927,0.00002168,0.00003640,0.0000
 1078,-0.00004233,-0.00006846,0.10041786,0.01712386,-0.09694640,-0.0180
 2994,-0.00311922,0.01153363,-0.00393336,0.00082632,-0.00188074,-0.0004
 3291,0.00017031,0.00036032,-0.00058502,-0.00006403,-0.00144450,0.00018
 328,-0.00001171,0.00022751,0.00009298,-0.00003211,0.00000325,0.0000013
 3,0.00007995,0.00001412,-0.00000350,0.00001363,0.00000445,-0.00000306,
 0.00000520,0.00000010,-0.00001725,0.00001635,-0.00003278,-0.10893282,-
 0.01929661,0.10451156,-0.00016862,-0.00123090,0.00062213,-0.00200134,-
 0.00423082,-0.00077779,-0.00015709,0.00064276,-0.00143924,0.00028492,0
 .00090611,0.00037780,0.00014919,-0.00003230,-0.00052130,-0.00028543,-0
 .00007258,0.00009628,-0.00003358,-0.00001950,0.00008234,-0.00016194,-0
 .00011480,0.00022335,0.00002558,0.00004662,0.00003295,-0.00000669,0.00
 000456,0.00006961,0.00002039,0.00000491,-0.00002188,-0.00003115,-0.000
 01324,-0.00001903,-0.00002078,-0.00005993,-0.00006971,-0.04276252,0.00
 802740,0.00565744,-0.00014077,-0.01587425,-0.02000561,0.00316099,-0.00
 085436,0.00102539,-0.00010383,-0.00010398,0.00006921,-0.00112281,0.000
 48603,-0.00022982,0.00017116,0.00011301,0.00016049,0.00006547,-0.00007
 250,-0.00008155,0.00006265,-0.00008534,-0.00004498,0.00001686,-0.00001
 112,-0.00002183,-0.00000393,0.00000053,-0.00000324,-0.00004032,0.00002
 006,0.00000043,-0.00140262,0.01923508,0.02150503,0.04782473,-0.0021616
 2,-0.00462261,0.00494180,0.00114777,-0.01837971,-0.02939745,-0.0008017
 0,0.00098231,0.00294267,0.00002257,-0.00034697,-0.00005216,0.00055883,
 0.00005873,0.00017307,-0.00018775,0.00037512,0.00013610,-0.00017343,-0
 .00004682,-0.00001405,0.00009042,0.00024205,-0.00017508,0.00004138,-0.
 00000485,-0.00002635,0.00000041,-0.00000244,-0.00002185,-0.00002043,-0
 .00001676,0.00003095,0.00002026,0.00001325,-0.00001312,-0.00000859,0.0
 0001015,0.00005300,0.00931489,-0.15392827,-0.12482442,0.00063186,0.005
 17811,0.00592179,-0.00116207,0.00029752,0.00091204,-0.00059038,0.00025
 421,0.00020532,0.00093928,0.00008661,-0.00001482,0.00009380,-0.0005970
 0,0.00003990,-0.00009342,0.00002667,0.00006087,-0.00005035,0.00002784,
 0.00004897,-0.00000370,0.00000244,0.00000602,-0.00000102,0.00000040,0.
 00000024,0.00005221,0.00000585,-0.00002375,0.00017291,0.00330768,0.003
 45209,-0.00835324,0.16634180,0.00241998,0.00172918,-0.00124079,-0.0031
 8584,0.00679821,0.01065612,0.00031246,-0.00006756,-0.00114695,-0.00040
 424,0.00002321,0.00000861,-0.00028576,0.00024905,0.00029946,0.00019286
 ,-0.00022781,-0.00013309,-0.00001139,-0.00006085,-0.00012746,-0.000064
 34,-0.00001015,-0.00004368,0.00000369,0.00004353,-0.00002195,-0.000002
 15,-0.00002016,-0.00005652,-0.00003003,-0.00001696,0.00002123,0.000008
 84,0.00000474,0.00001909,0.00000947,0.00003002,0.00006034,0.00671149,-
 0.12335756,-0.18944047,0.00111663,-0.01463342,-0.01922600,0.00146961,0
 .00115384,0.00258019,0.00034242,-0.00037270,0.00007893,-0.00041347,0.0
 0062077,-0.00025739,-0.00004395,0.00027955,0.00009422,-0.00003371,0.00
 003224,0.00003735,-0.00000490,0.00003967,0.00001264,-0.00001260,0.0000
 1188,0.00001391,0.00000298,-0.00000261,0.00000350,0.00002764,-0.000004
 96,-0.00000228,0.00089948,-0.00990463,-0.01165197,-0.00479779,0.135272
 74,0.21027721,0.00061543,0.00058350,0.00051410,-0.00013249,-0.00163966
 ,-0.00008034,-0.00007531,0.00008748,0.00003160,-0.00002667,-0.00006823
 ,-0.00007920,0.00007242,0.00004001,0.00018560,0.00000370,0.00002293,-0
 .00004890,-0.00008143,-0.00002091,-0.00007747,0.00003457,0.00002168,-0
 .00006724,-0.00000526,0.00001541,-0.00001245,-0.00000076,-0.00000553,-
 0.00004110,-0.00002285,-0.00001723,0.00001902,0.00000656,0.00000238,0.
 00000508,0.00000315,0.00001544,0.00004780,-0.00067539,-0.01497261,-0.0
 1975164,-0.04649122,0.00026543,0.00145397,-0.00986761,0.02608023,0.027
 45602,-0.00002349,0.00003754,0.00002942,0.00015739,0.00003606,-0.00002
 162,-0.00003812,-0.00005247,0.00006012,-0.00002748,0.00001487,0.000024
 07,-0.00001144,0.00001413,0.00000423,-0.00000619,0.00000483,0.00000447
 ,0.00000017,-0.00000064,0.00000158,0.00002992,0.00000203,-0.00000912,0
 .00064868,-0.00040212,0.00075304,-0.00326961,0.00150532,-0.00347606,0.
 06319310,0.00023415,-0.00085158,0.00067068,-0.00014270,0.00030715,0.00
 110303,-0.00021537,0.00001911,-0.00046227,0.00014064,0.00010881,0.0000
 5362,0.00006167,-0.00000925,-0.00001185,-0.00007730,-0.00002461,-0.000
 02393,-0.00006842,-0.00000835,-0.00004263,-0.00002012,-0.00003379,-0.0
 0002514,-0.00000418,0.00001703,-0.00001872,0.00000111,-0.00000806,-0.0
 0003106,-0.00001689,-0.00001827,0.00001697,-0.00000083,0.00000058,0.00
 000013,-0.00000259,0.00000503,0.00004379,-0.00000132,0.00543139,0.0059
 9229,0.00500774,-0.16719451,-0.13158412,0.00196991,0.00192865,0.000445
 92,0.00000047,-0.00000911,-0.00003324,-0.00004886,0.00001716,0.0000072
 6,0.00001243,0.00004293,0.00006580,-0.00000187,-0.00000162,0.00000296,
 0.00001468,0.00000167,-0.00001060,-0.00000522,0.00000983,0.00000171,0.
 00000024,-0.00000053,0.00000160,0.00001932,0.00000503,-0.00001035,-0.0
 0067491,0.00024491,-0.00058296,0.00093522,0.00029078,0.00198184,-0.007
 57051,0.17636446,0.00138944,0.00127969,0.00188951,-0.00149735,-0.00333
 801,-0.00103963,0.00049703,0.00029833,0.00074529,-0.00011068,-0.000243
 47,-0.00016755,0.00006941,0.00006825,0.00007759,0.00002007,0.00006583,
 0.00005032,-0.00002769,-0.00001226,0.00000709,0.00006758,0.00008200,-0
 .00004870,0.00000251,-0.00001368,-0.00000363,-0.00000476,-0.00000122,-
 0.00002312,-0.00000180,0.00000814,0.00001503,0.00001243,0.00000577,-0.
 00000208,0.00000221,0.00001492,0.00002207,-0.00355634,-0.01401915,-0.0
 1912574,0.00533936,-0.12608432,-0.19017919,0.00676075,-0.00999264,-0.0
 0957974,-0.00006710,0.00008101,-0.00005407,0.00015498,0.00009252,-0.00
 000234,0.00001171,-0.00012159,-0.00007967,-0.00002698,0.00001361,0.000
 01801,-0.00002272,0.00000766,0.00001747,-0.00000279,-0.00000192,0.0000
 0433,0.00000236,-0.00000035,0.00000087,0.00001584,-0.00000542,-0.00000
 753,-0.00022464,0.00000892,0.00039650,-0.00329754,0.00111022,-0.001742
 81,-0.00659667,0.14185494,0.20829559,0.00066743,0.00016410,0.00020535,
 -0.00392765,-0.00102223,-0.00377662,0.00009412,0.00181849,-0.00064327,
 0.00033757,0.00021400,0.00010479,0.00005533,0.00001375,0.00015320,-0.0
 0003089,-0.00004889,-0.00010681,-0.00009018,-0.00002063,-0.00010606,-0
 .00000992,-0.00003319,-0.00002355,0.00000291,0.00002855,-0.00001834,0.
 00000947,-0.00000414,-0.00001942,-0.00002880,-0.00003913,0.00000908,-0
 .00001027,-0.00000566,0.00000186,-0.00000039,0.00000089,0.00004341,0.0
 0225996,0.02223260,-0.00988603,-0.05185353,-0.03309580,0.01465855,-0.0
 1534415,-0.03334655,0.01331470,-0.00034093,0.00018871,-0.00037533,0.00
 001956,-0.00003508,0.00002202,-0.00004736,0.00006083,0.00014365,-0.000
 00551,-0.00000673,0.00000916,0.00001447,-0.00000132,-0.00001858,-0.000
 00359,0.00001158,0.00000059,-0.00000328,-0.00000006,0.00000065,0.00002
 400,0.00001193,-0.00000878,0.00090622,0.00012930,0.00071971,0.00075223
 ,-0.00056940,0.00035651,0.00021105,0.00069177,-0.00093259,0.07043729,0
 .00104576,0.00037215,0.00102117,-0.00054749,0.00024397,-0.00044835,0.0
 0024120,-0.00030316,0.00047198,-0.00019544,-0.00017575,-0.00005100,-0.
 00016168,-0.00003148,-0.00013145,0.00010660,0.00003713,0.00006545,0.00
 015596,0.00003560,0.00011575,-0.00000188,0.00002921,0.00002682,-0.0000
 0174,-0.00003915,0.00003038,-0.00001347,0.00000660,0.00003192,0.000038
 67,0.00005657,-0.00002406,0.00000745,0.00000396,0.00000731,0.00000458,
 0.00000077,-0.00007301,-0.00064897,-0.00520373,0.00119281,-0.03699231,
 -0.26114588,0.08889206,-0.00273059,0.00269222,-0.00021702,0.00004961,0
 .00010365,0.00004205,-0.00003676,-0.00001136,-0.00001138,-0.00001215,-
 0.00003926,-0.00013157,0.00001741,0.00000404,-0.00001294,-0.00001670,0
 .00000043,0.00001596,0.00000474,-0.00001938,0.00000083,0.00000433,-0.0
 0000096,-0.00000041,-0.00003901,-0.00001833,0.00001898,0.00066316,-0.0
 0003951,0.00005055,0.00007892,0.00056113,0.00044058,-0.00307725,-0.018
 84963,0.00803244,0.04182334,0.27916655,0.00079039,-0.00010665,0.001050
 16,-0.00471330,-0.00221055,-0.00221994,0.00005966,0.00159261,-0.000699
 81,0.00035305,0.00027271,0.00006186,0.00010138,0.00003539,0.00014161,-
 0.00006031,-0.00006322,-0.00008281,-0.00011567,-0.00003363,-0.00010847
 ,-0.00000943,-0.00002172,-0.00001582,0.00000277,0.00002764,-0.00000966
 ,0.00000978,0.00000233,-0.00001209,-0.00002740,-0.00003809,0.00000503,
 -0.00001053,-0.00000681,0.00000022,0.00000049,-0.00000660,0.00003126,-
 0.00041605,0.02309676,-0.01069801,0.01550587,0.08586145,-0.08740606,0.
 00812603,0.01263624,-0.00410403,-0.00023031,0.00015179,-0.00037033,0.0
 0005350,-0.00002682,0.00005788,-0.00000474,0.00006340,0.00012706,-0.00
 000653,-0.00000849,0.00000864,0.00001197,-0.00000798,-0.00001806,-0.00
 000036,0.00000479,-0.00000133,-0.00000512,0.00000094,-0.00000070,0.000
 02310,0.00001670,-0.00000911,0.00024520,-0.00031294,0.00098581,0.00106
 193,-0.00023166,0.00038135,-0.00442863,-0.02112199,0.01112690,-0.01826
 038,-0.09948519,0.09316527,0.00002603,-0.00036611,0.00001328,-0.000363
 26,0.00107826,-0.00061737,0.00017133,-0.00013016,0.00029930,-0.0001439
 1,-0.00003762,0.00000162,-0.00019085,-0.00004600,-0.00022892,0.0000899
 3,-0.00001995,0.00010343,0.00017675,0.00003290,0.00016054,-0.00002698,
 0.00002254,0.00003022,0.00001678,-0.00004160,0.00000064,-0.00000111,-0
 .00002068,0.00003716,0.00005427,0.00003220,-0.00001290,-0.00000367,0.0
 0000408,0.00000337,0.00001332,-0.00000782,-0.00004717,0.00214865,0.001
 08116,0.00129863,-0.00920854,0.02714193,0.02992134,-0.03857632,-0.0072
 7612,0.02776916,0.00002703,0.00001523,-0.00001155,-0.00008220,-0.00001
 462,-0.00001978,-0.00001465,0.00004797,-0.00016302,0.00002597,-0.00000
 579,-0.00000593,-0.00001280,0.00001958,0.00001287,-0.00001091,0.000006
 59,0.00000795,0.00000068,0.00000402,0.00000116,-0.00004774,-0.00000489
 ,0.00000232,0.00060181,-0.00052415,-0.00022485,-0.00061580,-0.00045531
 ,-0.00096918,-0.00546562,-0.00065696,0.00227185,0.00118780,-0.00055653
 ,-0.00048439,0.05103351,0.00074315,0.00002117,0.00032737,-0.00009605,-
 0.00111498,-0.00014130,0.00002725,0.00015134,0.00011390,0.00009186,0.0
 0003224,0.00002208,0.00026733,0.00003818,0.00005768,-0.00016356,0.0000
 2119,0.00003572,-0.00017295,-0.00003545,-0.00008119,0.00002272,-0.0000
 0231,-0.00000950,-0.00000604,0.00002516,-0.00000556,0.00000358,0.00001
 348,-0.00001839,-0.00003487,-0.00002831,0.00001304,0.00000354,-0.00000
 116,-0.00000941,-0.00001232,-0.00000330,0.00003564,-0.00102378,0.00007
 250,0.00059857,0.00076188,0.00200640,0.00068696,0.01181928,-0.20737301
 ,-0.17148634,-0.00000038,-0.00000223,-0.00004753,0.00004956,0.00001328
 ,0.00001259,0.00012737,-0.00006450,0.00006026,-0.00001571,-0.00000076,
 0.00000256,0.00000580,-0.00001412,-0.00000770,0.00000782,-0.00000314,-
 0.00000604,-0.00000255,-0.00000092,-0.00000168,0.00003651,0.00001116,-
 0.00000987,-0.00040018,0.00028092,0.00018204,0.00077136,0.00002564,0.0
 0005463,-0.00101389,0.00181269,0.00097686,0.00021038,0.00040645,0.0003
 1813,-0.01548204,0.22581823,-0.00050619,0.00003591,0.00001316,0.000002
 79,0.00070411,-0.00014980,0.00007008,-0.00014293,0.00003203,-0.0000595
 0,-0.00003493,-0.00000331,-0.00016106,-0.00003499,-0.00008232,0.000093
 60,-0.00001422,0.00001083,0.00011645,0.00002608,0.00007534,-0.00001626
 ,0.00000101,0.00000897,0.00000216,-0.00001974,0.00000285,-0.00000522,-
 0.00001196,0.00000625,0.00002959,0.00002500,-0.00000494,-0.00000110,0.
 00000172,0.00000545,0.00000843,0.00000227,-0.00002217,-0.00045463,0.00
 092124,0.00250773,-0.00561740,-0.00834508,-0.01386782,0.05552766,-0.20
 675097,-0.24939727,0.00002868,-0.00000478,0.00001282,-0.00006174,-0.00
 001077,-0.00000422,-0.00004521,0.00003603,-0.00005554,0.00001389,-0.00
 000039,-0.00000352,-0.00000438,0.00000896,0.00000533,-0.00000689,0.000
 00194,0.00000555,0.00000228,0.00000088,0.00000176,-0.00002654,-0.00000
 768,0.00000430,-0.00024016,0.00006160,-0.00018074,0.00045064,-0.000408
 53,0.00057308,0.00424929,0.00121343,-0.00042041,-0.00004459,0.00015699
 ,-0.00032177,-0.04946390,0.19961005,0.25322462,0.00359161,0.00034117,0
 .00070954,-0.00508159,-0.00177328,-0.00311741,0.00108070,0.00023218,0.
 00193002,-0.00043142,-0.00035299,-0.00002131,-0.00025970,-0.00001146,-
 0.00040572,0.00017589,0.00007165,0.00027068,0.00032715,0.00004856,0.00
 032643,0.00002225,0.00011205,0.00004478,0.00003258,-0.00009347,0.00000
 879,-0.00000859,-0.00002412,0.00005906,0.00009470,0.00007620,-0.000019
 36,0.00000823,0.00001191,-0.00000040,0.00001745,-0.00000408,-0.0000874
 9,0.00097759,-0.00117994,-0.00025837,-0.01479481,-0.03633184,0.0151820
 6,-0.04746066,-0.04945444,0.03927850,0.00002410,0.00012938,-0.00017960
 ,-0.00001496,0.00001591,-0.00002036,0.00001004,-0.00007809,-0.00040603
 ,0.00002995,-0.00000203,-0.00000754,-0.00003650,0.00001992,0.00003521,
 -0.00001310,0.00000141,0.00000967,0.00000438,0.00000543,0.00000137,-0.
 00007858,-0.00001944,0.00000955,0.00037542,0.00041966,-0.00007195,-0.0
 0020533,0.00004049,-0.00013866,0.00124481,0.00041872,-0.00024789,-0.00
 528296,0.00079023,0.00242804,-0.00080952,0.00347493,-0.00388075,0.0664
 6089,-0.00050072,-0.00292828,-0.00040373,0.00219390,0.00241508,0.00070
 097,-0.00072297,-0.00028883,-0.00079331,0.00014349,0.00017219,0.000004
 95,-0.00006536,-0.00001126,0.00008978,0.00001163,-0.00006570,-0.000110
 22,-0.00003263,-0.00001221,-0.00008461,-0.00004079,-0.00006364,-0.0000
 1689,-0.00000689,0.00002562,-0.00000349,0.00000632,-0.00000343,-0.0000
 0711,-0.00001642,-0.00002589,-0.00000111,-0.00000893,-0.00000419,0.000
 00694,0.00000333,-0.00000234,0.00001598,0.00083554,-0.00011291,-0.0003
 6273,0.00103091,0.00130917,0.00246225,-0.08293990,-0.36791447,0.102030
 75,-0.00002909,-0.00006723,0.00014692,-0.00004566,-0.00002698,-0.00001
 986,-0.00007793,0.00011551,0.00013170,0.00000331,-0.00000222,0.0000056
 7,0.00001264,0.00000708,-0.00001180,-0.00000317,0.00000723,0.00000040,
 -0.00000272,0.00000029,0.00000016,0.00000770,0.00000869,-0.00000068,0.
 00039248,-0.00027337,0.00014186,-0.00014370,-0.00014286,-0.00008631,0.
 00009180,0.00040211,-0.00016708,0.00062859,0.00215715,-0.00039853,-0.0
 0384011,-0.02210583,0.01297976,0.08311537,0.38743155,-0.00086256,-0.00
 000264,-0.00114755,-0.00036400,0.00132600,0.00051015,-0.00012981,-0.00
 042884,-0.00003381,-0.00014724,-0.00005422,-0.00006480,-0.00024528,-0.
 00003984,-0.00003960,0.00015369,-0.00000570,-0.00003180,0.00015966,0.0
 0002475,0.00006989,-0.00000611,0.00001903,0.00001553,0.00001490,-0.000
 02343,0.00000131,0.00000275,-0.00001173,0.00002404,0.00003332,0.000014
 81,-0.00001173,-0.00000600,-0.00000041,0.00000229,0.00001060,-0.000003
 81,-0.00003111,-0.00025449,-0.00163226,0.00110549,-0.00171112,0.015430
 11,-0.00715438,0.06045655,0.13230705,-0.08683751,0.00005621,-0.0000129
 4,0.00009678,-0.00003221,-0.00000231,-0.00001531,-0.00012168,0.0000231
 8,-0.00006812,0.00001216,-0.00000081,-0.00000014,-0.00000412,0.0000105
 0,0.00000567,-0.00000781,0.00000749,0.00000337,-0.00000023,0.00000269,
 0.00000070,-0.00003528,-0.00000456,0.00000799,-0.00007961,0.00022139,-
 0.00013763,-0.00010371,-0.00010455,-0.00002588,-0.00014895,0.00050289,
 -0.00019037,0.00447710,-0.00002766,-0.00106506,-0.00968592,-0.03128356
 ,0.00802374,-0.05143083,-0.11625063,0.08698785\\-0.00000457,-0.0000036
 1,-0.00000205,0.00000171,0.00000547,0.00000201,0.00000207,-0.00000144,
 -0.00000028,0.00000159,0.00000016,0.00000125,-0.00000206,0.00000090,-0
 .00000537,-0.00000216,0.00000026,0.00000037,0.00000505,0.00000095,0.00
 000322,-0.00000069,-0.00000009,0.00000161,-0.00000067,-0.00000110,0.00
 000057,0.00000021,0.00000008,-0.00000097,0.00000053,-0.00000009,-0.000
 00313,0.00000038,-0.00000004,0.00000076,-0.00000031,-0.00000026,0.0000
 0128,-0.00000102,-0.00000013,0.00000010,-0.00000147,-0.00000077,0.0000
 0156,-0.00000032,0.00000057,-0.00000113,-0.00000063,-0.00000111,0.0000
 0123,-0.00000055,0.00000123,-0.00000138,-0.00000035,-0.00000026,0.0000
 0109,0.00000007,-0.00000071,0.00000002,-0.00000015,-0.00000051,-0.0000
 0090,-0.00000049,-0.00000063,-0.00000140,0.00000086,0.00000035,-0.0000
 0021,0.00000024,-0.00000013,-0.00000043,0.00000157,-0.00000048,0.00000
 018,0.00000069,0.00000111,0.00000077,0.00000026,-0.00000087,-0.0000003
 4,-0.00000015,0.00000094,-0.00000013,0.00000031,0.00000021,0.00000128,
 0.00000006,-0.00000003,0.00000041\\\@


 HIGGLEDY-PIGGLEDY
 NIC'LAUS COPERNICUS
 LOOKED AT THE UNIVERSE,
 SPOKE TO THE THRONG;
 GIVE UP YOUR PTOLOMY,
 RISE UP AND FOLLOW ME,
 HELIOCENTRICALLY
 PTOLEMY'S WRONG.
   -- NANCY L. STARK
 Job cpu time:       0 days 14 hours  8 minutes 35.9 seconds.
 File lengths (MBytes):  RWF=    973 Int=      0 D2E=      0 Chk=     36 Scr=      1
 Normal termination of Gaussian 09 at Thu Jul 29 06:04:22 2021.
