 Entering Gaussian System, Link 0=g09
 Input=opt_freq-conf-801.com
 Output=opt_freq-conf-801.log
 Initial command:
 /aerosol/software/g09/l1.exe "/scratch/nicole/10719/Gau-88186.inp" -scrdir="/scratch/nicole/10719/"
 Entering Link 1 = /aerosol/software/g09/l1.exe PID=     88190.
  
 Copyright (c) 1988,1990,1992,1993,1995,1998,2003,2009,2013,
            Gaussian, Inc.  All Rights Reserved.
  
 This is part of the Gaussian(R) 09 program.  It is based on
 the Gaussian(R) 03 system (copyright 2003, Gaussian, Inc.),
 the Gaussian(R) 98 system (copyright 1998, Gaussian, Inc.),
 the Gaussian(R) 94 system (copyright 1995, Gaussian, Inc.),
 the Gaussian 92(TM) system (copyright 1992, Gaussian, Inc.),
 the Gaussian 90(TM) system (copyright 1990, Gaussian, Inc.),
 the Gaussian 88(TM) system (copyright 1988, Gaussian, Inc.),
 the Gaussian 86(TM) system (copyright 1986, Carnegie Mellon
 University), and the Gaussian 82(TM) system (copyright 1983,
 Carnegie Mellon University). Gaussian is a federally registered
 trademark of Gaussian, Inc.
  
 This software contains proprietary and confidential information,
 including trade secrets, belonging to Gaussian, Inc.
  
 This software is provided under written license and may be
 used, copied, transmitted, or stored only in accord with that
 written license.
  
 The following legend is applicable only to US Government
 contracts under FAR:
  
                    RESTRICTED RIGHTS LEGEND
  
 Use, reproduction and disclosure by the US Government is
 subject to restrictions as set forth in subparagraphs (a)
 and (c) of the Commercial Computer Software - Restricted
 Rights clause in FAR 52.227-19.
  
 Gaussian, Inc.
 340 Quinnipiac St., Bldg. 40, Wallingford CT 06492
  
  
 ---------------------------------------------------------------
 Warning -- This program may not be used in any manner that
 competes with the business of Gaussian, Inc. or will provide
 assistance to any competitor of Gaussian, Inc.  The licensee
 of this program is prohibited from giving any competitor of
 Gaussian, Inc. access to this program.  By using this program,
 the user acknowledges that Gaussian, Inc. is engaged in the
 business of creating and licensing software in the field of
 computational chemistry and represents and warrants to the
 licensee that it is not a competitor of Gaussian, Inc. and that
 it will not use this program in any manner prohibited above.
 ---------------------------------------------------------------
  

 Cite this work as:
 Gaussian 09, Revision D.01,
 M. J. Frisch, G. W. Trucks, H. B. Schlegel, G. E. Scuseria, 
 M. A. Robb, J. R. Cheeseman, G. Scalmani, V. Barone, B. Mennucci, 
 G. A. Petersson, H. Nakatsuji, M. Caricato, X. Li, H. P. Hratchian, 
 A. F. Izmaylov, J. Bloino, G. Zheng, J. L. Sonnenberg, M. Hada, 
 M. Ehara, K. Toyota, R. Fukuda, J. Hasegawa, M. Ishida, T. Nakajima, 
 Y. Honda, O. Kitao, H. Nakai, T. Vreven, J. A. Montgomery, Jr., 
 J. E. Peralta, F. Ogliaro, M. Bearpark, J. J. Heyd, E. Brothers, 
 K. N. Kudin, V. N. Staroverov, T. Keith, R. Kobayashi, J. Normand, 
 K. Raghavachari, A. Rendell, J. C. Burant, S. S. Iyengar, J. Tomasi, 
 M. Cossi, N. Rega, J. M. Millam, M. Klene, J. E. Knox, J. B. Cross, 
 V. Bakken, C. Adamo, J. Jaramillo, R. Gomperts, R. E. Stratmann, 
 O. Yazyev, A. J. Austin, R. Cammi, C. Pomelli, J. W. Ochterski, 
 R. L. Martin, K. Morokuma, V. G. Zakrzewski, G. A. Voth, 
 P. Salvador, J. J. Dannenberg, S. Dapprich, A. D. Daniels, 
 O. Farkas, J. B. Foresman, J. V. Ortiz, J. Cioslowski, 
 and D. J. Fox, Gaussian, Inc., Wallingford CT, 2013.
 
 ******************************************
 Gaussian 09:  ES64L-G09RevD.01 24-Apr-2013
                29-Jul-2021 
 ******************************************
 %mem=2gb
 %nproc=4
 Will use up to    4 processors via shared memory.
 %chk=conf-801.chk
 ----------------------------------------------------------------------
 # B3LYP/6-311G(2df,2pd) guess=read geom=checkpoint opt=readfc freq=nor
 aman nosymm integral(ultrafinegrid)
 ----------------------------------------------------------------------
 1/10=3,14=-1,18=20,19=15,26=4,29=2,38=1/1,3;
 2/9=110,12=2,15=1,40=1/2;
 3/5=4,6=6,7=404,11=2,14=-4,16=1,25=1,30=1,71=1,74=-5,75=-5,116=-2/1,2,3;
 4/5=1/1;
 5/5=2,38=6/2;
 6/7=2,8=2,9=2,10=2,28=1/1;
 7/30=1/1,2,3,16;
 1/14=-1,18=20,19=15,26=4/3(2);
 2/9=110,15=1/2;
 99//99;
 2/9=110,15=1/2;
 3/5=4,6=6,7=404,11=2,14=-2,16=1,25=1,30=1,71=1,74=-5,75=-5/1,2,3;
 4/5=5,16=3,69=1/1;
 5/5=2,38=5/2;
 7/30=1/1,2,3,16;
 1/14=-1,18=20,19=15,26=4/3(-5);
 2/9=110,15=1/2;
 6/7=2,8=2,9=2,10=2,19=2,28=1/1;
 99/9=1/99;
 ------------------------------------------------------------
 Candidate Structure: Conf:801 OPT and FREQ calc in gas phase
 ------------------------------------------------------------
 Structure from the checkpoint file:  "conf-801.chk"
 Charge =  0 Multiplicity = 1
 Redundant internal coordinates found in file.
 O,0,1.4785303723,0.8478845337,-1.0789120098
 C,0,1.7583834938,0.2282665425,-0.0548963672
 N,0,0.8042626955,-0.1028870249,0.8652187752
 C,0,-0.5475259833,0.3996066887,0.7596498621
 C,0,-1.1849848782,0.3081028672,2.1527347262
 O,0,-2.3969377236,0.8692409396,2.2909542801
 O,0,-0.6416272006,-0.2436448543,3.0833733737
 C,0,-1.3581669343,-0.3792409548,-0.3221272852
 C,0,-2.7397485614,0.1537085571,-0.5567501809
 C,0,-3.2128308686,1.39436858,-0.9405440275
 N,0,-4.5902310182,1.4044434092,-1.0069735692
 C,0,-4.9588812194,0.1889220446,-0.6711358144
 N,0,-3.8833256122,-0.6052455826,-0.3848131149
 C,0,3.1774008259,-0.2081003181,0.2837675229
 C,0,3.9985544583,-0.5195867843,-0.969120038
 N,0,5.4003401747,-0.7469627478,-0.6071906934
 H,0,1.0447215578,-0.5120721827,1.7602081297
 H,0,-0.5156299156,1.4523679173,0.4484833901
 H,0,-2.7086760562,1.2241998573,1.4365951165
 H,0,-1.3989491181,-1.4355521545,-0.0337571239
 H,0,-0.7625289318,-0.3127529801,-1.2369384813
 H,0,-2.6317125199,2.2691480874,-1.2006023642
 H,0,-5.9761307361,-0.1726742624,-0.6126856113
 H,0,-3.9115071364,-1.5696614447,-0.0884833747
 H,0,3.1609508739,-1.0679488355,0.9657151896
 H,0,3.6693775787,0.6110248386,0.8234228614
 H,0,3.9432341645,0.3476131144,-1.6324081843
 H,0,3.5261342375,-1.3569993513,-1.5116935045
 H,0,5.4944796169,-1.6354959483,-0.1190737938
 H,0,5.9627928642,-0.8301725913,-1.450305589
 Recover connectivity data from disk.

 GradGradGradGradGradGradGradGradGradGradGradGradGradGradGradGradGradGrad
 Berny optimization.
 Initialization pass.
 Force constant matrix read from checkpoint file:
 "conf-801.chk"
                           ----------------------------
                           !    Initial Parameters    !
                           ! (Angstroms and Degrees)  !
 --------------------------                            --------------------------
 ! Name  Definition              Value          Derivative Info.                !
 --------------------------------------------------------------------------------
 ! R1    R(1,2)                  1.2292         D2E/DX2 =    0.7847             !
 ! R2    R(2,3)                  1.3662         D2E/DX2 =    0.4447             !
 ! R3    R(2,14)                 1.5227         D2E/DX2 =    0.273              !
 ! R4    R(3,4)                  1.446          D2E/DX2 =    0.3548             !
 ! R5    R(3,17)                 1.013          D2E/DX2 =    0.4598             !
 ! R6    R(4,5)                  1.5347         D2E/DX2 =    0.2703             !
 ! R7    R(4,8)                  1.5601         D2E/DX2 =    0.2491             !
 ! R8    R(4,18)                 1.0982         D2E/DX2 =    0.3279             !
 ! R9    R(5,6)                  1.3427         D2E/DX2 =    0.4362             !
 ! R10   R(5,7)                  1.2107         D2E/DX2 =    0.8651             !
 ! R11   R(6,19)                 0.9763         D2E/DX2 =    0.474              !
 ! R12   R(8,9)                  1.4993         D2E/DX2 =    0.3096             !
 ! R13   R(8,20)                 1.0957         D2E/DX2 =    0.3347             !
 ! R14   R(8,21)                 1.0937         D2E/DX2 =    0.3403             !
 ! R15   R(9,10)                 1.3822         D2E/DX2 =    0.3956             !
 ! R16   R(9,13)                 1.3832         D2E/DX2 =    0.3618             !
 ! R17   R(10,11)                1.379          D2E/DX2 =    0.3329             !
 ! R18   R(10,22)                1.0819         D2E/DX2 =    0.3715             !
 ! R19   R(11,12)                1.3138         D2E/DX2 =    0.466              !
 ! R20   R(12,13)                1.3673         D2E/DX2 =    0.3592             !
 ! R21   R(12,23)                1.0812         D2E/DX2 =    0.3746             !
 ! R22   R(13,24)                1.0093         D2E/DX2 =    0.4754             !
 ! R23   R(14,15)                1.53           D2E/DX2 =    0.2812             !
 ! R24   R(14,25)                1.0976         D2E/DX2 =    0.3303             !
 ! R25   R(14,26)                1.0974         D2E/DX2 =    0.3332             !
 ! R26   R(15,16)                1.4655         D2E/DX2 =    0.3305             !
 ! R27   R(15,27)                1.0932         D2E/DX2 =    0.3419             !
 ! R28   R(15,28)                1.104          D2E/DX2 =    0.3114             !
 ! R29   R(16,29)                1.0181         D2E/DX2 =    0.4422             !
 ! R30   R(16,30)                1.0169         D2E/DX2 =    0.4472             !
 ! A1    A(1,2,3)              121.6175         D2E/DX2 =    0.2055             !
 ! A2    A(1,2,14)             122.8139         D2E/DX2 =    0.1702             !
 ! A3    A(3,2,14)             115.5657         D2E/DX2 =    0.1671             !
 ! A4    A(2,3,4)              121.2953         D2E/DX2 =    0.1407             !
 ! A5    A(2,3,17)             121.8111         D2E/DX2 =    0.0901             !
 ! A6    A(4,3,17)             115.2618         D2E/DX2 =    0.0963             !
 ! A7    A(3,4,5)              107.5357         D2E/DX2 =    0.0991             !
 ! A8    A(3,4,8)              111.2773         D2E/DX2 =    0.0951             !
 ! A9    A(3,4,18)             109.0652         D2E/DX2 =    0.0299             !
 ! A10   A(5,4,8)              112.57           D2E/DX2 =    0.1006             !
 ! A11   A(5,4,18)             109.0501         D2E/DX2 =    0.0246             !
 ! A12   A(8,4,18)             107.2881         D2E/DX2 =    0.0325             !
 ! A13   A(4,5,6)              116.3233         D2E/DX2 =    0.199              !
 ! A14   A(4,5,7)              122.5817         D2E/DX2 =    0.1993             !
 ! A15   A(6,5,7)              121.0933         D2E/DX2 =    0.2054             !
 ! A16   A(5,6,19)             110.4926         D2E/DX2 =    0.2018             !
 ! A17   A(4,8,9)              114.196          D2E/DX2 =    0.1762             !
 ! A18   A(4,8,20)             108.5492         D2E/DX2 =    0.0636             !
 ! A19   A(4,8,21)             105.4657         D2E/DX2 =    0.061              !
 ! A20   A(9,8,20)             110.461          D2E/DX2 =    0.0538             !
 ! A21   A(9,8,21)             110.4484         D2E/DX2 =    0.0538             !
 ! A22   A(20,8,21)            107.3986         D2E/DX2 =    0.0205             !
 ! A23   A(8,9,10)             132.6831         D2E/DX2 =    0.096              !
 ! A24   A(8,9,13)             123.1851         D2E/DX2 =    0.1056             !
 ! A25   A(10,9,13)            104.1257         D2E/DX2 =    0.1022             !
 ! A26   A(9,10,11)            111.2112         D2E/DX2 =    0.1141             !
 ! A27   A(9,10,22)            127.4933         D2E/DX2 =    0.0821             !
 ! A28   A(11,10,22)           121.2645         D2E/DX2 =    0.0898             !
 ! A29   A(10,11,12)           105.1403         D2E/DX2 =    0.131              !
 ! A30   A(11,12,13)           111.7262         D2E/DX2 =    0.1184             !
 ! A31   A(11,12,23)           125.9608         D2E/DX2 =    0.0894             !
 ! A32   A(13,12,23)           122.3124         D2E/DX2 =    0.0902             !
 ! A33   A(9,13,12)            107.7954         D2E/DX2 =    0.103              !
 ! A34   A(9,13,24)            125.7221         D2E/DX2 =    0.0783             !
 ! A35   A(12,13,24)           126.4779         D2E/DX2 =    0.079              !
 ! A36   A(2,14,15)            112.1079         D2E/DX2 =    0.1395             !
 ! A37   A(2,14,25)            110.409          D2E/DX2 =    0.0541             !
 ! A38   A(2,14,26)            108.2553         D2E/DX2 =    0.043              !
 ! A39   A(15,14,25)           110.9364         D2E/DX2 =    0.0573             !
 ! A40   A(15,14,26)           108.3029         D2E/DX2 =    0.0519             !
 ! A41   A(25,14,26)           106.615          D2E/DX2 =    0.0208             !
 ! A42   A(14,15,16)           110.0419         D2E/DX2 =    0.1516             !
 ! A43   A(14,15,27)           107.9499         D2E/DX2 =    0.0559             !
 ! A44   A(14,15,28)           109.0988         D2E/DX2 =    0.0631             !
 ! A45   A(16,15,27)           108.7434         D2E/DX2 =    0.0492             !
 ! A46   A(16,15,28)           114.3933         D2E/DX2 =    0.0575             !
 ! A47   A(27,15,28)           106.3721         D2E/DX2 =    0.0219             !
 ! A48   A(15,16,29)           110.0137         D2E/DX2 =    0.1477             !
 ! A49   A(15,16,30)           109.6934         D2E/DX2 =    0.1431             !
 ! A50   A(29,16,30)           105.958          D2E/DX2 =    0.0564             !
 ! D1    D(1,2,3,4)             -7.6709         D2E/DX2 =    0.012              !
 ! D2    D(1,2,3,17)          -172.4176         D2E/DX2 =    0.0107             !
 ! D3    D(14,2,3,4)           171.7253         D2E/DX2 =    0.0101             !
 ! D4    D(14,2,3,17)            6.9786         D2E/DX2 =    0.0073             !
 ! D5    D(1,2,14,15)          -31.8617         D2E/DX2 =    0.0135             !
 ! D6    D(1,2,14,25)         -156.102          D2E/DX2 =    0.0153             !
 ! D7    D(1,2,14,26)           87.5392         D2E/DX2 =    0.0154             !
 ! D8    D(3,2,14,15)          148.7502         D2E/DX2 =    0.0134             !
 ! D9    D(3,2,14,25)           24.5099         D2E/DX2 =    0.0157             !
 ! D10   D(3,2,14,26)          -91.8489         D2E/DX2 =    0.014              !
 ! D11   D(2,3,4,5)           -158.7341         D2E/DX2 =    0.0149             !
 ! D12   D(2,3,4,8)             77.5542         D2E/DX2 =    0.0161             !
 ! D13   D(2,3,4,18)           -40.6107         D2E/DX2 =    0.0086             !
 ! D14   D(17,3,4,5)             6.9534         D2E/DX2 =    0.0155             !
 ! D15   D(17,3,4,8)          -116.7583         D2E/DX2 =    0.0155             !
 ! D16   D(17,3,4,18)          125.0768         D2E/DX2 =    0.0099             !
 ! D17   D(3,4,5,6)            172.8004         D2E/DX2 =    0.0227             !
 ! D18   D(3,4,5,7)             -7.6621         D2E/DX2 =    0.0217             !
 ! D19   D(8,4,5,6)            -64.2795         D2E/DX2 =    0.0263             !
 ! D20   D(8,4,5,7)            115.258          D2E/DX2 =    0.0224             !
 ! D21   D(18,4,5,6)            54.6673         D2E/DX2 =    0.0165             !
 ! D22   D(18,4,5,7)          -125.7952         D2E/DX2 =    0.0154             !
 ! D23   D(3,4,8,9)           -175.7765         D2E/DX2 =    0.0199             !
 ! D24   D(3,4,8,20)            60.5119         D2E/DX2 =    0.0192             !
 ! D25   D(3,4,8,21)           -54.3285         D2E/DX2 =    0.0203             !
 ! D26   D(5,4,8,9)             63.4249         D2E/DX2 =    0.0253             !
 ! D27   D(5,4,8,20)           -60.2867         D2E/DX2 =    0.0204             !
 ! D28   D(5,4,8,21)          -175.1272         D2E/DX2 =    0.023              !
 ! D29   D(18,4,8,9)           -56.5458         D2E/DX2 =    0.0129             !
 ! D30   D(18,4,8,20)          179.7427         D2E/DX2 =    0.0143             !
 ! D31   D(18,4,8,21)           64.9022         D2E/DX2 =    0.0137             !
 ! D32   D(4,5,6,19)             2.7136         D2E/DX2 =    0.0136             !
 ! D33   D(7,5,6,19)          -176.8313         D2E/DX2 =    0.0207             !
 ! D34   D(4,8,9,10)            57.9738         D2E/DX2 =    0.0117             !
 ! D35   D(4,8,9,13)          -120.9818         D2E/DX2 =    0.0115             !
 ! D36   D(20,8,9,10)         -179.3499         D2E/DX2 =    0.0139             !
 ! D37   D(20,8,9,13)            1.6945         D2E/DX2 =    0.013              !
 ! D38   D(21,8,9,10)          -60.6818         D2E/DX2 =    0.0137             !
 ! D39   D(21,8,9,13)          120.3626         D2E/DX2 =    0.0138             !
 ! D40   D(8,9,10,11)         -179.2301         D2E/DX2 =    0.0092             !
 ! D41   D(8,9,10,22)            2.7937         D2E/DX2 =    0.0071             !
 ! D42   D(13,9,10,11)          -0.1315         D2E/DX2 =    0.0139             !
 ! D43   D(13,9,10,22)        -178.1077         D2E/DX2 =    0.0099             !
 ! D44   D(8,9,13,12)          179.4937         D2E/DX2 =    0.0079             !
 ! D45   D(8,9,13,24)            0.2379         D2E/DX2 =    0.0026             !
 ! D46   D(10,9,13,12)           0.2854         D2E/DX2 =    0.0123             !
 ! D47   D(10,9,13,24)        -178.9704         D2E/DX2 =    0.0045             !
 ! D48   D(9,10,11,12)          -0.079          D2E/DX2 =    0.0173             !
 ! D49   D(22,10,11,12)        178.0426         D2E/DX2 =    0.0101             !
 ! D50   D(10,11,12,13)          0.2687         D2E/DX2 =    0.0184             !
 ! D51   D(10,11,12,23)        179.9756         D2E/DX2 =    0.0103             !
 ! D52   D(11,12,13,9)          -0.3614         D2E/DX2 =    0.0173             !
 ! D53   D(11,12,13,24)        178.8872         D2E/DX2 =    0.0078             !
 ! D54   D(23,12,13,9)         179.9193         D2E/DX2 =    0.0103             !
 ! D55   D(23,12,13,24)         -0.8321         D2E/DX2 =    0.0061             !
 ! D56   D(2,14,15,16)         171.9436         D2E/DX2 =    0.0148             !
 ! D57   D(2,14,15,27)          53.4068         D2E/DX2 =    0.0142             !
 ! D58   D(2,14,15,28)         -61.7898         D2E/DX2 =    0.0141             !
 ! D59   D(25,14,15,16)        -64.1101         D2E/DX2 =    0.0153             !
 ! D60   D(25,14,15,27)        177.3531         D2E/DX2 =    0.0146             !
 ! D61   D(25,14,15,28)         62.1565         D2E/DX2 =    0.0157             !
 ! D62   D(26,14,15,16)         52.5706         D2E/DX2 =    0.0155             !
 ! D63   D(26,14,15,27)        -65.9662         D2E/DX2 =    0.0162             !
 ! D64   D(26,14,15,28)        178.8372         D2E/DX2 =    0.0147             !
 ! D65   D(14,15,16,29)         71.3295         D2E/DX2 =    0.0154             !
 ! D66   D(14,15,16,30)       -172.4933         D2E/DX2 =    0.0153             !
 ! D67   D(27,15,16,29)       -170.6226         D2E/DX2 =    0.0183             !
 ! D68   D(27,15,16,30)        -54.4453         D2E/DX2 =    0.0175             !
 ! D69   D(28,15,16,29)        -51.8906         D2E/DX2 =    0.0184             !
 ! D70   D(28,15,16,30)         64.2866         D2E/DX2 =    0.0182             !
 --------------------------------------------------------------------------------
 Trust Radius=3.00D-01 FncErr=1.00D-07 GrdErr=1.00D-06
 Number of steps in this run=    160 maximum allowed number of steps=    180.
 GradGradGradGradGradGradGradGradGradGradGradGradGradGradGradGradGradGrad

                          Input orientation:                          
 ---------------------------------------------------------------------
 Center     Atomic      Atomic             Coordinates (Angstroms)
 Number     Number       Type             X           Y           Z
 ---------------------------------------------------------------------
      1          8           0        1.478530    0.847885   -1.078912
      2          6           0        1.758383    0.228267   -0.054896
      3          7           0        0.804263   -0.102887    0.865219
      4          6           0       -0.547526    0.399607    0.759650
      5          6           0       -1.184985    0.308103    2.152735
      6          8           0       -2.396938    0.869241    2.290954
      7          8           0       -0.641627   -0.243645    3.083373
      8          6           0       -1.358167   -0.379241   -0.322127
      9          6           0       -2.739749    0.153709   -0.556750
     10          6           0       -3.212831    1.394369   -0.940544
     11          7           0       -4.590231    1.404443   -1.006974
     12          6           0       -4.958881    0.188922   -0.671136
     13          7           0       -3.883326   -0.605246   -0.384813
     14          6           0        3.177401   -0.208100    0.283768
     15          6           0        3.998554   -0.519587   -0.969120
     16          7           0        5.400340   -0.746963   -0.607191
     17          1           0        1.044722   -0.512072    1.760208
     18          1           0       -0.515630    1.452368    0.448483
     19          1           0       -2.708676    1.224200    1.436595
     20          1           0       -1.398949   -1.435552   -0.033757
     21          1           0       -0.762529   -0.312753   -1.236938
     22          1           0       -2.631713    2.269148   -1.200602
     23          1           0       -5.976131   -0.172674   -0.612686
     24          1           0       -3.911507   -1.569661   -0.088483
     25          1           0        3.160951   -1.067949    0.965715
     26          1           0        3.669378    0.611025    0.823423
     27          1           0        3.943234    0.347613   -1.632408
     28          1           0        3.526134   -1.356999   -1.511694
     29          1           0        5.494480   -1.635496   -0.119074
     30          1           0        5.962793   -0.830173   -1.450306
 ---------------------------------------------------------------------
                    Distance matrix (angstroms):
                    1          2          3          4          5
     1  O    0.000000
     2  C    1.229167   0.000000
     3  N    2.266770   1.366243   0.000000
     4  C    2.772394   2.451543   1.446021   0.000000
     5  C    4.222466   3.680139   2.404936   1.534735   0.000000
     6  O    5.135729   4.814619   3.636680   2.446584   1.342688
     7  O    4.796991   3.978880   2.651532   2.412948   1.210682
     8  C    3.182045   3.186434   2.482391   1.560123   2.574369
     9  C    4.306787   4.526655   3.827251   2.568894   3.127689
    10  C    4.725110   5.182387   4.651838   3.314221   3.854933
    11  N    6.094653   6.526465   5.905735   4.524834   4.772989
    12  C    6.483886   6.745587   5.971546   4.642369   4.714949
    13  N    5.598469   5.712484   4.877338   3.667026   3.815023
    14  C    2.420364   1.522734   2.445596   3.804057   4.773878
    15  C    2.869243   2.532480   3.707012   4.949789   6.107383
    16  N    4.259889   3.810505   4.868958   6.209669   7.217815
    17  H    3.177778   2.086149   1.013044   2.089863   2.407977
    18  H    2.583604   2.631150   2.081971   1.098248   2.159132
    19  H    4.899192   4.813632   3.798469   2.410141   1.916696
    20  H    3.819204   3.568962   2.727324   2.173068   2.804792
    21  H    2.528715   2.836358   2.630199   2.130739   3.471861
    22  H    4.350735   4.975016   4.658336   3.417837   4.145309
    23  H    7.538626   7.764959   6.939943   5.628549   5.552817
    24  H    5.989823   5.948221   5.029857   3.989200   3.997872
    25  H    3.268250   2.165414   2.548612   3.993618   4.710594
    26  H    2.911150   2.137720   2.953015   4.222682   5.042189
    27  H    2.575149   2.697473   4.036612   5.088376   6.373970
    28  H    3.039983   2.785726   3.825061   4.983911   6.196390
    29  H    4.818331   4.175661   5.031487   6.435808   7.318055
    30  H    4.802335   4.554615   5.700968   6.984305   8.085066
                    6          7          8          9         10
     6  O    0.000000
     7  O    2.224311   0.000000
     8  C    3.076678   3.482707   0.000000
     9  C    2.956168   4.220249   1.499283   0.000000
    10  C    3.374022   5.048375   2.639680   1.382151   0.000000
    11  N    3.996662   5.919342   3.754568   2.278448   1.379038
    12  C    3.974967   5.737781   3.661934   2.222358   2.138779
    13  N    3.397527   4.761059   2.536027   1.383236   2.181022
    14  C    6.021853   4.735402   4.579058   5.987490   6.700888
    15  C    7.311583   6.166858   5.397477   6.784401   7.461107
    16  N    8.474013   7.097814   6.774504   8.189920   8.881618
    17  H    3.746296   2.160230   3.182395   4.487067   5.390300
    18  H    2.697046   3.136077   2.158356   2.764727   3.034412
    19  H    0.976272   3.023101   2.736421   2.262817   2.435964
    20  H    3.422329   3.422087   1.095725   2.144065   3.481506
    21  H    4.063795   4.322556   1.093657   2.142344   3.001015
    22  H    3.769062   5.350422   3.067181   2.213888   1.081928
    23  H    4.725181   6.490209   4.631704   3.253279   3.193578
    24  H    3.728792   4.744587   2.826878   2.135953   3.162219
    25  H    6.033166   4.429848   4.749240   6.215191   7.093795
    26  H    6.246640   4.941923   5.250630   6.571979   7.147727
    27  H    7.474132   6.603721   5.509084   6.771772   7.265235
    28  H    7.382348   6.302732   5.121277   6.515784   7.301362
    29  H    8.623016   7.060080   6.969804   8.437732   9.255925
    30  H    9.315048   8.032224   7.421090   8.803448   9.455184
                   11         12         13         14         15
    11  N    0.000000
    12  C    1.313843   0.000000
    13  N    2.219380   1.367298   0.000000
    14  C    8.037563   8.201741   7.103420   0.000000
    15  C    8.801736   8.990352   7.903973   1.530047   0.000000
    16  N   10.227409  10.401607   9.287410   2.454718   1.465502
    17  H    6.563765   6.515065   5.375448   2.611627   4.021743
    18  H    4.327011   4.753138   4.033551   4.052501   5.126018
    19  H    3.089298   3.252346   2.836230   6.166555   7.335884
    20  H    4.381439   3.964629   2.642873   4.748730   5.554002
    21  H    4.201541   4.263940   3.248237   4.224517   4.773094
    22  H    2.149651   3.165974   3.239473   6.487366   7.196601
    23  H    2.136231   1.081187   2.149157   9.197392   9.987079
    24  H    3.185842   2.128166   1.009308   7.228073   8.027905
    25  H    8.371681   8.377988   7.187479   1.097571   2.178501
    26  H    8.497117   8.766911   7.744835   1.097376   2.144726
    27  H    8.621374   8.955271   7.982448   2.137065   1.093182
    28  H    8.588113   8.665558   7.532270   2.159922   1.104005
    29  H   10.570288  10.625725   9.437969   2.751108   2.050762
    30  H   10.796127  10.996755   9.906155   3.339520   2.046029
                   16         17         18         19         20
    16  N    0.000000
    17  H    4.962979   0.000000
    18  H    6.399235   2.830962   0.000000
    19  H    8.591780   4.148175   2.416170   0.000000
    20  H    6.858084   3.169015   3.058250   3.309320   0.000000
    21  H    6.210159   3.505534   2.453010   3.646573   1.764470
    22  H    8.600170   5.478846   2.804357   2.837719   4.075051
    23  H   11.390958   7.418772   5.795163   4.102081   4.783368
    24  H    9.362499   5.394475   4.577442   3.402694   2.516730
    25  H    2.755346   2.327798   4.487401   6.318876   4.682602
    26  H    2.624313   3.004619   4.285175   6.436733   5.532736
    27  H    2.091011   4.544258   5.043021   7.378014   5.854424
    28  H    2.168621   4.192452   5.298178   7.363956   5.142656
    29  H    1.018141   4.959247   6.780740   8.825516   6.896856
    30  H    1.016917   5.881837   7.126384   9.367444   7.521193
                   21         22         23         24         25
    21  H    0.000000
    22  H    3.187692   0.000000
    23  H    5.252710   4.182496   0.000000
    24  H    3.579781   4.196563   2.547358   0.000000
    25  H    4.562422   7.027382   9.315531   7.168174   0.000000
    26  H    4.973957   6.822740   9.783273   7.940830   1.760028
    27  H    4.768300   6.863576   9.985206   8.231440   3.060397
    28  H    4.422507   7.152957   9.617894   7.575570   2.520806
    29  H    6.492259   9.080250  11.574040   9.406267   2.635191
    30  H    6.748570   9.139675  11.986318   9.995159   3.707292
                   26         27         28         29         30
    26  H    0.000000
    27  H    2.485053   0.000000
    28  H    3.057189   1.759047   0.000000
    29  H    3.044036   2.937561   2.427207   0.000000
    30  H    3.536473   2.344986   2.493716   1.624820   0.000000
 Symmetry turned off by external request.
 Stoichiometry    C9H14N4O3
 Framework group  C1[X(C9H14N4O3)]
 Deg. of freedom    84
 Full point group                 C1      NOp   1
 Rotational constants (GHZ):      1.0622752      0.2289324      0.2012366
 Standard basis: 6-311G(2df,2pd) (5D, 7F)
   676 basis functions,  1006 primitive gaussians,   770 cartesian basis functions
    60 alpha electrons       60 beta electrons
       nuclear repulsion energy      1098.4650411127 Hartrees.
 NAtoms=   30 NActive=   30 NUniq=   30 SFac= 1.00D+00 NAtFMM=   60 NAOKFM=F Big=F
 Integral buffers will be    131072 words long.
 Raffenetti 2 integral format.
 Two-electron integral symmetry is turned off.
 One-electron integrals computed using PRISM.
 NBasis=   676 RedAO= T EigKep=  1.93D-04  NBF=   676
 NBsUse=   676 1.00D-06 EigRej= -1.00D+00 NBFU=   676
 Initial guess from the checkpoint file:  "conf-801.chk"
 B after Tr=     0.000000    0.000000    0.000000
         Rot=    1.000000    0.000000    0.000000    0.000000 Ang=   0.00 deg.
 Requested convergence on RMS density matrix=1.00D-08 within 128 cycles.
 Requested convergence on MAX density matrix=1.00D-06.
 Requested convergence on             energy=1.00D-06.
 No special actions if energy rises.
 SCF Done:  E(RB3LYP) =  -796.358446302     A.U. after   11 cycles
            NFock= 11  Conv=0.60D-08     -V/T= 2.0041

 **********************************************************************

            Population analysis using the SCF density.

 **********************************************************************

 Alpha  occ. eigenvalues --  -19.17881 -19.12337 -19.09151 -14.38716 -14.34513
 Alpha  occ. eigenvalues --  -14.30639 -14.29200 -10.31952 -10.27829 -10.24754
 Alpha  occ. eigenvalues --  -10.23921 -10.22786 -10.21078 -10.19954 -10.19591
 Alpha  occ. eigenvalues --  -10.18259  -1.11886  -1.04467  -1.03734  -1.03302
 Alpha  occ. eigenvalues --   -0.93860  -0.89031  -0.88572  -0.81947  -0.77141
 Alpha  occ. eigenvalues --   -0.74281  -0.69031  -0.64089  -0.63447  -0.62195
 Alpha  occ. eigenvalues --   -0.61114  -0.59270  -0.56795  -0.54749  -0.50709
 Alpha  occ. eigenvalues --   -0.50351  -0.48890  -0.48609  -0.47116  -0.46374
 Alpha  occ. eigenvalues --   -0.45823  -0.44802  -0.43606  -0.42905  -0.42577
 Alpha  occ. eigenvalues --   -0.42468  -0.41723  -0.39874  -0.39320  -0.39126
 Alpha  occ. eigenvalues --   -0.35865  -0.35118  -0.33919  -0.30560  -0.29875
 Alpha  occ. eigenvalues --   -0.28802  -0.27704  -0.26557  -0.24801  -0.24686
 Alpha virt. eigenvalues --   -0.01894   0.00135   0.00941   0.01527   0.02643
 Alpha virt. eigenvalues --    0.02990   0.04435   0.04790   0.06188   0.07443
 Alpha virt. eigenvalues --    0.08112   0.08312   0.08634   0.09674   0.10632
 Alpha virt. eigenvalues --    0.11660   0.13882   0.14081   0.16409   0.16720
 Alpha virt. eigenvalues --    0.17592   0.18644   0.20329   0.20563   0.21566
 Alpha virt. eigenvalues --    0.22527   0.24203   0.24716   0.26323   0.27033
 Alpha virt. eigenvalues --    0.27655   0.28117   0.29393   0.31063   0.31552
 Alpha virt. eigenvalues --    0.31777   0.33539   0.33696   0.34005   0.34668
 Alpha virt. eigenvalues --    0.36008   0.36830   0.37034   0.37260   0.37965
 Alpha virt. eigenvalues --    0.39005   0.39866   0.41200   0.41609   0.42476
 Alpha virt. eigenvalues --    0.42625   0.43506   0.44104   0.44457   0.45007
 Alpha virt. eigenvalues --    0.45834   0.46551   0.47168   0.47489   0.48088
 Alpha virt. eigenvalues --    0.48804   0.49020   0.49462   0.50464   0.50860
 Alpha virt. eigenvalues --    0.51112   0.51446   0.52088   0.52546   0.53461
 Alpha virt. eigenvalues --    0.55254   0.55470   0.55760   0.56429   0.56988
 Alpha virt. eigenvalues --    0.57991   0.59165   0.59673   0.60643   0.60727
 Alpha virt. eigenvalues --    0.61991   0.62248   0.63428   0.65030   0.65484
 Alpha virt. eigenvalues --    0.65647   0.67183   0.68268   0.69101   0.69968
 Alpha virt. eigenvalues --    0.70815   0.71559   0.71882   0.73587   0.74193
 Alpha virt. eigenvalues --    0.75141   0.75814   0.76578   0.77852   0.78617
 Alpha virt. eigenvalues --    0.79411   0.80719   0.80963   0.81796   0.83114
 Alpha virt. eigenvalues --    0.83814   0.85415   0.86077   0.86584   0.87798
 Alpha virt. eigenvalues --    0.89682   0.90234   0.91585   0.92331   0.92781
 Alpha virt. eigenvalues --    0.93382   0.93698   0.95314   0.95357   0.96009
 Alpha virt. eigenvalues --    0.97376   0.97896   0.99271   0.99408   1.00471
 Alpha virt. eigenvalues --    1.00925   1.01952   1.02887   1.03440   1.05118
 Alpha virt. eigenvalues --    1.05378   1.06219   1.07084   1.08260   1.09122
 Alpha virt. eigenvalues --    1.10621   1.11570   1.12186   1.12686   1.13406
 Alpha virt. eigenvalues --    1.14805   1.15315   1.16163   1.16412   1.17353
 Alpha virt. eigenvalues --    1.18854   1.19951   1.20437   1.21566   1.21701
 Alpha virt. eigenvalues --    1.22398   1.23303   1.23759   1.24678   1.26058
 Alpha virt. eigenvalues --    1.26347   1.27049   1.27717   1.28157   1.28803
 Alpha virt. eigenvalues --    1.30583   1.31000   1.31118   1.31874   1.32379
 Alpha virt. eigenvalues --    1.32963   1.33926   1.34415   1.35633   1.36415
 Alpha virt. eigenvalues --    1.36797   1.38119   1.38931   1.39822   1.40322
 Alpha virt. eigenvalues --    1.40956   1.41850   1.42288   1.44254   1.44806
 Alpha virt. eigenvalues --    1.45521   1.47220   1.47947   1.49305   1.50232
 Alpha virt. eigenvalues --    1.50920   1.52158   1.52614   1.56125   1.57988
 Alpha virt. eigenvalues --    1.59288   1.59356   1.60000   1.61949   1.62624
 Alpha virt. eigenvalues --    1.63356   1.64668   1.65019   1.65700   1.66513
 Alpha virt. eigenvalues --    1.66837   1.69248   1.70740   1.71676   1.72997
 Alpha virt. eigenvalues --    1.74927   1.75753   1.77253   1.78269   1.80239
 Alpha virt. eigenvalues --    1.83069   1.83790   1.85760   1.86667   1.88852
 Alpha virt. eigenvalues --    1.89585   1.90469   1.91780   1.96470   1.99721
 Alpha virt. eigenvalues --    2.01751   2.05081   2.07611   2.09370   2.10071
 Alpha virt. eigenvalues --    2.13406   2.16686   2.18486   2.18987   2.26786
 Alpha virt. eigenvalues --    2.28731   2.30519   2.35743   2.40674   2.42716
 Alpha virt. eigenvalues --    2.45248   2.46816   2.49432   2.51099   2.53531
 Alpha virt. eigenvalues --    2.54984   2.57588   2.58364   2.59451   2.60527
 Alpha virt. eigenvalues --    2.61024   2.61082   2.63272   2.64018   2.66566
 Alpha virt. eigenvalues --    2.66959   2.67995   2.68701   2.69219   2.70958
 Alpha virt. eigenvalues --    2.72688   2.73756   2.74173   2.75656   2.77256
 Alpha virt. eigenvalues --    2.78084   2.79174   2.79760   2.81191   2.82573
 Alpha virt. eigenvalues --    2.83331   2.83399   2.84848   2.86435   2.87135
 Alpha virt. eigenvalues --    2.88959   2.89100   2.89284   2.89976   2.91996
 Alpha virt. eigenvalues --    2.92617   2.93244   2.93701   2.94028   2.94723
 Alpha virt. eigenvalues --    2.94758   2.95422   2.97278   2.98169   2.98782
 Alpha virt. eigenvalues --    2.99843   3.01189   3.02206   3.03162   3.03194
 Alpha virt. eigenvalues --    3.04753   3.05064   3.05178   3.06133   3.06829
 Alpha virt. eigenvalues --    3.07708   3.08729   3.09449   3.09994   3.10764
 Alpha virt. eigenvalues --    3.11386   3.12313   3.12726   3.14130   3.15165
 Alpha virt. eigenvalues --    3.16273   3.17645   3.17899   3.18502   3.19688
 Alpha virt. eigenvalues --    3.19872   3.21067   3.21389   3.21839   3.22176
 Alpha virt. eigenvalues --    3.23367   3.24362   3.24794   3.25144   3.25351
 Alpha virt. eigenvalues --    3.26484   3.28073   3.28916   3.29716   3.31065
 Alpha virt. eigenvalues --    3.31500   3.32081   3.32297   3.33426   3.33732
 Alpha virt. eigenvalues --    3.34613   3.34680   3.35541   3.36081   3.36842
 Alpha virt. eigenvalues --    3.37215   3.37994   3.39499   3.39901   3.40784
 Alpha virt. eigenvalues --    3.42123   3.42970   3.43419   3.44060   3.44281
 Alpha virt. eigenvalues --    3.45558   3.46408   3.47242   3.48642   3.48940
 Alpha virt. eigenvalues --    3.49194   3.50018   3.51000   3.51427   3.52955
 Alpha virt. eigenvalues --    3.53441   3.54583   3.55578   3.56233   3.56817
 Alpha virt. eigenvalues --    3.58893   3.59260   3.60682   3.61240   3.61602
 Alpha virt. eigenvalues --    3.63235   3.63881   3.64162   3.64852   3.65079
 Alpha virt. eigenvalues --    3.65677   3.66704   3.67402   3.68178   3.68830
 Alpha virt. eigenvalues --    3.70232   3.73370   3.74728   3.74961   3.75536
 Alpha virt. eigenvalues --    3.76766   3.77646   3.78229   3.79347   3.80163
 Alpha virt. eigenvalues --    3.80345   3.80758   3.82181   3.83843   3.83962
 Alpha virt. eigenvalues --    3.85015   3.85426   3.85815   3.87697   3.88468
 Alpha virt. eigenvalues --    3.88646   3.89901   3.90052   3.91405   3.91667
 Alpha virt. eigenvalues --    3.92800   3.92869   3.93245   3.94860   3.96078
 Alpha virt. eigenvalues --    3.97034   3.97328   3.98288   3.99752   4.00750
 Alpha virt. eigenvalues --    4.00993   4.01787   4.03094   4.03463   4.04792
 Alpha virt. eigenvalues --    4.06225   4.07521   4.07760   4.08091   4.09141
 Alpha virt. eigenvalues --    4.10305   4.11433   4.12815   4.14964   4.16849
 Alpha virt. eigenvalues --    4.17479   4.18797   4.20418   4.22067   4.22512
 Alpha virt. eigenvalues --    4.23820   4.24176   4.24687   4.27397   4.27528
 Alpha virt. eigenvalues --    4.28731   4.30712   4.31369   4.32304   4.32812
 Alpha virt. eigenvalues --    4.35353   4.37858   4.37912   4.38944   4.40603
 Alpha virt. eigenvalues --    4.41719   4.43296   4.46306   4.46773   4.48675
 Alpha virt. eigenvalues --    4.49028   4.50206   4.52007   4.53034   4.54521
 Alpha virt. eigenvalues --    4.54889   4.56078   4.57784   4.58960   4.61418
 Alpha virt. eigenvalues --    4.62445   4.63745   4.66624   4.67723   4.70084
 Alpha virt. eigenvalues --    4.71475   4.72788   4.73732   4.74598   4.77702
 Alpha virt. eigenvalues --    4.78075   4.80137   4.81256   4.84620   4.85323
 Alpha virt. eigenvalues --    4.87062   4.87954   4.89591   4.89749   4.90598
 Alpha virt. eigenvalues --    4.92234   4.92537   4.94281   4.94809   4.95255
 Alpha virt. eigenvalues --    4.96204   4.97538   4.98437   5.00838   5.01629
 Alpha virt. eigenvalues --    5.02069   5.03220   5.04872   5.05862   5.06377
 Alpha virt. eigenvalues --    5.07061   5.08121   5.09274   5.10319   5.11156
 Alpha virt. eigenvalues --    5.11950   5.13847   5.14528   5.16320   5.17125
 Alpha virt. eigenvalues --    5.17303   5.17773   5.18633   5.19312   5.20427
 Alpha virt. eigenvalues --    5.20889   5.22605   5.23158   5.24085   5.24922
 Alpha virt. eigenvalues --    5.25745   5.27800   5.30135   5.31561   5.31934
 Alpha virt. eigenvalues --    5.33216   5.34999   5.36248   5.37398   5.40489
 Alpha virt. eigenvalues --    5.41085   5.43117   5.45384   5.47499   5.48320
 Alpha virt. eigenvalues --    5.50668   5.52545   5.53540   5.55359   5.56028
 Alpha virt. eigenvalues --    5.56614   5.57808   5.59712   5.63461   5.64727
 Alpha virt. eigenvalues --    5.65646   5.66941   5.67753   5.73009   5.75432
 Alpha virt. eigenvalues --    5.76064   5.78693   5.80652   5.81443   5.82575
 Alpha virt. eigenvalues --    5.83840   5.86380   5.88424   5.90825   5.95333
 Alpha virt. eigenvalues --    5.99045   6.00630   6.04475   6.09929   6.10731
 Alpha virt. eigenvalues --    6.13034   6.15854   6.18745   6.26991   6.27873
 Alpha virt. eigenvalues --    6.31083   6.33317   6.34589   6.36769   6.37094
 Alpha virt. eigenvalues --    6.39598   6.44609   6.49626   6.50853   6.51969
 Alpha virt. eigenvalues --    6.65498   6.67800   6.82675   6.87967   6.90178
 Alpha virt. eigenvalues --    6.93279   6.98557   6.99564   7.00271   7.04408
 Alpha virt. eigenvalues --    7.08964   7.14218   7.18735   7.20266   7.23799
 Alpha virt. eigenvalues --    7.26039   7.28148   7.35081   7.40497   7.50566
 Alpha virt. eigenvalues --    7.53883   7.54918   7.57791   7.74605   7.93677
 Alpha virt. eigenvalues --   24.41079  24.58305  24.69668  24.77741  24.91335
 Alpha virt. eigenvalues --   24.95938  25.00217  25.03953  25.06134  35.95907
 Alpha virt. eigenvalues --   36.19785  36.21867  36.42990  50.16708  50.19982
 Alpha virt. eigenvalues --   50.26882
          Condensed to atoms (all electrons):
               1          2          3          4          5          6
     1  O    7.895778   0.657752  -0.106474  -0.014048   0.000361  -0.000001
     2  C    0.657752   4.465753   0.377728  -0.055452   0.000488  -0.000139
     3  N   -0.106474   0.377728   6.628717   0.263121  -0.018209   0.002535
     4  C   -0.014048  -0.055452   0.263121   5.311434   0.187114  -0.115108
     5  C    0.000361   0.000488  -0.018209   0.187114   4.267305   0.408377
     6  O   -0.000001  -0.000139   0.002535  -0.115108   0.408377   7.771368
     7  O   -0.000008  -0.001514  -0.023974  -0.120793   0.732022  -0.066868
     8  C   -0.004624  -0.001369  -0.050955   0.286382  -0.047662   0.011679
     9  C   -0.001014   0.000533   0.004290  -0.045887  -0.007474  -0.014440
    10  C   -0.000018   0.000001   0.000132  -0.002739  -0.000400  -0.001399
    11  N    0.000000   0.000000  -0.000001   0.000128  -0.000232  -0.000206
    12  C    0.000000   0.000000   0.000001  -0.000334   0.000238   0.002200
    13  N    0.000000   0.000001  -0.000008  -0.000683   0.003169  -0.000270
    14  C   -0.067631   0.212324  -0.046383   0.002372  -0.000059  -0.000001
    15  C   -0.001274  -0.046709   0.000340  -0.000089  -0.000006   0.000000
    16  N    0.000352   0.000339   0.000020  -0.000001   0.000000   0.000000
    17  H    0.004183  -0.014694   0.332263  -0.054857  -0.003978   0.002007
    18  H    0.021947  -0.004177  -0.039621   0.374873  -0.014038   0.000932
    19  H   -0.000045   0.000146  -0.000230   0.007781  -0.039562   0.303788
    20  H   -0.000257   0.000938   0.014248  -0.038232   0.001311  -0.000674
    21  H    0.022930   0.001239  -0.008713  -0.039302   0.002127  -0.000045
    22  H    0.000188   0.000007  -0.000029   0.000289   0.000047   0.000013
    23  H    0.000000   0.000000   0.000000   0.000004   0.000005   0.000041
    24  H    0.000001   0.000002  -0.000047   0.000014  -0.000015   0.000410
    25  H    0.003532  -0.043058   0.003377   0.000965  -0.000193  -0.000002
    26  H   -0.000007   0.001903  -0.000725  -0.000197   0.000012   0.000000
    27  H    0.022506  -0.010992   0.001475   0.000032  -0.000001   0.000000
    28  H    0.001161   0.024940  -0.000035   0.000055   0.000001   0.000000
    29  H   -0.000002  -0.000696   0.000003   0.000000   0.000000   0.000000
    30  H    0.000014  -0.000825   0.000008  -0.000001   0.000000   0.000000
               7          8          9         10         11         12
     1  O   -0.000008  -0.004624  -0.001014  -0.000018   0.000000   0.000000
     2  C   -0.001514  -0.001369   0.000533   0.000001   0.000000   0.000000
     3  N   -0.023974  -0.050955   0.004290   0.000132  -0.000001   0.000001
     4  C   -0.120793   0.286382  -0.045887  -0.002739   0.000128  -0.000334
     5  C    0.732022  -0.047662  -0.007474  -0.000400  -0.000232   0.000238
     6  O   -0.066868   0.011679  -0.014440  -0.001399  -0.000206   0.002200
     7  O    7.792535   0.000789  -0.000347   0.000006   0.000000   0.000000
     8  C    0.000789   4.989849   0.176580  -0.051683   0.009311  -0.000939
     9  C   -0.000347   0.176580   5.379835   0.478612  -0.059681  -0.131421
    10  C    0.000006  -0.051683   0.478612   4.768667   0.461860  -0.155384
    11  N    0.000000   0.009311  -0.059681   0.461860   6.518318   0.574112
    12  C    0.000000  -0.000939  -0.131421  -0.155384   0.574112   4.600406
    13  N    0.000013  -0.027877   0.310693  -0.048747  -0.126371   0.465384
    14  C   -0.000321  -0.000824  -0.000010   0.000000   0.000000   0.000000
    15  C   -0.000001   0.000063  -0.000004   0.000000   0.000000   0.000000
    16  N    0.000000   0.000000   0.000000   0.000000   0.000000   0.000000
    17  H    0.050908   0.004850  -0.000164  -0.000012   0.000000  -0.000001
    18  H    0.001833  -0.090403   0.016984   0.001284  -0.000154  -0.000047
    19  H    0.003964  -0.008990   0.009239   0.026384   0.001005  -0.001388
    20  H    0.002032   0.346163  -0.018321   0.004677  -0.000469   0.000156
    21  H   -0.000271   0.421968  -0.044105  -0.001702   0.000107  -0.000134
    22  H    0.000000  -0.000881  -0.054106   0.432494  -0.018047   0.005908
    23  H    0.000000  -0.000168   0.005640   0.003470  -0.017856   0.425196
    24  H   -0.000027   0.005624  -0.028228   0.002818   0.007156  -0.025832
    25  H   -0.000310  -0.000083   0.000010   0.000000   0.000000   0.000000
    26  H    0.000016  -0.000013   0.000005   0.000000   0.000000   0.000000
    27  H    0.000000   0.000001   0.000001   0.000000   0.000000   0.000000
    28  H    0.000000  -0.000011   0.000004   0.000000   0.000000   0.000000
    29  H    0.000000   0.000000   0.000000   0.000000   0.000000   0.000000
    30  H    0.000000   0.000000   0.000000   0.000000   0.000000   0.000000
              13         14         15         16         17         18
     1  O    0.000000  -0.067631  -0.001274   0.000352   0.004183   0.021947
     2  C    0.000001   0.212324  -0.046709   0.000339  -0.014694  -0.004177
     3  N   -0.000008  -0.046383   0.000340   0.000020   0.332263  -0.039621
     4  C   -0.000683   0.002372  -0.000089  -0.000001  -0.054857   0.374873
     5  C    0.003169  -0.000059  -0.000006   0.000000  -0.003978  -0.014038
     6  O   -0.000270  -0.000001   0.000000   0.000000   0.002007   0.000932
     7  O    0.000013  -0.000321  -0.000001   0.000000   0.050908   0.001833
     8  C   -0.027877  -0.000824   0.000063   0.000000   0.004850  -0.090403
     9  C    0.310693  -0.000010  -0.000004   0.000000  -0.000164   0.016984
    10  C   -0.048747   0.000000   0.000000   0.000000  -0.000012   0.001284
    11  N   -0.126371   0.000000   0.000000   0.000000   0.000000  -0.000154
    12  C    0.465384   0.000000   0.000000   0.000000  -0.000001  -0.000047
    13  N    6.309685   0.000000   0.000000   0.000000   0.000000  -0.000042
    14  C    0.000000   5.094073   0.286140  -0.038087  -0.004206   0.002188
    15  C    0.000000   0.286140   4.609307   0.313345  -0.000438  -0.000282
    16  N    0.000000  -0.038087   0.313345   6.398071  -0.000043  -0.000001
    17  H    0.000000  -0.004206  -0.000438  -0.000043   0.573722   0.004102
    18  H   -0.000042   0.002188  -0.000282  -0.000001   0.004102   0.684957
    19  H   -0.001344   0.000001   0.000000   0.000000  -0.000596   0.002356
    20  H   -0.004891   0.000180  -0.000073   0.000000   0.001198   0.011510
    21  H    0.001534   0.000483   0.000189   0.000000  -0.000437  -0.007070
    22  H    0.004711   0.000002   0.000000   0.000000   0.000002   0.001428
    23  H   -0.037514   0.000000   0.000000   0.000000   0.000000  -0.000004
    24  H    0.379821   0.000000   0.000000   0.000000   0.000001  -0.000018
    25  H    0.000000   0.392564  -0.037912  -0.000050  -0.001992  -0.000025
    26  H    0.000000   0.322905  -0.025508   0.018609   0.000432  -0.000045
    27  H    0.000000  -0.020433   0.374248  -0.022880  -0.000123  -0.000061
    28  H    0.000000  -0.093854   0.411875  -0.057114   0.000002   0.000002
    29  H    0.000000   0.000404  -0.050379   0.359778   0.000025   0.000000
    30  H    0.000000   0.005934  -0.033964   0.357006  -0.000001   0.000000
              19         20         21         22         23         24
     1  O   -0.000045  -0.000257   0.022930   0.000188   0.000000   0.000001
     2  C    0.000146   0.000938   0.001239   0.000007   0.000000   0.000002
     3  N   -0.000230   0.014248  -0.008713  -0.000029   0.000000  -0.000047
     4  C    0.007781  -0.038232  -0.039302   0.000289   0.000004   0.000014
     5  C   -0.039562   0.001311   0.002127   0.000047   0.000005  -0.000015
     6  O    0.303788  -0.000674  -0.000045   0.000013   0.000041   0.000410
     7  O    0.003964   0.002032  -0.000271   0.000000   0.000000  -0.000027
     8  C   -0.008990   0.346163   0.421968  -0.000881  -0.000168   0.005624
     9  C    0.009239  -0.018321  -0.044105  -0.054106   0.005640  -0.028228
    10  C    0.026384   0.004677  -0.001702   0.432494   0.003470   0.002818
    11  N    0.001005  -0.000469   0.000107  -0.018047  -0.017856   0.007156
    12  C   -0.001388   0.000156  -0.000134   0.005908   0.425196  -0.025832
    13  N   -0.001344  -0.004891   0.001534   0.004711  -0.037514   0.379821
    14  C    0.000001   0.000180   0.000483   0.000002   0.000000   0.000000
    15  C    0.000000  -0.000073   0.000189   0.000000   0.000000   0.000000
    16  N    0.000000   0.000000   0.000000   0.000000   0.000000   0.000000
    17  H   -0.000596   0.001198  -0.000437   0.000002   0.000000   0.000001
    18  H    0.002356   0.011510  -0.007070   0.001428  -0.000004  -0.000018
    19  H    0.469619   0.000051   0.000404   0.000056  -0.000016  -0.000299
    20  H    0.000051   0.710213  -0.041841  -0.000006  -0.000044   0.002822
    21  H    0.000404  -0.041841   0.641608   0.000343   0.000014  -0.000066
    22  H    0.000056  -0.000006   0.000343   0.596835  -0.000390  -0.000433
    23  H   -0.000016  -0.000044   0.000014  -0.000390   0.595759  -0.001228
    24  H   -0.000299   0.002822  -0.000066  -0.000433  -0.001228   0.545489
    25  H    0.000003   0.000056  -0.000350   0.000000   0.000000   0.000000
    26  H    0.000000   0.000009   0.000027   0.000000   0.000000   0.000000
    27  H    0.000000  -0.000003  -0.000085   0.000000   0.000000   0.000000
    28  H    0.000000   0.000012   0.000138   0.000000   0.000000   0.000000
    29  H    0.000000   0.000000   0.000000   0.000000   0.000000   0.000000
    30  H    0.000000   0.000000   0.000000   0.000000   0.000000   0.000000
              25         26         27         28         29         30
     1  O    0.003532  -0.000007   0.022506   0.001161  -0.000002   0.000014
     2  C   -0.043058   0.001903  -0.010992   0.024940  -0.000696  -0.000825
     3  N    0.003377  -0.000725   0.001475  -0.000035   0.000003   0.000008
     4  C    0.000965  -0.000197   0.000032   0.000055   0.000000  -0.000001
     5  C   -0.000193   0.000012  -0.000001   0.000001   0.000000   0.000000
     6  O   -0.000002   0.000000   0.000000   0.000000   0.000000   0.000000
     7  O   -0.000310   0.000016   0.000000   0.000000   0.000000   0.000000
     8  C   -0.000083  -0.000013   0.000001  -0.000011   0.000000   0.000000
     9  C    0.000010   0.000005   0.000001   0.000004   0.000000   0.000000
    10  C    0.000000   0.000000   0.000000   0.000000   0.000000   0.000000
    11  N    0.000000   0.000000   0.000000   0.000000   0.000000   0.000000
    12  C    0.000000   0.000000   0.000000   0.000000   0.000000   0.000000
    13  N    0.000000   0.000000   0.000000   0.000000   0.000000   0.000000
    14  C    0.392564   0.322905  -0.020433  -0.093854   0.000404   0.005934
    15  C   -0.037912  -0.025508   0.374248   0.411875  -0.050379  -0.033964
    16  N   -0.000050   0.018609  -0.022880  -0.057114   0.359778   0.357006
    17  H   -0.001992   0.000432  -0.000123   0.000002   0.000025  -0.000001
    18  H   -0.000025  -0.000045  -0.000061   0.000002   0.000000   0.000000
    19  H    0.000003   0.000000   0.000000   0.000000   0.000000   0.000000
    20  H    0.000056   0.000009  -0.000003   0.000012   0.000000   0.000000
    21  H   -0.000350   0.000027  -0.000085   0.000138   0.000000   0.000000
    22  H    0.000000   0.000000   0.000000   0.000000   0.000000   0.000000
    23  H    0.000000   0.000000   0.000000   0.000000   0.000000   0.000000
    24  H    0.000000   0.000000   0.000000   0.000000   0.000000   0.000000
    25  H    0.729490  -0.046327   0.009806  -0.010178   0.003399  -0.000167
    26  H   -0.046327   0.705789  -0.009933   0.014316  -0.002846  -0.000629
    27  H    0.009806  -0.009933   0.694924  -0.058679   0.008643  -0.007516
    28  H   -0.010178   0.014316  -0.058679   0.802237  -0.010972  -0.004147
    29  H    0.003399  -0.002846   0.008643  -0.010972   0.647809  -0.048471
    30  H   -0.000167  -0.000629  -0.007516  -0.004147  -0.048471   0.646341
 Mulliken charges:
               1
     1  O   -0.435300
     2  C    0.435531
     3  N   -0.332850
     4  C    0.053161
     5  C    0.529252
     6  O   -0.304196
     7  O   -0.369682
     8  C    0.033226
     9  C    0.022774
    10  C    0.081679
    11  N   -0.348982
    12  C    0.241879
    13  N   -0.227263
    14  C   -0.047760
    15  C    0.201133
    16  N   -0.329344
    17  H    0.107846
    18  H    0.031590
    19  H    0.227672
    20  H    0.009235
    21  H    0.051008
    22  H    0.031568
    23  H    0.027091
    24  H    0.112037
    25  H   -0.002554
    26  H    0.022209
    27  H    0.019068
    28  H   -0.019752
    29  H    0.093304
    30  H    0.086419
 Sum of Mulliken charges =   0.00000
 Mulliken charges with hydrogens summed into heavy atoms:
               1
     1  O   -0.435300
     2  C    0.435531
     3  N   -0.225004
     4  C    0.084751
     5  C    0.529252
     6  O   -0.076523
     7  O   -0.369682
     8  C    0.093469
     9  C    0.022774
    10  C    0.113247
    11  N   -0.348982
    12  C    0.268970
    13  N   -0.115226
    14  C   -0.028105
    15  C    0.200449
    16  N   -0.149621
 Electronic spatial extent (au):  <R**2>=           5372.8570
 Charge=              0.0000 electrons
 Dipole moment (field-independent basis, Debye):
    X=             -0.0856    Y=             -4.4122    Z=             -0.8358  Tot=              4.4915
 Quadrupole moment (field-independent basis, Debye-Ang):
   XX=            -90.1905   YY=            -90.3757   ZZ=           -110.1133
   XY=              6.5029   XZ=             -1.5843   YZ=              4.8496
 Traceless Quadrupole moment (field-independent basis, Debye-Ang):
   XX=              6.7026   YY=              6.5175   ZZ=            -13.2201
   XY=              6.5029   XZ=             -1.5843   YZ=              4.8496
 Octapole moment (field-independent basis, Debye-Ang**2):
  XXX=            120.8708  YYY=            -53.5133  ZZZ=            -85.2245  XYY=             53.1184
  XXY=           -127.5784  XXZ=            -19.8562  XZZ=             78.4467  YZZ=            -17.8898
  YYZ=             -7.0764  XYZ=             -5.1758
 Hexadecapole moment (field-independent basis, Debye-Ang**3):
 XXXX=          -5444.9964 YYYY=           -390.4611 ZZZZ=          -1177.9628 XXXY=            497.7354
 XXXZ=           -193.7858 YYYX=            346.4944 YYYZ=              9.5298 ZZZX=             97.8894
 ZZZY=             18.9230 XXYY=           -986.5727 XXZZ=          -1124.2666 YYZZ=           -239.8889
 XXYZ=             78.5544 YYXZ=              7.4603 ZZXY=            113.4637
 N-N= 1.098465041113D+03 E-N=-4.057885605372D+03  KE= 7.931396044009D+02
 Calling FoFJK, ICntrl=      2127 FMM=F ISym2X=0 I1Cent= 0 IOpClX= 0 NMat=1 NMatS=1 NMatT=0.
 -------------------------------------------------------------------
 Center     Atomic                   Forces (Hartrees/Bohr)
 Number     Number              X              Y              Z
 -------------------------------------------------------------------
      1        8           0.002814206   -0.006062883    0.010494941
      2        6          -0.003210330    0.003713540   -0.004942768
      3        7           0.001585029    0.001081466   -0.001762048
      4        6          -0.000301082    0.000329769    0.000527889
      5        6           0.004689328   -0.004910456    0.008792023
      6        8           0.002626801   -0.000338189   -0.003443052
      7        8          -0.007184133    0.006874477   -0.010993478
      8        6          -0.000108932    0.000202485   -0.000402977
      9        6          -0.003154856    0.002198546   -0.001145809
     10        6           0.000897001   -0.002493431    0.000439201
     11        7           0.002471602   -0.007018394    0.002225437
     12        6           0.001629568    0.001920391   -0.000293659
     13        7          -0.000136314    0.002539439   -0.000844048
     14        6           0.000319847    0.000029207   -0.000230986
     15        6          -0.002276478    0.001227616   -0.000861958
     16        7           0.000200346   -0.003789608   -0.001969283
     17        1          -0.000262235    0.001355008   -0.002928366
     18        1          -0.000303310   -0.002687415    0.000917839
     19        1           0.000952749   -0.001252275    0.003460158
     20        1          -0.000002984    0.002575180   -0.000599040
     21        1          -0.001755141   -0.000290644    0.002153453
     22        1          -0.001470959   -0.002482663    0.000769628
     23        1           0.002593362    0.000920838   -0.000179859
     24        1           0.000006537    0.003025713   -0.000891060
     25        1          -0.000189198    0.002130051   -0.001919551
     26        1          -0.001431079   -0.001780215   -0.001223836
     27        1           0.000343846   -0.002343965    0.001603865
     28        1           0.001743988    0.002094897    0.001723405
     29        1           0.000320366    0.002900207   -0.001481583
     30        1          -0.001407546    0.000331308    0.003005522
 -------------------------------------------------------------------
 Cartesian Forces:  Max     0.010993478 RMS     0.003028901

 GradGradGradGradGradGradGradGradGradGradGradGradGradGradGradGradGradGrad
 Berny optimization.
 FormGI is forming the generalized inverse of G from B-inverse, IUseBI=4.
 GSVD:  received Info=                   1 from GESDD.
 Internal  Forces:  Max     0.014807561 RMS     0.002202969
 Search for a local minimum.
 Step number   1 out of a maximum of  160
 All quantities printed in internal units (Hartrees-Bohrs-Radians)
 Mixed Optimization -- RFO/linear search
 Second derivative matrix not updated -- first step.
 ITU=  0
     Eigenvalues ---    0.00076   0.00079   0.00243   0.00266   0.00306
     Eigenvalues ---    0.00469   0.00551   0.00686   0.00795   0.00895
     Eigenvalues ---    0.01918   0.02003   0.02275   0.02551   0.03174
     Eigenvalues ---    0.03448   0.04027   0.04075   0.04179   0.04399
     Eigenvalues ---    0.04429   0.04599   0.05079   0.05124   0.05149
     Eigenvalues ---    0.05454   0.06102   0.06147   0.07551   0.07900
     Eigenvalues ---    0.08358   0.10225   0.10653   0.11079   0.11340
     Eigenvalues ---    0.11740   0.12061   0.13480   0.15009   0.15030
     Eigenvalues ---    0.16680   0.17213   0.17814   0.18762   0.19300
     Eigenvalues ---    0.20363   0.21599   0.21999   0.22912   0.23086
     Eigenvalues ---    0.23144   0.24286   0.24374   0.25236   0.29152
     Eigenvalues ---    0.30865   0.31413   0.32524   0.32894   0.33176
     Eigenvalues ---    0.33461   0.33782   0.34221   0.34400   0.34648
     Eigenvalues ---    0.35410   0.36989   0.37209   0.37375   0.37674
     Eigenvalues ---    0.39955   0.40538   0.44313   0.44714   0.44906
     Eigenvalues ---    0.44970   0.45258   0.46310   0.46789   0.47834
     Eigenvalues ---    0.48678   0.57697   0.81729   0.88846
 RFO step:  Lambda=-1.33105057D-03 EMin= 7.60676944D-04
 Linear search not attempted -- first point.
 Iteration  1 RMS(Cart)=  0.03824518 RMS(Int)=  0.00056459
 Iteration  2 RMS(Cart)=  0.00079090 RMS(Int)=  0.00001602
 Iteration  3 RMS(Cart)=  0.00000038 RMS(Int)=  0.00001602
 Variable       Old X    -DE/DX   Delta X   Delta X   Delta X     New X
                                 (Linear)    (Quad)   (Total)
    R1        2.32279  -0.01244   0.00000  -0.01501  -0.01501   2.30778
    R2        2.58183  -0.00514   0.00000  -0.00739  -0.00739   2.57443
    R3        2.87755  -0.00275   0.00000  -0.00711  -0.00711   2.87044
    R4        2.73258  -0.00170   0.00000  -0.00488  -0.00488   2.72771
    R5        1.91438  -0.00320   0.00000  -0.00719  -0.00719   1.90718
    R6        2.90023  -0.00246   0.00000  -0.00840  -0.00840   2.89183
    R7        2.94821  -0.00191   0.00000  -0.00668  -0.00668   2.94152
    R8        2.07539  -0.00285   0.00000  -0.00860  -0.00860   2.06679
    R9        2.53731  -0.00389   0.00000  -0.00398  -0.00398   2.53333
   R10        2.28786  -0.01481   0.00000  -0.01695  -0.01695   2.27091
   R11        1.84489  -0.00379   0.00000  -0.00943  -0.00943   1.83545
   R12        2.83324  -0.00312   0.00000  -0.00882  -0.00882   2.82442
   R13        2.07062  -0.00264   0.00000  -0.00736  -0.00736   2.06326
   R14        2.06671  -0.00277   0.00000  -0.00775  -0.00775   2.05897
   R15        2.61189  -0.00669   0.00000  -0.01258  -0.01258   2.59931
   R16        2.61394  -0.00397   0.00000  -0.00810  -0.00810   2.60584
   R17        2.60600  -0.00337   0.00000  -0.00668  -0.00668   2.59933
   R18        2.04455  -0.00298   0.00000  -0.00790  -0.00790   2.03665
   R19        2.48280  -0.00635   0.00000  -0.01043  -0.01043   2.47237
   R20        2.58382  -0.00480   0.00000  -0.00823  -0.00823   2.57559
   R21        2.04315  -0.00276   0.00000  -0.00710  -0.00710   2.03604
   R22        1.90732  -0.00315   0.00000  -0.00653  -0.00653   1.90078
   R23        2.89137  -0.00232   0.00000  -0.00861  -0.00861   2.88276
   R24        2.07411  -0.00286   0.00000  -0.00817  -0.00817   2.06594
   R25        2.07374  -0.00257   0.00000  -0.00726  -0.00726   2.06648
   R26        2.76940  -0.00087   0.00000  -0.00319  -0.00319   2.76621
   R27        2.06581  -0.00285   0.00000  -0.00823  -0.00823   2.05759
   R28        2.08627  -0.00318   0.00000  -0.00969  -0.00969   2.07657
   R29        1.92401  -0.00321   0.00000  -0.00820  -0.00820   1.91581
   R30        1.92169  -0.00330   0.00000  -0.00829  -0.00829   1.91340
    A1        2.12263  -0.00032   0.00000   0.00016   0.00016   2.12279
    A2        2.14351  -0.00018   0.00000  -0.00008  -0.00008   2.14343
    A3        2.01700   0.00050   0.00000  -0.00010  -0.00010   2.01690
    A4        2.11700   0.00098   0.00000   0.00237   0.00235   2.11935
    A5        2.12601  -0.00102   0.00000  -0.00858  -0.00859   2.11742
    A6        2.01170   0.00003   0.00000   0.00345   0.00343   2.01512
    A7        1.87685   0.00005   0.00000   0.00402   0.00402   1.88087
    A8        1.94216  -0.00010   0.00000  -0.00037  -0.00037   1.94178
    A9        1.90355   0.00002   0.00000  -0.00148  -0.00148   1.90207
   A10        1.96472   0.00012   0.00000  -0.00118  -0.00118   1.96353
   A11        1.90328  -0.00020   0.00000  -0.00139  -0.00139   1.90189
   A12        1.87253   0.00010   0.00000   0.00028   0.00028   1.87281
   A13        2.03022   0.00054   0.00000  -0.00226  -0.00226   2.02796
   A14        2.13945   0.00050   0.00000   0.00497   0.00497   2.14443
   A15        2.11348  -0.00104   0.00000  -0.00272  -0.00272   2.11076
   A16        1.92846   0.00059   0.00000   0.00661   0.00661   1.93508
   A17        1.99310   0.00059   0.00000   0.00356   0.00356   1.99665
   A18        1.89454  -0.00031   0.00000  -0.00185  -0.00184   1.89270
   A19        1.84072   0.00019   0.00000   0.00349   0.00349   1.84422
   A20        1.92791  -0.00013   0.00000  -0.00051  -0.00051   1.92740
   A21        1.92769  -0.00043   0.00000  -0.00268  -0.00269   1.92500
   A22        1.87446   0.00007   0.00000  -0.00220  -0.00220   1.87226
   A23        2.31576  -0.00020   0.00000  -0.00273  -0.00274   2.31302
   A24        2.14999   0.00005   0.00000   0.00056   0.00055   2.15054
   A25        1.81734   0.00015   0.00000   0.00209   0.00209   1.81943
   A26        1.94100  -0.00076   0.00000  -0.00326  -0.00326   1.93774
   A27        2.22518   0.00022   0.00000   0.00055   0.00055   2.22573
   A28        2.11647   0.00054   0.00000   0.00280   0.00279   2.11926
   A29        1.83504   0.00112   0.00000   0.00385   0.00385   1.83890
   A30        1.94999  -0.00082   0.00000  -0.00304  -0.00304   1.94695
   A31        2.19843   0.00040   0.00000   0.00157   0.00157   2.20000
   A32        2.13475   0.00042   0.00000   0.00148   0.00148   2.13623
   A33        1.88138   0.00031   0.00000   0.00037   0.00037   1.88175
   A34        2.19426  -0.00008   0.00000   0.00002   0.00002   2.19428
   A35        2.20746  -0.00023   0.00000  -0.00044  -0.00044   2.20701
   A36        1.95665   0.00096   0.00000   0.00589   0.00589   1.96255
   A37        1.92700  -0.00041   0.00000  -0.00259  -0.00259   1.92441
   A38        1.88941  -0.00048   0.00000  -0.00319  -0.00321   1.88621
   A39        1.93621  -0.00029   0.00000  -0.00230  -0.00229   1.93391
   A40        1.89024  -0.00002   0.00000   0.00187   0.00187   1.89211
   A41        1.86078   0.00021   0.00000   0.00009   0.00008   1.86087
   A42        1.92059   0.00002   0.00000  -0.00002  -0.00002   1.92058
   A43        1.88408   0.00020   0.00000   0.00477   0.00477   1.88885
   A44        1.90413   0.00015   0.00000   0.00086   0.00085   1.90499
   A45        1.89793  -0.00006   0.00000  -0.00149  -0.00149   1.89644
   A46        1.99654  -0.00036   0.00000  -0.00511  -0.00511   1.99143
   A47        1.85654   0.00008   0.00000   0.00160   0.00159   1.85813
   A48        1.92010   0.00097   0.00000   0.01032   0.01026   1.93036
   A49        1.91451   0.00069   0.00000   0.00868   0.00862   1.92313
   A50        1.84932  -0.00050   0.00000   0.00436   0.00423   1.85355
    D1       -0.13388   0.00019   0.00000  -0.00083  -0.00080  -0.13469
    D2       -3.00925   0.00021   0.00000   0.01129   0.01126  -2.99799
    D3        2.99717   0.00009   0.00000  -0.00268  -0.00266   2.99451
    D4        0.12180   0.00011   0.00000   0.00943   0.00941   0.13121
    D5       -0.55609  -0.00010   0.00000   0.01288   0.01288  -0.54321
    D6       -2.72449  -0.00011   0.00000   0.01352   0.01352  -2.71097
    D7        1.52785   0.00014   0.00000   0.01669   0.01669   1.54454
    D8        2.59618   0.00000   0.00000   0.01476   0.01476   2.61094
    D9        0.42778  -0.00002   0.00000   0.01540   0.01540   0.44318
   D10       -1.60307   0.00024   0.00000   0.01857   0.01857  -1.58450
   D11       -2.77043   0.00037   0.00000   0.03625   0.03627  -2.73416
   D12        1.35358   0.00025   0.00000   0.03524   0.03526   1.38883
   D13       -0.70879   0.00017   0.00000   0.03605   0.03606  -0.67273
   D14        0.12136   0.00019   0.00000   0.02314   0.02313   0.14449
   D15       -2.03782   0.00007   0.00000   0.02213   0.02212  -2.01570
   D16        2.18300  -0.00001   0.00000   0.02294   0.02292   2.20593
   D17        3.01594  -0.00014   0.00000  -0.01964  -0.01964   2.99630
   D18       -0.13373  -0.00005   0.00000  -0.02051  -0.02051  -0.15424
   D19       -1.12189  -0.00015   0.00000  -0.01806  -0.01806  -1.13995
   D20        2.01163  -0.00006   0.00000  -0.01893  -0.01893   1.99270
   D21        0.95412  -0.00009   0.00000  -0.01938  -0.01937   0.93475
   D22       -2.19554   0.00000   0.00000  -0.02025  -0.02025  -2.21579
   D23       -3.06788   0.00010   0.00000   0.00599   0.00599  -3.06189
   D24        1.05613   0.00009   0.00000   0.00556   0.00556   1.06169
   D25       -0.94821   0.00006   0.00000   0.00720   0.00721  -0.94100
   D26        1.10697   0.00003   0.00000   0.00190   0.00190   1.10887
   D27       -1.05220   0.00002   0.00000   0.00148   0.00148  -1.05073
   D28       -3.05655  -0.00001   0.00000   0.00312   0.00312  -3.05342
   D29       -0.98691   0.00014   0.00000   0.00415   0.00414  -0.98277
   D30        3.13710   0.00013   0.00000   0.00372   0.00372   3.14082
   D31        1.13276   0.00009   0.00000   0.00536   0.00537   1.13812
   D32        0.04736   0.00002   0.00000  -0.00420  -0.00419   0.04317
   D33       -3.08629  -0.00007   0.00000  -0.00337  -0.00338  -3.08966
   D34        1.01183   0.00019   0.00000   0.02460   0.02460   1.03643
   D35       -2.11153   0.00021   0.00000   0.03159   0.03159  -2.07994
   D36       -3.13025   0.00011   0.00000   0.02437   0.02438  -3.10587
   D37        0.02958   0.00013   0.00000   0.03137   0.03136   0.06094
   D38       -1.05910  -0.00015   0.00000   0.01964   0.01965  -1.03945
   D39        2.10072  -0.00013   0.00000   0.02664   0.02664   2.12736
   D40       -3.12816   0.00008   0.00000   0.00705   0.00704  -3.12111
   D41        0.04876   0.00001   0.00000   0.00421   0.00421   0.05297
   D42       -0.00229   0.00007   0.00000   0.00101   0.00101  -0.00129
   D43       -3.10857  -0.00001   0.00000  -0.00182  -0.00182  -3.11039
   D44        3.13276  -0.00009   0.00000  -0.00672  -0.00673   3.12602
   D45        0.00415  -0.00001   0.00000  -0.00260  -0.00261   0.00154
   D46        0.00498  -0.00007   0.00000  -0.00138  -0.00138   0.00360
   D47       -3.12362   0.00000   0.00000   0.00274   0.00275  -3.12088
   D48       -0.00138  -0.00004   0.00000  -0.00023  -0.00022  -0.00160
   D49        3.10743   0.00003   0.00000   0.00236   0.00236   3.10979
   D50        0.00469  -0.00001   0.00000  -0.00070  -0.00070   0.00399
   D51        3.14117   0.00002   0.00000   0.00175   0.00174  -3.14027
   D52       -0.00631   0.00006   0.00000   0.00137   0.00137  -0.00494
   D53        3.12217  -0.00002   0.00000  -0.00278  -0.00279   3.11938
   D54        3.14018   0.00002   0.00000  -0.00097  -0.00097   3.13921
   D55       -0.01452  -0.00005   0.00000  -0.00513  -0.00513  -0.01966
   D56        3.00098   0.00013   0.00000   0.00103   0.00103   3.00201
   D57        0.93212   0.00007   0.00000   0.00001   0.00002   0.93214
   D58       -1.07844  -0.00021   0.00000  -0.00488  -0.00488  -1.08331
   D59       -1.11893   0.00008   0.00000   0.00026   0.00026  -1.11868
   D60        3.09540   0.00002   0.00000  -0.00076  -0.00076   3.09464
   D61        1.08484  -0.00026   0.00000  -0.00565  -0.00565   1.07918
   D62        0.91753   0.00015   0.00000   0.00018   0.00018   0.91771
   D63       -1.15133   0.00010   0.00000  -0.00084  -0.00084  -1.15217
   D64        3.12130  -0.00018   0.00000  -0.00572  -0.00573   3.11557
   D65        1.24493  -0.00023   0.00000   0.00163   0.00160   1.24654
   D66       -3.01058   0.00013   0.00000   0.01793   0.01797  -2.99261
   D67       -2.97793  -0.00001   0.00000   0.00652   0.00648  -2.97145
   D68       -0.95025   0.00034   0.00000   0.02281   0.02285  -0.92740
   D69       -0.90566  -0.00018   0.00000   0.00426   0.00422  -0.90144
   D70        1.12201   0.00018   0.00000   0.02055   0.02059   1.14260
         Item               Value     Threshold  Converged?
 Maximum Force            0.014808     0.000450     NO 
 RMS     Force            0.002203     0.000300     NO 
 Maximum Displacement     0.139331     0.001800     NO 
 RMS     Displacement     0.038163     0.001200     NO 
 Predicted change in Energy=-6.777203D-04
 GradGradGradGradGradGradGradGradGradGradGradGradGradGradGradGradGradGrad

                          Input orientation:                          
 ---------------------------------------------------------------------
 Center     Atomic      Atomic             Coordinates (Angstroms)
 Number     Number       Type             X           Y           Z
 ---------------------------------------------------------------------
      1          8           0        1.488229    0.865162   -1.059968
      2          6           0        1.755595    0.221507   -0.057163
      3          7           0        0.795841   -0.128233    0.844224
      4          6           0       -0.550975    0.381548    0.745579
      5          6           0       -1.182149    0.305494    2.137567
      6          8           0       -2.376966    0.896821    2.278643
      7          8           0       -0.657480   -0.255479    3.061766
      8          6           0       -1.371850   -0.396276   -0.324056
      9          6           0       -2.745319    0.143459   -0.561009
     10          6           0       -3.202335    1.371872   -0.978286
     11          7           0       -4.576893    1.398212   -1.021975
     12          6           0       -4.958676    0.206461   -0.640289
     13          7           0       -3.892817   -0.590405   -0.346074
     14          6           0        3.166833   -0.227326    0.280809
     15          6           0        4.007800   -0.491744   -0.964177
     16          7           0        5.401042   -0.734211   -0.586231
     17          1           0        1.035861   -0.551367    1.728481
     18          1           0       -0.513033    1.427763    0.429078
     19          1           0       -2.683884    1.262932    1.432978
     20          1           0       -1.420808   -1.445539   -0.026152
     21          1           0       -0.783308   -0.347059   -1.239660
     22          1           0       -2.614277    2.225149   -1.274333
     23          1           0       -5.976590   -0.136191   -0.554905
     24          1           0       -3.929560   -1.539588   -0.015257
     25          1           0        3.139247   -1.109885    0.925419
     26          1           0        3.646248    0.567444    0.859016
     27          1           0        3.967477    0.393626   -1.596667
     28          1           0        3.550872   -1.307728   -1.541164
     29          1           0        5.495831   -1.635824   -0.132462
     30          1           0        5.985814   -0.770693   -1.412019
 ---------------------------------------------------------------------
                    Distance matrix (angstroms):
                    1          2          3          4          5
     1  O    0.000000
     2  C    1.221226   0.000000
     3  N    2.256587   1.362331   0.000000
     4  C    2.766268   2.447503   1.443441   0.000000
     5  C    4.203376   3.668001   2.402769   1.530292   0.000000
     6  O    5.107549   4.794799   3.629738   2.439269   1.340582
     7  O    4.780020   3.972174   2.654397   2.404551   1.201712
     8  C    3.211362   3.199031   2.477016   1.556588   2.566720
     9  C    4.323511   4.529700   3.819465   2.564957   3.122830
    10  C    4.718561   5.172318   4.642981   3.313935   3.863528
    11  N    6.088620   6.512749   5.888888   4.512856   4.764559
    12  C    6.494043   6.739562   5.952332   4.623755   4.689184
    13  N    5.619963   5.713776   4.859417   3.647508   3.784023
    14  C    2.410171   1.518970   2.439029   3.795898   4.758686
    15  C    2.863321   2.530579   3.703935   4.946548   6.098522
    16  N    4.253531   3.805600   4.860173   6.200415   7.199893
    17  H    3.160165   2.074579   1.009239   2.086738   2.412701
    18  H    2.557113   2.614986   2.075240   1.093699   2.150845
    19  H    4.876425   4.797297   3.793476   2.408040   1.915292
    20  H    3.856244   3.587414   2.721467   2.165739   2.793699
    21  H    2.581017   2.857900   2.623770   2.127445   3.462739
    22  H    4.327363   4.959018   4.653557   3.425803   4.168588
    23  H    7.548597   7.756441   6.915450   5.603268   5.516444
    24  H    6.018860   5.951823   5.006000   3.960362   3.948068
    25  H    3.250912   2.156980   2.542004   3.984275   4.706066
    26  H    2.903133   2.129231   2.934111   4.202869   5.001672
    27  H    2.580128   2.700392   4.036032   5.089466   6.361675
    28  H    3.034386   2.786367   3.830337   4.990791   6.207820
    29  H    4.814154   4.176687   5.031566   6.434642   7.315542
    30  H    4.798774   4.551357   5.695543   6.979434   8.070776
                    6          7          8          9         10
     6  O    0.000000
     7  O    2.213077   0.000000
     8  C    3.075125   3.463226   0.000000
     9  C    2.960888   4.200324   1.494617   0.000000
    10  C    3.393301   5.044460   2.627745   1.375493   0.000000
    11  N    3.998143   5.896901   3.738928   2.267500   1.375504
    12  C    3.957522   5.693758   3.650837   2.215672   2.134750
    13  N    3.376209   4.710941   2.528527   1.378951   2.174164
    14  C    5.999063   4.728624   4.581927   5.983284   6.686484
    15  C    7.294465   6.166755   5.418441   6.794898   7.447101
    16  N    8.447791   7.088212   6.786383   8.193542   8.866081
    17  H    3.747975   2.175454   3.167654   4.474581   5.384027
    18  H    2.678999   3.128132   2.152184   2.759132   3.035811
    19  H    0.971280   3.010787   2.749831   2.287570   2.468775
    20  H    3.422421   3.396197   1.091832   2.136661   3.466729
    21  H    4.057763   4.304241   1.089558   2.133229   2.979049
    22  H    3.800580   5.365102   3.052625   2.204413   1.077746
    23  H    4.696105   6.433310   4.617853   3.243355   3.185906
    24  H    3.688985   4.671565   2.818580   2.129065   3.151647
    25  H    6.023843   4.439496   4.735020   6.197455   7.070988
    26  H    6.197010   4.904221   5.244971   6.561125   7.136236
    27  H    7.451388   6.596405   5.545439   6.796823   7.262614
    28  H    7.388520   6.324905   5.152212   6.535187   7.287174
    29  H    8.614444   7.069065   6.981278   8.441923   9.242281
    30  H    9.291807   8.025805   7.447085   8.820010   9.444617
                   11         12         13         14         15
    11  N    0.000000
    12  C    1.308324   0.000000
    13  N    2.208936   1.362942   0.000000
    14  C    8.019035   8.189047   7.096723   0.000000
    15  C    8.790462   8.999449   7.925373   1.525493   0.000000
    16  N   10.212555  10.402477   9.298074   2.449567   1.463816
    17  H    6.547433   6.489980   5.347633   2.596498   4.010784
    18  H    4.315251   4.732744   4.012083   4.037662   5.105251
    19  H    3.102995   3.254112   2.839262   6.146483   7.321466
    20  H    4.363423   3.952566   2.635230   4.756545   5.591011
    21  H    4.181465   4.254331   3.244498   4.234356   4.801201
    22  H    2.144615   3.158056   3.228572   6.469493   7.164468
    23  H    2.128778   1.077428   2.142902   9.181989   9.999098
    24  H    3.172252   2.120950   1.005851   7.222775   8.062264
    25  H    8.343962   8.352278   7.164948   1.093249   2.169575
    26  H    8.476341   8.742021   7.722070   1.093536   2.139306
    27  H    8.622396   8.979192   8.019758   2.133430   1.088829
    28  H    8.582088   8.690037   7.573064   2.152751   1.098875
    29  H   10.557291  10.627729   9.449088   2.752978   2.053024
    30  H   10.790137  11.015092   9.937610   3.332801   2.047172
                   16         17         18         19         20
    16  N    0.000000
    17  H    4.944303   0.000000
    18  H    6.378186   2.829218   0.000000
    19  H    8.569236   4.149157   2.397411   0.000000
    20  H    6.881665   3.148571   3.047483   3.325693   0.000000
    21  H    6.230813   3.487259   2.451067   3.653389   1.756607
    22  H    8.571851   5.481737   2.820047   2.874063   4.056634
    23  H   11.393381   7.386521   5.767550   4.092815   4.769604
    24  H    9.382684   5.354681   4.547005   3.391638   2.510538
    25  H    2.746258   2.319716   4.474947   6.308465   4.670358
    26  H    2.619608   2.970157   4.269029   6.394036   5.523647
    27  H    2.085211   4.532548   5.024743   7.360369   5.906154
    28  H    2.159617   4.193798   5.280160   7.370617   5.199217
    29  H    1.013803   4.952827   6.768112   8.818227   6.920073
    30  H    1.012529   5.866249   7.103369   9.348438   7.565322
[...]
 003,-0.01586356,-0.39284038,0.15616145,0.00003884,0.00001416,-0.000018
 93,-0.00002218,0.00001686,0.00004374,0.00003519,-0.00000856,-0.0000139
 3,-0.00001765,0.00004277,0.00003641,-0.00000570,-0.00004258,-0.0000023
 5,-0.00023898,-0.00035215,0.00000804,-0.00033390,0.00011413,0.00013187
 ,0.00026766,0.00004406,0.00007283,0.00024388,0.00021073,0.00064385,0.0
 0019488,0.00008328,-0.00055682,0.01611526,0.40768207,-0.00000626,0.000
 01629,-0.00012135,-0.00003391,-0.00004465,0.00012211,-0.00007822,0.000
 04501,-0.00025721,-0.00010869,-0.00012752,0.00023543,-0.00125137,-0.00
 006027,0.00056976,0.00087792,0.00030011,-0.00025763,0.00034018,0.00012
 421,-0.00021115,0.00001646,-0.00096193,-0.00175284,-0.00168600,0.00011
 848,-0.00691595,-0.00006926,0.00082979,0.00177508,-0.00046286,0.002555
 87,0.00563828,0.00270528,-0.00025760,-0.00803335,0.00596280,0.15718960
 ,-0.06865292,0.00000407,0.00000543,-0.00000172,0.00001175,0.00001740,0
 .00002241,-0.00000890,-0.00000813,-0.00001995,-0.00010637,-0.00002572,
 0.00009632,-0.00001363,-0.00005142,-0.00008280,-0.00008539,-0.00030793
 ,0.00054919,0.00021768,0.00002765,0.00045604,0.00021996,0.00018341,0.0
 0004862,0.00002074,0.00065953,0.00177634,-0.00007542,-0.00053489,-0.00
 107980,-0.00638759,-0.15969315,0.07609817,-0.00745506,0.00101817,-0.00
 345969,0.00629458,0.02807916,-0.01636533,-0.00069107,-0.00180239,0.000
 54927,0.00051532,-0.00024419,-0.00018788,-0.00001940,0.00001612,-0.000
 07845,0.00010520,-0.00004613,-0.00000900,0.00003232,-0.00008349,0.0001
 0271,-0.00004391,-0.00000540,-0.00003218,0.00000887,-0.00000155,0.0000
 1596,0.00001231,0.00002457,-0.00000569,-0.00000818,-0.00001058,0.00000
 853,-0.00001352,0.00000126,-0.00000484,-0.00001549,-0.00000488,0.00001
 156,-0.04924126,-0.00814677,0.00830635,-0.00145571,-0.01772608,0.01081
 482,0.00158540,-0.00038923,-0.00059213,-0.00097949,0.00067979,0.000496
 18,0.00012897,0.00004338,-0.00016183,-0.00000747,0.00001001,-0.0000264
 5,-0.00002881,-0.00002669,0.00004355,0.00009425,0.00011870,0.00006282,
 0.00000729,-0.00001336,0.00000091,-0.00000120,-0.00000146,-0.00000190,
 -0.00000181,0.00000466,-0.00000325,0.05354588,0.00295479,0.00088055,0.
 00022233,-0.00576360,-0.00946956,0.00549748,-0.00006369,0.00162215,-0.
 00054601,0.00026034,0.00044311,-0.00021913,0.00019175,-0.00018763,0.00
 034381,-0.00011394,0.00008641,-0.00008009,-0.00013621,0.00013680,-0.00
 025441,0.00005047,-0.00001741,0.00004953,-0.00001758,0.00000507,-0.000
 02521,-0.00001774,-0.00002386,-0.00000185,0.00002174,0.00001480,-0.000
 01474,0.00002004,-0.00000936,0.00001024,0.00001439,0.00000564,-0.00001
 538,-0.00538359,-0.23203663,0.11122383,0.00055313,0.00435738,-0.002690
 58,-0.00089817,0.00082094,-0.00037790,0.00099611,-0.00037603,-0.000707
 67,-0.00021986,0.00008790,0.00002020,-0.00000422,-0.00000149,0.0000399
 2,0.00002046,0.00001919,-0.00001702,-0.00007417,-0.00007319,-0.0000601
 8,-0.00000829,0.00001117,0.00000304,0.00000230,0.00000163,0.00000316,-
 0.00000119,-0.00000619,0.00001032,0.00807377,0.25104352,-0.00266494,0.
 00089181,0.00082551,0.00071906,0.00693682,-0.00756144,0.00151319,-0.00
 114193,0.00009787,-0.00052542,-0.00047030,-0.00005462,-0.00004298,-0.0
 0002451,0.00012769,0.00004155,0.00000280,-0.00004423,0.00001135,-0.000
 01078,-0.00008066,-0.00003765,0.00006467,-0.00003026,-0.00001916,-0.00
 001020,0.00000504,0.00000964,0.00001789,-0.00000783,0.00002088,-0.0000
 1241,0.00001095,0.00000024,0.00000009,-0.00000191,-0.00000814,-0.00001
 750,0.00000624,0.00657709,0.11110318,-0.11331363,0.00120028,0.02498172
 ,-0.01560272,-0.00134578,-0.00070749,0.00132694,0.00036820,0.00026397,
 0.00077545,0.00021408,-0.00009145,-0.00003247,-0.00002159,0.00001115,-
 0.00000072,-0.00002787,-0.00000810,0.00002600,0.00002340,0.00004866,0.
 00000697,0.00000211,-0.00000171,-0.00000499,0.00000028,-0.00000057,-0.
 00000059,-0.00001035,0.00000277,0.00000133,-0.00910410,-0.12383103,0.1
 2570115,-0.00039936,0.00353884,0.00168468,-0.01340726,-0.02359106,-0.0
 1923472,-0.00111797,0.00209069,0.00105286,-0.00000805,0.00106579,0.000
 97837,-0.00018281,0.00024854,-0.00050509,-0.00015780,-0.00000889,0.000
 19260,0.00007408,-0.00001324,0.00026541,0.00022507,-0.00003708,0.00008
 873,0.00005348,-0.00000613,0.00001245,0.00000346,-0.00000801,0.0000128
 0,-0.00003298,0.00000371,-0.00000282,-0.00001521,0.00000702,-0.0000031
 7,0.00000500,0.00001527,-0.00000648,-0.09102795,-0.07840326,-0.0669699
 6,0.00747338,0.01409389,0.01242310,0.00169276,-0.00009013,-0.00039235,
 -0.00057397,-0.00060752,-0.00019051,-0.00025253,-0.00003713,0.00004445
 ,0.00005348,-0.00003378,0.00000207,0.00000831,-0.00001252,-0.00001135,
 0.00001862,-0.00000165,0.00000267,0.00000390,-0.00000728,0.00000052,-0
 .00000161,0.00000033,-0.00000030,0.00001002,0.00000454,-0.00000345,-0.
 00022886,-0.00044002,-0.00008992,0.09928219,0.00064183,-0.00245689,-0.
 00006556,0.00329416,0.00902818,0.00782142,-0.00005534,0.00049316,-0.00
 041749,-0.00018347,-0.00011592,-0.00022872,-0.00006753,0.00000425,-0.0
 0000018,0.00010790,-0.00003506,-0.00001921,0.00007791,-0.00000142,0.00
 002893,-0.00002031,-0.00003403,0.00001114,-0.00001270,0.00001766,0.000
 00779,-0.00000631,0.00000627,0.00000122,0.00001091,0.00000379,0.000002
 33,0.00001024,-0.00000435,-0.00000007,-0.00000045,-0.00000344,0.000007
 71,-0.07308668,-0.16784962,-0.10212898,-0.00163883,-0.00296672,-0.0035
 8773,-0.00025022,0.00008895,0.00118840,-0.00006530,-0.00043594,-0.0002
 3365,-0.00002585,0.00001916,0.00001329,-0.00002021,0.00000488,-0.00002
 146,0.00000850,0.00000616,-0.00001844,-0.00001794,-0.00002349,-0.00000
 117,-0.00000273,0.00000319,-0.00000348,0.00000071,-0.00000080,-0.00000
 143,-0.00000116,-0.00000774,-0.00000458,-0.01203428,-0.01977045,-0.016
 10408,0.08205289,0.18169376,-0.00076199,0.00191913,0.00077616,-0.00376
 401,-0.00435775,-0.00586105,0.00104197,0.00012331,-0.00004305,-0.00042
 958,-0.00004690,-0.00004709,-0.00001959,-0.00002552,0.00010776,0.00003
 445,0.00000712,-0.00003530,-0.00000275,-0.00000076,-0.00007481,0.00009
 341,-0.00002094,-0.00002211,-0.00000403,0.00002064,0.00002566,0.000000
 40,0.00000591,-0.00000126,0.00001840,0.00000064,0.00000331,0.00000964,
 -0.00000623,-0.00000109,0.00000529,-0.00000581,0.00000598,-0.06335140,
 -0.10338441,-0.12990872,-0.01046857,-0.02176761,-0.02113953,-0.0014455
 9,0.00130537,0.00276930,0.00012609,0.00008802,0.00013174,0.00008075,-0
 .00007932,-0.00001314,-0.00001746,0.00000232,-0.00000222,-0.00001057,0
 .00000099,-0.00000623,-0.00000062,-0.00000597,-0.00001699,0.00000022,-
 0.00000065,-0.00000406,0.00000148,-0.00000126,-0.00000153,-0.00000484,
 -0.00000439,-0.00000113,0.00761518,0.01149354,0.01031612,0.06849971,0.
 11416116,0.14584751,-0.00066882,0.00135440,-0.00159867,0.00053665,-0.0
 0236818,0.00263912,0.00047993,0.00076481,-0.00113107,-0.00018447,0.000
 10715,-0.00010192,-0.00001562,-0.00000968,0.00015616,0.00002736,-0.000
 00130,-0.00004523,0.00000705,0.00002970,-0.00012650,0.00000703,-0.0000
 0702,0.00002124,-0.00002363,0.00000820,-0.00000057,-0.00001428,-0.0000
 0730,-0.00000167,0.00002645,0.00000799,-0.00000515,0.00001808,-0.00000
 730,0.00000443,0.00000538,-0.00000027,-0.00000004,-0.00054229,-0.01717
 249,0.01069240,-0.04722467,-0.00421549,0.00197574,-0.00622506,0.031671
 63,-0.02139925,0.00038299,-0.00015412,-0.00011783,-0.00006711,0.000005
 86,0.00005534,-0.00001822,0.00000427,0.00000866,0.00001806,0.00001084,
 -0.00001901,-0.00004090,-0.00005270,-0.00001955,-0.00000636,0.00001036
 ,-0.00000110,0.00000182,0.00000060,0.00000017,-0.00000461,-0.00000868,
 0.00000199,-0.00255111,0.00116465,0.00346684,0.00082601,0.00038497,-0.
 00067459,0.05919072,0.00151766,-0.00003605,-0.00170880,0.00103069,-0.0
 0075412,0.00184525,-0.00019066,0.00014285,-0.00004693,0.00000926,-0.00
 008073,0.00002629,0.00000904,0.00000152,0.00000991,-0.00002267,0.00001
 130,0.00000290,-0.00001180,0.00000884,-0.00001994,-0.00000862,-0.00000
 967,0.00000492,0.00000187,-0.00000364,-0.00000158,-0.00000425,-0.00000
 862,0.00000076,-0.00000634,0.00000582,-0.00000637,0.00000151,-0.000001
 26,0.00000188,0.00000302,0.00000947,-0.00000499,-0.00192725,0.00432280
 ,-0.00201667,-0.00055747,-0.24449259,0.11583133,0.00339707,-0.00341565
 ,0.00309215,-0.00009520,0.00009832,-0.00007365,-0.00000152,0.00001423,
 0.00001176,0.00000427,-0.00000272,0.00000711,0.00000834,0.00000545,-0.
 00000906,-0.00000493,-0.00001637,0.00000859,-0.00000054,0.00000254,0.0
 0000333,0.00000009,0.00000055,0.00000070,0.00000331,-0.00000189,0.0000
 0140,0.00122921,0.00126636,-0.00116596,-0.00034598,0.00099116,0.000245
 27,-0.00376995,0.26124426,-0.00120632,-0.00124097,0.00141083,-0.000995
 93,0.00173427,-0.00143768,0.00001329,-0.00018943,0.00025414,-0.0000122
 6,-0.00002593,0.00005713,-0.00005493,0.00004225,-0.00006922,0.00003419
 ,-0.00002606,0.00001080,0.00003812,-0.00004179,0.00005494,0.00001484,-
 0.00001693,-0.00000419,0.00001091,0.00000640,0.00000873,0.00000397,0.0
 0000458,-0.00000332,-0.00000274,-0.00000494,0.00000142,-0.00000278,0.0
 0000226,-0.00000213,-0.00000149,-0.00000458,0.00000442,0.00324334,0.02
 393475,-0.01719836,-0.00173648,0.11242945,-0.11826778,-0.00161582,0.00
 745664,-0.00477084,-0.00021335,0.00011074,0.00017129,0.00004173,-0.000
 02726,0.00001423,0.00000233,0.00000475,-0.00000579,-0.00000689,-0.0000
 0310,-0.00000075,0.00002038,0.00001417,0.00001204,0.00000196,-0.000000
 26,0.00000248,-0.00000031,-0.00000046,-0.00000048,-0.00000024,0.000001
 38,-0.00000177,0.00313991,-0.00102598,-0.00384299,-0.00084952,0.000264
 74,0.00092442,0.00202297,-0.12646680,0.13091428,-0.00001013,0.00006015
 ,-0.00037886,0.00164828,0.00016107,0.00053142,-0.00026866,-0.00026849,
 0.00000735,0.00013623,-0.00002757,0.00002761,0.00006288,-0.00001823,-0
 .00002849,-0.00004507,0.00001917,0.00001572,-0.00003579,0.00000620,0.0
 0001815,-0.00002633,0.00000519,-0.00000967,0.00000885,-0.00000938,-0.0
 0000659,0.00000098,-0.00000279,0.00000442,-0.00001568,0.00000521,-0.00
 000035,-0.00000228,-0.00000089,0.00000070,-0.00000177,0.00000975,-0.00
 000221,0.00663511,0.01412277,0.01206522,-0.07753055,-0.06200333,-0.047
 09727,-0.02793989,-0.01887989,-0.02346050,0.00004598,0.00004951,-0.000
 03290,-0.00000699,0.00002390,-0.00000751,0.00001071,-0.00000536,0.0000
 0043,0.00000635,0.00000262,-0.00000079,-0.00000899,0.00000652,0.000003
 51,0.00000117,-0.00000368,-0.00000006,-0.00000058,-0.00000023,-0.00000
 037,0.00000608,0.00000123,-0.00000337,0.00061630,-0.00038667,-0.000899
 07,-0.00241855,0.00090082,0.00371933,0.00084100,-0.00179416,-0.0005249
 4,0.09596182,0.00060021,0.00041941,0.00146596,-0.00107550,0.00066986,-
 0.00189696,0.00051641,-0.00025769,0.00013907,-0.00005685,0.00000835,-0
 .00003842,-0.00003279,0.00002934,-0.00003237,0.00006161,-0.00002092,0.
 00000738,0.00004715,-0.00001718,0.00004939,0.00003319,-0.00001624,-0.0
 0005562,0.00001073,0.00001429,0.00003965,-0.00000236,0.00000517,0.0000
 1258,-0.00000728,0.00000862,0.00000745,0.00000409,-0.00000421,-0.00000
 536,0.00000070,0.00001164,0.00001158,-0.00111265,-0.00296363,-0.001420
 27,-0.06003013,-0.17909871,-0.09634287,0.00302588,0.01102877,0.0052661
 4,-0.00010928,-0.00007243,0.00003385,0.00003074,-0.00000512,-0.0000130
 3,-0.00001799,-0.00000693,-0.00003190,0.00001179,0.00000893,-0.0000151
 1,0.00002079,-0.00003644,0.00000111,0.00000022,-0.00000591,-0.00000977
 ,0.00000009,-0.00000178,-0.00000457,0.00000389,-0.00000522,-0.00001240
 ,0.00053194,0.00105616,-0.00020066,0.00068550,0.00137543,-0.00026371,-
 0.01001787,-0.02109672,-0.01661652,0.06840345,0.18643772,0.00042156,-0
 .00035432,0.00117079,-0.00198649,0.00057707,-0.00154080,0.00076617,0.0
 0024672,0.00019067,-0.00010343,0.00006333,-0.00005631,-0.00006264,0.00
 002894,-0.00001749,0.00007703,-0.00002650,-0.00000035,0.00006920,-0.00
 000125,0.00004013,0.00004499,-0.00004535,-0.00002633,0.00000943,0.0000
 2121,0.00004206,-0.00000563,0.00000559,0.00001078,-0.00000293,0.000012
 09,0.00000202,0.00001069,-0.00000828,-0.00000292,0.00000164,0.00001183
 ,0.00001085,-0.00632163,-0.02215829,-0.01789775,-0.04561070,-0.0957484
 9,-0.12804767,-0.01021423,-0.00309414,-0.00267374,-0.00012567,-0.00020
 508,-0.00000398,0.00002132,-0.00000588,-0.00000604,-0.00002163,-0.0000
 0555,-0.00003049,0.00002126,0.00001227,-0.00002743,0.00001041,-0.00004
 002,0.00001299,-0.00000016,-0.00000126,-0.00000728,0.00000056,-0.00000
 179,-0.00000390,0.00000474,-0.00001023,-0.00001004,-0.00098410,0.00054
 654,0.00101713,0.00316574,-0.00072071,-0.00389764,0.00587759,0.0111253
 1,0.01040085,0.05501730,0.10920867,0.14080258,-0.00014821,-0.00033062,
 0.00081413,-0.00083075,0.00018277,-0.00086081,0.00011700,-0.00013467,0
 .00010376,-0.00007104,0.00003313,-0.00001139,-0.00007341,0.00003573,0.
 00002822,0.00006361,-0.00003072,-0.00001608,0.00004037,-0.00002564,-0.
 00001019,0.00001799,0.00000122,-0.00000447,-0.00001093,0.00001051,0.00
 000497,-0.00000027,0.00000795,-0.00000514,0.00002188,-0.00000711,0.000
 00436,0.00000322,0.,-0.00000128,-0.00000006,-0.00001389,0.00000628,0.0
 0167139,0.00079992,-0.00097938,-0.00476749,0.03823888,-0.01682816,-0.0
 5783196,0.01984427,0.00705610,-0.00005748,0.00004201,0.00007927,0.0000
 1934,-0.00001520,0.00000470,-0.00001368,0.00000754,-0.00000437,-0.0000
 1000,-0.00000346,0.00000619,-0.00000359,0.00000538,-0.00000861,-0.0000
 0111,0.00000288,-0.00000178,0.00000084,-0.00000022,-0.00000036,-0.0000
 0898,-0.00000119,0.00000086,-0.00038645,-0.00055456,0.00084571,-0.0001
 1603,-0.00012726,-0.00000767,-0.00653836,0.00098553,-0.00140518,0.0016
 8523,-0.00048161,-0.00016590,0.06522740,-0.00020207,0.00026632,-0.0004
 6735,0.00058561,-0.00008244,0.00035884,-0.00001369,-0.00000890,-0.0000
 4606,0.00001487,0.00000517,-0.00001781,0.00002275,-0.00002297,0.000050
 79,-0.00001444,0.00000907,-0.00001530,-0.00001871,0.00001371,-0.000041
 38,-0.00000348,0.00000547,0.00000272,-0.00000323,-0.00000324,-0.000003
 91,-0.00000167,-0.00000413,-0.00000228,0.00000366,-0.00000002,-0.00000
 299,-0.00000004,0.00000007,0.00000128,0.00000114,0.00000015,-0.0000039
 7,0.00002738,0.00009841,0.00000547,-0.00478810,-0.00729714,-0.00198902
 ,0.03477945,-0.36152467,0.16305812,0.00002907,-0.00000323,0.00000828,-
 0.00000551,0.00000157,-0.00000284,0.00000100,0.00000148,0.00000963,-0.
 00000152,-0.00000040,0.00000342,-0.00000111,0.00000393,0.00000026,-0.0
 0000075,0.00000146,0.00000204,0.00000017,0.00000068,0.00000105,-0.0000
 0133,0.00000108,0.00000417,0.00062598,-0.00005068,-0.00036158,-0.00000
 125,-0.00026964,0.00010969,0.00188256,0.00174992,-0.00017856,-0.000194
 51,0.00240053,-0.00013864,-0.03335648,0.36906094,-0.00013014,0.0001299
 7,-0.00034216,0.00017864,0.00006304,0.00018578,-0.00000829,-0.00001474
 ,-0.00006826,0.00003852,0.00001508,-0.00001125,0.00005253,-0.00005230,
 0.00008541,-0.00004185,0.00002262,-0.00002477,-0.00004191,0.00003208,-
 0.00007164,-0.00000229,0.00000708,0.00001042,-0.00000404,-0.00000517,-
 0.00001289,-0.00000031,-0.00000568,-0.00000598,0.00000269,-0.00000204,
 -0.00000565,-0.00000148,0.00000080,0.00000284,0.00000074,-0.00000276,-
 0.00000798,-0.00004578,-0.00132026,0.00135901,-0.00505662,0.01106978,-
 0.00709069,0.00498629,0.11310820,-0.07628503,0.00007141,-0.00001703,0.
 00002035,-0.00001031,0.00000190,-0.00000187,0.00000654,0.00000327,0.00
 002042,-0.00000382,-0.00000170,0.00000815,-0.00000229,0.00001144,-0.00
 000236,-0.00000027,0.00000207,0.00000470,0.00000002,0.00000108,0.00000
 262,-0.00000104,0.00000355,0.00000923,0.00012408,0.00058053,0.00022721
 ,-0.00010369,-0.00029775,-0.00005097,-0.00207606,-0.00058225,0.0005981
 4,0.00174919,0.00042437,0.00013279,0.00275517,-0.15546612,0.09592147,0
 .00010075,0.00007135,-0.00063939,0.00012121,-0.00038792,0.00261876,-0.
 00071999,0.00025875,-0.00025611,-0.00000152,-0.00015264,0.00010913,-0.
 00000648,0.00000856,-0.00007967,-0.00004732,0.00001735,0.00003127,-0.0
 0001654,-0.00000657,0.00003074,-0.00003497,0.00002707,0.00001850,-0.00
 000035,-0.00001671,-0.00001880,0.00000136,-0.00000792,-0.00000139,-0.0
 0000829,-0.00000367,-0.00000331,-0.00000993,0.00000644,0.00000072,0.00
 000052,0.00000215,-0.00000840,-0.00608095,0.00172254,-0.00414188,-0.02
 356376,-0.00017234,0.03103947,-0.17266545,0.00061978,0.16759034,0.0000
 1722,0.00006705,-0.00004800,-0.00000215,0.00000546,-0.00000301,0.00001
 514,-0.00000371,0.00001194,-0.00000440,-0.00000483,0.00000613,0.000002
 00,0.00001158,0.00000658,0.00000012,0.00000046,0.00000442,-0.00000084,
 0.00000147,0.00000196,0.00000070,0.00000518,0.00000424,0.00018213,-0.0
 0024044,-0.00021694,0.00021119,0.00012572,-0.00028310,0.00175698,0.000
 54046,0.00004123,0.00064429,-0.00104410,0.00008551,0.00200156,0.000634
 25,-0.00243565,0.19810774,0.00007184,-0.00034876,0.00029236,0.00007139
 ,0.00097075,-0.00120005,0.00079130,-0.00021759,0.00009074,-0.00006465,
 0.00011088,-0.00014746,-0.00008952,0.00003346,0.00013660,0.00012406,-0
 .00005658,-0.00006027,0.00006233,-0.00001752,-0.00006563,0.00002935,-0
 .00001909,-0.00000901,-0.00001981,0.00002782,0.00001395,-0.00000252,0.
 00001569,-0.00000949,0.00003896,-0.00001036,0.00000607,0.00001278,-0.0
 0000280,-0.00000136,-0.00000171,-0.00002609,0.00001305,0.00356675,-0.0
 0078835,0.00065761,0.00008238,-0.00150328,-0.00931580,0.02250198,-0.03
 502248,0.00904386,-0.00004856,-0.00004300,0.00009948,0.00001523,-0.000
 01817,0.00001451,-0.00003057,0.00001806,-0.00000921,-0.00000375,-0.000
 00108,0.00000277,-0.00001308,-0.00000354,-0.00001392,-0.00000285,0.000
 00708,-0.00000356,0.00000151,-0.00000072,-0.00000077,-0.00001261,-0.00
 000434,0.00000152,0.00007973,0.00016369,-0.00016528,-0.00016210,0.0002
 3951,0.00048812,0.00038435,0.00004463,-0.00013681,-0.00018238,0.000134
 91,0.00070624,-0.02511510,-0.00435250,0.03229093,-0.00208476,0.0406697
 9,0.00015155,-0.00021301,0.00021926,-0.00046309,0.00050394,0.00004969,
 0.00018378,-0.00005694,-0.00004277,-0.00009395,0.00001053,-0.00006718,
 -0.00005444,0.00002013,0.00005167,0.00005867,-0.00002461,-0.00002314,0
 .00003507,-0.00001113,-0.00002629,0.00000482,-0.00000265,0.00000306,-0
 .00001178,0.00000878,0.00000335,-0.00000355,0.00000361,-0.00000375,0.0
 0001920,-0.00000286,0.00000079,0.00000575,-0.00000140,-0.00000002,0.00
 000113,-0.00000846,0.00000403,-0.00026701,-0.00026918,0.00038492,-0.01
 488680,-0.00286534,0.00721842,0.20087705,0.04015464,-0.28953381,-0.000
 01901,0.00001009,0.00002517,0.00000784,-0.00000907,0.00001266,-0.00001
 436,0.00000700,-0.00000296,-0.00000165,0.00000029,-0.00000042,-0.00000
 753,-0.00000447,-0.00000627,-0.00000201,0.00000459,-0.00000069,0.00000
 087,0.00000011,-0.00000006,-0.00000657,-0.00000318,0.00000128,-0.00027
 503,-0.00017730,0.00010745,-0.00006283,0.00034655,0.00021996,0.0003955
 6,-0.00011585,0.00076516,-0.00070740,0.00029233,0.00041652,0.00860103,
 -0.00487797,-0.01460705,-0.19346531,-0.03271916,0.29483104\\0.00000006
 ,0.00000142,-0.00000186,0.00000039,-0.00000084,0.00000152,0.00000018,-
 0.00000017,-0.00000039,-0.00000031,-0.00000081,0.00000010,-0.00000096,
 0.00000036,-0.00000053,0.00000092,-0.00000073,0.00000209,0.00000165,-0
 .00000155,0.00000132,-0.00000079,-0.00000009,0.00000041,0.00000087,-0.
 00000036,-0.00000011,-0.00000081,0.00000034,-0.00000046,-0.00000070,0.
 00000096,0.00000035,-0.00000010,0.00000030,0.00000046,0.00000031,-0.00
 000044,-0.00000007,-0.00000018,0.00000019,-0.00000026,0.00000034,-0.00
 000003,-0.00000049,-0.00000016,0.00000056,-0.00000037,0.00000013,-0.00
 000055,0.00000010,0.00000020,0.00000047,0.00000011,-0.00000032,0.00000
 071,0.00000074,0.00000005,-0.00000054,0.00000014,-0.00000021,0.0000005
 3,-0.00000045,0.00000021,0.00000075,0.00000047,-0.00000038,0.00000007,
 0.00000062,-0.00000013,-0.00000027,0.00000026,0.,-0.00000054,-0.000000
 34,0.00000030,-0.00000002,-0.00000006,-0.00000020,0.00000050,-0.000000
 59,-0.00000039,0.,-0.00000085,-0.00000006,-0.00000049,-0.00000081,0.00
 000008,0.00000026,-0.00000107\\\@


 THERE'S A SUCKER BORN EVERY MINUTE

              -- PHINEAS TAYLOR (P.T.) BARNUM
 Job cpu time:       0 days 13 hours 22 minutes 41.7 seconds.
 File lengths (MBytes):  RWF=    973 Int=      0 D2E=      0 Chk=     36 Scr=      1
 Normal termination of Gaussian 09 at Thu Jul 29 06:15:09 2021.
